 Entering Gaussian System, Link 0=g16
 Initial command:
 /opt/g16/l1.exe "/scratch/alongd/g16/a4346-34520/Gau-7326.inp" -scrdir="/scratch/alongd/g16/a4346-34520/"
 Entering Link 1 = /opt/g16/l1.exe PID=      7328.
  
 Copyright (c) 1988-2017, Gaussian, Inc.  All Rights Reserved.
  
 This is part of the Gaussian(R) 16 program.  It is based on
 the Gaussian(R) 09 system (copyright 2009, Gaussian, Inc.),
 the Gaussian(R) 03 system (copyright 2003, Gaussian, Inc.),
 the Gaussian(R) 98 system (copyright 1998, Gaussian, Inc.),
 the Gaussian(R) 94 system (copyright 1995, Gaussian, Inc.),
 the Gaussian 92(TM) system (copyright 1992, Gaussian, Inc.),
 the Gaussian 90(TM) system (copyright 1990, Gaussian, Inc.),
 the Gaussian 88(TM) system (copyright 1988, Gaussian, Inc.),
 the Gaussian 86(TM) system (copyright 1986, Carnegie Mellon
 University), and the Gaussian 82(TM) system (copyright 1983,
 Carnegie Mellon University). Gaussian is a federally registered
 trademark of Gaussian, Inc.
  
 This software contains proprietary and confidential information,
 including trade secrets, belonging to Gaussian, Inc.
  
 This software is provided under written license and may be
 used, copied, transmitted, or stored only in accord with that
 written license.
  
 The following legend is applicable only to US Government
 contracts under FAR:
  
                    RESTRICTED RIGHTS LEGEND
  
 Use, reproduction and disclosure by the US Government is
 subject to restrictions as set forth in subparagraphs (a)
 and (c) of the Commercial Computer Software - Restricted
 Rights clause in FAR 52.227-19.
  
 Gaussian, Inc.
 340 Quinnipiac St., Bldg. 40, Wallingford CT 06492
  
  
 ---------------------------------------------------------------
 Warning -- This program may not be used in any manner that
 competes with the business of Gaussian, Inc. or will provide
 assistance to any competitor of Gaussian, Inc.  The licensee
 of this program is prohibited from giving any competitor of
 Gaussian, Inc. access to this program.  By using this program,
 the user acknowledges that Gaussian, Inc. is engaged in the
 business of creating and licensing software in the field of
 computational chemistry and represents and warrants to the
 licensee that it is not a competitor of Gaussian, Inc. and that
 it will not use this program in any manner prohibited above.
 ---------------------------------------------------------------
  

 Cite this work as:
 Gaussian 16, Revision B.01,
 M. J. Frisch, G. W. Trucks, H. B. Schlegel, G. E. Scuseria, 
 M. A. Robb, J. R. Cheeseman, G. Scalmani, V. Barone, 
 G. A. Petersson, H. Nakatsuji, X. Li, M. Caricato, A. V. Marenich, 
 J. Bloino, B. G. Janesko, R. Gomperts, B. Mennucci, H. P. Hratchian, 
 J. V. Ortiz, A. F. Izmaylov, J. L. Sonnenberg, D. Williams-Young, 
 F. Ding, F. Lipparini, F. Egidi, J. Goings, B. Peng, A. Petrone, 
 T. Henderson, D. Ranasinghe, V. G. Zakrzewski, J. Gao, N. Rega, 
 G. Zheng, W. Liang, M. Hada, M. Ehara, K. Toyota, R. Fukuda, 
 J. Hasegawa, M. Ishida, T. Nakajima, Y. Honda, O. Kitao, H. Nakai, 
 T. Vreven, K. Throssell, J. A. Montgomery, Jr., J. E. Peralta, 
 F. Ogliaro, M. J. Bearpark, J. J. Heyd, E. N. Brothers, K. N. Kudin, 
 V. N. Staroverov, T. A. Keith, R. Kobayashi, J. Normand, 
 K. Raghavachari, A. P. Rendell, J. C. Burant, S. S. Iyengar, 
 J. Tomasi, M. Cossi, J. M. Millam, M. Klene, C. Adamo, R. Cammi, 
 J. W. Ochterski, R. L. Martin, K. Morokuma, O. Farkas, 
 J. B. Foresman, and D. J. Fox, Gaussian, Inc., Wallingford CT, 2016.
 
 ******************************************
 Gaussian 16:  ES64L-G16RevB.01 20-Dec-2017
                 1-Mar-2020 
 ******************************************
 %chk=check.chk
 %mem=14336mb
 %NProcShared=36
 Will use up to   36 processors via shared memory.
 ----------------------------------------------------------------------
 #P opt=(modredundant, calcfc, noeigentest, maxStep=5) scf=(tight, dire
 ct) integral=(grid=ultrafine, Acc2E=12) guess=read ub3lyp/6-31g(d,p) s
 cf=xqc iop(2/9=2000)
 ----------------------------------------------------------------------
 1/8=5,10=4,11=1,18=120,19=15,26=4,38=1/1,3;
 2/9=2000,12=2,17=6,18=5,40=1/2;
 3/5=1,6=6,7=101,11=2,25=1,27=12,30=1,71=2,74=-5,75=-5,116=2,140=1/1,2,3;
 4/5=1/1;
 5/5=2,8=3,13=1,32=2,38=6,87=12/2,8;
 8/6=4,10=90,11=11,87=12/1;
 11/6=1,8=1,9=11,15=111,16=1,87=12/1,2,10;
 10/6=1,13=1,87=12/2;
 6/7=2,8=2,9=2,10=2,28=1,87=12/1;
 7/10=1,18=20,25=1,87=12/1,2,3,16;
 1/8=5,10=4,11=1,18=20,19=15,26=4/3(2);
 2/9=2000/2;
 99//99;
 2/9=2000/2;
 3/5=1,6=6,7=101,11=2,25=1,27=12,30=1,71=1,74=-5,75=-5,116=2/1,2,3;
 4/5=5,16=3,69=1/1;
 5/5=2,8=3,13=1,32=2,38=5,87=12/2,8;
 7/87=12/1,2,3,16;
 1/8=5,11=1,18=20,19=15,26=4/3(-5);
 2/9=2000/2;
 6/7=2,8=2,9=2,10=2,19=2,28=1,87=12/1;
 99/9=1/99;
 Leave Link    1 at Sun Mar  1 23:28:56 2020, MaxMem=  1879048192 cpu:               5.0 elap:               0.2
 (Enter /opt/g16/l101.exe)
 ----
 name
 ----
 Symbolic Z-matrix:
 Charge =  0 Multiplicity = 2
 N                     2.41574   0.57534   0.17236 
 C                     1.12588   0.26835   0.08033 
 C                     0.18306   1.33573   0.01044 
 H                     0.57073   2.34573   0.03625 
 C                    -1.16324   1.08185  -0.08575 
 C                    -1.63238  -0.23282  -0.11679 
 C                    -0.73438  -1.29985  -0.05012 
 C                     0.6155   -1.06423   0.04637 
 H                     2.96923  -0.28085   0.21386 
 H                    -1.86602   1.90373  -0.1379 
 H                    -2.69458  -0.42623  -0.19269 
 H                    -1.10558  -2.31666  -0.07472 
 H                     1.31604  -1.89009   0.09836 
 
 The following ModRedundant input section has been read:
 D       9       1       2       3 S  36 10.000                                
 
 ITRead=  0  0  0  0  0  0  0  0  0  0  0  0  0
 MicOpt= -1 -1 -1 -1 -1 -1 -1 -1 -1 -1 -1 -1 -1
 NAtoms=     13 NQM=       13 NQMF=       0 NMMI=      0 NMMIF=      0
                NMic=       0 NMicF=      0.
                    Isotopes and Nuclear Properties:
 (Nuclear quadrupole moments (NQMom) in fm**2, nuclear magnetic moments (NMagM)
  in nuclear magnetons)

  Atom         1           2           3           4           5           6           7           8           9          10
 IAtWgt=          14          12          12           1          12          12          12          12           1           1
 AtmWgt=  14.0030740  12.0000000  12.0000000   1.0078250  12.0000000  12.0000000  12.0000000  12.0000000   1.0078250   1.0078250
 NucSpn=           2           0           0           1           0           0           0           0           1           1
 AtZEff=  -0.0000000  -0.0000000  -0.0000000  -0.0000000  -0.0000000  -0.0000000  -0.0000000  -0.0000000  -0.0000000  -0.0000000
 NQMom=    2.0440000   0.0000000   0.0000000   0.0000000   0.0000000   0.0000000   0.0000000   0.0000000   0.0000000   0.0000000
 NMagM=    0.4037610   0.0000000   0.0000000   2.7928460   0.0000000   0.0000000   0.0000000   0.0000000   2.7928460   2.7928460
 AtZNuc=   7.0000000   6.0000000   6.0000000   1.0000000   6.0000000   6.0000000   6.0000000   6.0000000   1.0000000   1.0000000

  Atom        11          12          13
 IAtWgt=           1           1           1
 AtmWgt=   1.0078250   1.0078250   1.0078250
 NucSpn=           1           1           1
 AtZEff=  -0.0000000  -0.0000000  -0.0000000
 NQMom=    0.0000000   0.0000000   0.0000000
 NMagM=    2.7928460   2.7928460   2.7928460
 AtZNuc=   1.0000000   1.0000000   1.0000000
 Leave Link  101 at Sun Mar  1 23:28:57 2020, MaxMem=  1879048192 cpu:              22.8 elap:               0.8
 (Enter /opt/g16/l103.exe)

 GradGradGradGradGradGradGradGradGradGradGradGradGradGradGradGradGradGrad
 Berny optimization.
 Initialization pass.
                           ----------------------------
                           !    Initial Parameters    !
                           ! (Angstroms and Degrees)  !
 --------------------------                            --------------------------
 ! Name  Definition              Value          Derivative Info.                !
 --------------------------------------------------------------------------------
 ! R1    R(1,2)                  1.3291         calculate D2E/DX2 analytically  !
 ! R2    R(1,9)                  1.0204         calculate D2E/DX2 analytically  !
 ! R3    R(2,3)                  1.4259         calculate D2E/DX2 analytically  !
 ! R4    R(2,8)                  1.4274         calculate D2E/DX2 analytically  !
 ! R5    R(3,4)                  1.0821         calculate D2E/DX2 analytically  !
 ! R6    R(3,5)                  1.3734         calculate D2E/DX2 analytically  !
 ! R7    R(5,6)                  1.3962         calculate D2E/DX2 analytically  !
 ! R8    R(5,10)                 1.0826         calculate D2E/DX2 analytically  !
 ! R9    R(6,7)                  1.3962         calculate D2E/DX2 analytically  !
 ! R10   R(6,11)                 1.0823         calculate D2E/DX2 analytically  !
 ! R11   R(7,8)                  1.3737         calculate D2E/DX2 analytically  !
 ! R12   R(7,12)                 1.0827         calculate D2E/DX2 analytically  !
 ! R13   R(8,13)                 1.0842         calculate D2E/DX2 analytically  !
 ! A1    A(2,1,9)              109.5995         calculate D2E/DX2 analytically  !
 ! A2    A(1,2,3)              118.1775         calculate D2E/DX2 analytically  !
 ! A3    A(1,2,8)              124.3534         calculate D2E/DX2 analytically  !
 ! A4    A(3,2,8)              117.4691         calculate D2E/DX2 analytically  !
 ! A5    A(2,3,4)              117.4274         calculate D2E/DX2 analytically  !
 ! A6    A(2,3,5)              120.8791         calculate D2E/DX2 analytically  !
 ! A7    A(4,3,5)              121.6936         calculate D2E/DX2 analytically  !
 ! A8    A(3,5,6)              120.3314         calculate D2E/DX2 analytically  !
 ! A9    A(3,5,10)             119.958          calculate D2E/DX2 analytically  !
 ! A10   A(6,5,10)             119.7107         calculate D2E/DX2 analytically  !
 ! A11   A(5,6,7)              120.1605         calculate D2E/DX2 analytically  !
 ! A12   A(5,6,11)             119.9719         calculate D2E/DX2 analytically  !
 ! A13   A(7,6,11)             119.8675         calculate D2E/DX2 analytically  !
 ! A14   A(6,7,8)              120.2849         calculate D2E/DX2 analytically  !
 ! A15   A(6,7,12)             119.7434         calculate D2E/DX2 analytically  !
 ! A16   A(8,7,12)             119.9717         calculate D2E/DX2 analytically  !
 ! A17   A(2,8,7)              120.8751         calculate D2E/DX2 analytically  !
 ! A18   A(2,8,13)             118.6172         calculate D2E/DX2 analytically  !
 ! A19   A(7,8,13)             120.5077         calculate D2E/DX2 analytically  !
 ! D1    D(9,1,2,3)           -180.0            Scan                            !
 ! D2    D(9,1,2,8)              0.0            calculate D2E/DX2 analytically  !
 ! D3    D(1,2,3,4)              0.0            calculate D2E/DX2 analytically  !
 ! D4    D(1,2,3,5)           -180.0            calculate D2E/DX2 analytically  !
 ! D5    D(8,2,3,4)            180.0            calculate D2E/DX2 analytically  !
 ! D6    D(8,2,3,5)              0.0            calculate D2E/DX2 analytically  !
 ! D7    D(1,2,8,7)            179.9999         calculate D2E/DX2 analytically  !
 ! D8    D(1,2,8,13)             0.0            calculate D2E/DX2 analytically  !
 ! D9    D(3,2,8,7)             -0.0001         calculate D2E/DX2 analytically  !
 ! D10   D(3,2,8,13)          -180.0            calculate D2E/DX2 analytically  !
 ! D11   D(2,3,5,6)              0.0            calculate D2E/DX2 analytically  !
 ! D12   D(2,3,5,10)          -180.0            calculate D2E/DX2 analytically  !
 ! D13   D(4,3,5,6)           -180.0            calculate D2E/DX2 analytically  !
 ! D14   D(4,3,5,10)             0.0            calculate D2E/DX2 analytically  !
 ! D15   D(3,5,6,7)              0.0001         calculate D2E/DX2 analytically  !
 ! D16   D(3,5,6,11)           180.0            calculate D2E/DX2 analytically  !
 ! D17   D(10,5,6,7)          -180.0            calculate D2E/DX2 analytically  !
 ! D18   D(10,5,6,11)            0.0            calculate D2E/DX2 analytically  !
 ! D19   D(5,6,7,8)             -0.0001         calculate D2E/DX2 analytically  !
 ! D20   D(5,6,7,12)           180.0            calculate D2E/DX2 analytically  !
 ! D21   D(11,6,7,8)           180.0            calculate D2E/DX2 analytically  !
 ! D22   D(11,6,7,12)            0.0001         calculate D2E/DX2 analytically  !
 ! D23   D(6,7,8,2)              0.0001         calculate D2E/DX2 analytically  !
 ! D24   D(6,7,8,13)          -180.0            calculate D2E/DX2 analytically  !
 ! D25   D(12,7,8,2)          -180.0            calculate D2E/DX2 analytically  !
 ! D26   D(12,7,8,13)           -0.0001         calculate D2E/DX2 analytically  !
 --------------------------------------------------------------------------------
 Trust Radius=5.00D-02 FncErr=1.00D-07 GrdErr=1.00D-06 EigMax=2.50D+02 EigMin=1.00D-04
 Number of optimizations in scan=  37
 Number of steps in this run=     68 maximum allowed number of steps=    100.
 GradGradGradGradGradGradGradGradGradGradGradGradGradGradGradGradGradGrad

 Leave Link  103 at Sun Mar  1 23:28:57 2020, MaxMem=  1879048192 cpu:               2.5 elap:               0.1
 (Enter /opt/g16/l202.exe)
                          Input orientation:                          
 ---------------------------------------------------------------------
 Center     Atomic      Atomic             Coordinates (Angstroms)
 Number     Number       Type             X           Y           Z
 ---------------------------------------------------------------------
      1          7           0        2.415741    0.575336    0.172363
      2          6           0        1.125883    0.268351    0.080331
      3          6           0        0.183058    1.335734    0.010444
      4          1           0        0.570728    2.345731    0.036246
      5          6           0       -1.163239    1.081846   -0.085749
      6          6           0       -1.632380   -0.232822   -0.116786
      7          6           0       -0.734381   -1.299846   -0.050119
      8          6           0        0.615504   -1.064231    0.046368
      9          1           0        2.969228   -0.280847    0.213855
     10          1           0       -1.866021    1.903726   -0.137896
     11          1           0       -2.694582   -0.426226   -0.192694
     12          1           0       -1.105584   -2.316662   -0.074724
     13          1           0        1.316041   -1.890089    0.098362
 ---------------------------------------------------------------------
                    Distance matrix (angstroms):
                    1          2          3          4          5
     1  N    0.000000
     2  C    1.329076   0.000000
     3  C    2.364169   1.425872   0.000000
     4  H    2.560644   2.150732   1.082150   0.000000
     5  C    3.623848   2.435043   1.373400   2.149170   0.000000
     6  C    4.138117   2.810346   2.402576   3.395002   1.396212
     7  C    3.672748   2.436563   2.791352   3.873112   2.420257
     8  C    2.438218   1.427380   2.438879   3.410271   2.790525
     9  H    1.020352   1.928048   3.227608   3.561356   4.361649
    10  H    4.493814   3.416660   2.131512   2.482628   1.082640
    11  H    5.220325   3.892677   3.380322   4.289337   2.151913
    12  H    4.563380   3.418447   3.873996   4.955829   3.399015
    13  H    2.700581   2.166875   3.420134   4.301339   3.874677
                    6          7          8          9         10
     6  C    0.000000
     7  C    1.396204   0.000000
     8  C    2.402258   1.373686   0.000000
     9  H    4.613721   3.850294   2.486314   0.000000
    10  H    2.149389   3.398704   3.873072   5.317492   0.000000
    11  H    1.082331   2.150797   3.379478   5.680243   2.473498
    12  H    2.149808   1.082734   2.131992   4.564199   4.288815
    13  H    3.389101   2.138846   1.084203   2.309984   4.957254
                   11         12         13
    11  H    0.000000
    12  H    2.472363   0.000000
    13  H    4.279335   2.464993   0.000000
 Stoichiometry    C6H6N(2)
 Framework group  CS[SG(C6H6N)]
 Deg. of freedom    23
 Full point group                 CS      NOp   2
 Largest Abelian subgroup         CS      NOp   2
 Largest concise Abelian subgroup C1      NOp   1
                         Standard orientation:                         
 ---------------------------------------------------------------------
 Center     Atomic      Atomic             Coordinates (Angstroms)
 Number     Number       Type             X           Y           Z
 ---------------------------------------------------------------------
      1          7           0        1.908086   -1.359120    0.000000
      2          6           0        0.810480   -0.609651    0.000000
      3          6           0        0.963201    0.808018   -0.000000
      4          1           0        1.971575    1.200737   -0.000000
      5          6           0       -0.133247    1.635080   -0.000000
      6          6           0       -1.421860    1.097599   -0.000000
      7          6           0       -1.604573   -0.286598   -0.000000
      8          6           0       -0.519213   -1.128624    0.000000
      9          1           0        1.648705   -2.345953    0.000000
     10          1           0       -0.000000    2.709488   -0.000000
     11          1           0       -2.281828    1.754787   -0.000000
     12          1           0       -2.606873   -0.696116   -0.000000
     13          1           0       -0.656916   -2.204047    0.000000
 ---------------------------------------------------------------------
 Rotational constants (GHZ):           5.5990934           2.7868411           1.8607090
 Leave Link  202 at Sun Mar  1 23:28:57 2020, MaxMem=  1879048192 cpu:               4.1 elap:               0.1
 (Enter /opt/g16/l301.exe)
 Standard basis: 6-31G(d,p) (6D, 7F)
 Ernie: Thresh=  0.10000D-02 Tol=  0.10000D-05 Strict=F.
 There are   101 symmetry adapted cartesian basis functions of A'  symmetry.
 There are    34 symmetry adapted cartesian basis functions of A"  symmetry.
 There are   101 symmetry adapted basis functions of A'  symmetry.
 There are    34 symmetry adapted basis functions of A"  symmetry.
   135 basis functions,   238 primitive gaussians,   135 cartesian basis functions
    25 alpha electrons       24 beta electrons
       nuclear repulsion energy       262.2145123048 Hartrees.
 IExCor=  402 DFT=T Ex+Corr=B3LYP ExCW=0 ScaHFX=  0.200000
 ScaDFX=  0.800000  0.720000  1.000000  0.810000 ScalE2=  1.000000  1.000000
 IRadAn=      5 IRanWt=     -1 IRanGd=            0 ICorTp=0 IEmpDi=  4
 NAtoms=   13 NActive=   13 NUniq=   13 SFac= 1.00D+00 NAtFMM=   60 NAOKFM=F Big=F
 Integral buffers will be    131072 words long.
 Raffenetti 2 integral format.
 Two-electron integral symmetry is turned on.
 Leave Link  301 at Sun Mar  1 23:28:57 2020, MaxMem=  1879048192 cpu:               3.1 elap:               0.1
 (Enter /opt/g16/l302.exe)
 NPDir=0 NMtPBC=     1 NCelOv=     1 NCel=       1 NClECP=     1 NCelD=      1
         NCelK=      1 NCelE2=     1 NClLst=     1 CellRange=     0.0.
 One-electron integrals computed using PRISM.
 One-electron integral symmetry used in STVInt
 NBasis=   135 RedAO= T EigKep=  4.63D-04  NBF=   101    34
 NBsUse=   135 1.00D-06 EigRej= -1.00D+00 NBFU=   101    34
 Precomputing XC quadrature grid using
 IXCGrd= 4 IRadAn=           5 IRanWt=          -1 IRanGd=           0 AccXCQ= 1.00D-12.
 Generated NRdTot=       0 NPtTot=           0 NUsed=           0 NTot=          32
 NSgBfM=   135   135   135   135   135 MxSgAt=    13 MxSgA2=    13.
 Leave Link  302 at Sun Mar  1 23:28:59 2020, MaxMem=  1879048192 cpu:              73.5 elap:               2.1
 (Enter /opt/g16/l303.exe)
 DipDrv:  MaxL=1.
 Leave Link  303 at Sun Mar  1 23:28:59 2020, MaxMem=  1879048192 cpu:               5.5 elap:               0.2
 (Enter /opt/g16/l401.exe)
 Initial guess from the checkpoint file:  "check.chk"
 B after Tr=     0.000000   -0.000000    0.000000
         Rot=   -0.000000    0.894743    0.446582   -0.000000 Ang= 180.00 deg.
 Guess basis will be translated and rotated to current coordinates.
 GSVD:  received Info=                   1 from GESDD.
 JPrj=2 DoOrth=T DoCkMO=T.
 Initial guess orbital symmetries:
 Alpha Orbitals:
       Occupied  (A') (A') (A') (A') (A') (A') (A') (A') (A') (A')
                 (A') (A') (A') (A') (A') (A') (A') (A') (A") (A')
                 (A') (A") (A') (A") (A")
       Virtual   (A") (A") (A') (A') (A') (A') (A') (A') (A') (A")
                 (A') (A') (A") (A') (A') (A') (A") (A") (A') (A')
                 (A') (A") (A') (A") (A') (A') (A') (A') (A") (A')
                 (A') (A") (A') (A') (A') (A') (A') (A') (A') (A")
                 (A') (A') (A') (A") (A') (A') (A') (A') (A') (A")
                 (A') (A') (A") (A") (A') (A") (A') (A') (A') (A")
                 (A') (A') (A') (A") (A") (A') (A') (A') (A") (A')
                 (A') (A") (A') (A") (A') (A') (A') (A') (A") (A')
                 (A') (A') (A") (A") (A') (A") (A') (A') (A") (A')
                 (A') (A") (A") (A') (A') (A') (A") (A') (A') (A')
                 (A') (A') (A') (A') (A') (A') (A') (A') (A') (A')
 Beta  Orbitals:
       Occupied  (A') (A') (A') (A') (A') (A') (A') (A') (A') (A')
                 (A') (A') (A') (A') (A') (A') (A') (A') (A") (A')
                 (A') (A") (A') (A")
       Virtual   (A") (A") (A") (A') (A') (A') (A') (A') (A') (A')
                 (A") (A') (A') (A") (A') (A') (A') (A") (A') (A")
                 (A') (A') (A") (A') (A") (A') (A') (A') (A') (A")
                 (A') (A') (A') (A") (A') (A') (A') (A') (A') (A')
                 (A") (A') (A') (A') (A") (A') (A') (A') (A') (A')
                 (A") (A') (A') (A") (A") (A') (A') (A") (A') (A')
                 (A') (A') (A") (A') (A") (A') (A") (A') (A') (A")
                 (A') (A') (A") (A') (A") (A') (A') (A') (A') (A")
                 (A') (A') (A') (A") (A") (A') (A') (A") (A') (A")
                 (A') (A') (A") (A") (A') (A') (A') (A") (A') (A')
                 (A') (A') (A') (A') (A') (A') (A') (A') (A') (A')
                 (A')
 The electronic state of the initial guess is 2-A".
 Initial guess <Sx>= 0.0000 <Sy>= 0.0000 <Sz>= 0.5000 <S**2>= 0.8076 S= 0.5284
 Leave Link  401 at Sun Mar  1 23:29:02 2020, MaxMem=  1879048192 cpu:              98.4 elap:               3.0
 (Enter /opt/g16/l502.exe)
 Integral symmetry usage will be decided dynamically.
 UHF open shell SCF:
 Using DIIS extrapolation, IDIIS=  1040.
 NGot=  1879048192 LenX=  1879005028 LenY=  1878986362
 Requested convergence on RMS density matrix=1.00D-08 within  32 cycles.
 Requested convergence on MAX density matrix=1.00D-06.
 Requested convergence on             energy=1.00D-06.
 No special actions if energy rises.
 Fock matrices will be formed incrementally for  20 cycles.

 Cycle   1  Pass 1  IDiag  1:
 FoFJK:  IHMeth= 1 ICntrl=       0 DoSepK=F KAlg= 0 I1Cent=           0 FoldK=F
 IRaf= 970000000 NMat=       1 IRICut=       1 DoRegI=T DoRafI=F ISym2E= 1 IDoP0=0 IntGTp=1.
 FoFCou: FMM=F IPFlag=           0 FMFlag=      100000 FMFlg1=           0
         NFxFlg=           0 DoJE=F BraDBF=F KetDBF=F FulRan=T
         wScrn=  0.000000 ICntrl=         0 IOpCl=  1 I1Cent=           0 NGrid=           0
         NMat0=    1 NMatS0=      1 NMatT0=    0 NMatD0=    1 NMtDS0=    0 NMtDT0=    0
 Petite list used in FoFCou.
 E= -286.958305573276    
 DIIS: error= 1.12D-02 at cycle   1 NSaved=   1.
 NSaved= 1 IEnMin= 1 EnMin= -286.958305573276     IErMin= 1 ErrMin= 1.12D-02
 ErrMax= 1.12D-02  0.00D+00 EMaxC= 1.00D-01 BMatC= 4.09D-02 BMatP= 4.09D-02
 IDIUse=3 WtCom= 8.88D-01 WtEn= 1.12D-01
 Coeff-Com:  0.100D+01
 Coeff-En:   0.100D+01
 Coeff:      0.100D+01
 Gap=     0.205 Goal=   None    Shift=    0.000
 Gap=     0.158 Goal=   None    Shift=    0.000
 GapD=    0.158 DampG=1.000 DampE=0.500 DampFc=0.5000 IDamp=-1.
 Damping current iteration by 5.00D-01
 RMSDP=3.13D-03 MaxDP=1.30D-01              OVMax= 2.58D-02

 Cycle   2  Pass 1  IDiag  1:
 RMSU=  1.56D-03    CP:  1.00D+00
 E= -286.961311911017     Delta-E=       -0.003006337741 Rises=F Damp=T
 DIIS: error= 5.84D-03 at cycle   2 NSaved=   2.
 NSaved= 2 IEnMin= 2 EnMin= -286.961311911017     IErMin= 2 ErrMin= 5.84D-03
 ErrMax= 5.84D-03  0.00D+00 EMaxC= 1.00D-01 BMatC= 9.88D-03 BMatP= 4.09D-02
 IDIUse=3 WtCom= 9.42D-01 WtEn= 5.84D-02
 Coeff-Com: -0.856D+00 0.186D+01
 Coeff-En:   0.000D+00 0.100D+01
 Coeff:     -0.806D+00 0.181D+01
 Gap=     0.198 Goal=   None    Shift=    0.000
 Gap=     0.153 Goal=   None    Shift=    0.000
 RMSDP=1.59D-03 MaxDP=6.71D-02 DE=-3.01D-03 OVMax= 8.24D-03

 Cycle   3  Pass 1  IDiag  1:
 RMSU=  3.13D-04    CP:  9.99D-01  1.99D+00
 E= -286.964083212956     Delta-E=       -0.002771301939 Rises=F Damp=F
 DIIS: error= 1.77D-03 at cycle   3 NSaved=   3.
 NSaved= 3 IEnMin= 3 EnMin= -286.964083212956     IErMin= 3 ErrMin= 1.77D-03
 ErrMax= 1.77D-03  0.00D+00 EMaxC= 1.00D-01 BMatC= 1.24D-03 BMatP= 9.88D-03
 IDIUse=3 WtCom= 9.82D-01 WtEn= 1.77D-02
 Coeff-Com: -0.455D+00 0.914D+00 0.541D+00
 Coeff-En:   0.000D+00 0.000D+00 0.100D+01
 Coeff:     -0.447D+00 0.898D+00 0.549D+00
 Gap=     0.199 Goal=   None    Shift=    0.000
 Gap=     0.154 Goal=   None    Shift=    0.000
 RMSDP=1.78D-04 MaxDP=5.20D-03 DE=-2.77D-03 OVMax= 7.17D-03

 Cycle   4  Pass 1  IDiag  1:
 RMSU=  8.16D-05    CP:  9.99D-01  2.04D+00  5.55D-01
 E= -286.964370199332     Delta-E=       -0.000286986375 Rises=F Damp=F
 DIIS: error= 6.45D-04 at cycle   4 NSaved=   4.
 NSaved= 4 IEnMin= 4 EnMin= -286.964370199332     IErMin= 4 ErrMin= 6.45D-04
 ErrMax= 6.45D-04  0.00D+00 EMaxC= 1.00D-01 BMatC= 7.37D-05 BMatP= 1.24D-03
 IDIUse=3 WtCom= 9.94D-01 WtEn= 6.45D-03
 Coeff-Com: -0.210D+00 0.418D+00 0.297D+00 0.494D+00
 Coeff-En:   0.000D+00 0.000D+00 0.000D+00 0.100D+01
 Coeff:     -0.208D+00 0.416D+00 0.295D+00 0.497D+00
 Gap=     0.198 Goal=   None    Shift=    0.000
 Gap=     0.154 Goal=   None    Shift=    0.000
 RMSDP=4.39D-05 MaxDP=1.57D-03 DE=-2.87D-04 OVMax= 3.59D-03

 Cycle   5  Pass 1  IDiag  1:
 RMSU=  3.77D-05    CP:  9.99D-01  2.04D+00  5.91D-01  7.93D-01
 E= -286.964387304960     Delta-E=       -0.000017105629 Rises=F Damp=F
 DIIS: error= 2.13D-04 at cycle   5 NSaved=   5.
 NSaved= 5 IEnMin= 5 EnMin= -286.964387304960     IErMin= 5 ErrMin= 2.13D-04
 ErrMax= 2.13D-04  0.00D+00 EMaxC= 1.00D-01 BMatC= 1.25D-05 BMatP= 7.37D-05
 IDIUse=3 WtCom= 9.98D-01 WtEn= 2.13D-03
 Coeff-Com: -0.235D-01 0.453D-01 0.543D-01 0.294D+00 0.630D+00
 Coeff-En:   0.000D+00 0.000D+00 0.000D+00 0.836D-01 0.916D+00
 Coeff:     -0.234D-01 0.453D-01 0.542D-01 0.293D+00 0.631D+00
 Gap=     0.198 Goal=   None    Shift=    0.000
 Gap=     0.154 Goal=   None    Shift=    0.000
 RMSDP=1.93D-05 MaxDP=5.10D-04 DE=-1.71D-05 OVMax= 1.20D-03

 Cycle   6  Pass 1  IDiag  1:
 RMSU=  1.43D-05    CP:  9.99D-01  2.04D+00  5.94D-01  8.67D-01  7.36D-01
 E= -286.964392256451     Delta-E=       -0.000004951491 Rises=F Damp=F
 DIIS: error= 9.93D-05 at cycle   6 NSaved=   6.
 NSaved= 6 IEnMin= 6 EnMin= -286.964392256451     IErMin= 6 ErrMin= 9.93D-05
 ErrMax= 9.93D-05  0.00D+00 EMaxC= 1.00D-01 BMatC= 1.17D-06 BMatP= 1.25D-05
 IDIUse=1 WtCom= 1.00D+00 WtEn= 0.00D+00
 Coeff-Com:  0.371D-01-0.741D-01-0.502D-01-0.701D-01 0.600D-01 0.110D+01
 Coeff:      0.371D-01-0.741D-01-0.502D-01-0.701D-01 0.600D-01 0.110D+01
 Gap=     0.198 Goal=   None    Shift=    0.000
 Gap=     0.154 Goal=   None    Shift=    0.000
 RMSDP=1.29D-05 MaxDP=4.96D-04 DE=-4.95D-06 OVMax= 1.34D-03

 Cycle   7  Pass 1  IDiag  1:
 RMSU=  7.02D-06    CP:  9.99D-01  2.04D+00  6.00D-01  9.16D-01  8.82D-01
                    CP:  1.57D+00
 E= -286.964393636600     Delta-E=       -0.000001380149 Rises=F Damp=F
 DIIS: error= 8.65D-05 at cycle   7 NSaved=   7.
 NSaved= 7 IEnMin= 7 EnMin= -286.964393636600     IErMin= 7 ErrMin= 8.65D-05
 ErrMax= 8.65D-05  0.00D+00 EMaxC= 1.00D-01 BMatC= 9.41D-07 BMatP= 1.17D-06
 IDIUse=1 WtCom= 1.00D+00 WtEn= 0.00D+00
 Coeff-Com:  0.301D-01-0.597D-01-0.472D-01-0.126D+00-0.123D+00 0.731D+00
 Coeff-Com:  0.594D+00
 Coeff:      0.301D-01-0.597D-01-0.472D-01-0.126D+00-0.123D+00 0.731D+00
 Coeff:      0.594D+00
 Gap=     0.198 Goal=   None    Shift=    0.000
 Gap=     0.154 Goal=   None    Shift=    0.000
 RMSDP=7.22D-06 MaxDP=2.62D-04 DE=-1.38D-06 OVMax= 7.54D-04

 Cycle   8  Pass 1  IDiag  1:
 RMSU=  3.42D-06    CP:  9.99D-01  2.04D+00  6.00D-01  9.50D-01  9.26D-01
                    CP:  1.91D+00  6.39D-01
 E= -286.964394152281     Delta-E=       -0.000000515681 Rises=F Damp=F
 DIIS: error= 3.90D-05 at cycle   8 NSaved=   8.
 NSaved= 8 IEnMin= 8 EnMin= -286.964394152281     IErMin= 8 ErrMin= 3.90D-05
 ErrMax= 3.90D-05  0.00D+00 EMaxC= 1.00D-01 BMatC= 1.45D-07 BMatP= 9.41D-07
 IDIUse=1 WtCom= 1.00D+00 WtEn= 0.00D+00
 Coeff-Com:  0.677D-03-0.112D-02-0.432D-02-0.340D-01-0.753D-01-0.941D-01
 Coeff-Com:  0.298D+00 0.910D+00
 Coeff:      0.677D-03-0.112D-02-0.432D-02-0.340D-01-0.753D-01-0.941D-01
 Coeff:      0.298D+00 0.910D+00
 Gap=     0.198 Goal=   None    Shift=    0.000
 Gap=     0.154 Goal=   None    Shift=    0.000
 RMSDP=4.36D-06 MaxDP=1.62D-04 DE=-5.16D-07 OVMax= 4.78D-04

 Cycle   9  Pass 1  IDiag  1:
 RMSU=  1.14D-06    CP:  9.99D-01  2.04D+00  6.02D-01  9.59D-01  9.67D-01
                    CP:  2.13D+00  9.30D-01  1.11D+00
 E= -286.964394275144     Delta-E=       -0.000000122863 Rises=F Damp=F
 DIIS: error= 8.16D-06 at cycle   9 NSaved=   9.
 NSaved= 9 IEnMin= 9 EnMin= -286.964394275144     IErMin= 9 ErrMin= 8.16D-06
 ErrMax= 8.16D-06  0.00D+00 EMaxC= 1.00D-01 BMatC= 1.04D-08 BMatP= 1.45D-07
 IDIUse=1 WtCom= 1.00D+00 WtEn= 0.00D+00
 Coeff-Com: -0.202D-02 0.407D-02 0.228D-02 0.912D-03-0.160D-01-0.743D-01
 Coeff-Com:  0.423D-01 0.255D+00 0.788D+00
 Coeff:     -0.202D-02 0.407D-02 0.228D-02 0.912D-03-0.160D-01-0.743D-01
 Coeff:      0.423D-01 0.255D+00 0.788D+00
 Gap=     0.198 Goal=   None    Shift=    0.000
 Gap=     0.154 Goal=   None    Shift=    0.000
 RMSDP=8.96D-07 MaxDP=3.55D-05 DE=-1.23D-07 OVMax= 8.79D-05

 Cycle  10  Pass 1  IDiag  1:
 RMSU=  6.28D-07    CP:  9.99D-01  2.04D+00  6.01D-01  9.62D-01  9.66D-01
                    CP:  2.16D+00  9.56D-01  1.21D+00  1.01D+00
 E= -286.964394281213     Delta-E=       -0.000000006069 Rises=F Damp=F
 DIIS: error= 4.49D-06 at cycle  10 NSaved=  10.
 NSaved=10 IEnMin=10 EnMin= -286.964394281213     IErMin=10 ErrMin= 4.49D-06
 ErrMax= 4.49D-06  0.00D+00 EMaxC= 1.00D-01 BMatC= 6.17D-09 BMatP= 1.04D-08
 IDIUse=1 WtCom= 1.00D+00 WtEn= 0.00D+00
 Coeff-Com: -0.138D-02 0.271D-02 0.260D-02 0.109D-01 0.104D-01-0.152D-01
 Coeff-Com: -0.603D-01-0.117D+00 0.490D+00 0.677D+00
 Coeff:     -0.138D-02 0.271D-02 0.260D-02 0.109D-01 0.104D-01-0.152D-01
 Coeff:     -0.603D-01-0.117D+00 0.490D+00 0.677D+00
 Gap=     0.198 Goal=   None    Shift=    0.000
 Gap=     0.154 Goal=   None    Shift=    0.000
 RMSDP=5.32D-07 MaxDP=2.03D-05 DE=-6.07D-09 OVMax= 4.16D-05

 Cycle  11  Pass 1  IDiag  1:
 RMSU=  2.90D-07    CP:  9.99D-01  2.04D+00  6.01D-01  9.63D-01  9.66D-01
                    CP:  2.17D+00  9.70D-01  1.27D+00  1.27D+00  8.56D-01
 E= -286.964394284157     Delta-E=       -0.000000002944 Rises=F Damp=F
 DIIS: error= 9.97D-07 at cycle  11 NSaved=  11.
 NSaved=11 IEnMin=11 EnMin= -286.964394284157     IErMin=11 ErrMin= 9.97D-07
 ErrMax= 9.97D-07  0.00D+00 EMaxC= 1.00D-01 BMatC= 6.29D-10 BMatP= 6.17D-09
 IDIUse=1 WtCom= 1.00D+00 WtEn= 0.00D+00
 Coeff-Com:  0.422D-04-0.111D-03 0.325D-03 0.412D-02 0.736D-02 0.139D-01
 Coeff-Com: -0.329D-01-0.113D+00 0.494D-02 0.232D+00 0.883D+00
 Coeff:      0.422D-04-0.111D-03 0.325D-03 0.412D-02 0.736D-02 0.139D-01
 Coeff:     -0.329D-01-0.113D+00 0.494D-02 0.232D+00 0.883D+00
 Gap=     0.198 Goal=   None    Shift=    0.000
 Gap=     0.154 Goal=   None    Shift=    0.000
 RMSDP=2.65D-07 MaxDP=1.02D-05 DE=-2.94D-09 OVMax= 2.18D-05

 Cycle  12  Pass 1  IDiag  1:
 RMSU=  1.20D-07    CP:  9.99D-01  2.04D+00  6.02D-01  9.63D-01  9.66D-01
                    CP:  2.18D+00  9.79D-01  1.29D+00  1.37D+00  1.11D+00
                    CP:  1.03D+00
 E= -286.964394284585     Delta-E=       -0.000000000428 Rises=F Damp=F
 DIIS: error= 6.96D-07 at cycle  12 NSaved=  12.
 NSaved=12 IEnMin=12 EnMin= -286.964394284585     IErMin=12 ErrMin= 6.96D-07
 ErrMax= 6.96D-07  0.00D+00 EMaxC= 1.00D-01 BMatC= 2.78D-10 BMatP= 6.29D-10
 IDIUse=1 WtCom= 1.00D+00 WtEn= 0.00D+00
 Coeff-Com:  0.268D-03-0.544D-03-0.271D-03 0.759D-03 0.251D-02 0.114D-01
 Coeff-Com: -0.103D-01-0.502D-01-0.805D-01 0.244D-01 0.540D+00 0.563D+00
 Coeff:      0.268D-03-0.544D-03-0.271D-03 0.759D-03 0.251D-02 0.114D-01
 Coeff:     -0.103D-01-0.502D-01-0.805D-01 0.244D-01 0.540D+00 0.563D+00
 Gap=     0.198 Goal=   None    Shift=    0.000
 Gap=     0.154 Goal=   None    Shift=    0.000
 RMSDP=9.77D-08 MaxDP=3.13D-06 DE=-4.28D-10 OVMax= 9.01D-06

 Cycle  13  Pass 1  IDiag  1:
 RMSU=  4.24D-08    CP:  9.99D-01  2.04D+00  6.01D-01  9.63D-01  9.66D-01
                    CP:  2.18D+00  9.81D-01  1.30D+00  1.40D+00  1.12D+00
                    CP:  1.20D+00  6.74D-01
 E= -286.964394284684     Delta-E=       -0.000000000099 Rises=F Damp=F
 DIIS: error= 2.24D-07 at cycle  13 NSaved=  13.
 NSaved=13 IEnMin=13 EnMin= -286.964394284684     IErMin=13 ErrMin= 2.24D-07
 ErrMax= 2.24D-07  0.00D+00 EMaxC= 1.00D-01 BMatC= 1.25D-11 BMatP= 2.78D-10
 IDIUse=1 WtCom= 1.00D+00 WtEn= 0.00D+00
 Coeff-Com:  0.654D-04-0.129D-03-0.126D-03-0.222D-03-0.482D-03 0.998D-03
 Coeff-Com:  0.132D-02 0.303D-02-0.178D-01-0.235D-01 0.212D-03 0.144D+00
 Coeff-Com:  0.893D+00
 Coeff:      0.654D-04-0.129D-03-0.126D-03-0.222D-03-0.482D-03 0.998D-03
 Coeff:      0.132D-02 0.303D-02-0.178D-01-0.235D-01 0.212D-03 0.144D+00
 Coeff:      0.893D+00
 Gap=     0.198 Goal=   None    Shift=    0.000
 Gap=     0.154 Goal=   None    Shift=    0.000
 RMSDP=2.99D-08 MaxDP=1.20D-06 DE=-9.87D-11 OVMax= 3.01D-06

 Cycle  14  Pass 1  IDiag  1:
 RMSU=  1.30D-08    CP:  9.99D-01  2.04D+00  6.01D-01  9.64D-01  9.66D-01
                    CP:  2.18D+00  9.81D-01  1.30D+00  1.41D+00  1.14D+00
                    CP:  1.23D+00  7.79D-01  1.02D+00
 E= -286.964394284692     Delta-E=       -0.000000000008 Rises=F Damp=F
 DIIS: error= 4.38D-08 at cycle  14 NSaved=  14.
 NSaved=14 IEnMin=14 EnMin= -286.964394284692     IErMin=14 ErrMin= 4.38D-08
 ErrMax= 4.38D-08  0.00D+00 EMaxC= 1.00D-01 BMatC= 5.20D-13 BMatP= 1.25D-11
 IDIUse=1 WtCom= 1.00D+00 WtEn= 0.00D+00
 Coeff-Com: -0.188D-04 0.383D-04 0.179D-04-0.329D-04-0.227D-03-0.806D-03
 Coeff-Com:  0.731D-03 0.362D-02 0.586D-02-0.292D-02-0.434D-01-0.328D-01
 Coeff-Com:  0.414D-01 0.103D+01
 Coeff:     -0.188D-04 0.383D-04 0.179D-04-0.329D-04-0.227D-03-0.806D-03
 Coeff:      0.731D-03 0.362D-02 0.586D-02-0.292D-02-0.434D-01-0.328D-01
 Coeff:      0.414D-01 0.103D+01
 Gap=     0.198 Goal=   None    Shift=    0.000
 Gap=     0.154 Goal=   None    Shift=    0.000
 RMSDP=8.93D-09 MaxDP=3.67D-07 DE=-7.96D-12 OVMax= 9.70D-07

 SCF Done:  E(UB3LYP) =  -286.964394285     A.U. after   14 cycles
            NFock= 14  Conv=0.89D-08     -V/T= 2.0090
 <Sx>= 0.0000 <Sy>= 0.0000 <Sz>= 0.5000 <S**2>= 0.7881 S= 0.5189
 <L.S>= 0.000000000000E+00
 KE= 2.843988876339D+02 PE=-1.189775428294D+03 EE= 3.561976340709D+02
 Annihilation of the first spin contaminant:
 S**2 before annihilation     0.7881,   after     0.7510
 Leave Link  502 at Sun Mar  1 23:29:56 2020, MaxMem=  1879048192 cpu:            1735.9 elap:              53.4
 (Enter /opt/g16/l508.exe)
 QCSCF skips out because SCF is already converged.
 Leave Link  508 at Sun Mar  1 23:29:56 2020, MaxMem=  1879048192 cpu:               2.0 elap:               0.1
 (Enter /opt/g16/l801.exe)
 DoSCS=F DFT=T ScalE2(SS,OS)=  1.000000  1.000000
 Range of M.O.s used for correlation:     1   135
 NBasis=   135 NAE=    25 NBE=    24 NFC=     0 NFV=     0
 NROrb=    135 NOA=    25 NOB=    24 NVA=   110 NVB=   111

 **** Warning!!: The largest alpha MO coefficient is  0.10694154D+02


 **** Warning!!: The largest beta MO coefficient is  0.10709711D+02

 Leave Link  801 at Sun Mar  1 23:29:56 2020, MaxMem=  1879048192 cpu:               3.1 elap:               0.1
 (Enter /opt/g16/l1101.exe)
 Using compressed storage, NAtomX=    13.
 Will process     14 centers per pass.
 Leave Link 1101 at Sun Mar  1 23:29:56 2020, MaxMem=  1879048192 cpu:              13.8 elap:               0.4
 (Enter /opt/g16/l1102.exe)
 Symmetrizing basis deriv contribution to polar:
 IMax=3 JMax=2 DiffMx= 0.00D+00
 Leave Link 1102 at Sun Mar  1 23:29:57 2020, MaxMem=  1879048192 cpu:               3.9 elap:               0.1
 (Enter /opt/g16/l1110.exe)
 Forming Gx(P) for the SCF density, NAtomX=    13.
 Integral derivatives from FoFJK, PRISM(SPDF).
 Do as many integral derivatives as possible in FoFJK.
 G2DrvN: MDV=    1879047042.
 G2DrvN: will do    14 centers at a time, making    1 passes.
 Calling FoFCou, ICntrl=  3107 FMM=F I1Cent=   0 AccDes= 1.00D-12.
 FoFJK:  IHMeth= 1 ICntrl=    3107 DoSepK=F KAlg= 0 I1Cent=           0 FoldK=F
 IRaf=         0 NMat=       1 IRICut=       1 DoRegI=T DoRafI=F ISym2E= 1 IDoP0=0 IntGTp=1.
 FoFCou: FMM=F IPFlag=           0 FMFlag=      100000 FMFlg1=           0
         NFxFlg=           0 DoJE=F BraDBF=F KetDBF=F FulRan=T
         wScrn=  0.000000 ICntrl=      3107 IOpCl=  1 I1Cent=           0 NGrid=           0
         NMat0=    1 NMatS0=      1 NMatT0=    0 NMatD0=    1 NMtDS0=    0 NMtDT0=    0
 Petite list used in FoFCou.
 End of G2Drv F.D. properties file   721 does not exist.
 End of G2Drv F.D. properties file   722 does not exist.
 End of G2Drv F.D. properties file   788 does not exist.
 Leave Link 1110 at Sun Mar  1 23:30:08 2020, MaxMem=  1879048192 cpu:             373.9 elap:              11.1
 (Enter /opt/g16/l1002.exe)
 Minotr:  UHF open shell wavefunction.
          IDoAtm=1111111111111
          Direct CPHF calculation.
          Differentiating once with respect to nuclear coordinates.
          Using symmetry in CPHF.
          Requested convergence is 1.0D-08 RMS, and 1.0D-07 maximum.
          Secondary convergence is 1.0D-12 RMS, and 1.0D-12 maximum.
          NewPWx=T KeepS1=F KeepF1=F KeepIn=T MapXYZ=F SortEE=F KeepMc=T.
         3833 words used for storage of precomputed grid.
 Keep R1 and R2 ints in memory in symmetry-blocked form, NReq=79282967.
 FoFCou: FMM=F IPFlag=           0 FMFlag=           0 FMFlg1=           0
         NFxFlg=           0 DoJE=F BraDBF=F KetDBF=F FulRan=T
         wScrn=  0.000000 ICntrl=       600 IOpCl=  0 I1Cent=           0 NGrid=           0
         NMat0=    1 NMatS0=   9180 NMatT0=    0 NMatD0=    1 NMtDS0=    0 NMtDT0=    0
 Petite list used in FoFCou.
          MDV=    1879048192 using IRadAn=       1.
          Solving linear equations simultaneously, MaxMat=       0.
          There are    42 degrees of freedom in the 1st order CPHF.  IDoFFX=6 NUNeed=     0.
     36 vectors produced by pass  0 Test12= 1.29D-14 2.38D-09 XBig12= 2.45D-01 2.70D-01.
 AX will form    36 AO Fock derivatives at one time.
     36 vectors produced by pass  1 Test12= 1.29D-14 2.38D-09 XBig12= 1.14D-01 1.67D-01.
     36 vectors produced by pass  2 Test12= 1.29D-14 2.38D-09 XBig12= 3.05D-03 1.28D-02.
     36 vectors produced by pass  3 Test12= 1.29D-14 2.38D-09 XBig12= 2.63D-05 1.04D-03.
     36 vectors produced by pass  4 Test12= 1.29D-14 2.38D-09 XBig12= 1.19D-07 4.64D-05.
     36 vectors produced by pass  5 Test12= 1.29D-14 2.38D-09 XBig12= 5.14D-10 2.78D-06.
     27 vectors produced by pass  6 Test12= 1.29D-14 2.38D-09 XBig12= 2.58D-12 1.77D-07.
      9 vectors produced by pass  7 Test12= 1.29D-14 2.38D-09 XBig12= 8.30D-15 1.12D-08.
 InvSVY:  IOpt=1 It=  1 EMax= 2.00D-15
 Solved reduced A of dimension   252 with    36 vectors.
 End of Minotr F.D. properties file   721 does not exist.
 End of Minotr F.D. properties file   722 does not exist.
 End of Minotr F.D. properties file   788 does not exist.
 Leave Link 1002 at Sun Mar  1 23:30:33 2020, MaxMem=  1879048192 cpu:             862.5 elap:              24.9
 (Enter /opt/g16/l601.exe)
 Copying SCF densities to generalized density rwf, IOpCl= 1 IROHF=0.

 **********************************************************************

            Population analysis using the SCF Density.

 **********************************************************************

 Orbital symmetries:
 Alpha Orbitals:
       Occupied  (A') (A') (A') (A') (A') (A') (A') (A') (A') (A')
                 (A') (A') (A') (A') (A') (A') (A') (A') (A") (A')
                 (A') (A") (A') (A") (A")
       Virtual   (A") (A") (A') (A') (A') (A') (A") (A') (A') (A')
                 (A') (A') (A') (A') (A') (A") (A') (A') (A') (A')
                 (A") (A") (A') (A') (A') (A') (A") (A") (A') (A")
                 (A") (A') (A') (A') (A') (A') (A') (A') (A') (A')
                 (A') (A') (A') (A') (A') (A') (A") (A") (A') (A")
                 (A") (A") (A") (A') (A') (A") (A') (A') (A') (A')
                 (A') (A") (A') (A') (A") (A') (A') (A") (A') (A')
                 (A") (A') (A") (A") (A') (A') (A") (A") (A') (A')
                 (A') (A') (A') (A") (A") (A') (A") (A") (A') (A')
                 (A") (A') (A') (A') (A') (A') (A') (A') (A') (A')
                 (A') (A') (A') (A') (A') (A') (A') (A') (A') (A')
 Beta  Orbitals:
       Occupied  (A') (A') (A') (A') (A') (A') (A') (A') (A') (A')
                 (A') (A') (A') (A') (A') (A') (A') (A') (A") (A')
                 (A') (A") (A") (A')
       Virtual   (A") (A") (A") (A') (A') (A') (A') (A") (A') (A')
                 (A') (A') (A') (A') (A') (A') (A") (A') (A') (A')
                 (A') (A") (A') (A") (A') (A') (A') (A") (A") (A')
                 (A") (A') (A') (A") (A') (A') (A') (A') (A') (A')
                 (A') (A') (A') (A') (A') (A') (A') (A") (A") (A')
                 (A") (A") (A") (A") (A') (A') (A") (A') (A') (A')
                 (A') (A') (A") (A') (A') (A') (A") (A') (A") (A')
                 (A') (A") (A') (A") (A") (A') (A') (A") (A") (A')
                 (A') (A') (A') (A') (A") (A") (A') (A") (A") (A')
                 (A') (A") (A') (A') (A') (A') (A') (A') (A') (A')
                 (A') (A') (A') (A') (A') (A') (A') (A') (A') (A')
                 (A')
 The electronic state is 2-A".
 Alpha  occ. eigenvalues --  -14.32609 -10.22311 -10.20600 -10.20229 -10.19947
 Alpha  occ. eigenvalues --  -10.19748 -10.19680  -0.91180  -0.84438  -0.76075
 Alpha  occ. eigenvalues --   -0.72291  -0.61843  -0.59423  -0.52462  -0.48839
 Alpha  occ. eigenvalues --   -0.46000  -0.43289  -0.43062  -0.39698  -0.37379
 Alpha  occ. eigenvalues --   -0.35372  -0.32488  -0.27412  -0.27093  -0.20870
 Alpha virt. eigenvalues --   -0.01057   0.01309   0.08712   0.10992   0.14414
 Alpha virt. eigenvalues --    0.15499   0.15711   0.18398   0.18790   0.25969
 Alpha virt. eigenvalues --    0.29736   0.30561   0.33696   0.37874   0.47716
 Alpha virt. eigenvalues --    0.50901   0.51286   0.53826   0.54512   0.57706
 Alpha virt. eigenvalues --    0.58270   0.58629   0.59345   0.60596   0.60728
 Alpha virt. eigenvalues --    0.64941   0.65330   0.65943   0.70981   0.74560
 Alpha virt. eigenvalues --    0.78048   0.80767   0.81160   0.81984   0.83931
 Alpha virt. eigenvalues --    0.85921   0.89608   0.90648   0.93820   0.98180
 Alpha virt. eigenvalues --    1.00477   1.03817   1.09161   1.12299   1.16639
 Alpha virt. eigenvalues --    1.19438   1.23523   1.29127   1.36174   1.36646
 Alpha virt. eigenvalues --    1.38759   1.40199   1.40650   1.42981   1.53407
 Alpha virt. eigenvalues --    1.56809   1.73538   1.76653   1.81801   1.85589
 Alpha virt. eigenvalues --    1.88044   1.89431   1.91729   1.93568   1.96424
 Alpha virt. eigenvalues --    1.96582   1.99379   1.99493   2.03162   2.13248
 Alpha virt. eigenvalues --    2.24763   2.25147   2.27318   2.34468   2.36300
 Alpha virt. eigenvalues --    2.37573   2.39122   2.39728   2.40124   2.43893
 Alpha virt. eigenvalues --    2.44868   2.48493   2.51337   2.54218   2.56626
 Alpha virt. eigenvalues --    2.58066   2.60417   2.67899   2.68867   2.73239
 Alpha virt. eigenvalues --    2.75701   2.81400   2.88430   3.06048   3.10651
 Alpha virt. eigenvalues --    3.17914   3.23447   3.24547   3.32880   3.40867
 Alpha virt. eigenvalues --    3.44553   3.51848   3.90534   3.96017   4.11053
 Alpha virt. eigenvalues --    4.15140   4.15424   4.42729   4.43140   4.82060
  Beta  occ. eigenvalues --  -14.31425 -10.22552 -10.20183 -10.20121 -10.19890
  Beta  occ. eigenvalues --  -10.19850 -10.19347  -0.89694  -0.83412  -0.75729
  Beta  occ. eigenvalues --   -0.70954  -0.61563  -0.59038  -0.52116  -0.48405
  Beta  occ. eigenvalues --   -0.45798  -0.43175  -0.42712  -0.37989  -0.37103
  Beta  occ. eigenvalues --   -0.35172  -0.29085  -0.26072  -0.26037
  Beta virt. eigenvalues --   -0.10657   0.00045   0.03613   0.08864   0.11325
  Beta virt. eigenvalues --    0.14498   0.15829   0.16943   0.18559   0.19009
  Beta virt. eigenvalues --    0.26219   0.29791   0.30790   0.33855   0.38135
  Beta virt. eigenvalues --    0.47929   0.51603   0.51868   0.53976   0.54745
  Beta virt. eigenvalues --    0.58002   0.58863   0.59424   0.59991   0.60608
  Beta virt. eigenvalues --    0.61126   0.65335   0.65903   0.66857   0.71691
  Beta virt. eigenvalues --    0.75580   0.80941   0.81347   0.81433   0.82146
  Beta virt. eigenvalues --    0.84178   0.86300   0.89943   0.91228   0.93940
  Beta virt. eigenvalues --    0.98269   1.01279   1.04279   1.09430   1.12592
  Beta virt. eigenvalues --    1.16888   1.19717   1.24154   1.29898   1.36803
  Beta virt. eigenvalues --    1.37759   1.39316   1.40722   1.41494   1.43208
  Beta virt. eigenvalues --    1.54300   1.59581   1.73729   1.77444   1.82110
  Beta virt. eigenvalues --    1.86370   1.88323   1.90941   1.91979   1.94211
  Beta virt. eigenvalues --    1.96691   1.96771   1.99512   1.99890   2.03629
  Beta virt. eigenvalues --    2.13778   2.25376   2.26270   2.28079   2.35033
  Beta virt. eigenvalues --    2.36418   2.38773   2.39688   2.39990   2.40465
  Beta virt. eigenvalues --    2.43867   2.45091   2.48642   2.52107   2.55190
  Beta virt. eigenvalues --    2.57513   2.58100   2.60868   2.68867   2.69249
  Beta virt. eigenvalues --    2.73947   2.76247   2.81525   2.88690   3.06156
  Beta virt. eigenvalues --    3.10790   3.18200   3.23486   3.24576   3.33241
  Beta virt. eigenvalues --    3.41040   3.44923   3.51941   3.90689   3.98070
  Beta virt. eigenvalues --    4.11333   4.15448   4.15778   4.43001   4.43421
  Beta virt. eigenvalues --    4.82360
          Condensed to atoms (all electrons):
               1          2          3          4          5          6
     1  N    6.933445   0.446239  -0.076282  -0.000542   0.005301   0.000066
     2  C    0.446239   4.580212   0.482289  -0.032653  -0.020920  -0.035121
     3  C   -0.076282   0.482289   4.915745   0.356550   0.539970  -0.040084
     4  H   -0.000542  -0.032653   0.356550   0.611037  -0.044788   0.005370
     5  C    0.005301  -0.020920   0.539970  -0.044788   4.825293   0.523676
     6  C    0.000066  -0.035121  -0.040084   0.005370   0.523676   4.843871
     7  C    0.009797   0.002799  -0.035328  -0.000265  -0.032340   0.526353
     8  C   -0.089067   0.442142  -0.075143   0.008042  -0.037814  -0.038618
     9  H    0.313085  -0.067195   0.009676  -0.000496  -0.000308  -0.000039
    10  H   -0.000132   0.003998  -0.036491  -0.006785   0.369203  -0.042846
    11  H    0.000003   0.000688   0.004485  -0.000169  -0.040726   0.370385
    12  H   -0.000152   0.002814   0.000754   0.000019   0.004476  -0.041390
    13  H   -0.009331  -0.042370   0.005470  -0.000160   0.000309   0.005076
               7          8          9         10         11         12
     1  N    0.009797  -0.089067   0.313085  -0.000132   0.000003  -0.000152
     2  C    0.002799   0.442142  -0.067195   0.003998   0.000688   0.002814
     3  C   -0.035328  -0.075143   0.009676  -0.036491   0.004485   0.000754
     4  H   -0.000265   0.008042  -0.000496  -0.006785  -0.000169   0.000019
     5  C   -0.032340  -0.037814  -0.000308   0.369203  -0.040726   0.004476
     6  C    0.526353  -0.038618  -0.000039  -0.042846   0.370385  -0.041390
     7  C    4.871131   0.462662   0.001214   0.004748  -0.041044   0.363586
     8  C    0.462662   5.095757  -0.015749   0.000584   0.005147  -0.031273
     9  H    0.001214  -0.015749   0.530560   0.000006  -0.000001  -0.000022
    10  H    0.004748   0.000584   0.000006   0.619832  -0.006147  -0.000199
    11  H   -0.041044   0.005147  -0.000001  -0.006147   0.619320  -0.006046
    12  H    0.363586  -0.031273  -0.000022  -0.000199  -0.006046   0.620482
    13  H   -0.042705   0.365318   0.006468   0.000017  -0.000190  -0.006638
              13
     1  N   -0.009331
     2  C   -0.042370
     3  C    0.005470
     4  H   -0.000160
     5  C    0.000309
     6  C    0.005076
     7  C   -0.042705
     8  C    0.365318
     9  H    0.006468
    10  H    0.000017
    11  H   -0.000190
    12  H   -0.006638
    13  H    0.630881
          Atomic-Atomic Spin Densities.
               1          2          3          4          5          6
     1  N    0.697926  -0.036404  -0.018053  -0.000295  -0.000097   0.000241
     2  C   -0.036404  -0.169171   0.010205   0.000503   0.001041  -0.001354
     3  C   -0.018053   0.010205   0.306102   0.002035  -0.000902  -0.012792
     4  H   -0.000295   0.000503   0.002035  -0.015393   0.000288   0.000005
     5  C   -0.000097   0.001041  -0.000902   0.000288  -0.155682  -0.001177
     6  C    0.000241  -0.001354  -0.012792   0.000005  -0.001177   0.355773
     7  C   -0.000196   0.000235   0.000218  -0.000024  -0.000251   0.004810
     8  C   -0.012803   0.009977   0.004583  -0.000054   0.000314  -0.012896
     9  H   -0.002842   0.003770   0.000135   0.000015   0.000015   0.000002
    10  H   -0.000000  -0.000009  -0.000718   0.000079   0.000678  -0.000633
    11  H    0.000000  -0.000039   0.000017   0.000004   0.000224   0.001941
    12  H    0.000003   0.000037  -0.000019  -0.000001   0.000013  -0.000670
    13  H    0.000160   0.000257   0.000009   0.000004  -0.000042   0.000032
               7          8          9         10         11         12
     1  N   -0.000196  -0.012803  -0.002842  -0.000000   0.000000   0.000003
     2  C    0.000235   0.009977   0.003770  -0.000009  -0.000039   0.000037
     3  C    0.000218   0.004583   0.000135  -0.000718   0.000017  -0.000019
     4  H   -0.000024  -0.000054   0.000015   0.000079   0.000004  -0.000001
     5  C   -0.000251   0.000314   0.000015   0.000678   0.000224   0.000013
     6  C    0.004810  -0.012896   0.000002  -0.000633   0.001941  -0.000670
     7  C   -0.153959  -0.004447  -0.000043   0.000005   0.000123   0.000868
     8  C   -0.004447   0.302118  -0.000063  -0.000011   0.000002  -0.000805
     9  H   -0.000043  -0.000063  -0.022027  -0.000000  -0.000000   0.000001
    10  H    0.000005  -0.000011  -0.000000   0.006001   0.000100  -0.000001
    11  H    0.000123   0.000002  -0.000000   0.000100  -0.017579   0.000088
    12  H    0.000868  -0.000805   0.000001  -0.000001   0.000088   0.005777
    13  H    0.000664   0.001631  -0.000112  -0.000000   0.000005   0.000054
              13
     1  N    0.000160
     2  C    0.000257
     3  C    0.000009
     4  H    0.000004
     5  C   -0.000042
     6  C    0.000032
     7  C    0.000664
     8  C    0.001631
     9  H   -0.000112
    10  H   -0.000000
    11  H    0.000005
    12  H    0.000054
    13  H   -0.015156
 Mulliken charges and spin densities:
               1          2
     1  N   -0.532431   0.627639
     2  C    0.237079  -0.180953
     3  C   -0.051609   0.290820
     4  H    0.104839  -0.012833
     5  C   -0.091334  -0.155579
     6  C   -0.076700   0.333280
     7  C   -0.090607  -0.151997
     8  C   -0.091988   0.287546
     9  H    0.222800  -0.021150
    10  H    0.094212   0.005490
    11  H    0.094295  -0.015114
    12  H    0.093589   0.005345
    13  H    0.087855  -0.012496
 Sum of Mulliken charges =  -0.00000   1.00000
 Mulliken charges and spin densities with hydrogens summed into heavy atoms:
               1          2
     1  N   -0.309631   0.606490
     2  C    0.237079  -0.180953
     3  C    0.053230   0.277987
     5  C    0.002878  -0.150089
     6  C    0.017595   0.318166
     7  C    0.002982  -0.146652
     8  C   -0.004133   0.275050
 APT charges:
               1
     1  N   -0.454084
     2  C   -0.360481
     3  C   -0.435042
     4  H    0.466881
     5  C   -0.450626
     6  C   -0.477580
     7  C   -0.474380
     8  C   -0.455783
     9  H    0.544712
    10  H    0.537893
    11  H    0.567671
    12  H    0.534392
    13  H    0.456428
 Sum of APT charges =  -0.00000
 APT charges with hydrogens summed into heavy atoms:
               1
     1  N    0.090628
     2  C   -0.360481
     3  C    0.031839
     5  C    0.087266
     6  C    0.090091
     7  C    0.060011
     8  C    0.000645
 Electronic spatial extent (au):  <R**2>=            648.2587
 Charge=             -0.0000 electrons
 Dipole moment (field-independent basis, Debye):
    X=             -2.4077    Y=              0.2523    Z=             -0.0000  Tot=              2.4209
 Quadrupole moment (field-independent basis, Debye-Ang):
   XX=            -43.2509   YY=            -33.6892   ZZ=            -43.1648
   XY=              1.8016   XZ=              0.0000   YZ=             -0.0000
 Traceless Quadrupole moment (field-independent basis, Debye-Ang):
   XX=             -3.2159   YY=              6.3458   ZZ=             -3.1299
   XY=              1.8016   XZ=              0.0000   YZ=             -0.0000
 Octapole moment (field-independent basis, Debye-Ang**2):
  XXX=            -22.8068  YYY=             -7.6971  ZZZ=              0.0000  XYY=              1.0629
  XXY=              8.1571  XXZ=             -0.0000  XZZ=              1.7835  YZZ=             -1.5996
  YYZ=             -0.0000  XYZ=              0.0000
 Hexadecapole moment (field-independent basis, Debye-Ang**3):
 XXXX=           -465.6556 YYYY=           -330.7128 ZZZZ=            -43.1409 XXXY=             75.4365
 XXXZ=              0.0000 YYYX=             39.9755 YYYZ=              0.0000 ZZZX=              0.0000
 ZZZY=              0.0000 XXYY=           -129.7637 XXZZ=            -85.8298 YYZZ=            -76.1890
 XXYZ=              0.0000 YYXZ=              0.0000 ZZXY=             18.1858
 N-N= 2.622145123048D+02 E-N=-1.189775428635D+03  KE= 2.843988876339D+02
 Symmetry A'   KE= 2.762830278070D+02
 Symmetry A"   KE= 8.115859826882D+00
 Symmetry A'   SP=-2.703334196172D-14
 Symmetry A"   SP= 1.000000000000D+00
  Exact polarizability:   0.000   0.000   0.000   0.000   0.000   0.000
 Approx polarizability: 150.011 -25.860 137.636  -0.000  -0.000  36.687
                          Isotropic Fermi Contact Couplings
        Atom                 a.u.       MegaHertz       Gauss      10(-4) cm-1
     1  N(14)              0.07990      25.81733       9.21227       8.61174
     2  C(13)             -0.03359     -37.75692     -13.47261     -12.59435
     3  C(13)              0.02998      33.69903      12.02465      11.24079
     4  H(1)              -0.00430     -19.22121      -6.85860      -6.41150
     5  C(13)             -0.02237     -25.14360      -8.97186      -8.38700
     6  C(13)              0.03514      39.50830      14.09754      13.17855
     7  C(13)             -0.02194     -24.66303      -8.80038      -8.22670
     8  C(13)              0.02991      33.62654      11.99878      11.21661
     9  H(1)              -0.00901     -40.25244     -14.36307     -13.42677
    10  H(1)               0.00180       8.02402       2.86317       2.67653
    11  H(1)              -0.00494     -22.07598      -7.87726      -7.36375
    12  H(1)               0.00175       7.81425       2.78832       2.60655
    13  H(1)              -0.00421     -18.81364      -6.71317      -6.27555
 --------------------------------------------------------
       Center         ----  Spin Dipole Couplings  ----
                      3XX-RR        3YY-RR        3ZZ-RR
 --------------------------------------------------------
     1   Atom       -0.653306     -0.637074      1.290380
     2   Atom        0.082816      0.064079     -0.146894
     3   Atom       -0.140970     -0.138959      0.279929
     4   Atom        0.010367     -0.005889     -0.004478
     5   Atom        0.067599      0.055206     -0.122805
     6   Atom       -0.161390     -0.165136      0.326525
     7   Atom        0.055960      0.063089     -0.119048
     8   Atom       -0.137912     -0.138621      0.276532
     9   Atom       -0.053130      0.065867     -0.012736
    10   Atom        0.006922     -0.001950     -0.004972
    11   Atom        0.006319     -0.005579     -0.000740
    12   Atom       -0.000795      0.005734     -0.004939
    13   Atom       -0.012172      0.016086     -0.003914
 --------------------------------------------------------
                        XY            XZ            YZ
 --------------------------------------------------------
     1   Atom       -0.001537     -0.000000     -0.000000
     2   Atom       -0.022968     -0.000000      0.000000
     3   Atom        0.000711      0.000000      0.000000
     4   Atom        0.013414      0.000000      0.000000
     5   Atom       -0.003711      0.000000      0.000000
     6   Atom       -0.007008     -0.000000     -0.000000
     7   Atom       -0.006019     -0.000000      0.000000
     8   Atom        0.001695     -0.000000     -0.000000
     9   Atom        0.031761      0.000000     -0.000000
    10   Atom       -0.001501     -0.000000     -0.000000
    11   Atom       -0.022783     -0.000000      0.000000
    12   Atom       -0.002969     -0.000000     -0.000000
    13   Atom        0.008446     -0.000000      0.000000
 --------------------------------------------------------


 ---------------------------------------------------------------------------------
              Anisotropic Spin Dipole Couplings in Principal Axis System
 ---------------------------------------------------------------------------------

       Atom             a.u.   MegaHertz   Gauss  10(-4) cm-1        Axes

              Baa    -0.6535   -25.202    -8.993    -8.407  0.9956  0.0935 -0.0000
     1 N(14)  Bbb    -0.6369   -24.565    -8.765    -8.194 -0.0935  0.9956 -0.0000
              Bcc     1.2904    49.767    17.758    16.601  0.0000  0.0000  1.0000
 
              Baa    -0.1469   -19.712    -7.034    -6.575  0.0000  0.0000  1.0000
     2 C(13)  Bbb     0.0486     6.527     2.329     2.177  0.5578  0.8300 -0.0000
              Bcc     0.0983    13.185     4.705     4.398  0.8300 -0.5578  0.0000
 
              Baa    -0.1412   -18.947    -6.761    -6.320  0.9531 -0.3028 -0.0000
     3 C(13)  Bbb    -0.1387   -18.617    -6.643    -6.210  0.3028  0.9531 -0.0000
              Bcc     0.2799    37.564    13.404    12.530  0.0000  0.0000  1.0000
 
              Baa    -0.0134    -7.174    -2.560    -2.393 -0.4908  0.8713  0.0000
     4 H(1)   Bbb    -0.0045    -2.389    -0.853    -0.797  0.0000  0.0000  1.0000
              Bcc     0.0179     9.563     3.412     3.190  0.8713  0.4908 -0.0000
 
              Baa    -0.1228   -16.479    -5.880    -5.497  0.0000  0.0000  1.0000
     5 C(13)  Bbb     0.0542     7.270     2.594     2.425  0.2666  0.9638  0.0000
              Bcc     0.0686     9.209     3.286     3.072  0.9638 -0.2666  0.0000
 
              Baa    -0.1705   -22.882    -8.165    -7.633  0.6090  0.7932 -0.0000
     6 C(13)  Bbb    -0.1560   -20.935    -7.470    -6.983  0.7932 -0.6090  0.0000
              Bcc     0.3265    43.817    15.635    14.616  0.0000  0.0000  1.0000
 
              Baa    -0.1190   -15.975    -5.700    -5.329  0.0000  0.0000  1.0000
     7 C(13)  Bbb     0.0525     7.049     2.515     2.351  0.8688  0.4952  0.0000
              Bcc     0.0665     8.926     3.185     2.978 -0.4952  0.8688 -0.0000
 
              Baa    -0.1400   -18.786    -6.703    -6.266 -0.6306  0.7761 -0.0000
     8 C(13)  Bbb    -0.1365   -18.322    -6.538    -6.111  0.7761  0.6306  0.0000
              Bcc     0.2765    37.108    13.241    12.378  0.0000  0.0000  1.0000
 
              Baa    -0.0611   -32.588   -11.628   -10.870  0.9701 -0.2427  0.0000
     9 H(1)   Bbb    -0.0127    -6.796    -2.425    -2.267  0.0000  0.0000  1.0000
              Bcc     0.0738    39.383    14.053    13.137  0.2427  0.9701 -0.0000
 
              Baa    -0.0050    -2.653    -0.947    -0.885  0.0000  0.0000  1.0000
    10 H(1)   Bbb    -0.0022    -1.172    -0.418    -0.391  0.1625  0.9867 -0.0000
              Bcc     0.0072     3.825     1.365     1.276  0.9867 -0.1625  0.0000
 
              Baa    -0.0232   -12.366    -4.413    -4.125  0.6113  0.7914 -0.0000
    11 H(1)   Bbb    -0.0007    -0.395    -0.141    -0.132  0.0000  0.0000  1.0000
              Bcc     0.0239    12.761     4.553     4.256  0.7914 -0.6113  0.0000
 
              Baa    -0.0049    -2.635    -0.940    -0.879  0.0000  0.0000  1.0000
    12 H(1)   Bbb    -0.0019    -1.037    -0.370    -0.346  0.9327  0.3607  0.0000
              Bcc     0.0069     3.672     1.310     1.225 -0.3607  0.9327 -0.0000
 
              Baa    -0.0145    -7.739    -2.761    -2.581  0.9639 -0.2661  0.0000
    13 H(1)   Bbb    -0.0039    -2.088    -0.745    -0.697  0.0000  0.0000  1.0000
              Bcc     0.0184     9.827     3.506     3.278  0.2661  0.9639 -0.0000
 

 ---------------------------------------------------------------------------------

 No NMR shielding tensors so no spin-rotation constants.
 Leave Link  601 at Sun Mar  1 23:30:37 2020, MaxMem=  1879048192 cpu:             139.1 elap:               4.2
 (Enter /opt/g16/l701.exe)
 ... and contract with generalized density number  0.
 Compute integral second derivatives.
 Leave Link  701 at Sun Mar  1 23:30:38 2020, MaxMem=  1879048192 cpu:              39.2 elap:               1.3
 (Enter /opt/g16/l702.exe)
 L702 exits ... SP integral derivatives will be done elsewhere.
 Leave Link  702 at Sun Mar  1 23:30:38 2020, MaxMem=  1879048192 cpu:               2.1 elap:               0.1
 (Enter /opt/g16/l703.exe)
 Integral derivatives from FoFJK, PRISM(SPDF).
 Compute integral second derivatives, UseDBF=F ICtDFT=           0.
 Calling FoFJK, ICntrl=    100147 FMM=F ISym2X=1 I1Cent= 0 IOpClX= 1 NMat=1 NMatS=1 NMatT=0.
 FoFJK:  IHMeth= 1 ICntrl=  100147 DoSepK=F KAlg= 0 I1Cent=           0 FoldK=F
 IRaf=         0 NMat=       1 IRICut=       1 DoRegI=T DoRafI=F ISym2E= 1 IDoP0=0 IntGTp=1.
 FoFCou: FMM=F IPFlag=           0 FMFlag=      100000 FMFlg1=         800
         NFxFlg=           0 DoJE=F BraDBF=F KetDBF=F FulRan=T
         wScrn=  0.000000 ICntrl=    100147 IOpCl=  1 I1Cent=           0 NGrid=           0
         NMat0=    1 NMatS0=      1 NMatT0=    0 NMatD0=    1 NMtDS0=    0 NMtDT0=    0
 Petite list used in FoFCou.
 Leave Link  703 at Sun Mar  1 23:30:47 2020, MaxMem=  1879048192 cpu:             310.1 elap:               9.0
 (Enter /opt/g16/l716.exe)
 Dipole        =-9.47257839D-01 9.92767149D-02-5.49114082D-19
 Polarizability= 0.00000000D+00 0.00000000D+00 0.00000000D+00
                 0.00000000D+00 0.00000000D+00 0.00000000D+00
 ***** Axes restored to original set *****
 -------------------------------------------------------------------
 Center     Atomic                   Forces (Hartrees/Bohr)
 Number     Number              X              Y              Z
 -------------------------------------------------------------------
      1        7           0.007909983    0.008592983    0.000550787
      2        6          -0.000756715   -0.002560145   -0.000049171
      3        6           0.002893054    0.005256218    0.000197169
      4        1           0.001142669    0.001755041    0.000078526
      5        6          -0.004637851    0.004290038   -0.000341836
      6        6          -0.006276028   -0.001132751   -0.000448526
      7        6          -0.002890034   -0.005804912   -0.000195840
      8        6           0.003786868   -0.003161056    0.000278421
      9        1           0.002264833   -0.004654660    0.000172115
     10        1          -0.001677987    0.001875379   -0.000124332
     11        1          -0.002445933   -0.000444271   -0.000174797
     12        1          -0.000950520   -0.002388621   -0.000063440
     13        1           0.001637660   -0.001623244    0.000120924
 -------------------------------------------------------------------
 Cartesian Forces:  Max     0.008592983 RMS     0.003133762
 Force constants in Cartesian coordinates: 
                1             2             3             4             5 
      1  0.579504D+00
      2 -0.978233D-01  0.434783D+00
      3  0.392747D-01 -0.783554D-02  0.383425D-01
      4 -0.324816D+00 -0.197026D-01 -0.204295D-01  0.640087D+00
      5 -0.844088D-01 -0.115690D+00 -0.590967D-02 -0.102580D-01  0.647008D+00
      6 -0.202985D-01 -0.126169D-02 -0.413093D-01  0.352042D-01 -0.174290D-02
      7 -0.864971D-01  0.230272D-01 -0.623194D-02 -0.120716D+00  0.781416D-01
      8  0.293265D-01  0.192825D-01  0.206675D-02  0.702311D-01 -0.240796D+00
      9 -0.624470D-02  0.161425D-02 -0.841258D-03 -0.393942D-02  0.596335D-02
     10  0.203747D-02 -0.353061D-03  0.361673D-03  0.100869D-01  0.199593D-01
     11 -0.236874D-02  0.164510D-02 -0.179534D-03 -0.107883D-01 -0.188488D-01
     12  0.365755D-03 -0.347440D-04 -0.296120D-02  0.461337D-03  0.147993D-02
     13  0.175922D-01  0.757401D-02  0.886151D-03 -0.597215D-01  0.290518D-01
     14  0.186016D-01 -0.145316D-02  0.134935D-02 -0.640531D-02  0.344665D-01
     15  0.863816D-03  0.557213D-03  0.510316D-02 -0.466637D-02  0.202803D-02
     16 -0.139574D-01 -0.274820D-02 -0.986476D-03  0.167381D-01  0.114467D-01
     17 -0.188058D-02 -0.170679D-02 -0.131927D-03  0.931094D-02 -0.387097D-01
     18 -0.988233D-03 -0.194250D-03 -0.217468D-03  0.178908D-02  0.883564D-03
     19  0.248154D-01  0.477055D-02  0.165376D-02 -0.424717D-01 -0.611576D-01
     20 -0.100807D-01 -0.931307D-02 -0.701895D-03 -0.227051D-01  0.153050D-01
     21  0.168384D-02  0.364900D-03  0.177847D-02 -0.346241D-02 -0.441118D-02
     22 -0.584320D-01 -0.515115D-01 -0.560458D-02 -0.901207D-01 -0.143252D-01
     23 -0.532085D-01 -0.146366D-01 -0.374981D-02 -0.117090D-01 -0.265606D+00
     24 -0.560114D-02 -0.362792D-02  0.206486D-01 -0.146925D-02 -0.631489D-03
     25 -0.141240D+00  0.138410D+00 -0.925270D-02 -0.284996D-01  0.428447D-01
     26  0.200140D+00 -0.315540D+00  0.149825D-01 -0.177363D-01 -0.340276D-03
     27 -0.937772D-02  0.105483D-01 -0.170281D-01 -0.199372D-02  0.307782D-02
     28 -0.991965D-03  0.140088D-02 -0.950511D-04 -0.344091D-02 -0.398342D-02
     29 -0.675872D-04  0.365291D-03 -0.500383D-05 -0.194321D-02  0.520371D-03
     30 -0.920769D-04  0.100480D-03  0.284957D-03 -0.891294D-03 -0.268919D-03
     31 -0.476832D-05 -0.129923D-03  0.292867D-04  0.624954D-03  0.303305D-03
     32 -0.960326D-04  0.330095D-03 -0.839479D-05  0.416018D-03 -0.119673D-02
     33  0.292180D-04 -0.108292D-04 -0.406694D-03  0.104794D-03  0.224981D-04
     34 -0.694792D-03 -0.213672D-02  0.441237D-04 -0.510992D-02  0.207472D-02
     35 -0.297261D-03 -0.407570D-03 -0.230567D-04 -0.212242D-03  0.209501D-02
     36  0.403981D-04 -0.155189D-03 -0.124559D-02 -0.102868D-02  0.163456D-03
     37  0.268522D-02 -0.777417D-03  0.350555D-03  0.735896D-02 -0.968907D-02
     38  0.216339D-02  0.234143D-02  0.146257D-03  0.215019D-01 -0.182066D-01
     39  0.344599D-03 -0.649870D-04 -0.214818D-02  0.321289D-03 -0.654494D-03
                6             7             8             9            10 
      6  0.152820D+00
      7 -0.395544D-02  0.720927D+00
      8  0.539513D-02  0.666515D-01  0.704483D+00
      9 -0.681495D-01  0.425985D-01  0.361612D-02  0.129073D+00
     10  0.399062D-03 -0.937582D-01 -0.965893D-01 -0.397081D-02  0.944363D-01
     11 -0.728731D-03 -0.956320D-01 -0.313451D+00 -0.630702D-02  0.104107D+00
     12  0.399881D-02 -0.397275D-02 -0.637579D-02 -0.360283D-01  0.485850D-02
     13 -0.473818D-02 -0.373947D+00 -0.727605D-01 -0.227533D-01 -0.482420D-02
     14 -0.518934D-03 -0.323412D-02 -0.136674D+00 -0.671774D-04 -0.299908D-01
     15  0.508194D-02 -0.228941D-01 -0.506141D-02 -0.567738D-01 -0.617801D-03
     16  0.178476D-02 -0.157383D-01 -0.344171D-01 -0.154987D-02 -0.558113D-02
     17  0.730151D-03 -0.876857D-01  0.181888D-02 -0.628855D-02  0.361066D-03
     18 -0.830412D-02 -0.144199D-02 -0.246215D-02  0.670987D-02 -0.969669D-03
     19 -0.338453D-02 -0.426033D-01  0.501708D-02 -0.278635D-02 -0.744758D-03
     20 -0.164905D-02  0.157241D-01 -0.397196D-02  0.112953D-02  0.545208D-03
     21  0.613009D-02 -0.280804D-02  0.360423D-03 -0.415739D-02 -0.184124D-04
     22 -0.146395D-02  0.357730D-01  0.136287D-01  0.207837D-02 -0.317236D-02
     23 -0.443562D-03  0.114351D-01 -0.312193D-01  0.897714D-03  0.274851D-02
     24 -0.694408D-01  0.208281D-02  0.105529D-02  0.660253D-02 -0.544931D-03
     25 -0.211642D-02 -0.720930D-02 -0.354639D-02 -0.124573D-02  0.621275D-04
     26 -0.127384D-02  0.113918D-02  0.137416D-02  0.997715D-04 -0.669806D-03
     27 -0.393649D-03 -0.125522D-02 -0.236803D-03  0.101432D-01  0.194003D-04
     28 -0.887162D-03 -0.160579D-01  0.267329D-01 -0.146518D-02  0.110152D-02
     29 -0.122367D-03 -0.540538D-02  0.867664D-02 -0.398592D-03  0.243505D-03
     30  0.895840D-02 -0.140008D-02  0.190997D-02  0.348113D-02  0.420502D-03
     31  0.105022D-03  0.131326D-02 -0.200890D-02 -0.338960D-03 -0.390105D-03
     32  0.305946D-04 -0.107083D-02 -0.571819D-02 -0.530069D-04 -0.149417D-02
     33 -0.838167D-03 -0.340860D-03 -0.120391D-03  0.606444D-02 -0.213800D-04
     34 -0.103331D-02 -0.975066D-03  0.262295D-03 -0.461911D-04  0.152066D-03
     35  0.000000D+00  0.699481D-03  0.691713D-03  0.481568D-04 -0.115243D-03
     36  0.914240D-02 -0.470766D-04  0.167528D-04 -0.342834D-03  0.839897D-04
     37  0.384462D-03 -0.511190D-03 -0.252788D-02 -0.336377D-03  0.594368D-03
     38  0.158602D-02 -0.379019D-02 -0.449674D-02 -0.254557D-03  0.124801D-02
     39  0.230432D-02 -0.333820D-03 -0.163882D-03  0.421926D-02  0.000000D+00
               11            12            13            14            15 
     11  0.329751D+00
     12  0.685869D-02  0.241992D-01
     13  0.115629D-02 -0.680885D-03  0.725294D+00
     14  0.472564D-03 -0.214590D-02 -0.477733D-01  0.703655D+00
     15  0.914630D-04  0.457747D-02  0.433754D-01 -0.460811D-02  0.125924D+00
     16 -0.397577D-03 -0.968132D-03 -0.145254D+00 -0.950414D-01 -0.611706D-02
     17  0.168502D-02  0.385395D-04 -0.157854D-01 -0.305419D+00 -0.631605D-03
     18 -0.159555D-04  0.783815D-02 -0.627759D-02 -0.632473D-02 -0.578544D-01
     19  0.753451D-03 -0.188342D-04  0.607052D-01  0.434764D-01  0.374243D-02
     20  0.278561D-03  0.375789D-04 -0.465823D-03 -0.527562D-01  0.883360D-04
     21  0.525375D-04 -0.505234D-03  0.383142D-02  0.324480D-02  0.764838D-02
     22  0.388774D-02 -0.547238D-03 -0.311347D-01 -0.266052D-01 -0.187224D-02
     23 -0.189082D-02  0.210044D-03 -0.145974D-01 -0.152900D-01 -0.102635D-02
     24  0.291877D-03  0.429658D-02 -0.189656D-02 -0.188889D-02 -0.445288D-02
     25  0.316552D-04  0.179796D-04 -0.181429D-03  0.254669D-02  0.397432D-04
     26  0.697654D-03 -0.499095D-04  0.633999D-04 -0.410096D-03  0.375126D-05
     27  0.000000D+00 -0.187672D-03  0.447728D-04  0.182131D-03 -0.803667D-03
     28 -0.310136D-03  0.421624D-03 -0.179683D+00  0.140772D+00 -0.105284D-01
     29  0.821488D-03  0.618838D-05  0.140711D+00 -0.224829D+00  0.104879D-01
     30 -0.335809D-04 -0.472903D-02 -0.105283D-01  0.104922D-01 -0.378601D-01
     31  0.126171D-03 -0.246618D-04 -0.614036D-02  0.106683D-02 -0.729344D-03
     32 -0.843736D-04 -0.107261D-03 -0.305252D-01  0.112127D-03 -0.218485D-02
     33  0.913206D-05 -0.518913D-04 -0.665359D-03  0.844725D-04  0.393504D-02
     34 -0.113141D-03  0.839854D-04 -0.251608D-02  0.308793D-02 -0.617275D-03
     35 -0.210296D-04 -0.102892D-04  0.424668D-02 -0.171413D-02  0.320652D-03
     36 -0.101381D-04 -0.100788D-02 -0.619622D-03  0.237416D-03  0.594515D-02
     37 -0.452245D-03  0.332184D-05 -0.190016D-03 -0.501414D-03  0.212331D-04
     38 -0.105531D-02  0.929207D-04 -0.895992D-03 -0.160868D-03 -0.649901D-04
     39 -0.292124D-04  0.560926D-03  0.220322D-04 -0.366468D-04 -0.469814D-03
               16            17            18            19            20 
     16  0.736997D+00
     17  0.162456D-01  0.657003D+00
     18  0.441106D-01  0.843106D-04  0.125628D+00
     19 -0.200047D+00  0.546785D-01 -0.103432D-01  0.689839D+00
     20  0.133970D+00 -0.249780D+00  0.100126D-01  0.425057D-01  0.737255D+00
     21 -0.105038D-01  0.431691D-02 -0.583614D-01  0.407038D-01  0.180714D-02
     22 -0.541729D-01  0.672799D-01 -0.453502D-02 -0.367625D+00 -0.844799D-01
     23  0.127735D-01  0.390081D-01  0.852845D-03 -0.141443D-01 -0.138577D+00
     24 -0.442462D-02  0.476816D-02  0.673606D-02 -0.224925D-01 -0.589728D-02
     25  0.108735D-03  0.373768D-04  0.260846D-05  0.778465D-03 -0.192017D-03
     26 -0.267364D-03  0.162298D-03 -0.193895D-04  0.148444D-03  0.162547D-03
     27  0.322567D-05  0.250069D-05  0.715943D-04 -0.474437D-04 -0.112163D-04
     28  0.108160D-01 -0.995724D-02  0.600990D-03  0.610287D-04 -0.249268D-02
     29  0.219443D-01 -0.176625D-01  0.161761D-02 -0.355539D-02 -0.419999D-02
     30  0.536378D-03 -0.673948D-03  0.277007D-02 -0.417997D-03 -0.158436D-03
     31 -0.336417D+00 -0.503257D-01 -0.216225D-01 -0.152051D-01 -0.669568D-02
     32 -0.504357D-01 -0.692591D-01 -0.355146D-02  0.250439D-01  0.889351D-02
     33 -0.216222D-01 -0.354356D-02 -0.355303D-01 -0.142191D-02 -0.491112D-03
     34  0.114242D-01  0.207640D-01  0.579818D-03 -0.929075D-01 -0.919400D-01
     35 -0.112927D-01 -0.180817D-01 -0.768953D-03 -0.915235D-01 -0.311580D+00
     36  0.644745D-03  0.153375D-02  0.281012D-02 -0.384860D-02 -0.604761D-02
     37 -0.491644D-02 -0.304275D-02 -0.905039D-03 -0.145948D-01  0.263070D-01
     38 -0.177983D-02  0.941846D-03 -0.114022D-03 -0.601317D-02  0.828426D-02
     39 -0.907596D-03 -0.204740D-03  0.770392D-02 -0.133861D-02  0.188143D-02
               21            22            23            24            25 
     21  0.124910D+00
     22 -0.223501D-01  0.748448D+00
     23 -0.844921D-03 -0.445911D-01  0.655160D+00
     24 -0.557037D-01  0.452495D-01 -0.428743D-02  0.123032D+00
     25 -0.467541D-04  0.221930D-02  0.144773D-02  0.694975D-03  0.174407D+00
     26  0.132397D-04 -0.457947D-02  0.243599D-02 -0.349070D-03 -0.179346D+00
     27  0.143137D-02  0.707183D-03  0.838769D-04 -0.744588D-02  0.119165D-01
     28 -0.420150D-03 -0.496327D-03 -0.680888D-03 -0.203425D-04 -0.552487D-03
     29 -0.234773D-03 -0.109812D-02  0.168822D-03 -0.796152D-04 -0.177136D-03
     30  0.595065D-02 -0.194974D-04 -0.496444D-04 -0.195234D-03  0.171374D-04
     31 -0.135763D-02 -0.442490D-03  0.383424D-02 -0.470803D-03  0.701449D-04
     32  0.178881D-02  0.285118D-02 -0.377905D-02  0.224620D-03 -0.118572D-03
     33  0.378252D-02 -0.468812D-03  0.295235D-03  0.596934D-02  0.634711D-05
     34 -0.384776D-02 -0.612584D-02 -0.320090D-01 -0.637293D-03  0.198472D-03
     35 -0.601770D-02  0.472478D-04 -0.155671D-02  0.139367D-04  0.956273D-04
     36 -0.370134D-01 -0.702219D-03 -0.228873D-02  0.360285D-02 -0.135102D-04
     37 -0.140407D-02 -0.174719D+00  0.138701D+00 -0.104698D-01 -0.160612D-03
     38 -0.440191D-03  0.139496D+00 -0.224217D+00  0.104078D-01 -0.203417D-02
     39  0.411006D-02 -0.104714D-01  0.103507D-01 -0.336491D-01 -0.202132D-04
               26            27            28            29            30 
     26  0.310938D+00
     27 -0.134851D-01  0.144527D-01
     28  0.177901D-03  0.164183D-04  0.187985D+00
     29  0.463780D-04 -0.144101D-04 -0.151682D+00  0.235983D+00
     30  0.110930D-04 -0.784860D-03  0.119898D-01 -0.113222D-01  0.262320D-01
     31  0.971152D-04  0.591027D-05  0.772104D-03 -0.216316D-03  0.303065D-03
     32  0.573942D-04 -0.866363D-05  0.419020D-03  0.109395D-02  0.209145D-04
     33  0.682963D-05 -0.144300D-04  0.301778D-03 -0.247231D-04 -0.341914D-02
     34  0.132890D-03 -0.135857D-04  0.443491D-03  0.109307D-02  0.565319D-05
     35  0.660003D-04  0.751289D-05 -0.544035D-03 -0.104452D-02 -0.362873D-04
     36  0.101896D-04  0.382865D-03  0.896892D-05  0.813097D-04  0.334450D-03
     37  0.699645D-03 -0.257502D-04  0.430145D-04  0.152622D-03  0.766789D-04
     38  0.350027D-03 -0.146467D-03  0.147413D-03  0.597880D-04  0.838430D-05
     39  0.499089D-04  0.176585D-03  0.766895D-04  0.875843D-05 -0.102327D-02
               31            32            33            34            35 
     31  0.355822D+00
     32  0.541467D-01  0.682671D-01
     33  0.238560D-01  0.379614D-02  0.238937D-01
     34  0.886636D-03 -0.482187D-03  0.312696D-03  0.942434D-01
     35  0.143743D-03  0.995901D-03  0.131489D-05  0.989578D-01  0.329638D+00
     36  0.311428D-03 -0.436470D-04 -0.343045D-02  0.476829D-02  0.649150D-02
     37 -0.889049D-03  0.134587D-02 -0.702560D-04  0.980953D-03 -0.205627D-03
     38 -0.341551D-03  0.287346D-03 -0.250129D-04  0.308272D-03  0.919015D-03
     39 -0.668383D-04  0.961980D-04  0.460646D-04  0.400850D-03 -0.259650D-04
               36            37            38            39 
     36  0.254016D-01
     37  0.401891D-03  0.184318D+00
     38  0.109494D-04 -0.150010D+00  0.234953D+00
     39 -0.457926D-02  0.119731D-01 -0.112071D-01  0.227485D-01
 FormGI is forming the generalized inverse of G from B-inverse, IUseBI=4.
 Leave Link  716 at Sun Mar  1 23:30:48 2020, MaxMem=  1879048192 cpu:               5.0 elap:               0.2
 (Enter /opt/g16/l103.exe)

 GradGradGradGradGradGradGradGradGradGradGradGradGradGradGradGradGradGrad
 Berny optimization.
 Red2BG is reusing G-inverse.
 Internal  Forces:  Max     0.010834040 RMS     0.003280533
 Search for a local minimum.
 Step number   1 out of a maximum of   68 on scan point     1 out of    37
 All quantities printed in internal units (Hartrees-Bohrs-Radians)
 RMS Force = .33092D-02 SwitMx=.10000D-02 MixMth= 1
 Mixed Optimization -- RFO/linear search
 Second derivative matrix not updated -- analytic derivatives used.
 ITU=  0
     Eigenvalues ---    0.01333   0.01684   0.01759   0.02135   0.02257
     Eigenvalues ---    0.02509   0.02598   0.02722   0.02836   0.10823
     Eigenvalues ---    0.11206   0.11553   0.12492   0.12686   0.18125
     Eigenvalues ---    0.18333   0.19549   0.19841   0.22178   0.30725
     Eigenvalues ---    0.31781   0.36331   0.36622   0.36704   0.36893
     Eigenvalues ---    0.37134   0.40871   0.43772   0.43908   0.46319
     Eigenvalues ---    0.53795   0.562251000.000001000.000001000.00000
     Eigenvalues --- 1000.000001000.000001000.000001000.000001000.00000
     Eigenvalues --- 1000.000001000.000001000.000001000.000001000.00000
     Eigenvalues --- 1000.000001000.000001000.000001000.000001000.00000
     Eigenvalues --- 1000.000001000.000001000.000001000.000001000.00000
     Eigenvalues --- 1000.000001000.000001000.00000
 RFO step:  Lambda=-1.21514237D-03 EMin= 1.33274703D-02
 Linear search not attempted -- first point.
 Maximum step size (   0.050) exceeded in Quadratic search.
    -- Step size scaled by   0.991
 Iteration  1 RMS(Cart)=  0.01028028 RMS(Int)=  0.00001730
 Iteration  2 RMS(Cart)=  0.00002609 RMS(Int)=  0.00000054
 Iteration  3 RMS(Cart)=  0.00000000 RMS(Int)=  0.00000054
 Iteration  1 RMS(Cart)=  0.00000002 RMS(Int)=  0.00000002
 ITry= 1 IFail=0 DXMaxC= 2.96D-02 DCOld= 1.00D+10 DXMaxT= 5.00D-02 DXLimC= 3.00D+00 Rises=F
 ClnCor:  largest displacement from symmetrization is 1.37D-07 for atom     9.
[...]
 Alpha virt. eigenvalues --    2.44400   2.47794   2.50513   2.53471   2.55533
 Alpha virt. eigenvalues --    2.57610   2.59629   2.66189   2.68332   2.72181
 Alpha virt. eigenvalues --    2.74315   2.79708   2.86890   3.04392   3.08923
 Alpha virt. eigenvalues --    3.16386   3.22608   3.23741   3.31599   3.38718
 Alpha virt. eigenvalues --    3.42910   3.50424   3.87823   3.94734   4.10048
 Alpha virt. eigenvalues --    4.15009   4.15257   4.42294   4.42657   4.80459
  Beta  occ. eigenvalues --  -14.31699 -10.22847 -10.20462 -10.20410 -10.20171
  Beta  occ. eigenvalues --  -10.20143 -10.19622  -0.89272  -0.83050  -0.75493
  Beta  occ. eigenvalues --   -0.70799  -0.61416  -0.58908  -0.51876  -0.48261
  Beta  occ. eigenvalues --   -0.45723  -0.43065  -0.42531  -0.37699  -0.37101
  Beta  occ. eigenvalues --   -0.35148  -0.28918  -0.26261  -0.25961
  Beta virt. eigenvalues --   -0.10695  -0.00163   0.03329   0.08787   0.11179
  Beta virt. eigenvalues --    0.14364   0.15669   0.16465   0.18295   0.18734
  Beta virt. eigenvalues --    0.25674   0.29370   0.30263   0.33398   0.37585
  Beta virt. eigenvalues --    0.47857   0.51232   0.51672   0.53740   0.54169
  Beta virt. eigenvalues --    0.57643   0.58952   0.59167   0.60029   0.60354
  Beta virt. eigenvalues --    0.60956   0.64873   0.65802   0.66763   0.71262
  Beta virt. eigenvalues --    0.75425   0.80556   0.81176   0.81363   0.82111
  Beta virt. eigenvalues --    0.84105   0.85955   0.89720   0.90819   0.93459
  Beta virt. eigenvalues --    0.97857   1.00952   1.03744   1.08951   1.12026
  Beta virt. eigenvalues --    1.16100   1.19120   1.24186   1.30065   1.36121
  Beta virt. eigenvalues --    1.37585   1.39215   1.40569   1.41198   1.42700
  Beta virt. eigenvalues --    1.54007   1.59313   1.72932   1.76684   1.81703
  Beta virt. eigenvalues --    1.85616   1.87523   1.90439   1.91263   1.93232
  Beta virt. eigenvalues --    1.95450   1.96254   1.98562   1.99307   2.02437
  Beta virt. eigenvalues --    2.12779   2.24504   2.24955   2.27071   2.34672
  Beta virt. eigenvalues --    2.35396   2.37382   2.39350   2.39776   2.40136
  Beta virt. eigenvalues --    2.43324   2.44697   2.47889   2.51302   2.54455
  Beta virt. eigenvalues --    2.56404   2.57638   2.60053   2.67174   2.68707
  Beta virt. eigenvalues --    2.72882   2.74842   2.79831   2.87168   3.04497
  Beta virt. eigenvalues --    3.09056   3.16674   3.22645   3.23769   3.31962
  Beta virt. eigenvalues --    3.38902   3.43263   3.50515   3.87974   3.96836
  Beta virt. eigenvalues --    4.10318   4.15324   4.15587   4.42567   4.42932
  Beta virt. eigenvalues --    4.80757
          Condensed to atoms (all electrons):
               1          2          3          4          5          6
     1  N    6.936462   0.438669  -0.075034  -0.000268   0.005017   0.000051
     2  C    0.438669   4.594565   0.479892  -0.032590  -0.022008  -0.033442
     3  C   -0.075034   0.479892   4.918450   0.356744   0.536971  -0.039298
     4  H   -0.000268  -0.032590   0.356744   0.608244  -0.043843   0.005106
     5  C    0.005017  -0.022008   0.536971  -0.043843   4.831391   0.520081
     6  C    0.000051  -0.033442  -0.039298   0.005106   0.520081   4.848759
     7  C    0.008796   0.000668  -0.033668  -0.000237  -0.032669   0.522761
     8  C   -0.084370   0.439638  -0.073445   0.007669  -0.035917  -0.038096
     9  H    0.308431  -0.064875   0.009448  -0.000476  -0.000296  -0.000034
    10  H   -0.000122   0.003851  -0.036124  -0.006410   0.369089  -0.042195
    11  H    0.000003   0.000635   0.004290  -0.000158  -0.040070   0.370143
    12  H   -0.000134   0.002732   0.000676   0.000017   0.004310  -0.040757
    13  H   -0.008609  -0.041919   0.005254  -0.000154   0.000283   0.004861
               7          8          9         10         11         12
     1  N    0.008796  -0.084370   0.308431  -0.000122   0.000003  -0.000134
     2  C    0.000668   0.439638  -0.064875   0.003851   0.000635   0.002732
     3  C   -0.033668  -0.073445   0.009448  -0.036124   0.004290   0.000676
     4  H   -0.000237   0.007669  -0.000476  -0.006410  -0.000158   0.000017
     5  C   -0.032669  -0.035917  -0.000296   0.369089  -0.040070   0.004310
     6  C    0.522761  -0.038096  -0.000034  -0.042195   0.370143  -0.040757
     7  C    4.872364   0.466090   0.001107   0.004548  -0.040366   0.364122
     8  C    0.466090   5.088510  -0.015531   0.000533   0.004896  -0.031386
     9  H    0.001107  -0.015531   0.533239   0.000006  -0.000001  -0.000020
    10  H    0.004548   0.000533   0.000006   0.617295  -0.005799  -0.000187
    11  H   -0.040366   0.004896  -0.000001  -0.005799   0.616594  -0.005708
    12  H    0.364122  -0.031386  -0.000020  -0.000187  -0.005708   0.617632
    13  H   -0.041845   0.364706   0.006412   0.000015  -0.000178  -0.006330
              13
     1  N   -0.008609
     2  C   -0.041919
     3  C    0.005254
     4  H   -0.000154
     5  C    0.000283
     6  C    0.004861
     7  C   -0.041845
     8  C    0.364706
     9  H    0.006412
    10  H    0.000015
    11  H   -0.000178
    12  H   -0.006330
    13  H    0.628587
          Atomic-Atomic Spin Densities.
               1          2          3          4          5          6
     1  N    0.704167  -0.036681  -0.017565  -0.000309  -0.000095   0.000218
     2  C   -0.036681  -0.173018   0.010087   0.000511   0.001064  -0.001277
     3  C   -0.017565   0.010087   0.307054   0.001905  -0.000792  -0.012303
     4  H   -0.000309   0.000511   0.001905  -0.015397   0.000325   0.000004
     5  C   -0.000095   0.001064  -0.000792   0.000325  -0.158554  -0.001317
     6  C    0.000218  -0.001277  -0.012303   0.000004  -0.001317   0.354197
     7  C   -0.000164   0.000225   0.000161  -0.000020  -0.000186   0.005040
     8  C   -0.012169   0.010099   0.004425  -0.000056   0.000317  -0.012421
     9  H   -0.002803   0.003754   0.000121   0.000015   0.000015   0.000001
    10  H   -0.000000  -0.000009  -0.000716   0.000075   0.000686  -0.000633
    11  H    0.000000  -0.000036   0.000016   0.000004   0.000250   0.001777
    12  H    0.000003   0.000035  -0.000017  -0.000000   0.000012  -0.000677
    13  H    0.000145   0.000296   0.000010   0.000003  -0.000039   0.000028
               7          8          9         10         11         12
     1  N   -0.000164  -0.012169  -0.002803  -0.000000   0.000000   0.000003
     2  C    0.000225   0.010099   0.003754  -0.000009  -0.000036   0.000035
     3  C    0.000161   0.004425   0.000121  -0.000716   0.000016  -0.000017
     4  H   -0.000020  -0.000056   0.000015   0.000075   0.000004  -0.000000
     5  C   -0.000186   0.000317   0.000015   0.000686   0.000250   0.000012
     6  C    0.005040  -0.012421   0.000001  -0.000633   0.001777  -0.000677
     7  C   -0.156489  -0.004737  -0.000041   0.000004   0.000150   0.000863
     8  C   -0.004737   0.302940  -0.000034  -0.000010   0.000002  -0.000791
     9  H   -0.000041  -0.000034  -0.022438  -0.000000  -0.000000   0.000001
    10  H    0.000004  -0.000010  -0.000000   0.006144   0.000095  -0.000001
    11  H    0.000150   0.000002  -0.000000   0.000095  -0.017446   0.000083
    12  H    0.000863  -0.000791   0.000001  -0.000001   0.000083   0.005920
    13  H    0.000675   0.001498  -0.000116  -0.000000   0.000004   0.000052
              13
     1  N    0.000145
     2  C    0.000296
     3  C    0.000010
     4  H    0.000003
     5  C   -0.000039
     6  C    0.000028
     7  C    0.000675
     8  C    0.001498
     9  H   -0.000116
    10  H   -0.000000
    11  H    0.000004
    12  H    0.000052
    13  H   -0.015159
 Mulliken charges and spin densities:
               1          2
     1  N   -0.528891   0.634748
     2  C    0.234183  -0.184949
     3  C   -0.054156   0.292387
     4  H    0.106357  -0.012941
     5  C   -0.092338  -0.158315
     6  C   -0.077940   0.332636
     7  C   -0.091672  -0.154519
     8  C   -0.093296   0.289063
     9  H    0.222588  -0.021524
    10  H    0.095499   0.005635
    11  H    0.095717  -0.015101
    12  H    0.095031   0.005481
    13  H    0.088916  -0.012601
 Sum of Mulliken charges =  -0.00000   1.00000
 Mulliken charges and spin densities with hydrogens summed into heavy atoms:
               1          2
     1  N   -0.306303   0.613224
     2  C    0.234183  -0.184949
     3  C    0.052202   0.279446
     5  C    0.003161  -0.152680
     6  C    0.017777   0.317535
     7  C    0.003359  -0.149038
     8  C   -0.004380   0.276462
 Electronic spatial extent (au):  <R**2>=            655.2794
 Charge=             -0.0000 electrons
 Dipole moment (field-independent basis, Debye):
    X=              2.0531    Y=              1.3090    Z=             -0.0010  Tot=              2.4348
 Quadrupole moment (field-independent basis, Debye-Ang):
   XX=            -41.2902   YY=            -35.6383   ZZ=            -43.3187
   XY=             -4.2782   XZ=              0.0029   YZ=              0.0002
 Traceless Quadrupole moment (field-independent basis, Debye-Ang):
   XX=             -1.2078   YY=              4.4441   ZZ=             -3.2363
   XY=             -4.2782   XZ=              0.0029   YZ=              0.0002
 Octapole moment (field-independent basis, Debye-Ang**2):
  XXX=             17.8178  YYY=              0.5685  ZZZ=              0.0006  XYY=             -0.0032
  XXY=             12.7608  XXZ=             -0.0021  XZZ=             -2.4215  YZZ=              0.1211
  YYZ=             -0.0038  XYZ=             -0.0037
 Hexadecapole moment (field-independent basis, Debye-Ang**3):
 XXXX=           -536.0729 YYYY=           -276.4997 ZZZZ=            -43.4136 XXXY=            -37.8592
 XXXZ=              0.0160 YYYX=             -3.5270 YYYZ=             -0.0039 ZZZX=             -0.0014
 ZZZY=             -0.0001 XXYY=           -127.7965 XXZZ=           -101.2597 YYZZ=            -62.9057
 XXYZ=              0.0055 YYXZ=              0.0028 ZZXY=             -0.7903
 N-N= 2.606276617896D+02 E-N=-1.186448884795D+03  KE= 2.842092302015D+02
                          Isotropic Fermi Contact Couplings
        Atom                 a.u.       MegaHertz       Gauss      10(-4) cm-1
     1  N(14)              0.08074      26.08768       9.30873       8.70191
     2  C(13)             -0.03454     -38.82941     -13.85530     -12.95210
     3  C(13)              0.03060      34.39773      12.27397      11.47385
     4  H(1)              -0.00432     -19.31610      -6.89246      -6.44316
     5  C(13)             -0.02288     -25.72710      -9.18007      -8.58164
     6  C(13)              0.03564      40.06525      14.29628      13.36433
     7  C(13)             -0.02244     -25.23129      -9.00315      -8.41625
     8  C(13)              0.03049      34.27466      12.23005      11.43280
     9  H(1)              -0.00911     -40.73991     -14.53701     -13.58937
    10  H(1)               0.00184       8.20798       2.92881       2.73789
    11  H(1)              -0.00493     -22.04407      -7.86587      -7.35311
    12  H(1)               0.00179       7.97989       2.84742       2.66181
    13  H(1)              -0.00423     -18.90363      -6.74528      -6.30557
 --------------------------------------------------------
       Center         ----  Spin Dipole Couplings  ----
                      3XX-RR        3YY-RR        3ZZ-RR
 --------------------------------------------------------
     1   Atom       -0.651759     -0.651700      1.303460
     2   Atom        0.098844      0.050834     -0.149678
     3   Atom       -0.141187     -0.139514      0.280701
     4   Atom       -0.008854      0.013371     -0.004517
     5   Atom        0.067632      0.057746     -0.125377
     6   Atom       -0.155376     -0.169708      0.325085
     7   Atom        0.065660      0.055695     -0.121354
     8   Atom       -0.140178     -0.136946      0.277125
     9   Atom       -0.038273      0.051464     -0.013190
    10   Atom        0.005029     -0.000168     -0.004862
    11   Atom        0.023718     -0.022923     -0.000795
    12   Atom        0.004719      0.000105     -0.004824
    13   Atom       -0.009369      0.013251     -0.003881
 --------------------------------------------------------
                        XY            XZ            YZ
 --------------------------------------------------------
     1   Atom       -0.008701      0.001334      0.000464
     2   Atom        0.004605     -0.000098      0.000018
     3   Atom       -0.000842     -0.000141     -0.000045
     4   Atom        0.010873     -0.000005      0.000008
     5   Atom        0.005041      0.000076      0.000013
     6   Atom        0.000283     -0.000141      0.000029
     7   Atom       -0.004635      0.000021     -0.000048
     8   Atom        0.000690     -0.000147      0.000010
     9   Atom       -0.050282      0.000032      0.000014
    10   Atom        0.004177      0.000004      0.000002
    11   Atom        0.000758      0.000004      0.000001
    12   Atom       -0.004012      0.000001     -0.000001
    13   Atom       -0.011927      0.000000     -0.000015
 --------------------------------------------------------


 ---------------------------------------------------------------------------------
              Anisotropic Spin Dipole Couplings in Principal Axis System
 ---------------------------------------------------------------------------------

       Atom             a.u.   MegaHertz   Gauss  10(-4) cm-1        Axes

              Baa    -0.6604   -25.471    -9.089    -8.496  0.7083  0.7059 -0.0006
     1 N(14)  Bbb    -0.6430   -24.800    -8.849    -8.272 -0.7059  0.7083  0.0003
              Bcc     1.3035    50.272    17.938    16.769  0.0007  0.0002  1.0000
 
              Baa    -0.1497   -20.085    -7.167    -6.700  0.0004 -0.0001  1.0000
     2 C(13)  Bbb     0.0504     6.763     2.413     2.256 -0.0946  0.9955  0.0001
              Bcc     0.0993    13.323     4.754     4.444  0.9955  0.0946 -0.0004
 
              Baa    -0.1415   -18.993    -6.777    -6.335  0.9232  0.3842  0.0004
     3 C(13)  Bbb    -0.1392   -18.674    -6.663    -6.229 -0.3842  0.9232 -0.0000
              Bcc     0.2807    37.667    13.441    12.564 -0.0003 -0.0001  1.0000
 
              Baa    -0.0133    -7.090    -2.530    -2.365  0.9260 -0.3776  0.0009
     4 H(1)   Bbb    -0.0045    -2.410    -0.860    -0.804 -0.0009  0.0001  1.0000
              Bcc     0.0178     9.500     3.390     3.169  0.3776  0.9260  0.0003
 
              Baa    -0.1254   -16.824    -6.003    -5.612 -0.0004 -0.0001  1.0000
     5 C(13)  Bbb     0.0556     7.465     2.664     2.490 -0.3872  0.9220 -0.0001
              Bcc     0.0697     9.360     3.340     3.122  0.9220  0.3872  0.0004
 
              Baa    -0.1697   -22.774    -8.126    -7.597 -0.0198  0.9998 -0.0001
     6 C(13)  Bbb    -0.1554   -20.849    -7.440    -6.955  0.9998  0.0198  0.0003
              Bcc     0.3251    43.623    15.566    14.551 -0.0003  0.0001  1.0000
 
              Baa    -0.1214   -16.285    -5.811    -5.432 -0.0001  0.0003  1.0000
     7 C(13)  Bbb     0.0539     7.229     2.580     2.411  0.3659  0.9306 -0.0002
              Bcc     0.0675     9.055     3.231     3.021  0.9306 -0.3659  0.0002
 
              Baa    -0.1403   -18.830    -6.719    -6.281  0.9797 -0.2004  0.0004
     8 C(13)  Bbb    -0.1368   -18.358    -6.551    -6.124  0.2004  0.9797  0.0000
              Bcc     0.2771    37.187    13.269    12.404 -0.0004  0.0000  1.0000
 
              Baa    -0.0608   -32.438   -11.575   -10.820  0.9126  0.4088 -0.0007
     9 H(1)   Bbb    -0.0132    -7.038    -2.511    -2.348  0.0007  0.0003  1.0000
              Bcc     0.0740    39.475    14.086    13.168 -0.4088  0.9126 -0.0000
 
              Baa    -0.0049    -2.594    -0.926    -0.865 -0.0003 -0.0002  1.0000
    10 H(1)   Bbb    -0.0025    -1.328    -0.474    -0.443 -0.4857  0.8741 -0.0000
              Bcc     0.0074     3.922     1.399     1.308  0.8741  0.4857  0.0003
 
              Baa    -0.0229   -12.237    -4.367    -4.082 -0.0163  0.9999 -0.0001
    11 H(1)   Bbb    -0.0008    -0.424    -0.151    -0.142 -0.0002  0.0001  1.0000
              Bcc     0.0237    12.662     4.518     4.223  0.9999  0.0163  0.0002
 
              Baa    -0.0048    -2.574    -0.918    -0.858 -0.0001  0.0002  1.0000
    12 H(1)   Bbb    -0.0022    -1.182    -0.422    -0.394  0.5007  0.8656 -0.0002
              Bcc     0.0070     3.756     1.340     1.253  0.8656 -0.5007  0.0002
 
              Baa    -0.0145    -7.735    -2.760    -2.580  0.9187  0.3949  0.0005
    13 H(1)   Bbb    -0.0039    -2.071    -0.739    -0.691 -0.0008  0.0004  1.0000
              Bcc     0.0184     9.805     3.499     3.271 -0.3949  0.9187 -0.0006
 

 ---------------------------------------------------------------------------------

 No NMR shielding tensors so no spin-rotation constants.
 Leave Link  601 at Mon Mar  2 00:14:52 2020, MaxMem=  1879048192 cpu:              30.6 elap:               0.9
 (Enter /opt/g16/l9999.exe)

 Test job not archived.
 1\1\GINC-NODE05\Scan\UB3LYP\6-31G(d,p)\C6H6N1(2)\ALONGD\02-Mar-2020\0\
 \#P opt=(modredundant, calcfc, noeigentest, maxStep=5) scf=(tight, dir
 ect) integral=(grid=ultrafine, Acc2E=12) guess=read ub3lyp/6-31g(d,p) 
 scf=xqc iop(2/9=2000)\\name\\0,2\N,2.4351977757,0.5849677208,0.1266520
 401\C,1.1352085582,0.2679304707,0.0592710017\C,0.1983617231,1.32801561
 74,-0.1772948028\H,0.600440106,2.3295512803,-0.2889824378\C,-1.1581916
 493,1.0740591145,-0.2575625361\C,-1.6444850254,-0.2355759191,-0.108137
 995\C,-0.7525497891,-1.2959244429,0.1240235613\C,0.6073917643,-1.05849
 8297,0.2073598018\H,2.9769399441,-0.270842106,0.2988772553\H,-1.853263
 1921,1.8890500981,-0.4369890809\H,-2.7107908294,-0.4295074348,-0.17223
 64324\H,-1.1347954991,-2.306211458,0.2382747106\H,1.300532158,-1.87701
 36453,0.3867452861\\Version=ES64L-G16RevB.01\State=2-A\HF=-286.9650131
 ,-286.9642889,-286.9621875,-286.9589327,-286.9549021,-286.9505961,-286
 .9465574,-286.9432797,-286.9411995,-286.940677,-286.9418184,-286.94437
 87,-286.9479337,-286.9520076,-286.9561041,-286.9597593,-286.9626062,-2
 86.9644014,-286.9650132,-286.9644014,-286.9626062,-286.9597593,-286.95
 6104,-286.9520075,-286.9479336,-286.9443788,-286.9418183,-286.9406771,
 -286.9411995,-286.9432797,-286.9465573,-286.9505962,-286.9549023,-286.
 958933,-286.9621874,-286.9642888,-286.9650132\S2=0.789855,0.789438,0.7
 87945,0.784764,0.779006,0.77078,0.761891,0.755619,0.753362,0.753192,0.
 753798,0.75746,0.764901,0.773647,0.780899,0.785632,0.788266,0.789495,0
 .789848,0.789494,0.78828,0.785649,0.780932,0.773705,0.764964,0.757467,
 0.753806,0.753192,0.75336,0.755601,0.761876,0.770726,0.778965,0.784683
 ,0.787929,0.789437,0.789873\S2-1=0.,0.,0.,0.,0.,0.,0.,0.,0.,0.,0.,0.,0
 .,0.,0.,0.,0.,0.,0.,0.,0.,0.,0.,0.,0.,0.,0.,0.,0.,0.,0.,0.,0.,0.,0.,0.
 ,0.\S2A=0.751064,0.751038,0.750948,0.75078,0.750533,0.750275,0.750098,
 0.750025,0.750008,0.750007,0.750011,0.750043,0.750148,0.750354,0.75060
 8,0.750824,0.750967,0.751041,0.751064,0.751041,0.750968,0.750825,0.750
 609,0.750356,0.750149,0.750043,0.750011,0.750007,0.750008,0.750025,0.7
 50098,0.750274,0.750531,0.750777,0.750948,0.751038,0.751065\RMSD=8.495
 e-09,6.300e-09,4.597e-09,8.655e-09,7.940e-09,3.373e-09,2.369e-09,8.482
 e-09,9.088e-09,3.176e-09,3.335e-09,9.266e-09,8.138e-09,6.410e-09,3.878
 e-09,7.888e-09,5.152e-09,6.728e-09,3.397e-09,9.002e-09,6.534e-09,4.828
 e-09,7.352e-09,6.601e-09,5.945e-09,2.392e-09,2.585e-09,9.466e-09,3.235
 e-09,3.794e-09,6.390e-09,6.174e-09,7.750e-09,1.962e-09,9.035e-09,4.914
 e-09,6.572e-09\PG=C01 [X(C6H6N1)]\\@


 We make a living by what we get,
 we make a life by what we give.
                   -- Sir Winston Churchill
 Job cpu time:       1 days  1 hours 55 minutes 48.5 seconds.
 Elapsed time:       0 days  0 hours 45 minutes 42.2 seconds.
 File lengths (MBytes):  RWF=     60 Int=      0 D2E=      0 Chk=      9 Scr=      1
 Normal termination of Gaussian 16 at Mon Mar  2 00:14:52 2020.
