 Entering Gaussian System, Link 0=g16
 Initial command:
 /home/gridsan/groups/GRPAPI/Software/g16/l1.exe "/state/partition1/user/alongd/a47321-1584830/Gau-40801.inp" -scrdir="/state/partition1/user/alongd/a47321-1584830/"
 Entering Link 1 = /home/gridsan/groups/GRPAPI/Software/g16/l1.exe PID=     40803.
  
 Copyright (c) 1988-2017, Gaussian, Inc.  All Rights Reserved.
  
 This is part of the Gaussian(R) 16 program.  It is based on
 the Gaussian(R) 09 system (copyright 2009, Gaussian, Inc.),
 the Gaussian(R) 03 system (copyright 2003, Gaussian, Inc.),
 the Gaussian(R) 98 system (copyright 1998, Gaussian, Inc.),
 the Gaussian(R) 94 system (copyright 1995, Gaussian, Inc.),
 the Gaussian 92(TM) system (copyright 1992, Gaussian, Inc.),
 the Gaussian 90(TM) system (copyright 1990, Gaussian, Inc.),
 the Gaussian 88(TM) system (copyright 1988, Gaussian, Inc.),
 the Gaussian 86(TM) system (copyright 1986, Carnegie Mellon
 University), and the Gaussian 82(TM) system (copyright 1983,
 Carnegie Mellon University). Gaussian is a federally registered
 trademark of Gaussian, Inc.
  
 This software contains proprietary and confidential information,
 including trade secrets, belonging to Gaussian, Inc.
  
 This software is provided under written license and may be
 used, copied, transmitted, or stored only in accord with that
 written license.
  
 The following legend is applicable only to US Government
 contracts under FAR:
  
                    RESTRICTED RIGHTS LEGEND
  
 Use, reproduction and disclosure by the US Government is
 subject to restrictions as set forth in subparagraphs (a)
 and (c) of the Commercial Computer Software - Restricted
 Rights clause in FAR 52.227-19.
  
 Gaussian, Inc.
 340 Quinnipiac St., Bldg. 40, Wallingford CT 06492
  
  
 ---------------------------------------------------------------
 Warning -- This program may not be used in any manner that
 competes with the business of Gaussian, Inc. or will provide
 assistance to any competitor of Gaussian, Inc.  The licensee
 of this program is prohibited from giving any competitor of
 Gaussian, Inc. access to this program.  By using this program,
 the user acknowledges that Gaussian, Inc. is engaged in the
 business of creating and licensing software in the field of
 computational chemistry and represents and warrants to the
 licensee that it is not a competitor of Gaussian, Inc. and that
 it will not use this program in any manner prohibited above.
 ---------------------------------------------------------------
  

 Cite this work as:
 Gaussian 16, Revision B.01,
 M. J. Frisch, G. W. Trucks, H. B. Schlegel, G. E. Scuseria, 
 M. A. Robb, J. R. Cheeseman, G. Scalmani, V. Barone, 
 G. A. Petersson, H. Nakatsuji, X. Li, M. Caricato, A. V. Marenich, 
 J. Bloino, B. G. Janesko, R. Gomperts, B. Mennucci, H. P. Hratchian, 
 J. V. Ortiz, A. F. Izmaylov, J. L. Sonnenberg, D. Williams-Young, 
 F. Ding, F. Lipparini, F. Egidi, J. Goings, B. Peng, A. Petrone, 
 T. Henderson, D. Ranasinghe, V. G. Zakrzewski, J. Gao, N. Rega, 
 G. Zheng, W. Liang, M. Hada, M. Ehara, K. Toyota, R. Fukuda, 
 J. Hasegawa, M. Ishida, T. Nakajima, Y. Honda, O. Kitao, H. Nakai, 
 T. Vreven, K. Throssell, J. A. Montgomery, Jr., J. E. Peralta, 
 F. Ogliaro, M. J. Bearpark, J. J. Heyd, E. N. Brothers, K. N. Kudin, 
 V. N. Staroverov, T. A. Keith, R. Kobayashi, J. Normand, 
 K. Raghavachari, A. P. Rendell, J. C. Burant, S. S. Iyengar, 
 J. Tomasi, M. Cossi, J. M. Millam, M. Klene, C. Adamo, R. Cammi, 
 J. W. Ochterski, R. L. Martin, K. Morokuma, O. Farkas, 
 J. B. Foresman, and D. J. Fox, Gaussian, Inc., Wallingford CT, 2016.
 
 ******************************************
 Gaussian 16:  ES64L-G16RevB.01 20-Dec-2017
                 3-Jul-2020 
 ******************************************
 %chk=check.chk
 %mem=14336mb
 %NProcShared=8
 Will use up to    8 processors via shared memory.
 ----------------------------------------------------------------------
 #P guess=read ub3lyp/6-311+g(3df,2p) freq iop(7/33=1) scf=(tight, dire
 ct) integral=(grid=ultrafine, Acc2E=12) iop(2/9=2000) scf=xqc
 ----------------------------------------------------------------------
 1/10=4,30=1,38=1/1,3;
 2/9=2000,12=2,17=6,18=5,40=1/2;
 3/5=4,6=6,7=216,11=2,25=1,27=12,30=1,71=2,74=-5,75=-5,116=2,140=1/1,2,3;
 4/5=1/1;
 5/5=2,8=3,13=1,32=2,38=6,87=12,98=1/2,8;
 8/6=4,10=90,11=11,87=12/1;
 11/6=1,8=1,9=11,15=111,16=1,87=12/1,2,10;
 10/6=1,87=12/2;
 6/7=2,8=2,9=2,10=2,28=1,87=12/1;
 7/8=1,10=1,25=1,33=1,87=12/1,2,3,16;
 1/10=4,30=1/3;
 99//99;
 Leave Link    1 at Fri Jul  3 14:50:34 2020, MaxMem=  1879048192 cpu:               0.4 elap:               0.1
 (Enter /home/gridsan/groups/GRPAPI/Software/g16/l101.exe)
 ----
 name
 ----
 Symbolic Z-matrix:
 Charge =  0 Multiplicity = 2
 C                    -0.44513  -0.01641   0.03633 
 O                     0.84017  -0.56628  -0.32979 
 O                     1.81379   0.27586  -0.07063 
 H                    -0.61875   0.8922   -0.53607 
 H                    -1.17351  -0.78303  -0.21579 
 H                    -0.45068   0.19322   1.10375 
 
 ITRead=  0  0  0  0  0  0
 MicOpt= -1 -1 -1 -1 -1 -1
 NAtoms=      6 NQM=        6 NQMF=       0 NMMI=      0 NMMIF=      0
                NMic=       0 NMicF=      0.
                    Isotopes and Nuclear Properties:
 (Nuclear quadrupole moments (NQMom) in fm**2, nuclear magnetic moments (NMagM)
  in nuclear magnetons)

  Atom         1           2           3           4           5           6
 IAtWgt=          12          16          16           1           1           1
 AtmWgt=  12.0000000  15.9949146  15.9949146   1.0078250   1.0078250   1.0078250
 NucSpn=           0           0           0           1           1           1
 AtZEff=  -0.0000000  -0.0000000  -0.0000000  -0.0000000  -0.0000000  -0.0000000
 NQMom=    0.0000000   0.0000000   0.0000000   0.0000000   0.0000000   0.0000000
 NMagM=    0.0000000   0.0000000   0.0000000   2.7928460   2.7928460   2.7928460
 AtZNuc=   6.0000000   8.0000000   8.0000000   1.0000000   1.0000000   1.0000000
 Leave Link  101 at Fri Jul  3 14:50:34 2020, MaxMem=  1879048192 cpu:               0.7 elap:               0.1
 (Enter /home/gridsan/groups/GRPAPI/Software/g16/l103.exe)

 GradGradGradGradGradGradGradGradGradGradGradGradGradGradGradGradGradGrad
 Berny optimization.
 Initialization pass.
 Trust Radius=3.00D-01 FncErr=1.00D-07 GrdErr=1.00D-07 EigMax=2.50D+02 EigMin=1.00D-04
 Number of steps in this run=      2 maximum allowed number of steps=      2.
 GradGradGradGradGradGradGradGradGradGradGradGradGradGradGradGradGradGrad

 Leave Link  103 at Fri Jul  3 14:50:35 2020, MaxMem=  1879048192 cpu:               0.1 elap:               0.0
 (Enter /home/gridsan/groups/GRPAPI/Software/g16/l202.exe)
                          Input orientation:                          
 ---------------------------------------------------------------------
 Center     Atomic      Atomic             Coordinates (Angstroms)
 Number     Number       Type             X           Y           Z
 ---------------------------------------------------------------------
      1          6           0       -0.445133   -0.016405    0.036328
      2          8           0        0.840166   -0.566275   -0.329792
      3          8           0        1.813794    0.275863   -0.070634
      4          1           0       -0.618754    0.892203   -0.536074
      5          1           0       -1.173511   -0.783026   -0.215793
      6          1           0       -0.450682    0.193222    1.103747
 ---------------------------------------------------------------------
                    Distance matrix (angstroms):
                    1          2          3          4          5
     1  C    0.000000
     2  O    1.445128   0.000000
     3  O    2.280266   1.313130   0.000000
     4  H    1.087822   2.073200   2.552215   0.000000
     5  H    1.087110   2.028515   3.172745   1.793524   0.000000
     6  H    1.087822   2.073200   2.552225   1.790485   1.793524
                    6
     6  H    0.000000
 Stoichiometry    CH3O2(2)
 Framework group  C1[X(CH3O2)]
 Deg. of freedom    12
 Full point group                 C1      NOp   1
 Largest Abelian subgroup         C1      NOp   1
 Largest concise Abelian subgroup C1      NOp   1
                         Standard orientation:                         
 ---------------------------------------------------------------------
 Center     Atomic      Atomic             Coordinates (Angstroms)
 Number     Number       Type             X           Y           Z
 ---------------------------------------------------------------------
      1          6           0        1.094004   -0.182143   -0.000000
      2          8           0       -0.157197    0.540969    0.000000
      3          8           0       -1.184280   -0.277207   -0.000000
      4          1           0        1.148402   -0.797732   -0.895236
      5          1           0        1.870976    0.578200   -0.000012
      6          1           0        1.148413   -0.797713    0.895248
 ---------------------------------------------------------------------
 Rotational constants (GHZ):          53.1873739          11.3188205           9.9248868
 Leave Link  202 at Fri Jul  3 14:50:35 2020, MaxMem=  1879048192 cpu:               0.1 elap:               0.0
 (Enter /home/gridsan/groups/GRPAPI/Software/g16/l301.exe)
 Standard basis: 6-311+G(3df,2p) (5D, 7F)
 Ernie: Thresh=  0.10000D-02 Tol=  0.10000D-05 Strict=F.
 There are   162 symmetry adapted cartesian basis functions of A   symmetry.
 There are   144 symmetry adapted basis functions of A   symmetry.
   144 basis functions,   207 primitive gaussians,   162 cartesian basis functions
    13 alpha electrons       12 beta electrons
       nuclear repulsion energy        74.9736390689 Hartrees.
 IExCor=  402 DFT=T Ex+Corr=B3LYP ExCW=0 ScaHFX=  0.200000
 ScaDFX=  0.800000  0.720000  1.000000  0.810000 ScalE2=  1.000000  1.000000
 IRadAn=      5 IRanWt=     -1 IRanGd=            0 ICorTp=0 IEmpDi=  4
 NAtoms=    6 NActive=    6 NUniq=    6 SFac= 1.00D+00 NAtFMM=   60 NAOKFM=F Big=F
 Integral buffers will be    131072 words long.
 Raffenetti 2 integral format.
 Two-electron integral symmetry is turned on.
 Leave Link  301 at Fri Jul  3 14:50:35 2020, MaxMem=  1879048192 cpu:               1.1 elap:               0.2
 (Enter /home/gridsan/groups/GRPAPI/Software/g16/l302.exe)
 NPDir=0 NMtPBC=     1 NCelOv=     1 NCel=       1 NClECP=     1 NCelD=      1
         NCelK=      1 NCelE2=     1 NClLst=     1 CellRange=     0.0.
 One-electron integrals computed using PRISM.
 One-electron integral symmetry used in STVInt
 NBasis=   144 RedAO= T EigKep=  4.49D-04  NBF=   144
 NBsUse=   144 1.00D-06 EigRej= -1.00D+00 NBFU=   144
 Precomputing XC quadrature grid using
 IXCGrd= 4 IRadAn=           5 IRanWt=          -1 IRanGd=           0 AccXCQ= 1.00D-12.
 Generated NRdTot=       0 NPtTot=           0 NUsed=           0 NTot=          32
 NSgBfM=   162   162   162   162   162 MxSgAt=     6 MxSgA2=     6.
 Leave Link  302 at Fri Jul  3 14:50:35 2020, MaxMem=  1879048192 cpu:               0.8 elap:               0.1
 (Enter /home/gridsan/groups/GRPAPI/Software/g16/l303.exe)
 DipDrv:  MaxL=1.
 Leave Link  303 at Fri Jul  3 14:50:35 2020, MaxMem=  1879048192 cpu:               0.2 elap:               0.0
 (Enter /home/gridsan/groups/GRPAPI/Software/g16/l401.exe)
 Initial guess from the checkpoint file:  "check.chk"
 B after Tr=     0.000000   -0.000000    0.000000
         Rot=    1.000000   -0.000000   -0.000000   -0.000000 Ang=  -0.00 deg.
 Guess basis will be translated and rotated to current coordinates.
 JPrj=2 DoOrth=T DoCkMO=T.
 Initial guess <Sx>= 0.0000 <Sy>= 0.0000 <Sz>= 0.5000 <S**2>= 0.7544 S= 0.5022
 Leave Link  401 at Fri Jul  3 14:50:35 2020, MaxMem=  1879048192 cpu:               0.8 elap:               0.1
 (Enter /home/gridsan/groups/GRPAPI/Software/g16/l502.exe)
 Keep R1 and R2 ints in memory in canonical form, NReq=116914344.
 FoFCou: FMM=F IPFlag=           0 FMFlag=           0 FMFlg1=           0
         NFxFlg=           0 DoJE=F BraDBF=F KetDBF=F FulRan=T
         wScrn=  0.000000 ICntrl=       600 IOpCl=  0 I1Cent=           0 NGrid=           0
         NMat0=    1 NMatS0=  10440 NMatT0=    0 NMatD0=    1 NMtDS0=    0 NMtDT0=    0
 Symmetry not used in FoFCou.
 Two-electron integral symmetry not used.
 UHF open shell SCF:
 Using DIIS extrapolation, IDIIS=  1040.
 NGot=  1879048192 LenX=  1769988858 LenY=  1769962173
 Requested convergence on RMS density matrix=1.00D-08 within  32 cycles.
 Requested convergence on MAX density matrix=1.00D-06.
 Requested convergence on             energy=1.00D-06.
 No special actions if energy rises.

 Cycle   1  Pass 1  IDiag  1:
 E= -190.291584775678    
 DIIS: error= 5.41D-08 at cycle   1 NSaved=   1.
 NSaved= 1 IEnMin= 1 EnMin= -190.291584775678     IErMin= 1 ErrMin= 5.41D-08
 ErrMax= 5.41D-08  0.00D+00 EMaxC= 1.00D-01 BMatC= 2.17D-12 BMatP= 2.17D-12
 IDIUse=1 WtCom= 1.00D+00 WtEn= 0.00D+00
 Coeff-Com:  0.100D+01
 Coeff:      0.100D+01
 Gap=     0.295 Goal=   None    Shift=    0.000
 Gap=     0.154 Goal=   None    Shift=    0.000
 RMSDP=7.25D-09 MaxDP=4.14D-07              OVMax= 2.59D-07

 SCF Done:  E(UB3LYP) =  -190.291584776     A.U. after    1 cycles
            NFock=  1  Conv=0.72D-08     -V/T= 2.0034
 <Sx>= 0.0000 <Sy>= 0.0000 <Sz>= 0.5000 <S**2>= 0.7544 S= 0.5022
 <L.S>=  0.00000000000    
 KE= 1.896415269631D+02 PE=-5.979751357029D+02 EE= 1.430683848953D+02
 Annihilation of the first spin contaminant:
 S**2 before annihilation     0.7544,   after     0.7500
 Leave Link  502 at Fri Jul  3 14:50:36 2020, MaxMem=  1879048192 cpu:               5.7 elap:               0.9
 (Enter /home/gridsan/groups/GRPAPI/Software/g16/l508.exe)
 QCSCF skips out because SCF is already converged.
 Leave Link  508 at Fri Jul  3 14:50:36 2020, MaxMem=  1879048192 cpu:               0.0 elap:               0.0
 (Enter /home/gridsan/groups/GRPAPI/Software/g16/l801.exe)
 DoSCS=F DFT=T ScalE2(SS,OS)=  1.000000  1.000000
 Range of M.O.s used for correlation:     1   144
 NBasis=   144 NAE=    13 NBE=    12 NFC=     0 NFV=     0
 NROrb=    144 NOA=    13 NOB=    12 NVA=   131 NVB=   132

 **** Warning!!: The largest alpha MO coefficient is  0.19698611D+02


 **** Warning!!: The largest beta MO coefficient is  0.19763076D+02

 Leave Link  801 at Fri Jul  3 14:50:36 2020, MaxMem=  1879048192 cpu:               0.1 elap:               0.0
 (Enter /home/gridsan/groups/GRPAPI/Software/g16/l1101.exe)
 Using compressed storage, NAtomX=     6.
 Will process      7 centers per pass.
 Leave Link 1101 at Fri Jul  3 14:50:36 2020, MaxMem=  1879048192 cpu:               1.6 elap:               0.2
 (Enter /home/gridsan/groups/GRPAPI/Software/g16/l1102.exe)
 Symmetrizing basis deriv contribution to polar:
 IMax=3 JMax=2 DiffMx= 0.00D+00
 Leave Link 1102 at Fri Jul  3 14:50:36 2020, MaxMem=  1879048192 cpu:               0.2 elap:               0.0
 (Enter /home/gridsan/groups/GRPAPI/Software/g16/l1110.exe)
 Forming Gx(P) for the SCF density, NAtomX=     6.
 Integral derivatives from FoFJK, PRISM(SPDF).
 Do as many integral derivatives as possible in FoFJK.
 G2DrvN: MDV=    1879047576.
 G2DrvN: will do     7 centers at a time, making    1 passes.
 Calling FoFCou, ICntrl=  3107 FMM=F I1Cent=   0 AccDes= 1.00D-12.
 FoFJK:  IHMeth= 1 ICntrl=    3107 DoSepK=F KAlg= 0 I1Cent=           0 FoldK=F
 IRaf=         0 NMat=       1 IRICut=       1 DoRegI=T DoRafI=F ISym2E= 0 IDoP0=0 IntGTp=1.
 FoFCou: FMM=F IPFlag=           0 FMFlag=      100000 FMFlg1=           0
         NFxFlg=           0 DoJE=F BraDBF=F KetDBF=F FulRan=T
         wScrn=  0.000000 ICntrl=      3107 IOpCl=  1 I1Cent=           0 NGrid=           0
         NMat0=    1 NMatS0=      1 NMatT0=    0 NMatD0=    1 NMtDS0=    0 NMtDT0=    0
 Symmetry not used in FoFCou.
 End of G2Drv F.D. properties file   721 does not exist.
 End of G2Drv F.D. properties file   722 does not exist.
 End of G2Drv F.D. properties file   788 does not exist.
 Leave Link 1110 at Fri Jul  3 14:50:41 2020, MaxMem=  1879048192 cpu:              41.4 elap:               5.2
 (Enter /home/gridsan/groups/GRPAPI/Software/g16/l1002.exe)
 Minotr:  UHF open shell wavefunction.
          IDoAtm=111111
          Direct CPHF calculation.
          Differentiating once with respect to electric field.
                with respect to dipole field.
          Differentiating once with respect to nuclear coordinates.
          Requested convergence is 1.0D-08 RMS, and 1.0D-07 maximum.
          Secondary convergence is 1.0D-12 RMS, and 1.0D-12 maximum.
          NewPWx=T KeepS1=F KeepF1=F KeepIn=T MapXYZ=F SortEE=F KeepMc=T.
         1831 words used for storage of precomputed grid.
 Keep R1 and R2 ints in memory in canonical form, NReq=116892345.
 FoFCou: FMM=F IPFlag=           0 FMFlag=           0 FMFlg1=           0
         NFxFlg=           0 DoJE=F BraDBF=F KetDBF=F FulRan=T
         wScrn=  0.000000 ICntrl=       600 IOpCl=  0 I1Cent=           0 NGrid=           0
         NMat0=    1 NMatS0=  10440 NMatT0=    0 NMatD0=    1 NMtDS0=    0 NMtDT0=    0
 Symmetry not used in FoFCou.
 Two-electron integral symmetry not used.
          MDV=    1879048192 using IRadAn=       1.
          Solving linear equations simultaneously, MaxMat=       0.
          There are    21 degrees of freedom in the 1st order CPHF.  IDoFFX=6 NUNeed=     3.
     18 vectors produced by pass  0 Test12= 1.57D-14 4.76D-09 XBig12= 4.70D+01 3.95D+00.
 AX will form    18 AO Fock derivatives at one time.
     18 vectors produced by pass  1 Test12= 1.57D-14 4.76D-09 XBig12= 1.63D+01 1.13D+00.
     18 vectors produced by pass  2 Test12= 1.57D-14 4.76D-09 XBig12= 9.47D-01 3.71D-01.
     18 vectors produced by pass  3 Test12= 1.57D-14 4.76D-09 XBig12= 1.83D-02 2.06D-02.
     18 vectors produced by pass  4 Test12= 1.57D-14 4.76D-09 XBig12= 1.38D-04 2.41D-03.
     18 vectors produced by pass  5 Test12= 1.57D-14 4.76D-09 XBig12= 1.26D-06 2.28D-04.
     12 vectors produced by pass  6 Test12= 1.57D-14 4.76D-09 XBig12= 8.72D-09 1.77D-05.
      5 vectors produced by pass  7 Test12= 1.57D-14 4.76D-09 XBig12= 4.46D-11 1.02D-06.
      3 vectors produced by pass  8 Test12= 1.57D-14 4.76D-09 XBig12= 1.98D-13 6.96D-08.
      1 vectors produced by pass  9 Test12= 1.57D-14 4.76D-09 XBig12= 8.74D-16 5.56D-09.
 InvSVY:  IOpt=1 It=  1 EMax= 4.44D-15
 Solved reduced A of dimension   129 with    21 vectors.
 FullF1:  Do perturbations      1 to       3.
 Isotropic polarizability for W=    0.000000       25.32 Bohr**3.
 End of Minotr F.D. properties file   721 does not exist.
 End of Minotr F.D. properties file   722 does not exist.
 End of Minotr F.D. properties file   788 does not exist.
 Leave Link 1002 at Fri Jul  3 14:50:50 2020, MaxMem=  1879048192 cpu:              67.8 elap:               8.6
 (Enter /home/gridsan/groups/GRPAPI/Software/g16/l601.exe)
 Copying SCF densities to generalized density rwf, IOpCl= 1 IROHF=0.

 **********************************************************************

            Population analysis using the SCF Density.

 **********************************************************************

 Orbital symmetries:
 Alpha Orbitals:
       Occupied  (A) (A) (A) (A) (A) (A) (A) (A) (A) (A) (A) (A)
                 (A)
       Virtual   (A) (A) (A) (A) (A) (A) (A) (A) (A) (A) (A) (A)
                 (A) (A) (A) (A) (A) (A) (A) (A) (A) (A) (A) (A)
                 (A) (A) (A) (A) (A) (A) (A) (A) (A) (A) (A) (A)
                 (A) (A) (A) (A) (A) (A) (A) (A) (A) (A) (A) (A)
                 (A) (A) (A) (A) (A) (A) (A) (A) (A) (A) (A) (A)
                 (A) (A) (A) (A) (A) (A) (A) (A) (A) (A) (A) (A)
                 (A) (A) (A) (A) (A) (A) (A) (A) (A) (A) (A) (A)
                 (A) (A) (A) (A) (A) (A) (A) (A) (A) (A) (A) (A)
                 (A) (A) (A) (A) (A) (A) (A) (A) (A) (A) (A) (A)
                 (A) (A) (A) (A) (A) (A) (A) (A) (A) (A) (A) (A)
                 (A) (A) (A) (A) (A) (A) (A) (A) (A) (A) (A)
 Beta  Orbitals:
       Occupied  (A) (A) (A) (A) (A) (A) (A) (A) (A) (A) (A) (A)
       Virtual   (A) (A) (A) (A) (A) (A) (A) (A) (A) (A) (A) (A)
                 (A) (A) (A) (A) (A) (A) (A) (A) (A) (A) (A) (A)
                 (A) (A) (A) (A) (A) (A) (A) (A) (A) (A) (A) (A)
                 (A) (A) (A) (A) (A) (A) (A) (A) (A) (A) (A) (A)
                 (A) (A) (A) (A) (A) (A) (A) (A) (A) (A) (A) (A)
                 (A) (A) (A) (A) (A) (A) (A) (A) (A) (A) (A) (A)
                 (A) (A) (A) (A) (A) (A) (A) (A) (A) (A) (A) (A)
                 (A) (A) (A) (A) (A) (A) (A) (A) (A) (A) (A) (A)
                 (A) (A) (A) (A) (A) (A) (A) (A) (A) (A) (A) (A)
                 (A) (A) (A) (A) (A) (A) (A) (A) (A) (A) (A) (A)
                 (A) (A) (A) (A) (A) (A) (A) (A) (A) (A) (A) (A)
 The electronic state is 2-A.
 Alpha  occ. eigenvalues --  -19.25433 -19.20160 -10.24122  -1.20582  -0.89200
 Alpha  occ. eigenvalues --   -0.69912  -0.53211  -0.52867  -0.51244  -0.42513
 Alpha  occ. eigenvalues --   -0.41703  -0.29405  -0.29317
 Alpha virt. eigenvalues --    0.00196   0.02066   0.04190   0.04307   0.07327
 Alpha virt. eigenvalues --    0.12318   0.12621   0.14623   0.16430   0.17537
 Alpha virt. eigenvalues --    0.19752   0.19937   0.22829   0.23574   0.25665
 Alpha virt. eigenvalues --    0.27573   0.30548   0.30776   0.35726   0.37561
 Alpha virt. eigenvalues --    0.41725   0.44355   0.53903   0.57681   0.58538
 Alpha virt. eigenvalues --    0.61556   0.65397   0.74290   0.75750   0.79293
 Alpha virt. eigenvalues --    0.84614   0.84721   0.90554   0.92114   0.93629
 Alpha virt. eigenvalues --    0.96170   0.97391   0.99034   1.00818   1.02999
 Alpha virt. eigenvalues --    1.03916   1.06396   1.08499   1.10093   1.20381
 Alpha virt. eigenvalues --    1.20401   1.25891   1.28581   1.29983   1.36064
 Alpha virt. eigenvalues --    1.39423   1.45508   1.52697   1.81157   1.88198
 Alpha virt. eigenvalues --    1.95184   1.95816   1.98503   2.03826   2.13705
 Alpha virt. eigenvalues --    2.35369   2.52546   2.64987   2.70679   2.83603
 Alpha virt. eigenvalues --    2.85252   2.88214   3.00025   3.06520   3.10144
 Alpha virt. eigenvalues --    3.15721   3.22887   3.26848   3.31642   3.35228
 Alpha virt. eigenvalues --    3.40193   3.48303   3.49617   3.57944   3.69491
 Alpha virt. eigenvalues --    3.70998   3.77898   3.95146   4.09366   4.17001
 Alpha virt. eigenvalues --    4.19456   4.29089   4.30829   4.41691   4.44650
 Alpha virt. eigenvalues --    4.62105   4.74968   4.76683   4.85156   4.89378
 Alpha virt. eigenvalues --    4.95524   4.96271   4.99923   5.02462   5.06005
 Alpha virt. eigenvalues --    5.15693   5.21573   5.39689   5.43654   5.61199
 Alpha virt. eigenvalues --    5.63887   5.74624   5.77243   5.80029   6.32030
 Alpha virt. eigenvalues --    6.43424   6.55085   7.24543   7.31817   7.69396
 Alpha virt. eigenvalues --    7.85538   7.89167   8.05018  14.07604  14.13611
 Alpha virt. eigenvalues --   14.18921  14.21699  14.24374  14.31739  14.48737
 Alpha virt. eigenvalues --   14.57378  14.82596  15.60779  24.24541  49.99531
 Alpha virt. eigenvalues --   50.07658
  Beta  occ. eigenvalues --  -19.24422 -19.18225 -10.24164  -1.17917  -0.85990
  Beta  occ. eigenvalues --   -0.68642  -0.51379  -0.50585  -0.49341  -0.41110
  Beta  occ. eigenvalues --   -0.37642  -0.27685
  Beta virt. eigenvalues --   -0.12307   0.00235   0.02284   0.04277   0.04345
  Beta virt. eigenvalues --    0.08364   0.12398   0.13096   0.14824   0.16677
  Beta virt. eigenvalues --    0.18629   0.20009   0.20700   0.22910   0.24017
  Beta virt. eigenvalues --    0.25792   0.27750   0.30642   0.30984   0.36070
  Beta virt. eigenvalues --    0.37706   0.41766   0.44519   0.53967   0.57779
  Beta virt. eigenvalues --    0.58600   0.61570   0.65980   0.74475   0.76094
  Beta virt. eigenvalues --    0.79774   0.85429   0.85644   0.91000   0.92552
  Beta virt. eigenvalues --    0.95523   0.97293   0.97999   0.99697   1.02613
  Beta virt. eigenvalues --    1.04387   1.05654   1.07043   1.08816   1.10883
  Beta virt. eigenvalues --    1.20820   1.21530   1.26261   1.28792   1.30613
  Beta virt. eigenvalues --    1.36282   1.40707   1.45750   1.52982   1.81543
  Beta virt. eigenvalues --    1.88259   1.95313   1.96622   1.98600   2.04080
  Beta virt. eigenvalues --    2.13996   2.36550   2.52991   2.65144   2.70717
  Beta virt. eigenvalues --    2.84438   2.85703   2.88251   3.00503   3.09463
  Beta virt. eigenvalues --    3.12127   3.15932   3.23450   3.27587   3.33172
  Beta virt. eigenvalues --    3.39055   3.44128   3.49878   3.50000   3.61704
  Beta virt. eigenvalues --    3.71847   3.72564   3.78224   3.96530   4.09753
  Beta virt. eigenvalues --    4.17145   4.19668   4.29689   4.31102   4.42079
  Beta virt. eigenvalues --    4.44953   4.65956   4.76045   4.78826   4.86147
  Beta virt. eigenvalues --    4.90767   4.96980   5.02793   5.04474   5.06100
  Beta virt. eigenvalues --    5.11313   5.17067   5.24013   5.41819   5.45253
  Beta virt. eigenvalues --    5.62831   5.65287   5.75279   5.78892   5.80997
  Beta virt. eigenvalues --    6.32562   6.46695   6.55478   7.24503   7.31745
  Beta virt. eigenvalues --    7.70460   7.85605   7.89139   8.05071  14.13452
  Beta virt. eigenvalues --   14.16739  14.22195  14.29106  14.29848  14.35820
  Beta virt. eigenvalues --   14.51509  14.63234  14.84062  15.62829  24.24500
  Beta virt. eigenvalues --   50.00819  50.09301
          Condensed to atoms (all electrons):
               1          2          3          4          5          6
     1  C    4.801855   0.059191  -0.112534   0.414749   0.408801   0.414749
     2  O    0.059191   8.204261  -0.001374  -0.027616  -0.030807  -0.027616
     3  O   -0.112534  -0.001374   8.406240  -0.001460   0.006755  -0.001460
     4  H    0.414749  -0.027616  -0.001460   0.500851  -0.020402  -0.022483
     5  H    0.408801  -0.030807   0.006755  -0.020402   0.509760  -0.020402
     6  H    0.414749  -0.027616  -0.001460  -0.022483  -0.020402   0.500852
          Atomic-Atomic Spin Densities.
               1          2          3          4          5          6
     1  C   -0.022955  -0.009449   0.005876   0.002343  -0.000358   0.002343
     2  O   -0.009449   0.459710  -0.137124  -0.006522  -0.000045  -0.006523
     3  O    0.005876  -0.137124   0.817204   0.004842  -0.000129   0.004842
     4  H    0.002343  -0.006522   0.004842   0.017426  -0.000033  -0.004122
     5  H   -0.000358  -0.000045  -0.000129  -0.000033  -0.000623  -0.000033
     6  H    0.002343  -0.006523   0.004842  -0.004122  -0.000033   0.017427
 Mulliken charges and spin densities:
               1          2
     1  C    0.013190  -0.022201
     2  O   -0.176038   0.300047
     3  O   -0.296167   0.695510
     4  H    0.156360   0.013933
     5  H    0.146295  -0.001222
     6  H    0.156360   0.013933
 Sum of Mulliken charges =  -0.00000   1.00000
 Mulliken charges and spin densities with hydrogens summed into heavy atoms:
               1          2
     1  C    0.472205   0.004443
     2  O   -0.176038   0.300047
     3  O   -0.296167   0.695510
 APT charges:
               1
     1  C    0.339216
     2  O   -0.253913
     3  O   -0.108104
     4  H    0.004250
     5  H    0.014301
     6  H    0.004249
 Sum of APT charges =  -0.00000
 APT charges with hydrogens summed into heavy atoms:
               1
     1  C    0.362016
     2  O   -0.253913
     3  O   -0.108104
 Electronic spatial extent (au):  <R**2>=            150.7122
 Charge=             -0.0000 electrons
 Dipole moment (field-independent basis, Debye):
    X=              2.7953    Y=             -0.3749    Z=             -0.0000  Tot=              2.8203
 Quadrupole moment (field-independent basis, Debye-Ang):
   XX=            -17.7456   YY=            -18.4348   ZZ=            -17.1430
   XY=             -0.2099   XZ=             -0.0000   YZ=              0.0000
 Traceless Quadrupole moment (field-independent basis, Debye-Ang):
   XX=              0.0289   YY=             -0.6604   ZZ=              0.6314
   XY=             -0.2099   XZ=             -0.0000   YZ=              0.0000
 Octapole moment (field-independent basis, Debye-Ang**2):
  XXX=              1.0484  YYY=              1.1171  ZZZ=              0.0000  XYY=              0.0102
  XXY=              0.9227  XXZ=             -0.0000  XZZ=             -0.9467  YZZ=             -0.5591
  YYZ=             -0.0000  XYZ=             -0.0000
 Hexadecapole moment (field-independent basis, Debye-Ang**3):
 XXXX=           -126.1409 YYYY=            -37.8059 ZZZZ=            -21.6755 XXXY=              3.5059
 XXXZ=             -0.0000 YYYX=              0.7339 YYYZ=              0.0000 ZZZX=              0.0000
 ZZZY=             -0.0000 XXYY=            -25.5129 XXZZ=            -24.6125 YYZZ=             -9.1787
 XXYZ=             -0.0000 YYXZ=             -0.0000 ZZXY=             -0.7227
 N-N= 7.497363906887D+01 E-N=-5.979751361323D+02  KE= 1.896415269631D+02
  Exact polarizability:  33.116   2.188  22.728   0.000  -0.000  20.108
 Approx polarizability:  43.282   5.749  32.207   0.000  -0.000  26.382
                          Isotropic Fermi Contact Couplings
        Atom                 a.u.       MegaHertz       Gauss      10(-4) cm-1
     1  C(13)             -0.01251     -14.06387      -5.01834      -4.69120
     2  O(17)              0.04560     -27.64536      -9.86455      -9.22150
     3  O(17)              0.05514     -33.42398     -11.92651     -11.14904
     4  H(1)               0.00596      26.63994       9.50579       8.88613
     5  H(1)              -0.00045      -2.02924      -0.72408      -0.67688
     6  H(1)               0.00596      26.64062       9.50604       8.88636
 --------------------------------------------------------
       Center         ----  Spin Dipole Couplings  ----
                      3XX-RR        3YY-RR        3ZZ-RR
 --------------------------------------------------------
     1   Atom        0.018670     -0.005444     -0.013226
     2   Atom       -0.815790     -0.864919      1.680709
     3   Atom       -1.551673     -1.535685      3.087357
     4   Atom        0.009966     -0.003524     -0.006442
     5   Atom        0.015263     -0.008302     -0.006962
     6   Atom        0.009966     -0.003524     -0.006442
 --------------------------------------------------------
                        XY            XZ            YZ
 --------------------------------------------------------
     1   Atom       -0.009018     -0.000000     -0.000000
     2   Atom       -0.028906     -0.000000     -0.000001
     3   Atom       -0.015438     -0.000001     -0.000002
     4   Atom       -0.008429     -0.007923      0.003829
     5   Atom        0.001549     -0.000000      0.000000
     6   Atom       -0.008429      0.007923     -0.003829
 --------------------------------------------------------


 ---------------------------------------------------------------------------------
              Anisotropic Spin Dipole Couplings in Principal Axis System
 ---------------------------------------------------------------------------------

       Atom             a.u.   MegaHertz   Gauss  10(-4) cm-1        Axes

              Baa    -0.0132    -1.775    -0.633    -0.592  0.0000  0.0000  1.0000
     1 C(13)  Bbb    -0.0084    -1.133    -0.404    -0.378  0.3156  0.9489 -0.0000
              Bcc     0.0217     2.908     1.038     0.970  0.9489 -0.3156 -0.0000
 
              Baa    -0.8783    63.552    22.677    21.199  0.4198  0.9076  0.0000
     2 O(17)  Bbb    -0.8024    58.063    20.718    19.368  0.9076 -0.4198 -0.0000
              Bcc     1.6807  -121.615   -43.395   -40.566 -0.0000 -0.0000  1.0000
 
              Baa    -1.5611   112.957    40.306    37.679  0.8543  0.5197  0.0000
     3 O(17)  Bbb    -1.5263   110.442    39.408    36.839 -0.5197  0.8543  0.0000
              Bcc     3.0874  -223.399   -79.714   -74.518 -0.0000 -0.0000  1.0000
 
              Baa    -0.0097    -5.179    -1.848    -1.727  0.3097 -0.1584  0.9375
     4 H(1)   Bbb    -0.0076    -4.041    -1.442    -1.348  0.4360  0.8999  0.0080
              Bcc     0.0173     9.220     3.290     3.075  0.8450 -0.4063 -0.3478
 
              Baa    -0.0084    -4.484    -1.600    -1.496 -0.0653  0.9979 -0.0000
     5 H(1)   Bbb    -0.0070    -3.714    -1.325    -1.239  0.0000  0.0000  1.0000
              Bcc     0.0154     8.198     2.925     2.735  0.9979  0.0653 -0.0000
 
              Baa    -0.0097    -5.179    -1.848    -1.727 -0.3097  0.1584  0.9375
     6 H(1)   Bbb    -0.0076    -4.041    -1.442    -1.348  0.4360  0.8999 -0.0080
              Bcc     0.0173     9.220     3.290     3.075  0.8450 -0.4063  0.3478
 

 ---------------------------------------------------------------------------------

 No NMR shielding tensors so no spin-rotation constants.
 Leave Link  601 at Fri Jul  3 14:50:50 2020, MaxMem=  1879048192 cpu:               1.2 elap:               0.2
 (Enter /home/gridsan/groups/GRPAPI/Software/g16/l701.exe)
 SCFChk:  SCF convergence  7.25D-09 required  1.00D-08
 ... and contract with generalized density number  0.
 Compute integral second derivatives.
 Entering OneElI...
 Calculate overlap and kinetic energy integrals
    NBasis = 162  MinDer = 2  MaxDer = 2
 Requested accuracy = 0.1000D-14
 PrmmSu-InSpLW:  IPartL=    0 NPrtUS=    8 NPrtUL=    1 DoSpLW=F IThBeg=    0 IThEnd=    7 NThAct=    8.
 PrSmSu:  IncTry=   512 NBBP=            903 NTPThr=   100 NPartT=    8 Incr=           1 LDynOK=F GPUOK=F.
 PrsmSu:  NPrtUS=   8 ThrOK=T IAlg=2 LenDen=           0 ISkipM=0 DoSpLW=F IThBeg=    0 IThEnd=    7.
 Prism:   IPart=     0 DynPar=F LinDyn=F Incr=           1.
 PRISM was handed   234841456 working-precision words and   903 shell-pairs
 PRISM was handed   234841456 working-precision words and   903 shell-pairs
 PRISM was handed   234841456 working-precision words and   903 shell-pairs
 PRISM was handed   234841456 working-precision words and   903 shell-pairs
 PRISM was handed   234841456 working-precision words and   903 shell-pairs
 PRISM was handed   234841456 working-precision words and   903 shell-pairs
 PRISM was handed   234841456 working-precision words and   903 shell-pairs
 PRISM was handed   234841456 working-precision words and   903 shell-pairs
 IPart=  7 NShTot=          95 NBatch=          28 AvBLen=         3.4
 IPart=  4 NShTot=         107 NBatch=          30 AvBLen=         3.6
 IPart=  2 NShTot=         122 NBatch=          39 AvBLen=         3.1
 IPart=  0 NShTot=         143 NBatch=          49 AvBLen=         2.9
 IPart=  6 NShTot=          96 NBatch=          28 AvBLen=         3.4
 IPart=  3 NShTot=         108 NBatch=          30 AvBLen=         3.6
 IPart=  5 NShTot=         100 NBatch=          29 AvBLen=         3.4
 IPart=  1 NShTot=         132 NBatch=          42 AvBLen=         3.1
 PrSmSu:  NxtVal=              9.
 Entering OneElI...
 Calculate potential energy integrals
    NBasis = 162  MinDer = 2  MaxDer = 2
 Requested accuracy = 0.1000D-14
 PrmmSu-InSpLW:  IPartL=    0 NPrtUS=    8 NPrtUL=    1 DoSpLW=F IThBeg=    0 IThEnd=    7 NThAct=    8.
 PrSmSu:  IncTry=   512 NBBP=           5406 NTPThr=   100 NPartT=    8 Incr=           6 LDynOK=F GPUOK=F.
 PrsmSu:  NPrtUS=   8 ThrOK=T IAlg=2 LenDen=           0 ISkipM=0 DoSpLW=F IThBeg=    0 IThEnd=    7.
 Prism:   IPart=     0 DynPar=F LinDyn=F Incr=           6.
 PRISM was handed   234845949 working-precision words and   901 shell-pairs
 PRISM was handed   234845949 working-precision words and   901 shell-pairs
 PRISM was handed   234845949 working-precision words and   901 shell-pairs
 PRISM was handed   234845949 working-precision words and   901 shell-pairs
 PRISM was handed   234845949 working-precision words and   901 shell-pairs
 PRISM was handed   234845949 working-precision words and   901 shell-pairs
 PRISM was handed   234845949 working-precision words and   901 shell-pairs
 PRISM was handed   234845949 working-precision words and   901 shell-pairs
 IPart=  6 NShTot=         588 NBatch=          98 AvBLen=         6.0
 IPart=  3 NShTot=         660 NBatch=         110 AvBLen=         6.0
 IPart=  5 NShTot=         618 NBatch=         103 AvBLen=         6.0
 IPart=  1 NShTot=         762 NBatch=         127 AvBLen=         6.0
 IPart=  7 NShTot=         582 NBatch=          97 AvBLen=         6.0
 IPart=  4 NShTot=         642 NBatch=         107 AvBLen=         6.0
 IPart=  2 NShTot=         714 NBatch=         119 AvBLen=         6.0
 IPart=  0 NShTot=         840 NBatch=         140 AvBLen=         6.0
 PrSmSu:  NxtVal=             49.
 Polarizability after L701:
                1             2             3 
      1  0.331163D+02
      2  0.218808D+01  0.227280D+02
      3  0.863706D-05 -0.348031D-05  0.201077D+02
 Dipole Derivatives after L701:
                 1             2             3             4             5 
      1   0.444356D+00 -0.273514D-01 -0.165022D-05 -0.300744D+00 -0.124124D+00
      2  -0.263011D-01  0.283741D+00 -0.121901D-05 -0.126385D+00 -0.310078D+00
      3   0.000000D+00  0.000000D+00  0.289552D+00  0.000000D+00  0.000000D+00
                 6             7             8             9            10 
      1   0.000000D+00 -0.109830D+00  0.115136D+00  0.000000D+00  0.117630D-02
      2   0.000000D+00  0.222416D+00 -0.413481D-01  0.000000D+00 -0.207136D-01
      3  -0.150916D+00  0.000000D+00  0.000000D+00 -0.173133D+00 -0.406339D-01
                11            12            13            14            15 
      1   0.547645D-01  0.246521D-01 -0.361352D-01 -0.731901D-01  0.182804D-05
      2   0.424596D-01 -0.749890D-01 -0.283040D-01 -0.172360D-01  0.159917D-05
      3  -0.539604D-01 -0.308869D-01  0.000000D+00  0.176468D-05  0.962754D-01
                16            17            18 
      1   0.117604D-02  0.547650D-01 -0.246530D-01
      2  -0.207119D-01  0.424618D-01  0.749885D-01
      3   0.406330D-01  0.539592D-01 -0.308904D-01
 Hessian after L701:
                1             2             3             4             5 
      1  0.611700D+01
      2  0.248628D+01  0.981001D+01
      3 -0.323365D-05  0.000000D+00  0.108218D+02
      4  0.888092D+00 -0.293386D+01  0.000000D+00 -0.230954D+01
      5 -0.280826D+01 -0.340892D+01  0.000000D+00 -0.257525D+01  0.537901D+01
      6  0.000000D+00  0.000000D+00 -0.490971D+01  0.000000D+00  0.000000D+00
      7  0.681869D+00 -0.307429D+00  0.172139D-05  0.124277D+01  0.547611D+01
      8 -0.514339D+00 -0.646102D-01  0.000000D+00  0.562776D+01 -0.202830D+01
      9  0.102959D-05  0.000000D+00 -0.117085D-02  0.000000D+00  0.000000D+00
     10 -0.301097D+01 -0.223758D+00 -0.301338D+00 -0.765854D-03 -0.372598D-01
     11 -0.128918D+00 -0.219922D+01  0.116160D+01 -0.107233D+00  0.430625D-01
     12 -0.175385D+00  0.114347D+01 -0.148153D+01 -0.147869D+00  0.150855D+00
     13 -0.166503D+01  0.120253D+01 -0.197744D-04  0.180205D+00 -0.180868D-01
     14  0.109416D+01 -0.193800D+01 -0.166148D-04  0.958100D-01 -0.279144D-01
     15 -0.185919D-04 -0.170924D-04 -0.294791D+01 -0.370941D-05  0.000000D+00
     16 -0.301096D+01 -0.223765D+00  0.301360D+00 -0.765035D-03 -0.372585D-01
     17 -0.128929D+00 -0.219926D+01 -0.116158D+01 -0.107230D+00  0.430570D-01
     18  0.175407D+00 -0.114346D+01 -0.148149D+01  0.147871D+00 -0.150853D+00
                6             7             8             9            10 
      6  0.121429D+02
      7  0.000000D+00 -0.224655D+01
      8  0.000000D+00 -0.512616D+01  0.219102D+01
      9 -0.738800D+01  0.000000D+00  0.000000D+00  0.746880D+01
     10 -0.712943D-01  0.907396D-01 -0.268375D-01 -0.442983D-01  0.286259D+01
     11  0.126370D+00 -0.649224D-01 -0.380670D-01  0.230930D-01  0.322179D+00
     12  0.106303D+00 -0.109905D+00  0.319396D-01 -0.157989D-01  0.449027D+00
     13 -0.289868D-05  0.140434D+00  0.664168D-01 -0.100609D-05  0.221284D-01
     14  0.000000D+00  0.873262D-01 -0.219814D-01  0.000000D+00 -0.334474D-01
     15 -0.577675D-01 -0.147850D-05  0.000000D+00 -0.480349D-01 -0.370301D-01
     16  0.712962D-01  0.907381D-01 -0.268367D-01  0.442983D-01  0.362768D-01
     17 -0.126369D+00 -0.649192D-01 -0.380669D-01 -0.230921D-01 -0.876369D-03
     18  0.106308D+00  0.109905D+00 -0.319390D-01 -0.157969D-01  0.493405D-02
               11            12            13            14            15 
     11  0.217330D+01
     12 -0.128267D+01  0.144715D+01
     13 -0.202298D-01 -0.109322D-01  0.130014D+01
     14 -0.234293D-01 -0.193066D-01 -0.121040D+01  0.203475D+01
     15 -0.526923D-01  0.119722D-01  0.230371D-04  0.164374D-04  0.302977D+01
     16 -0.876198D-03 -0.493526D-02  0.221292D-01 -0.334467D-01  0.370309D-01
     17  0.443474D-01 -0.242964D-01 -0.202294D-01 -0.234281D-01  0.526937D-01
     18  0.242942D-01 -0.680967D-01  0.109329D-01  0.193083D-01  0.119702D-01
               16            17            18 
     16  0.286258D+01
     17  0.322183D+00  0.217335D+01
     18 -0.449050D+00  0.128265D+01  0.144710D+01
 Leave Link  701 at Fri Jul  3 14:50:51 2020, MaxMem=  1879048192 cpu:               2.0 elap:               0.3
 (Enter /home/gridsan/groups/GRPAPI/Software/g16/l702.exe)
 L702 exits ... SP integral derivatives will be done elsewhere.
 Leave Link  702 at Fri Jul  3 14:50:51 2020, MaxMem=  1879048192 cpu:               0.1 elap:               0.0
 (Enter /home/gridsan/groups/GRPAPI/Software/g16/l703.exe)
 Integral derivatives from FoFJK, PRISM(SPDF).
 Compute integral second derivatives, UseDBF=F ICtDFT=           0.
 ICntrl=    100127.
 Calling FoFJK, ICntrl=    100127 FMM=F ISym2X=0 I1Cent= 0 IOpClX= 1 NMat=1 NMatS=1 NMatT=0.
 FoFJK:  IHMeth= 1 ICntrl=  100127 DoSepK=F KAlg= 0 I1Cent=           0 FoldK=F
 IRaf=         0 NMat=       1 IRICut=       1 DoRegI=T DoRafI=F ISym2E= 0 IDoP0=0 IntGTp=1.
 FoFCou: FMM=F IPFlag=           0 FMFlag=      100000 FMFlg1=         800
         NFxFlg=           0 DoJE=F BraDBF=F KetDBF=F FulRan=T
         wScrn=  0.000000 ICntrl=    100127 IOpCl=  1 I1Cent=           0 NGrid=           0
         NMat0=    1 NMatS0=      1 NMatT0=    0 NMatD0=    1 NMtDS0=    0 NMtDT0=    0
 Symmetry not used in FoFCou.
 FoFCou:  KetSym=F NOpSet=  1 NOpAb=1 NOp=  1.
 FoFCou:  CnvScl= 1.00D+00 Thresh= 1.00D-12 IAcrcy=      10.
 PrismS was handed  1878915361 working-precision words and   903 shell-pairs
 FoFCou: LinMIO=F DoNuc=F BraDBF=F KetDBF=F HaveP=T PDBF=F HaveZ=T HaveW=F
         NIJTC =      15 NIJTAt=       0 NIJTCD=       0 NIJTT =      15
         IJTBeg=       1 IJTEnd=      15 KLTBeg=       1 KLTEnd=      15
         IPTBeg=       1 IPTEnd=      15 IPTBCv=       1 IPTECv=      15
         IZTBeg=       1 IZTEnd=      15 IZTBCv=       1 IZTECv=      15
         IWTBeg=      16 IWTEnd=      15 IWTBCv=      16 IWTECv=      15
         INTBeg=       1 INTEnd=       0 IFTBCv=       1 IFTECv=      15
 NCel replicated for PrismC:     1
 CoulSu-InSpLW:  IPartL=    0 NPrtUS=    8 NPrtUL=    1 DoSpLW=F IThBeg=    0 IThEnd=    7 NThAct=    8.
 CoulSu:  IncTry=  1024 NBBP=         408156 NTPThr=   100 NPartT=    8 Incr=         510 LDynOK=F GPUOK=F.
 CoulSu:  NPrtUS=   8 ThrOK=T IAlg=2 LenDen=           0 LWGrdD=           0 DoCopy=F ISkipM=0
          DoSpLW=F IThBeg=    0 IThEnd=    7.
 Enter PrismC:  IPart=  0 JobTyp=22 DoJE=F Cont=F.
 PrismC:  IPart=     0 DynPar=T LinDyn=F Incr=         510 UseFst=F UseS4=T ISplat=2.
 PrismC was handed   234846857 working-precision words and   903 shell-pairs
 Enter PrismC:  IPart=  2 JobTyp=22 DoJE=F Cont=F.
 PrismC:  IPart=     2 DynPar=T LinDyn=F Incr=         510 UseFst=F UseS4=T ISplat=2.
 Enter PrismC:  IPart=  4 JobTyp=22 DoJE=F Cont=F.
 PrismC was handed   234846857 working-precision words and   903 shell-pairs
 PrismC:  IPart=     4 DynPar=T LinDyn=F Incr=         510 UseFst=F UseS4=T ISplat=2.
 PrismC was handed   234846857 working-precision words and   903 shell-pairs
 Enter PrismC:  IPart=  6 JobTyp=22 DoJE=F Cont=F.
 PrismC:  IPart=     6 DynPar=T LinDyn=F Incr=         510 UseFst=F UseS4=T ISplat=2.
 PrismC was handed   234846857 working-precision words and   903 shell-pairs
 Enter PrismC:  IPart=  7 JobTyp=22 DoJE=F Cont=F.
 Enter PrismC:  IPart=  5 JobTyp=22 DoJE=F Cont=F.
 PrismC:  IPart=     7 DynPar=T LinDyn=F Incr=         510 UseFst=F UseS4=T ISplat=2.
 Enter PrismC:  IPart=  1 JobTyp=22 DoJE=F Cont=F.
 Enter PrismC:  IPart=  3 JobTyp=22 DoJE=F Cont=F.
 PrismC was handed   234846857 working-precision words and   903 shell-pairs
 PrismC:  IPart=     5 DynPar=T LinDyn=F Incr=         510 UseFst=F UseS4=T ISplat=2.
 PrismC was handed   234846857 working-precision words and   903 shell-pairs
 PrismC:  IPart=     3 DynPar=T LinDyn=F Incr=         510 UseFst=F UseS4=T ISplat=2.
 PrismC was handed   234846857 working-precision words and   903 shell-pairs
 PrismC:  IPart=     1 DynPar=T LinDyn=F Incr=         510 UseFst=F UseS4=T ISplat=2.
 PrismC was handed   234846857 working-precision words and   903 shell-pairs
 IPart=  5 NShTot=       48668 NShNF=       48668 NShFF=           0 MinMC=       7
           NShCPU=       48668 NBCPU=        2436 AvBCPU=        20.0
           NShGPU=           0 NBGPU=           0 AvBGPU=         0.0
 IPart=  0 NShTot=       48684 NShNF=       48684 NShFF=           0 MinMC=       7
           NShCPU=       48684 NBCPU=        2180 AvBCPU=        22.3
           NShGPU=           0 NBGPU=           0 AvBGPU=         0.0
 IPart=  2 NShTot=       52867 NShNF=       52867 NShFF=           0 MinMC=       7
           NShCPU=       52867 NBCPU=        2412 AvBCPU=        21.9
           NShGPU=           0 NBGPU=           0 AvBGPU=         0.0
 IPart=  1 NShTot=       47583 NShNF=       47583 NShFF=           0 MinMC=       7
           NShCPU=       47583 NBCPU=        2275 AvBCPU=        20.9
           NShGPU=           0 NBGPU=           0 AvBGPU=         0.0
 IPart=  7 NShTot=       48745 NShNF=       48745 NShFF=           0 MinMC=       7
           NShCPU=       48745 NBCPU=        1947 AvBCPU=        25.0
           NShGPU=           0 NBGPU=           0 AvBGPU=         0.0
 IPart=  3 NShTot=       47875 NShNF=       47875 NShFF=           0 MinMC=       7
           NShCPU=       47875 NBCPU=        2209 AvBCPU=        21.7
           NShGPU=           0 NBGPU=           0 AvBGPU=         0.0
 IPart=  4 NShTot=       46622 NShNF=       46622 NShFF=           0 MinMC=       7
           NShCPU=       46622 NBCPU=        2191 AvBCPU=        21.3
           NShGPU=           0 NBGPU=           0 AvBGPU=         0.0
 IPart=  6 NShTot=       49270 NShNF=       49270 NShFF=           0 MinMC=       7
           NShCPU=       49270 NBCPU=        2156 AvBCPU=        22.9
           NShGPU=           0 NBGPU=           0 AvBGPU=         0.0
 CoulSu:  NxtVal=         428911 LenVP=      234846858 MinMC=       7.
 ReadGW:  IGet=0 IStart=           1 Next=           1 LGW=           0.
 Remaining memory in FofDFT     1791.95 Mw
 CkSvGd:  ISavGI=        -1 IRadAn=       5 IRASav=       5 ISavGd=        -1.
 CalDSu-InSpLW:  IPartL=    0 NPrtUS=    8 NPrtUL=    1 DoSpLW=F IThBeg=    0 IThEnd=    7 NThAct=    8.
 CalDSu:  NPrtUS=   8 ThrOK=T IAlg=1 DoDPD=T LenP=       13203 LenD1P=             0 GPUOK=F
          ISkipM=0 DoSpLW=F IThBeg=    0 IThEnd=    7.
 IPart=  0 IRanGd=          0 ScrnBf=T ScrnGd=T RCrit=4.00D+00 DoMicB=T.
 IPart=  2        16266 of        17460 points in      15 batches and       80 microbatches, Max-NSigAt=       6 Max-NSgAt2=       6
 IPart=  3        18640 of        20714 points in      18 batches and       76 microbatches, Max-NSigAt=       6 Max-NSgAt2=       6
 IPart=  6        15646 of        16758 points in      17 batches and       89 microbatches, Max-NSigAt=       6 Max-NSgAt2=       6
 IPart=  0        16853 of        18078 points in      16 batches and      134 microbatches, Max-NSigAt=       6 Max-NSgAt2=       6
 IPart=  4        14975 of        15480 points in      13 batches and       70 microbatches, Max-NSigAt=       6 Max-NSgAt2=       6
 IPart=  7        15186 of        16118 points in      15 batches and      100 microbatches, Max-NSigAt=       6 Max-NSgAt2=       6
 IPart=  5        16035 of        17236 points in      16 batches and      103 microbatches, Max-NSigAt=       6 Max-NSgAt2=       6
 IPart=  1        14243 of        15480 points in      18 batches and      116 microbatches, Max-NSigAt=       6 Max-NSgAt2=       6
 Polarizability after L703:
                1             2             3 
      1  0.331163D+02
      2  0.218808D+01  0.227280D+02
      3  0.863706D-05 -0.348031D-05  0.201077D+02
 Dipole Derivatives after L703:
                 1             2             3             4             5 
      1   0.444356D+00 -0.273514D-01 -0.165022D-05 -0.300744D+00 -0.124124D+00
      2  -0.263011D-01  0.283741D+00 -0.121901D-05 -0.126385D+00 -0.310078D+00
      3   0.000000D+00  0.000000D+00  0.289552D+00  0.000000D+00  0.000000D+00
                 6             7             8             9            10 
      1   0.000000D+00 -0.109830D+00  0.115136D+00  0.000000D+00  0.117630D-02
      2   0.000000D+00  0.222416D+00 -0.413481D-01  0.000000D+00 -0.207136D-01
      3  -0.150916D+00  0.000000D+00  0.000000D+00 -0.173133D+00 -0.406339D-01
                11            12            13            14            15 
      1   0.547645D-01  0.246521D-01 -0.361352D-01 -0.731901D-01  0.182804D-05
      2   0.424596D-01 -0.749890D-01 -0.283040D-01 -0.172360D-01  0.159917D-05
      3  -0.539604D-01 -0.308869D-01  0.000000D+00  0.176468D-05  0.962754D-01
                16            17            18 
      1   0.117604D-02  0.547650D-01 -0.246530D-01
      2  -0.207119D-01  0.424618D-01  0.749885D-01
      3   0.406330D-01  0.539592D-01 -0.308904D-01
 Hessian after L703:
                1             2             3             4             5 
      1  0.445330D+00
      2  0.998806D-01  0.569535D+00
      3  0.000000D+00  0.000000D+00  0.575522D+00
      4 -0.107863D+00  0.709947D-01  0.000000D+00  0.429639D+00
      5  0.446918D-01 -0.138852D+00  0.000000D+00  0.797921D-01  0.364339D+00
      6  0.000000D+00  0.000000D+00 -0.465658D-01  0.000000D+00  0.000000D+00
      7 -0.654041D-01 -0.350894D-01  0.000000D+00 -0.259312D+00 -0.152312D+00
      8 -0.738912D-02  0.203659D-01  0.000000D+00 -0.187356D+00 -0.206689D+00
      9  0.000000D+00  0.000000D+00 -0.273540D-02  0.000000D+00  0.000000D+00
     10 -0.471870D-01 -0.444744D-02  0.651680D-03 -0.187852D-01  0.253709D-01
     11  0.219581D-02 -0.129183D+00 -0.122737D+00  0.109994D-01 -0.159770D-01
     12  0.562571D-02 -0.124071D+00 -0.237412D+00  0.231430D-02 -0.162554D-03
     13 -0.177689D+00 -0.126893D+00  0.212347D-05 -0.248931D-01 -0.229136D-01
     14 -0.141576D+00 -0.192688D+00  0.220401D-05  0.145700D-01  0.131553D-01
     15  0.223239D-05  0.216529D-05 -0.513923D-01  0.000000D+00  0.000000D+00
     16 -0.471871D-01 -0.444596D-02 -0.653923D-03 -0.187854D-01  0.253704D-01
     17  0.219700D-02 -0.129178D+00  0.122734D+00  0.109995D-01 -0.159766D-01
     18 -0.562787D-02  0.124068D+00 -0.237416D+00 -0.231435D-02  0.162708D-03
                6             7             8             9            10 
      6  0.386192D-01
      7  0.000000D+00  0.321837D+00
      8  0.000000D+00  0.187269D+00  0.181247D+00
      9 -0.132505D-02  0.000000D+00  0.000000D+00  0.112990D-02
     10  0.254829D-01  0.587084D-02  0.203138D-02 -0.143828D-03  0.543331D-01
     11 -0.115835D-01 -0.270617D-02  0.194733D-02  0.520072D-03 -0.102002D-01
     12  0.521830D-02 -0.107364D-03  0.123617D-02  0.762955D-03 -0.695654D-02
     13  0.000000D+00 -0.886214D-02  0.341332D-02  0.000000D+00  0.385724D-02
     14  0.000000D+00  0.554444D-02  0.118171D-02  0.000000D+00 -0.113466D-01
     15 -0.116509D-02  0.000000D+00  0.000000D+00  0.140463D-02 -0.193084D-01
     16 -0.254832D-01  0.587072D-02  0.203134D-02  0.143810D-03  0.191105D-02
     17  0.115837D-01 -0.270607D-02  0.194723D-02 -0.520025D-03 -0.140804D-02
     18  0.521842D-02  0.107345D-03 -0.123618D-02  0.762969D-03  0.274139D-03
               11            12            13            14            15 
     11  0.140756D+00
     12  0.136088D+00  0.248355D+00
     13  0.111909D-02 -0.601755D-03  0.203729D+00
     14 -0.983445D-02  0.221606D-02  0.144154D+00  0.198020D+00
     15 -0.175937D-01  0.233932D-02 -0.236020D-05 -0.239717D-05  0.464748D-01
     16 -0.140786D-02 -0.274348D-03  0.385746D-02 -0.113462D-01  0.193086D-01
     17  0.122907D-01 -0.153065D-01  0.111927D-02 -0.983415D-02  0.175940D-01
     18  0.153059D-01 -0.192637D-01  0.601706D-03 -0.221565D-02  0.233873D-02
               16            17            18 
     16  0.543333D-01
     17 -0.102017D-01  0.140751D+00
     18  0.695903D-02 -0.136085D+00  0.248360D+00
 Leave Link  703 at Fri Jul  3 14:51:03 2020, MaxMem=  1879048192 cpu:              97.0 elap:              12.2
 (Enter /home/gridsan/groups/GRPAPI/Software/g16/l716.exe)
 FrcOut:
 IF    =        46 IFX   =        64 IFXYZ =        82
 IFFX  =       100 IFFFX =       271 IFLen =        18
 IFFLen=       171 IFFFLn=         0 IEDerv=       271
 LEDerv=       917 IFroze=      1426 ICStrt=     43261
 Dipole        = 1.09974660D+00-1.47511983D-01-2.99284194D-07
 DipoleDeriv   = 4.44356412D-01-2.63011009D-02 6.69321687D-07
                -2.73514283D-02 2.83740666D-01-9.41743525D-07
                -1.65022359D-06-1.21900735D-06 2.89551728D-01
                -3.00743617D-01-1.26384926D-01-6.98240135D-07
                -1.24124395D-01-3.10077967D-01 1.99084851D-07
                 8.19776682D-07-1.28644033D-07-1.50916321D-01
                -1.09829932D-01 2.22415512D-01 2.39693935D-07
                 1.15136422D-01-4.13480699D-02 1.44994553D-07
                -1.00233830D-07 2.57828644D-07-1.73133485D-01
                 1.17629767D-03-2.07135853D-02-4.06339453D-02
                 5.47644862D-02 4.24596226D-02-5.39603927D-02
                 2.46520686D-02-7.49890133D-02-3.08869346D-02
                -3.61352010D-02-2.83040064D-02 7.02576608D-07
                -7.31901275D-02-1.72360111D-02 1.76467825D-06
                 1.82804294D-06 1.59917332D-06 9.62754055D-02
                 1.17604058D-03-2.07118941D-02 4.06330320D-02
                 5.47650428D-02 4.24617596D-02 5.39592257D-02
                -2.46529660D-02 7.49885039D-02-3.08903928D-02
 Polarizability= 3.31162595D+01 2.18808405D+00 2.27280074D+01
                 8.63706063D-06-3.48030716D-06 2.01077225D+01
 Quadrupole    = 2.15038764D-02-4.90962080D-01 4.69458204D-01
                -1.56041519D-01-9.42274358D-07 2.61096209D-07
 VibFq2-Diag1:  N=     18 IV=           7 MDV=  1879003357 NE2=   104389075
 Full mass-weighted force constant matrix:
 Low frequencies ---    0.0003    0.0004    0.0007    5.3141    6.1931    6.8910
 Low frequencies ---  136.4459  494.1267  915.7812
 OrtVCM:  Ph=1 IPass= 1 DotMx1= 0.00D+00
 OrtVCM:  IS=    1 I=    1 IndO=    1 Dot= 1.00D+00 DotN= 1.00D+00 ElMax1= 5.83D-01 ElMax1N= 5.83D-01
 OrtVCM:  Ph=2 NNew=    0 IAdd=    2 IPass= 1 DotMx2= 0.00D+00
 OrtVCM:  IS=    1 I=    2 IndO=    2 Dot= 1.00D+00 DotN= 1.00D+00 ElMax1= 5.83D-01 ElMax1N= 5.83D-01
 OrtVCM:  Ph=2 NNew=    0 IAdd=    3 IPass= 1 DotMx2= 0.00D+00
 OrtVCM:  IS=    1 I=    3 IndO=    3 Dot= 1.00D+00 DotN= 1.00D+00 ElMax1= 5.83D-01 ElMax1N= 5.83D-01
 OrtVCM:  Ph=2 NNew=    0 IAdd=    4 IPass= 1 DotMx2= 1.93D-17
 OrtVCM:  IS=    1 I=    4 IndO=    4 Dot= 1.00D+00 DotN= 1.00D+00 ElMax1= 6.76D-01 ElMax1N= 6.76D-01
 OrtVCM:  Ph=2 NNew=    0 IAdd=    5 IPass= 1 DotMx2= 2.05D-16
 OrtVCM:  IS=    1 I=    5 IndO=    5 Dot= 1.00D+00 DotN= 1.00D+00 ElMax1= 6.60D-01 ElMax1N= 6.60D-01
 OrtVCM:  Ph=2 NNew=    0 IAdd=    6 IPass= 1 DotMx2= 1.39D-17
 OrtVCM:  IS=    1 I=    6 IndO=    6 Dot= 1.00D+00 DotN= 1.00D+00 ElMax1= 6.15D-01 ElMax1N= 6.15D-01
 OrtVCM:  Ph=1 IPass= 1 DotMx1= 6.76D-01
 OrtVCM:  Ph=1 IPass= 2 DotMx1= 2.95D-16
 OrtVCM:  IS=    1 I=    1 IndO=    7 Dot= 7.35D-01 DotN= 7.35D-01 ElMax1= 7.35D-01 ElMax1N= 7.35D-01
 OrtVCM:  Ph=2 NNew=    0 IAdd=    2 IPass= 1 DotMx2= 6.61D-02
 OrtVCM:  Ph=2 NNew=    0 IAdd=    2 IPass= 2 DotMx2= 2.17D-17
 OrtVCM:  IS=    1 I=    2 IndO=    8 Dot= 4.11D-01 DotN= 4.11D-01 ElMax1= 4.11D-01 ElMax1N= 4.11D-01
 OrtVCM:  Ph=2 NNew=    0 IAdd=    3 IPass= 1 DotMx2= 3.39D-08
 OrtVCM:  Ph=2 NNew=    0 IAdd=    3 IPass= 2 DotMx2= 3.63D-18
 OrtVCM:  IS=    1 I=    3 IndO=    9 Dot= 3.05D-01 DotN= 3.05D-01 ElMax1= 3.05D-01 ElMax1N= 3.05D-01
 OrtVCM:  Ph=2 NNew=    0 IAdd=    4 IPass= 1 DotMx2= 3.10D-01
 OrtVCM:  Ph=2 NNew=    0 IAdd=    4 IPass= 2 DotMx2= 1.24D-16
 OrtVCM:  IS=    1 I=    4 IndO=   10 Dot= 4.27D-01 DotN= 4.27D-01 ElMax1= 4.27D-01 ElMax1N= 4.27D-01
 OrtVCM:  Ph=2 NNew=    0 IAdd=    5 IPass= 1 DotMx2= 4.24D-01
 OrtVCM:  Ph=2 NNew=    0 IAdd=    5 IPass= 2 DotMx2= 7.37D-17
 OrtVCM:  IS=    1 I=    5 IndO=   11 Dot= 4.60D-01 DotN= 4.60D-01 ElMax1= 4.60D-01 ElMax1N= 4.60D-01
 OrtVCM:  Ph=2 NNew=    0 IAdd=    6 IPass= 1 DotMx2= 1.77D-01
 OrtVCM:  Ph=2 NNew=    0 IAdd=    6 IPass= 2 DotMx2= 2.74D-17
 OrtVCM:  IS=    1 I=    6 IndO=   12 Dot= 1.70D-01 DotN= 1.70D-01 ElMax1= 2.56D-01 ElMax1N= 2.56D-01
 OrtVCM:  Ph=2 NNew=    0 IAdd=    7 IPass= 1 DotMx2= 5.53D-01
 OrtVCM:  Ph=2 NNew=    0 IAdd=    7 IPass= 2 DotMx2= 1.67D-16
 OrtVCM:  IS=    1 I=    7 IndO=   13 Dot= 1.59D-01 DotN= 1.59D-01 ElMax1= 2.13D-01 ElMax1N= 2.13D-01
 OrtVCM:  Ph=2 NNew=    0 IAdd=    8 IPass= 1 DotMx2= 4.22D-01
 OrtVCM:  Ph=2 NNew=    0 IAdd=    8 IPass= 2 DotMx2= 6.75D-17
 OrtVCM:  IS=    1 I=    8 IndO=   14 Dot= 1.40D-02 DotN= 1.40D-02 ElMax1= 8.16D-02 ElMax1N= 8.16D-02
 OrtVCM:  Ph=2 NNew=    0 IAdd=    9 IPass= 1 DotMx2= 2.87D-01
 OrtVCM:  Ph=2 NNew=    0 IAdd=    9 IPass= 2 DotMx2= 9.02D-17
 OrtVCM:  IS=    1 I=    9 IndO=   15 Dot= 1.53D-02 DotN= 1.53D-02 ElMax1= 7.85D-02 ElMax1N= 7.85D-02
 OrtVCM:  Ph=2 NNew=    0 IAdd=   10 IPass= 1 DotMx2= 6.35D-01
 OrtVCM:  Ph=2 NNew=    0 IAdd=   10 IPass= 2 DotMx2= 8.15D-17
 OrtVCM:  IS=    1 I=   10 IndO=   16 Dot= 9.02D-02 DotN= 9.02D-02 ElMax1= 1.72D-01 ElMax1N= 1.72D-01
 OrtVCM:  Ph=2 NNew=    0 IAdd=   11 IPass= 1 DotMx2= 5.72D-01
 OrtVCM:  Ph=2 NNew=    0 IAdd=   11 IPass= 2 DotMx2= 2.56D-16
 OrtVCM:  IS=    1 I=   11 IndO=    0 Dot= 6.68D-13 DotN= 6.68D-13 ElMax1= 5.97D-07 ElMax1N= 5.97D-07
 OrtVCM:  Ph=2 NNew=    0 IAdd=   12 IPass= 1 DotMx2= 4.66D-01
 OrtVCM:  Ph=2 NNew=    0 IAdd=   12 IPass= 2 DotMx2= 9.09D-17
 OrtVCM:  IS=    1 I=   12 IndO=   17 Dot= 5.33D-01 DotN= 5.33D-01 ElMax1= 5.33D-01 ElMax1N= 5.33D-01
 SchOr2:  IPass= 1 Test2A= 1.00D-01 IOff=     0 NDo=    12 NNew=    11
 OrtVCM:  Ph=1 IPass= 1 DotMx1= 6.90D-01
 OrtVCM:  Ph=1 IPass= 2 DotMx1= 1.70D-16
 OrtVCM:  IS=    1 I=    1 IndO=   18 Dot= 8.12D-02 DotN= 8.12D-02 ElMax1= 1.55D-01 ElMax1N= 1.55D-01
 SchOr2:  IPass= 1 Test2A= 1.00D-01 IOff=    12 NDo=     1 NNew=     1
 VibFq2-Diag2:  N=     12 IV=           7 MDV=  1879003357 NE2=   156583612
 Dipole derivative wrt mode   1: -9.48989D-06  6.95624D-06  3.23133D-01
 Vibrational polarizability contributions from mode   1       0.0000000       0.0000000       0.1509330
 Dipole derivative wrt mode   2: -2.51312D+00  2.06900D-02 -1.24818D-06
 Vibrational polarizability contributions from mode   2       0.6961168       0.0000472       0.0000000
 Dipole derivative wrt mode   3:  3.02189D+00 -1.93437D+00  4.69770D-06
 Vibrational polarizability contributions from mode   3       0.2930273       0.1200679       0.0000000
 Dipole derivative wrt mode   4: -3.82714D-05 -1.71222D-05  8.46388D-01
 Vibrational polarizability contributions from mode   4       0.0000000       0.0000000       0.0150589
 Dipole derivative wrt mode   5: -9.39367D-01 -6.18470D-01 -1.30857D-05
 Vibrational polarizability contributions from mode   5       0.0176498       0.0076508       0.0000000
 Dipole derivative wrt mode   6: -1.90430D+00 -2.52093D+00 -6.28844D-06
 Vibrational polarizability contributions from mode   6       0.0650170       0.1139404       0.0000000
 Dipole derivative wrt mode   7: -6.20481D-01 -1.06716D+00 -3.15119D-05
 Vibrational polarizability contributions from mode   7       0.0049512       0.0146460       0.0000000
 Dipole derivative wrt mode   8: -1.17616D-05 -3.13215D-05  3.25689D+00
 Vibrational polarizability contributions from mode   8       0.0000000       0.0000000       0.1312408
 Dipole derivative wrt mode   9:  1.45452D+00  2.82312D+00  4.18829D-05
 Vibrational polarizability contributions from mode   9       0.0257956       0.0971767       0.0000000
 Dipole derivative wrt mode  10: -3.58555D+00  1.14446D+00 -6.86880D-05
 Vibrational polarizability contributions from mode  10       0.0372840       0.0037985       0.0000000
 Dipole derivative wrt mode  11:  1.65706D-04  1.58262D-04 -3.16680D+00
 Vibrational polarizability contributions from mode  11       0.0000000       0.0000000       0.0274634
 Dipole derivative wrt mode  12: -1.44652D+00 -2.32952D+00 -2.11841D-04
 Vibrational polarizability contributions from mode  12       0.0056838       0.0147406       0.0000000
 Diagonal vibrational polarizability:
        1.1455254       0.3720680       0.3246962
 NorSel:  MapVib=      1      2      3      4      5      6      7      8      9     10
 NorSel:  MapVib=     11     12
 Harmonic frequencies (cm**-1), IR intensities (KM/Mole), Raman scattering
 activities (A**4/AMU), depolarization ratios for plane and unpolarized
 incident light, reduced masses (AMU), force constants (mDyne/A),
 and normal coordinates:
                      1                      2                      3
                      A                      A                      A
 Frequencies --    136.4446               494.1267               915.7812
 Red. masses --      1.3281                 3.6986                 5.2765
 Frc consts  --      0.0146                 0.5321                 2.6072
 IR Inten    --      0.1044                 6.3162                12.8736
  Atom  AN      X      Y      Z        X      Y      Z        X      Y      Z
     1   6    -0.00  -0.00   0.02    -0.24  -0.06  -0.00     0.41  -0.16  -0.00
     2   8     0.00   0.00  -0.11    -0.02   0.22   0.00    -0.25   0.25   0.00
     3   8     0.00  -0.00   0.09     0.26  -0.13  -0.00    -0.10  -0.09   0.00
     4   1     0.32   0.39  -0.23    -0.54  -0.11   0.01    -0.03  -0.16  -0.00
     5   1     0.00   0.00   0.61     0.12  -0.43  -0.00     0.66  -0.42  -0.00
     6   1    -0.32  -0.39  -0.23    -0.54  -0.11  -0.01    -0.03  -0.16   0.00
                      4                      5                      6
                      A                      A                      A
 Frequencies --   1131.4603              1159.9315              1225.1480
 Red. masses --      1.2460                 2.8085                 2.5702
 Frc consts  --      0.9398                 2.2263                 2.2730
 IR Inten    --      0.7164                 1.2649                 9.9814
  Atom  AN      X      Y      Z        X      Y      Z        X      Y      Z
     1   6     0.00   0.00   0.13    -0.01   0.17  -0.00    -0.07  -0.14  -0.00
     2   8     0.00   0.00  -0.06     0.21   0.02   0.00     0.13   0.20   0.00
     3   8    -0.00  -0.00  -0.00    -0.20  -0.12   0.00    -0.11  -0.12  -0.00
     4   1    -0.52   0.38  -0.16    -0.35  -0.01   0.10     0.52   0.06  -0.10
     5   1    -0.00   0.00  -0.29     0.62  -0.46   0.00    -0.48   0.30   0.00
     6   1     0.52  -0.38  -0.16    -0.35  -0.01  -0.10     0.52   0.06   0.10
                      7                      8                      9
                      A                      A                      A
 Frequencies --   1446.5652              1474.8065              1485.6423
 Red. masses --      1.1650                 1.0473                 1.0469
 Frc consts  --      1.4364                 1.3422                 1.3613
 IR Inten    --      1.5238                10.6073                10.0856
  Atom  AN      X      Y      Z        X      Y      Z        X      Y      Z
     1   6    -0.09   0.05   0.00    -0.00   0.00  -0.06    -0.03  -0.05  -0.00
     2   8    -0.04  -0.00   0.00    -0.00   0.00  -0.01    -0.01  -0.02  -0.00
     3   8     0.02   0.02  -0.00     0.00  -0.00   0.00     0.00   0.01   0.00
     4   1     0.52  -0.16   0.17    -0.44  -0.19   0.07     0.06   0.53  -0.37
     5   1     0.39  -0.44  -0.00     0.00   0.00   0.73     0.24  -0.29   0.00
     6   1     0.52  -0.16  -0.17     0.44   0.19   0.07     0.06   0.53   0.37
                     10                     11                     12
                      A                      A                      A
 Frequencies --   3046.2186              3134.8026              3147.5619
 Red. masses --      1.0264                 1.1084                 1.1074
 Frc consts  --      5.6119                 6.4173                 6.4641
 IR Inten    --     14.1660                10.0286                 7.5191
  Atom  AN      X      Y      Z        X      Y      Z        X      Y      Z
     1   6    -0.03   0.02  -0.00     0.00   0.00  -0.10    -0.05  -0.08  -0.00
     2   8    -0.00   0.00   0.00     0.00   0.00   0.00    -0.00  -0.00  -0.00
     3   8     0.00   0.00   0.00    -0.00  -0.00   0.00     0.00   0.00   0.00
     4   1     0.02  -0.33  -0.50    -0.02   0.40   0.58    -0.02   0.19   0.31
     5   1     0.37   0.37  -0.00    -0.00  -0.00  -0.02     0.61   0.60  -0.00
     6   1     0.02  -0.33   0.50     0.02  -0.40   0.58    -0.02   0.19  -0.31

 -------------------
 - Thermochemistry -
 -------------------
 Temperature   298.150 Kelvin.  Pressure   1.00000 Atm.
 Atom     1 has atomic number  6 and mass  12.00000
 Atom     2 has atomic number  8 and mass  15.99491
 Atom     3 has atomic number  8 and mass  15.99491
 Atom     4 has atomic number  1 and mass   1.00783
 Atom     5 has atomic number  1 and mass   1.00783
 Atom     6 has atomic number  1 and mass   1.00783
 Molecular mass:    47.01330 amu.
 Principal axes and moments of inertia in atomic units:
                           1         2         3
     Eigenvalues --    33.93176 159.44605 181.83998
           X            0.99972  -0.02367   0.00000
           Y            0.02367   0.99972  -0.00000
           Z           -0.00000   0.00000   1.00000
 This molecule is an asymmetric top.
 Rotational symmetry number  1.
 Rotational temperatures (Kelvin)      2.55259     0.54322     0.47632
 Rotational constants (GHZ):          53.18737    11.31882     9.92489
 Zero-point vibrational energy     112439.9 (Joules/Mol)
                                   26.87379 (Kcal/Mol)
 Warning -- explicit consideration of   2 degrees of freedom as
           vibrations may cause significant error
 Vibrational temperatures:    196.31   710.94  1317.60  1627.92  1668.88
          (Kelvin)           1762.71  2081.28  2121.92  2137.51  4382.83
                             4510.28  4528.64
 
 Zero-point correction=                           0.042826 (Hartree/Particle)
 Thermal correction to Energy=                    0.046679
 Thermal correction to Enthalpy=                  0.047623
 Thermal correction to Gibbs Free Energy=         0.017121
 Sum of electronic and zero-point Energies=           -190.248759
 Sum of electronic and thermal Energies=              -190.244906
 Sum of electronic and thermal Enthalpies=            -190.243962
 Sum of electronic and thermal Free Energies=         -190.274464
 
                     E (Thermal)             CV                S
                      KCal/Mol        Cal/Mol-Kelvin    Cal/Mol-Kelvin
 Total                   29.291             10.547             64.198
 Electronic               0.000              0.000              1.377
 Translational            0.889              2.981             37.468
 Rotational               0.889              2.981             21.514
 Vibrational             27.514              4.586              3.838
 Vibration     1          0.614              1.917              2.853
 Vibration     2          0.850              1.263              0.673
                       Q            Log10(Q)             Ln(Q)
 Total Bot       0.133386D-07         -7.874891        -18.132607
 Total V=0       0.666399D+12         11.823735         27.225155
 Vib (Bot)       0.468806D-19        -19.329007        -44.506683
 Vib (Bot)    1  0.149165D+01          0.173668          0.399885
 Vib (Bot)    2  0.334343D+00         -0.475808         -1.095589
 Vib (V=0)       0.234217D+01          0.369619          0.851080
 Vib (V=0)    1  0.207322D+01          0.316646          0.729104
 Vib (V=0)    2  0.110149D+01          0.041979          0.096660
 Electronic      0.200000D+01          0.301030          0.693147
 Translational   0.126702D+08          7.102785         16.354767
 Rotational      0.112279D+05          4.050300          9.326161
 Write normal modes, IRwNMS=   765 IRotNM=-1 NVibU=    12.
 
                                                                 name
                                                             IR Spectrum
 
     33   3                                                             111        1  11                                             
     11   0                                                             444        2  11        9                4             1     
     43   4                                                             874        2  63        1                9             3     
     85   6                                                             657        5  01        6                4             6     
 
     XX   X                                                             XXX        X  XX        X                X             X     
     XX   X                                                             XXX        X  X         X                X                   
     XX   X                                                             XX         X            X                X                   
     XX   X                                                             XX         X            X                X                   
     XX   X                                                             XX         X            X                X                   
     XX   X                                                             XX         X            X                X                   
     XX   X                                                             XX         X            X                X                   
     XX   X                                                             XX         X            X                X                   
     XX   X                                                             XX         X            X                X                   
     XX   X                                                             XX         X            X                                    
     XX   X                                                             XX         X            X                                    
      X   X                                                             XX         X            X                                    
      X   X                                                             XX         X            X                                    
      X   X                                                             XX         X            X                                    
          X                                                              X                      X                                    
          X                                                                                     X                                    
          X                                                                                     X                                    
          X                                                                                     X                                    
          X                                                                                                                          
          X                                                                                                                          
 
 Forces in standard orientation:
 -------------------------------------------------------------------
 Center     Atomic                   Forces (Hartrees/Bohr)
 Number     Number              X              Y              Z
 -------------------------------------------------------------------
      1        6          -0.000187505    0.000108800   -0.000000175
      2        8          -0.000001475    0.000003633    0.000000083
      3        8          -0.000010585   -0.000019507   -0.000000042
      4        1           0.000053525   -0.000025372   -0.000012858
      5        1           0.000092520   -0.000042100   -0.000000024
      6        1           0.000053520   -0.000025454    0.000013016
 -------------------------------------------------------------------
 Cartesian Forces:  Max     0.000187505 RMS     0.000060181
 ***** Axes restored to original set *****
 Rotating derivatives, DoTrsp=F IDiff=-2 LEDeriv=    916 LFDPrp=       0 LDFDPr=       0.
 -------------------------------------------------------------------
 Center     Atomic                   Forces (Hartrees/Bohr)
 Number     Number              X              Y              Z
 -------------------------------------------------------------------
      1        6          -0.000192623    0.000082733    0.000055199
      2        8          -0.000001684    0.000003228    0.000001458
      3        8          -0.000009391   -0.000018842   -0.000007023
      4        1           0.000055869   -0.000023446   -0.000001681
      5        1           0.000094388   -0.000030252   -0.000022543
      6        1           0.000053441   -0.000013421   -0.000025410
 -------------------------------------------------------------------
 Cartesian Forces:  Max     0.000192623 RMS     0.000060181
 Z-matrix is all fixed cartesians, so copy forces.
 Force constants in Cartesian coordinates: 
                1             2             3             4             5 
      1  0.435437D+00
      2  0.791022D-01  0.585923D+00
      3  0.480753D-01 -0.367503D-02  0.569027D+00
      4 -0.114059D+00  0.638117D-01  0.341173D-01  0.416825D+00
      5  0.397219D-01 -0.114991D+00 -0.332372D-01  0.900302D-01  0.328398D+00
      6  0.238493D-01 -0.357064D-01 -0.642299D-01 -0.391406D-03  0.114288D+00
      7 -0.621307D-01 -0.387464D-01 -0.104275D-01 -0.237387D+00 -0.149967D+00
      8 -0.133769D-01  0.126450D-01  0.792683D-02 -0.182062D+00 -0.203846D+00
      9  0.386123D-03  0.105272D-01  0.171215D-02 -0.534062D-01 -0.709512D-01
     10 -0.509295D-01  0.208848D-01 -0.186509D-01 -0.233070D-01  0.321617D-01
     11  0.288563D-01 -0.233255D+00  0.121538D+00  0.105393D-01 -0.129929D-01
     12 -0.207351D-01  0.123201D+00 -0.129598D+00  0.489435D-02 -0.111239D-01
     13 -0.161232D+00 -0.118656D+00 -0.393196D-01 -0.240790D-01 -0.238229D-01
     14 -0.132104D+00 -0.193184D+00 -0.468992D-01  0.105066D-01  0.997590D-02
     15 -0.450518D-01 -0.482776D-01 -0.673533D-01  0.682704D-02  0.719061D-02
     16 -0.470847D-01 -0.639666D-02 -0.137947D-01 -0.179927D-01  0.118758D-01
     17 -0.219987D-02 -0.571382D-01 -0.456536D-01  0.717434D-02 -0.654427D-02
     18 -0.652391D-02 -0.460693D-01 -0.309558D+00  0.795898D-02 -0.616622D-02
                6             7             8             9            10 
      6  0.873736D-01
      7 -0.397259D-01  0.297067D+00
      8 -0.676615D-01  0.188750D+00  0.185842D+00
      9 -0.260933D-01  0.501197D-01  0.593851D-01  0.213050D-01
     10 -0.117519D-01  0.588441D-02  0.208560D-02  0.552868D-03  0.602725D-01
     11  0.240058D-03 -0.219340D-02  0.236232D-02  0.400392D-03 -0.383247D-01
     12  0.675598D-02 -0.126548D-02 -0.758189D-03  0.334396D-03  0.190644D-01
     13 -0.780590D-02 -0.925186D-02  0.217246D-02  0.201822D-02  0.615913D-02
     14  0.367202D-02  0.412420D-02  0.187332D-02 -0.222951D-03 -0.168403D-01
     15  0.120018D-02  0.285028D-02 -0.228629D-04  0.110274D-02  0.122761D-01
     16  0.358257D-01  0.581839D-02  0.243142D-02  0.329370D-03  0.192047D-02
     17 -0.148320D-01 -0.196730D-02  0.112357D-02  0.861454D-03  0.329209D-04
     18 -0.500659D-02 -0.155108D-02  0.113063D-02  0.163895D-02 -0.149071D-02
               11            12            13            14            15 
     11  0.251632D+00
     12 -0.130136D+00  0.131540D+00
     13  0.325052D-02  0.178661D-02  0.185794D+00
     14 -0.149123D-01 -0.778505D-02  0.136591D+00  0.198758D+00
     15  0.118131D-01  0.511526D-02  0.439431D-01  0.509117D-01  0.636722D-01
     16 -0.212798D-02 -0.374483D-02  0.261050D-02 -0.227804D-02 -0.208448D-01
     17  0.716530D-02  0.266016D-01  0.464432D-03 -0.251142D-02 -0.216149D-01
     18 -0.385601D-02 -0.141476D-01 -0.622449D-03  0.323579D-03 -0.373704D-02
               16            17            18 
     16  0.547281D-01
     17 -0.350453D-02  0.579050D-01
     18  0.222916D-02  0.546373D-01  0.330811D+00
 Final forces over variables, Energy=-1.90291585D+02:
 -1.92623475D-04-1.68357331D-06-9.39097219D-06 5.58694697D-05
  9.43878971D-05 5.34406533D-05 8.27332081D-05 3.22846517D-06
 -1.88423004D-05-2.34463633D-05-3.02518316D-05-1.34211780D-05
  5.51991963D-05 1.45808242D-06-7.02319002D-06-1.68129354D-06
 -2.25430194D-05-2.54097757D-05
 Leave Link  716 at Fri Jul  3 14:51:03 2020, MaxMem=  1879048192 cpu:               1.2 elap:               0.2
 (Enter /home/gridsan/groups/GRPAPI/Software/g16/l103.exe)

 GradGradGradGradGradGradGradGradGradGradGradGradGradGradGradGradGradGrad
 Berny optimization.
 Search for a local minimum.
 Step number   1 out of a maximum of    2
 All quantities printed in internal units (Hartrees-Bohrs-Radians)
 Second derivative matrix not updated -- analytic derivatives used.
 The second derivative matrix:
                          X1        Y1        Z1        X2        Y2
           X1           0.43544
           Y1           0.07910   0.58592
           Z1           0.04808  -0.00368   0.56903
           X2          -0.11406   0.06381   0.03412   0.41683
           Y2           0.03972  -0.11499  -0.03324   0.09003   0.32840
           Z2           0.02385  -0.03571  -0.06423  -0.00039   0.11429
           X3          -0.06213  -0.03875  -0.01043  -0.23739  -0.14997
           Y3          -0.01338   0.01264   0.00793  -0.18206  -0.20385
           Z3           0.00039   0.01053   0.00171  -0.05341  -0.07095
           X4          -0.05093   0.02088  -0.01865  -0.02331   0.03216
           Y4           0.02886  -0.23325   0.12154   0.01054  -0.01299
           Z4          -0.02074   0.12320  -0.12960   0.00489  -0.01112
           X5          -0.16123  -0.11866  -0.03932  -0.02408  -0.02382
           Y5          -0.13210  -0.19318  -0.04690   0.01051   0.00998
           Z5          -0.04505  -0.04828  -0.06735   0.00683   0.00719
           X6          -0.04708  -0.00640  -0.01379  -0.01799   0.01188
           Y6          -0.00220  -0.05714  -0.04565   0.00717  -0.00654
           Z6          -0.00652  -0.04607  -0.30956   0.00796  -0.00617
                          Z2        X3        Y3        Z3        X4
           Z2           0.08737
           X3          -0.03973   0.29707
           Y3          -0.06766   0.18875   0.18584
           Z3          -0.02609   0.05012   0.05939   0.02131
           X4          -0.01175   0.00588   0.00209   0.00055   0.06027
           Y4           0.00024  -0.00219   0.00236   0.00040  -0.03832
           Z4           0.00676  -0.00127  -0.00076   0.00033   0.01906
           X5          -0.00781  -0.00925   0.00217   0.00202   0.00616
           Y5           0.00367   0.00412   0.00187  -0.00022  -0.01684
           Z5           0.00120   0.00285  -0.00002   0.00110   0.01228
           X6           0.03583   0.00582   0.00243   0.00033   0.00192
           Y6          -0.01483  -0.00197   0.00112   0.00086   0.00003
           Z6          -0.00501  -0.00155   0.00113   0.00164  -0.00149
                          Y4        Z4        X5        Y5        Z5
           Y4           0.25163
           Z4          -0.13014   0.13154
           X5           0.00325   0.00179   0.18579
           Y5          -0.01491  -0.00779   0.13659   0.19876
           Z5           0.01181   0.00512   0.04394   0.05091   0.06367
           X6          -0.00213  -0.00374   0.00261  -0.00228  -0.02084
           Y6           0.00717   0.02660   0.00046  -0.00251  -0.02161
           Z6          -0.00386  -0.01415  -0.00062   0.00032  -0.00374
                          X6        Y6        Z6
           X6           0.05473
           Y6          -0.00350   0.05791
           Z6           0.00223   0.05464   0.33081
 ITU=  0
     Eigenvalues ---    0.00230   0.03997   0.08667   0.08965   0.11439
     Eigenvalues ---    0.11474   0.20289   0.34098   0.58396   0.75143
     Eigenvalues ---    0.82174   0.87199
 Angle between quadratic step and forces=  42.93 degrees.
 Linear search not attempted -- first point.
 B after Tr=    -0.000157    0.000052    0.000038
         Rot=    1.000000    0.000001   -0.000008    0.000020 Ang=   0.00 deg.
 Variable       Old X    -DE/DX   Delta X   Delta X   Delta X     New X
                                 (Linear)    (Quad)   (Total)
    X1       -0.84118  -0.00019   0.00000  -0.00041  -0.00056  -0.84174
    Y1       -0.03100   0.00008   0.00000   0.00025   0.00033  -0.03067
    Z1        0.06865   0.00006   0.00000   0.00015   0.00020   0.06885
    X2        1.58768  -0.00000   0.00000  -0.00017  -0.00038   1.58730
    Y2       -1.07010   0.00000   0.00000   0.00012   0.00011  -1.07000
    Z2       -0.62322   0.00000   0.00000   0.00006   0.00007  -0.62315
    X3        3.42757  -0.00001   0.00000  -0.00002  -0.00016   3.42741
    Y3        0.52131  -0.00002   0.00000  -0.00014  -0.00023   0.52107
    Z3       -0.13348  -0.00001   0.00000  -0.00005  -0.00007  -0.13354
    X4       -1.16928   0.00006   0.00000   0.00032   0.00022  -1.16906
    Y4        1.68602  -0.00002   0.00000   0.00008   0.00018   1.68620
    Z4       -1.01303  -0.00000   0.00000  -0.00014  -0.00008  -1.01311
    X5       -2.21761   0.00009   0.00000   0.00086   0.00063  -2.21698
    Y5       -1.47970  -0.00003   0.00000  -0.00062  -0.00047  -1.48018
    Z5       -0.40779  -0.00002   0.00000  -0.00034  -0.00026  -0.40805
    X6       -0.85167   0.00005   0.00000   0.00037   0.00026  -0.85141
    Y6        0.36514  -0.00001   0.00000  -0.00000   0.00009   0.36522
    Z6        2.08578  -0.00003   0.00000   0.00009   0.00014   2.08592
         Item               Value     Threshold  Converged?
 Maximum Force            0.000193     0.000450     YES
 RMS     Force            0.000060     0.000300     YES
 Maximum Displacement     0.000632     0.001800     YES
 RMS     Displacement     0.000297     0.001200     YES
 Predicted change in Energy=-1.258798D-07
 Optimization completed.
    -- Stationary point found.
 GradGradGradGradGradGradGradGradGradGradGradGradGradGradGradGradGradGrad

 Leave Link  103 at Fri Jul  3 14:51:03 2020, MaxMem=  1879048192 cpu:               0.3 elap:               0.1
 (Enter /home/gridsan/groups/GRPAPI/Software/g16/l9999.exe)

 ----------------------------------------------------------------------

 Electric dipole moment (input orientation):
 (Debye = 10**-18 statcoulomb cm , SI units = C m)
                  (au)            (Debye)         (10**-30 SI)
   Tot        0.110960D+01      0.282031D+01      0.940754D+01
   x         -0.110156D+01     -0.279989D+01     -0.933942D+01
   y          0.361209D-01      0.918102D-01      0.306246D+00
   z          0.128305D+00      0.326120D+00      0.108782D+01

 Dipole polarizability, Alpha (input orientation).
 (esu units = cm**3 , SI units = C**2 m**2 J**-1)
 Alpha(0;0):
               (au)            (10**-24 esu)      (10**-40 SI)
   iso        0.253173D+02      0.375164D+01      0.417426D+01
   aniso      0.125046D+02      0.185299D+01      0.206173D+01
   xx         0.327161D+02      0.484803D+01      0.539416D+01
   yx         0.300706D+01      0.445601D+00      0.495798D+00
   yy         0.227740D+02      0.337476D+01      0.375493D+01
   zx        -0.106279D-01     -0.157489D-02     -0.175230D-02
   zy         0.828265D+00      0.122736D+00      0.136562D+00
   zz         0.204619D+02      0.303213D+01      0.337370D+01

 ----------------------------------------------------------------------

 Dipole orientation:
     6         -0.03081191         -0.05757345          0.84201703
     8         -0.46460619         -1.00280870         -1.68308585
     8          0.28218357          0.62444498         -3.40121741
     1         -1.09317374          1.68352389          1.09855405
     1         -0.70623533         -1.52926382          2.10623261
     1          1.98196335          0.27222007          1.09856853

 Electric dipole moment (dipole orientation):
 (Debye = 10**-18 statcoulomb cm , SI units = C m)
                  (au)            (Debye)         (10**-30 SI)
   Tot        0.110960D+01      0.282031D+01      0.940754D+01
   x          0.000000D+00      0.000000D+00      0.000000D+00
   y          0.000000D+00      0.000000D+00      0.000000D+00
   z          0.110960D+01      0.282031D+01      0.940754D+01

 Dipole polarizability, Alpha (dipole orientation).
 (esu units = cm**3 , SI units = C**2 m**2 J**-1)
 Alpha(0;0):
               (au)            (10**-24 esu)      (10**-40 SI)
   iso        0.253173D+02      0.375164D+01      0.417426D+01
   aniso      0.125046D+02      0.185299D+01      0.206173D+01
   xx         0.206958D+02      0.306681D+01      0.341228D+01
   yx         0.128150D+01      0.189899D+00      0.211291D+00
   yy         0.229001D+02      0.339345D+01      0.377572D+01
   zx        -0.145130D+01     -0.215060D+00     -0.239287D+00
   zy        -0.316240D+01     -0.468620D+00     -0.521410D+00
   zz         0.323560D+02      0.479467D+01      0.533479D+01

 ----------------------------------------------------------------------

 Test job not archived.
 1\1\GINC-D-12-13-1\Freq\UB3LYP\6-311+G(3df,2p)\C1H3O2(2)\ALONGD\03-Jul
 -2020\0\\#P guess=read ub3lyp/6-311+g(3df,2p) freq iop(7/33=1) scf=(ti
 ght, direct) integral=(grid=ultrafine, Acc2E=12) iop(2/9=2000) scf=xqc
 \\name\\0,2\C,-0.445133,-0.016405,0.036328\O,0.840166,-0.566275,-0.329
 792\O,1.813794,0.275863,-0.070634\H,-0.618754,0.892203,-0.536074\H,-1.
 173511,-0.783026,-0.215793\H,-0.450682,0.193222,1.103747\\Version=ES64
 L-G16RevB.01\State=2-A\HF=-190.2915848\S2=0.754354\S2-1=0.\S2A=0.75001
 2\RMSD=7.245e-09\RMSF=6.018e-05\ZeroPoint=0.0428261\Thermal=0.0466789\
 Dipole=-1.1015604,0.0361209,0.1283053\DipoleDeriv=0.4455341,-0.009646,
 -0.0201004,-0.0106089,0.2815011,-0.0023433,-0.0205083,-0.0024414,0.290
 6136,-0.2850904,-0.1194466,-0.0371596,-0.1173757,-0.3064166,-0.0542499
 ,-0.0362786,-0.0540375,-0.170231,-0.1295148,0.2006472,0.0810531,0.1023
 948,-0.034135,0.0487514,0.0391742,0.0386805,-0.1606616,-0.0001285,-0.0
 284639,0.0254128,0.0652109,-0.0129275,0.0589494,-0.0068338,0.0831691,0
 .025805,-0.0290861,-0.0312464,-0.0004697,-0.0723552,-0.0084639,-0.0372
 297,-0.0179932,-0.0414433,0.0804541,-0.0017144,-0.0118443,-0.0487362,0
 .0327341,0.0804419,-0.0138779,0.0424397,-0.0239273,-0.0659801\Polar=32
 .7161204,3.0070634,22.7740136,-0.0106279,0.8282651,20.4618553\Quadrupo
 le=0.0416406,-0.366194,0.3245534,-0.1306186,-0.011823,-0.3428018\PG=C0
 1 [X(C1H3O2)]\NImag=0\\0.43543675,0.07910215,0.58592266,0.04807532,-0.
 00367503,0.56902713,-0.11405932,0.06381168,0.03411728,0.41682540,0.039
 72192,-0.11499131,-0.03323716,0.09003022,0.32839841,0.02384933,-0.0357
 0645,-0.06422985,-0.00039141,0.11428785,0.08737356,-0.06213074,-0.0387
 4635,-0.01042749,-0.23738738,-0.14996680,-0.03972589,0.29706719,-0.013
 37693,0.01264497,0.00792683,-0.18206220,-0.20384582,-0.06766150,0.1887
 4965,0.18584162,0.00038612,0.01052721,0.00171215,-0.05340625,-0.070951
 19,-0.02609328,0.05011967,0.05938509,0.02130505,-0.05092951,0.02088478
 ,-0.01865085,-0.02330696,0.03216175,-0.01175187,0.00588441,0.00208560,
 0.00055287,0.06027246,0.02885628,-0.23325451,0.12153819,0.01053932,-0.
 01299292,0.00024006,-0.00219340,0.00236232,0.00040039,-0.03832474,0.25
 163209,-0.02073506,0.12320122,-0.12959785,0.00489435,-0.01112388,0.006
 75598,-0.00126548,-0.00075819,0.00033440,0.01906442,-0.13013573,0.1315
 3986,-0.16123245,-0.11865560,-0.03931960,-0.02407899,-0.02382287,-0.00
 780590,-0.00925186,0.00217246,0.00201822,0.00615913,0.00325052,0.00178
 661,0.18579367,-0.13210356,-0.19318361,-0.04689925,0.01050664,0.009975
 90,0.00367202,0.00412420,0.00187332,-0.00022295,-0.01684030,-0.0149122
 8,-0.00778505,0.13659106,0.19875809,-0.04505180,-0.04827763,-0.0673533
 1,0.00682704,0.00719061,0.00120018,0.00285028,-0.00002286,0.00110274,0
 .01227613,0.01181310,0.00511526,0.04394312,0.05091165,0.06367216,-0.04
 708474,-0.00639666,-0.01379466,-0.01799275,0.01187579,0.03582574,0.005
 81839,0.00243142,0.00032937,0.00192047,-0.00212798,-0.00374483,0.00261
 050,-0.00227804,-0.02084478,0.05472813,-0.00219987,-0.05713820,-0.0456
 5357,0.00717434,-0.00654427,-0.01483198,-0.00196730,0.00112357,0.00086
 145,0.00003292,0.00716530,0.02660163,0.00046443,-0.00251142,-0.0216148
 7,-0.00350453,0.05790502,-0.00652391,-0.04606932,-0.30955827,0.0079589
 8,-0.00616622,-0.00500659,-0.00155108,0.00113063,0.00163895,-0.0014907
 1,-0.00385601,-0.01414764,-0.00062245,0.00032358,-0.00373704,0.0022291
 6,0.05463734,0.33081059\\0.00019262,-0.00008273,-0.00005520,0.00000168
 ,-0.00000323,-0.00000146,0.00000939,0.00001884,0.00000702,-0.00005587,
 0.00002345,0.00000168,-0.00009439,0.00003025,0.00002254,-0.00005344,0.
 00001342,0.00002541\\\@


 A COMPLEXITY IS MERELY A DISARRANGEMENT OF SIMPLICITIES.

                                    -- G. O. ABELL IN "EXPLORATION OF THE UNIVERSE"
 Job cpu time:       0 days  0 hours  3 minutes 43.2 seconds.
 Elapsed time:       0 days  0 hours  0 minutes 28.6 seconds.
 File lengths (MBytes):  RWF=     25 Int=      0 D2E=      0 Chk=      3 Scr=      1
 Normal termination of Gaussian 16 at Fri Jul  3 14:51:03 2020.
