 Entering Gaussian System, Link 0=g16
 Initial command:
 /home/gridsan/oscarwu/GRPAPI/Software/g16/l1.exe "/home/gridsan/oscarwu/scratch/optsr1001-1816736/Gau-68610.inp" -scrdir="/home/gridsan/oscarwu/scratch/optsr1001-1816736/"
 Entering Link 1 = /home/gridsan/oscarwu/GRPAPI/Software/g16/l1.exe PID=     68612.
  
 Copyright (c) 1988-2017, Gaussian, Inc.  All Rights Reserved.
  
 This is part of the Gaussian(R) 16 program.  It is based on
 the Gaussian(R) 09 system (copyright 2009, Gaussian, Inc.),
 the Gaussian(R) 03 system (copyright 2003, Gaussian, Inc.),
 the Gaussian(R) 98 system (copyright 1998, Gaussian, Inc.),
 the Gaussian(R) 94 system (copyright 1995, Gaussian, Inc.),
 the Gaussian 92(TM) system (copyright 1992, Gaussian, Inc.),
 the Gaussian 90(TM) system (copyright 1990, Gaussian, Inc.),
 the Gaussian 88(TM) system (copyright 1988, Gaussian, Inc.),
 the Gaussian 86(TM) system (copyright 1986, Carnegie Mellon
 University), and the Gaussian 82(TM) system (copyright 1983,
 Carnegie Mellon University). Gaussian is a federally registered
 trademark of Gaussian, Inc.
  
 This software contains proprietary and confidential information,
 including trade secrets, belonging to Gaussian, Inc.
  
 This software is provided under written license and may be
 used, copied, transmitted, or stored only in accord with that
 written license.
  
 The following legend is applicable only to US Government
 contracts under FAR:
  
                    RESTRICTED RIGHTS LEGEND
  
 Use, reproduction and disclosure by the US Government is
 subject to restrictions as set forth in subparagraphs (a)
 and (c) of the Commercial Computer Software - Restricted
 Rights clause in FAR 52.227-19.
  
 Gaussian, Inc.
 340 Quinnipiac St., Bldg. 40, Wallingford CT 06492
  
  
 ---------------------------------------------------------------
 Warning -- This program may not be used in any manner that
 competes with the business of Gaussian, Inc. or will provide
 assistance to any competitor of Gaussian, Inc.  The licensee
 of this program is prohibited from giving any competitor of
 Gaussian, Inc. access to this program.  By using this program,
 the user acknowledges that Gaussian, Inc. is engaged in the
 business of creating and licensing software in the field of
 computational chemistry and represents and warrants to the
 licensee that it is not a competitor of Gaussian, Inc. and that
 it will not use this program in any manner prohibited above.
 ---------------------------------------------------------------
  

 Cite this work as:
 Gaussian 16, Revision B.01,
 M. J. Frisch, G. W. Trucks, H. B. Schlegel, G. E. Scuseria, 
 M. A. Robb, J. R. Cheeseman, G. Scalmani, V. Barone, 
 G. A. Petersson, H. Nakatsuji, X. Li, M. Caricato, A. V. Marenich, 
 J. Bloino, B. G. Janesko, R. Gomperts, B. Mennucci, H. P. Hratchian, 
 J. V. Ortiz, A. F. Izmaylov, J. L. Sonnenberg, D. Williams-Young, 
 F. Ding, F. Lipparini, F. Egidi, J. Goings, B. Peng, A. Petrone, 
 T. Henderson, D. Ranasinghe, V. G. Zakrzewski, J. Gao, N. Rega, 
 G. Zheng, W. Liang, M. Hada, M. Ehara, K. Toyota, R. Fukuda, 
 J. Hasegawa, M. Ishida, T. Nakajima, Y. Honda, O. Kitao, H. Nakai, 
 T. Vreven, K. Throssell, J. A. Montgomery, Jr., J. E. Peralta, 
 F. Ogliaro, M. J. Bearpark, J. J. Heyd, E. N. Brothers, K. N. Kudin, 
 V. N. Staroverov, T. A. Keith, R. Kobayashi, J. Normand, 
 K. Raghavachari, A. P. Rendell, J. C. Burant, S. S. Iyengar, 
 J. Tomasi, M. Cossi, J. M. Millam, M. Klene, C. Adamo, R. Cammi, 
 J. W. Ochterski, R. L. Martin, K. Morokuma, O. Farkas, 
 J. B. Foresman, and D. J. Fox, Gaussian, Inc., Wallingford CT, 2016.
 
 ******************************************
 Gaussian 16:  ES64L-G16RevB.01 20-Dec-2017
                 7-Jul-2020 
 ******************************************
 %chk=0_0xd628bc800d04214f0f9db0fec47002f2_geom_opt_freq.chk
 %mem=300000mb
 %NProcShared=40
 Will use up to   40 processors via shared memory.
 ----------------------------------------------------------------------
 #p opt=(calcall,ts,noeigentest,maxcycles=120) freq guess=mix scf=xqc i
 op(2/9=2000) uB3LYP/CBSB7
 ----------------------------------------------------------------------
 1/5=1,6=120,10=4,11=1,18=20,26=3,38=1/1,3;
 2/9=2000,12=2,17=6,18=5,40=1/2;
 3/5=4,6=6,7=700,11=2,25=1,30=1,71=2,74=-5,116=2,140=1/1,2,3;
 4/13=-1/1;
 5/5=2,8=3,13=1,38=5/2,8;
 8/6=4,10=90,11=11/1;
 11/6=1,8=1,9=11,15=111,16=1/1,2,10;
 10/6=1/2;
 6/7=2,8=2,9=2,10=2,18=1,28=1/1;
 7/10=1,25=1/1,2,3,16;
 1/5=1,6=120,10=4,11=1,18=20,26=3/3(3);
 2/9=2000/2;
 7/8=1,9=1,25=1,44=-1/16;
 99//99;
 2/9=2000/2;
 3/5=4,6=6,7=700,11=2,25=1,30=1,71=2,74=-5,116=2,140=1/1,2,3;
 4/5=5,16=3,69=1/1;
 5/5=2,8=3,13=1,38=5/2,8;
 8/6=4,10=90,11=11/1;
 11/6=1,8=1,9=11,15=111,16=1/1,2,10;
 10/6=1/2;
 7/10=1,25=1/1,2,3,16;
 1/5=1,6=120,10=4,11=1,18=20,26=3/3(-8);
 2/9=2000/2;
 6/7=2,8=2,9=2,10=2,18=1,19=2,28=1/1;
 7/8=1,9=1,25=1,44=-1/16;
 99//99;
 Leave Link    1 at Tue Jul  7 12:14:46 2020, MaxMem= 39321600000 cpu:              18.6 elap:               0.8
 (Enter /home/gridsan/oscarwu/GRPAPI/Software/g16/l101.exe)
 ----------------------------------
 0xd628bc800d04214f0f9db0fec47002f2
 ----------------------------------
 Symbolic Z-matrix:
 Charge =  0 Multiplicity = 2
 N                    -2.54506  -1.35029   0.11997 
 C                    -1.68633  -0.57208   0.06492 
 C                    -0.57285   0.34231  -0.01006 
 C                    -0.22311   1.01563   1.30605 
 C                    -0.58749   1.26162  -1.21912 
 H                     0.76098   1.50083   1.21758 
 H                    -0.18625   0.29112   2.13309 
 H                    -0.96075   1.79129   1.57043 
 H                     0.41329   1.68043  -1.41623 
 H                    -1.28515   2.09965  -1.07972 
 H                    -0.90011   0.69442  -2.10936 
 C                     1.49248  -1.38069  -0.18877 
 O                     1.2089   -2.28857   0.79811 
 H                     1.52724  -1.77579  -1.21671 
 H                     0.47846  -0.44235  -0.2287 
 H                     2.37244  -0.78102   0.07474 
 H                     0.5756   -2.9317    0.46622 
 
 Add virtual bond connecting atoms H15        and C3         Dist= 2.51D+00.
 Add virtual bond connecting atoms H15        and C12        Dist= 2.61D+00.
 ITRead=  0  0  0  0  0  0  0  0  0  0  0  0  0  0  0  0  0
 MicOpt= -1 -1 -1 -1 -1 -1 -1 -1 -1 -1 -1 -1 -1 -1 -1 -1 -1
 NAtoms=     17 NQM=       17 NQMF=       0 NMMI=      0 NMMIF=      0
                NMic=       0 NMicF=      0.
                    Isotopes and Nuclear Properties:
 (Nuclear quadrupole moments (NQMom) in fm**2, nuclear magnetic moments (NMagM)
  in nuclear magnetons)

  Atom         1           2           3           4           5           6           7           8           9          10
 IAtWgt=          14          12          12          12          12           1           1           1           1           1
 AtmWgt=  14.0030740  12.0000000  12.0000000  12.0000000  12.0000000   1.0078250   1.0078250   1.0078250   1.0078250   1.0078250
 NucSpn=           2           0           0           0           0           1           1           1           1           1
 AtZEff=  -0.0000000  -0.0000000  -0.0000000  -0.0000000  -0.0000000  -0.0000000  -0.0000000  -0.0000000  -0.0000000  -0.0000000
 NQMom=    2.0440000   0.0000000   0.0000000   0.0000000   0.0000000   0.0000000   0.0000000   0.0000000   0.0000000   0.0000000
 NMagM=    0.4037610   0.0000000   0.0000000   0.0000000   0.0000000   2.7928460   2.7928460   2.7928460   2.7928460   2.7928460
 AtZNuc=   7.0000000   6.0000000   6.0000000   6.0000000   6.0000000   1.0000000   1.0000000   1.0000000   1.0000000   1.0000000

  Atom        11          12          13          14          15          16          17
 IAtWgt=           1          12          16           1           1           1           1
 AtmWgt=   1.0078250  12.0000000  15.9949146   1.0078250   1.0078250   1.0078250   1.0078250
 NucSpn=           1           0           0           1           1           1           1
 AtZEff=  -0.0000000  -0.0000000  -0.0000000  -0.0000000  -0.0000000  -0.0000000  -0.0000000
 NQMom=    0.0000000   0.0000000   0.0000000   0.0000000   0.0000000   0.0000000   0.0000000
 NMagM=    2.7928460   0.0000000   0.0000000   2.7928460   2.7928460   2.7928460   2.7928460
 AtZNuc=   1.0000000   6.0000000   8.0000000   1.0000000   1.0000000   1.0000000   1.0000000
 Leave Link  101 at Tue Jul  7 12:14:49 2020, MaxMem= 39321600000 cpu:              30.5 elap:               1.2
 (Enter /home/gridsan/oscarwu/GRPAPI/Software/g16/l103.exe)

 GradGradGradGradGradGradGradGradGradGradGradGradGradGradGradGradGradGrad
 Berny optimization.
 Initialization pass.
                           ----------------------------
                           !    Initial Parameters    !
                           ! (Angstroms and Degrees)  !
 --------------------------                            --------------------------
 ! Name  Definition              Value          Derivative Info.                !
 --------------------------------------------------------------------------------
 ! R1    R(1,2)                  1.1602         calculate D2E/DX2 analytically  !
 ! R2    R(2,3)                  1.4428         calculate D2E/DX2 analytically  !
 ! R3    R(3,4)                  1.5191         calculate D2E/DX2 analytically  !
 ! R4    R(3,5)                  1.5189         calculate D2E/DX2 analytically  !
 ! R5    R(3,15)                 1.3299         calculate D2E/DX2 analytically  !
 ! R6    R(4,6)                  1.1008         calculate D2E/DX2 analytically  !
 ! R7    R(4,7)                  1.1001         calculate D2E/DX2 analytically  !
 ! R8    R(4,8)                  1.1026         calculate D2E/DX2 analytically  !
 ! R9    R(5,9)                  1.1026         calculate D2E/DX2 analytically  !
 ! R10   R(5,10)                 1.0993         calculate D2E/DX2 analytically  !
 ! R11   R(5,11)                 1.1009         calculate D2E/DX2 analytically  !
 ! R12   R(12,13)                1.3706         calculate D2E/DX2 analytically  !
 ! R13   R(12,14)                1.1018         calculate D2E/DX2 analytically  !
 ! R14   R(12,15)                1.3821         calculate D2E/DX2 analytically  !
 ! R15   R(12,16)                1.097          calculate D2E/DX2 analytically  !
 ! R16   R(13,17)                0.9617         calculate D2E/DX2 analytically  !
 ! A1    A(2,3,4)              114.4284         calculate D2E/DX2 analytically  !
 ! A2    A(2,3,5)              114.6773         calculate D2E/DX2 analytically  !
 ! A3    A(2,3,15)             104.164          calculate D2E/DX2 analytically  !
 ! A4    A(4,3,5)              115.06           calculate D2E/DX2 analytically  !
 ! A5    A(4,3,15)             102.8231         calculate D2E/DX2 analytically  !
 ! A6    A(5,3,15)             103.5236         calculate D2E/DX2 analytically  !
 ! A7    A(3,4,6)              109.3631         calculate D2E/DX2 analytically  !
 ! A8    A(3,4,7)              111.5379         calculate D2E/DX2 analytically  !
 ! A9    A(3,4,8)              111.4403         calculate D2E/DX2 analytically  !
 ! A10   A(6,4,7)              108.7082         calculate D2E/DX2 analytically  !
 ! A11   A(6,4,8)              107.896          calculate D2E/DX2 analytically  !
 ! A12   A(7,4,8)              107.7853         calculate D2E/DX2 analytically  !
 ! A13   A(3,5,9)              111.3107         calculate D2E/DX2 analytically  !
 ! A14   A(3,5,10)             111.5046         calculate D2E/DX2 analytically  !
 ! A15   A(3,5,11)             109.5475         calculate D2E/DX2 analytically  !
 ! A16   A(9,5,10)             108.0068         calculate D2E/DX2 analytically  !
 ! A17   A(9,5,11)             107.9912         calculate D2E/DX2 analytically  !
 ! A18   A(10,5,11)            108.366          calculate D2E/DX2 analytically  !
 ! A19   A(13,12,14)           116.1517         calculate D2E/DX2 analytically  !
 ! A20   A(13,12,15)           108.5845         calculate D2E/DX2 analytically  !
 ! A21   A(13,12,16)           110.8002         calculate D2E/DX2 analytically  !
 ! A22   A(14,12,15)           103.8653         calculate D2E/DX2 analytically  !
 ! A23   A(14,12,16)           113.2556         calculate D2E/DX2 analytically  !
 ! A24   A(15,12,16)           102.9634         calculate D2E/DX2 analytically  !
 ! A25   A(12,13,17)           109.3136         calculate D2E/DX2 analytically  !
 ! A26   L(1,2,3,13,-1)        177.3555         calculate D2E/DX2 analytically  !
 ! A27   L(3,15,12,6,-1)       177.6025         calculate D2E/DX2 analytically  !
 ! A28   L(1,2,3,13,-2)        179.0371         calculate D2E/DX2 analytically  !
 ! A29   L(3,15,12,6,-2)       166.03           calculate D2E/DX2 analytically  !
 ! D1    D(2,3,4,6)            166.8301         calculate D2E/DX2 analytically  !
 ! D2    D(2,3,4,7)             46.5517         calculate D2E/DX2 analytically  !
 ! D3    D(2,3,4,8)            -73.9647         calculate D2E/DX2 analytically  !
 ! D4    D(5,3,4,6)            -57.2313         calculate D2E/DX2 analytically  !
 ! D5    D(5,3,4,7)           -177.5097         calculate D2E/DX2 analytically  !
 ! D6    D(5,3,4,8)             61.9739         calculate D2E/DX2 analytically  !
 ! D7    D(15,3,4,6)            54.5571         calculate D2E/DX2 analytically  !
 ! D8    D(15,3,4,7)           -65.7213         calculate D2E/DX2 analytically  !
 ! D9    D(15,3,4,8)           173.7623         calculate D2E/DX2 analytically  !
 ! D10   D(2,3,5,9)           -160.6568         calculate D2E/DX2 analytically  !
 ! D11   D(2,3,5,10)            78.6564         calculate D2E/DX2 analytically  !
 ! D12   D(2,3,5,11)           -41.295          calculate D2E/DX2 analytically  !
 ! D13   D(4,3,5,9)             63.5149         calculate D2E/DX2 analytically  !
 ! D14   D(4,3,5,10)           -57.1719         calculate D2E/DX2 analytically  !
 ! D15   D(4,3,5,11)          -177.1233         calculate D2E/DX2 analytically  !
 ! D16   D(15,3,5,9)           -47.859          calculate D2E/DX2 analytically  !
 ! D17   D(15,3,5,10)         -168.5459         calculate D2E/DX2 analytically  !
 ! D18   D(15,3,5,11)           71.5028         calculate D2E/DX2 analytically  !
 ! D19   D(2,3,12,13)          -46.6358         calculate D2E/DX2 analytically  !
 ! D20   D(2,3,12,14)           76.7081         calculate D2E/DX2 analytically  !
 ! D21   D(2,3,12,16)         -162.2875         calculate D2E/DX2 analytically  !
 ! D22   D(4,3,12,13)           70.6991         calculate D2E/DX2 analytically  !
 ! D23   D(4,3,12,14)         -165.9569         calculate D2E/DX2 analytically  !
 ! D24   D(4,3,12,16)          -44.9526         calculate D2E/DX2 analytically  !
 ! D25   D(5,3,12,13)         -168.1427         calculate D2E/DX2 analytically  !
 ! D26   D(5,3,12,14)          -44.7988         calculate D2E/DX2 analytically  !
 ! D27   D(5,3,12,16)           76.2056         calculate D2E/DX2 analytically  !
 ! D28   D(14,12,13,17)        -35.8316         calculate D2E/DX2 analytically  !
 ! D29   D(15,12,13,17)         80.7039         calculate D2E/DX2 analytically  !
 ! D30   D(16,12,13,17)       -166.9069         calculate D2E/DX2 analytically  !
 --------------------------------------------------------------------------------
 Trust Radius=3.00D-01 FncErr=1.00D-07 GrdErr=1.00D-06 EigMax=2.50D+02 EigMin=1.00D-04
 Number of steps in this run=    102 maximum allowed number of steps=    102.
 Search for a saddle point of order  1.
 GradGradGradGradGradGradGradGradGradGradGradGradGradGradGradGradGradGrad

 Leave Link  103 at Tue Jul  7 12:14:50 2020, MaxMem= 39321600000 cpu:               3.9 elap:               0.3
 (Enter /home/gridsan/oscarwu/GRPAPI/Software/g16/l202.exe)
                          Input orientation:                          
 ---------------------------------------------------------------------
 Center     Atomic      Atomic             Coordinates (Angstroms)
 Number     Number       Type             X           Y           Z
 ---------------------------------------------------------------------
      1          7           0       -2.545062   -1.350286    0.119966
      2          6           0       -1.686332   -0.572083    0.064922
      3          6           0       -0.572845    0.342310   -0.010058
      4          6           0       -0.223111    1.015630    1.306045
      5          6           0       -0.587492    1.261624   -1.219116
      6          1           0        0.760981    1.500828    1.217577
      7          1           0       -0.186247    0.291121    2.133090
      8          1           0       -0.960749    1.791285    1.570433
      9          1           0        0.413291    1.680434   -1.416229
     10          1           0       -1.285149    2.099650   -1.079723
     11          1           0       -0.900114    0.694424   -2.109357
     12          6           0        1.492484   -1.380689   -0.188768
     13          8           0        1.208900   -2.288567    0.798108
     14          1           0        1.527238   -1.775793   -1.216705
     15          1           0        0.478462   -0.442347   -0.228702
     16          1           0        2.372443   -0.781017    0.074739
     17          1           0        0.575597   -2.931701    0.466217
 ---------------------------------------------------------------------
                    Distance matrix (angstroms):
                    1          2          3          4          5
     1  N    0.000000
     2  C    1.160193   0.000000
     3  C    2.602197   1.442772   0.000000
     4  C    3.520767   2.490429   1.519145   0.000000
     5  C    3.528072   2.493729   1.518938   2.563147   0.000000
     6  H    4.501502   3.408066   2.151359   1.100764   2.795187
     7  H    3.508688   2.696793   2.178339   1.100125   3.512856
     8  H    3.805702   2.894571   2.178979   1.102566   2.863817
     9  H    4.505220   3.417025   2.177236   2.873630   1.102643
    10  H    3.863767   2.934164   2.177109   2.827528   1.099293
    11  H    3.443338   2.636222   2.153635   3.496638   1.100899
    12  C    4.049447   3.289844   2.695598   3.304554   3.517064
    13  O    3.928419   3.444742   3.278606   3.636808   4.460949
    14  H    4.307131   3.663130   3.217563   4.149703   3.701080
    15  H    3.176101   2.188465   1.329939   2.230101   2.240691
    16  H    4.950553   4.064161   3.153376   3.388356   3.821997
    17  H    3.515576   3.293199   3.502129   4.113960   4.666594
                    6          7          8          9         10
     6  H    0.000000
     7  H    1.788518   0.000000
     8  H    1.781355   1.779587   0.000000
     9  H    2.662721   3.858407   3.289441   0.000000
    10  H    3.134138   3.847146   2.687685   1.781482   0.000000
    11  H    3.804999   4.320951   3.840265   1.782603   1.784114
    12  C    3.288776   3.317245   4.378877   3.470129   4.541124
    13  O    3.838763   3.222328   4.684982   4.614028   5.385441
    14  H    4.153207   4.292936   5.165488   3.636784   4.790339
    15  H    2.438743   2.560835   3.208945   2.433242   3.208787
    16  H    3.018229   3.454445   4.468111   3.481380   4.796771
    17  H    4.499580   3.707486   5.087853   4.984149   5.582724
                   11         12         13         14         15
    11  H    0.000000
    12  C    3.703954   0.000000
    13  O    4.668996   1.370616   0.000000
    14  H    3.576428   1.101803   2.103271   0.000000
    15  H    2.594144   1.382144   2.235264   1.963202   0.000000
    16  H    4.202003   1.096982   2.037107   1.836241   1.947804
    17  H    4.686159   1.917114   0.961689   2.252548   2.586355
                   16         17
    16  H    0.000000
    17  H    2.829727   0.000000
 Stoichiometry    C5H10NO(2)
 Framework group  C1[X(C5H10NO)]
 Deg. of freedom    45
 Full point group                 C1      NOp   1
 Largest Abelian subgroup         C1      NOp   1
 Largest concise Abelian subgroup C1      NOp   1
                         Standard orientation:                         
 ---------------------------------------------------------------------
 Center     Atomic      Atomic             Coordinates (Angstroms)
 Number     Number       Type             X           Y           Z
 ---------------------------------------------------------------------
      1          7           0        0.867103    2.309891   -0.085772
      2          6           0        0.846204    1.151375   -0.027040
      3          6           0        0.752171   -0.287288    0.027706
      4          6           0        0.777222   -0.865522    1.432276
      5          6           0        1.617128   -1.018321   -0.984526
      6          1           0        0.467444   -1.921238    1.397917
      7          1           0        0.099038   -0.320515    2.105559
      8          1           0        1.789398   -0.823422    1.867452
      9          1           0        1.266537   -2.052314   -1.138685
     10          1           0        2.667156   -1.060076   -0.661814
     11          1           0        1.572289   -0.496164   -1.952679
     12          6           0       -1.854318   -0.651811   -0.555034
     13          8           0       -2.471324    0.267229    0.253210
     14          1           0       -1.990369   -0.513540   -1.639626
     15          1           0       -0.487657   -0.548005   -0.376761
     16          1           0       -2.069522   -1.673405   -0.218279
     17          1           0       -2.443886    1.131011   -0.168658
 ---------------------------------------------------------------------
 Rotational constants (GHZ):           2.6251989           1.7261039           1.3799135
 Leave Link  202 at Tue Jul  7 12:14:52 2020, MaxMem= 39321600000 cpu:               5.2 elap:               0.5
 (Enter /home/gridsan/oscarwu/GRPAPI/Software/g16/l301.exe)
 Standard basis: 6-311G(2d,d,p) (5D, 7F)
 Ernie: Thresh=  0.10000D-02 Tol=  0.10000D-05 Strict=F.
 There are   193 symmetry adapted cartesian basis functions of A   symmetry.
 There are   186 symmetry adapted basis functions of A   symmetry.
   186 basis functions,   304 primitive gaussians,   193 cartesian basis functions
    28 alpha electrons       27 beta electrons
       nuclear repulsion energy       289.3280449240 Hartrees.
 IExCor=  402 DFT=T Ex+Corr=B3LYP ExCW=0 ScaHFX=  0.200000
 ScaDFX=  0.800000  0.720000  1.000000  0.810000 ScalE2=  1.000000  1.000000
 IRadAn=      5 IRanWt=     -1 IRanGd=            0 ICorTp=0 IEmpDi=  4
 NAtoms=   17 NActive=   17 NUniq=   17 SFac= 1.00D+00 NAtFMM=   60 NAOKFM=F Big=F
 Integral buffers will be    131072 words long.
 Raffenetti 2 integral format.
 Two-electron integral symmetry is turned on.
 Leave Link  301 at Tue Jul  7 12:14:55 2020, MaxMem= 39321600000 cpu:              27.1 elap:               1.3
 (Enter /home/gridsan/oscarwu/GRPAPI/Software/g16/l302.exe)
 NPDir=0 NMtPBC=     1 NCelOv=     1 NCel=       1 NClECP=     1 NCelD=      1
         NCelK=      1 NCelE2=     1 NClLst=     1 CellRange=     0.0.
 One-electron integrals computed using PRISM.
 One-electron integral symmetry used in STVInt
 NBasis=   186 RedAO= T EigKep=  1.33D-03  NBF=   186
 NBsUse=   186 1.00D-06 EigRej= -1.00D+00 NBFU=   186
 Precomputing XC quadrature grid using
 IXCGrd= 4 IRadAn=           5 IRanWt=          -1 IRanGd=           0 AccXCQ= 0.00D+00.
 Generated NRdTot=       0 NPtTot=           0 NUsed=           0 NTot=          32
 NSgBfM=   193   193   193   193   193 MxSgAt=    17 MxSgA2=    17.
 Leave Link  302 at Tue Jul  7 12:14:57 2020, MaxMem= 39321600000 cpu:              15.9 elap:               0.7
 (Enter /home/gridsan/oscarwu/GRPAPI/Software/g16/l303.exe)
 DipDrv:  MaxL=1.
 Leave Link  303 at Tue Jul  7 12:14:59 2020, MaxMem= 39321600000 cpu:               8.0 elap:               0.8
 (Enter /home/gridsan/oscarwu/GRPAPI/Software/g16/l401.exe)
 ExpMin= 1.03D-01 ExpMax= 8.59D+03 ExpMxC= 1.30D+03 IAcc=3 IRadAn=         5 AccDes= 0.00D+00
 Harris functional with IExCor=  402 and IRadAn=       5 diagonalized for initial guess.
 HarFok:  IExCor=  402 AccDes= 0.00D+00 IRadAn=         5 IDoV= 1 UseB2=F ITyADJ=14
 ICtDFT=  3500011 ScaDFX=  1.000000  1.000000  1.000000  1.000000
 FoFCou: FMM=F IPFlag=           0 FMFlag=      100000 FMFlg1=           0
         NFxFlg=           0 DoJE=T BraDBF=F KetDBF=T FulRan=T
         wScrn=  0.000000 ICntrl=       500 IOpCl=  0 I1Cent=   200000004 NGrid=           0
         NMat0=    1 NMatS0=      1 NMatT0=    0 NMatD0=    1 NMtDS0=    0 NMtDT0=    0
 Petite list used in FoFCou.
 Harris En= -326.564253468048    
 JPrj=0 DoOrth=F DoCkMO=T.
 Mixing orbitals, IMix= 1 IMixAn=  0 NRI=1 NE=   28 Coef=  7.07106781D-01  7.07106781D-01
 Mixing orbitals, IMix= 1 IMixAn=  0 NRI=1 NE=   27 Coef= -7.07106781D-01  7.07106781D-01
 Initial guess <Sx>= 0.0000 <Sy>= 0.0000 <Sz>= 0.5000 <S**2>= 1.0000 S= 0.6180
 Leave Link  401 at Tue Jul  7 12:15:01 2020, MaxMem= 39321600000 cpu:              14.1 elap:               1.0
 (Enter /home/gridsan/oscarwu/GRPAPI/Software/g16/l502.exe)
 Integral symmetry usage will be decided dynamically.
 UHF open shell SCF:
 Using DIIS extrapolation, IDIIS=  1040.
 NGot= 39321600000 LenX= 39321515670 LenY= 39321477980
 Requested convergence on RMS density matrix=1.00D-08 within  32 cycles.
 Requested convergence on MAX density matrix=1.00D-06.
 Requested convergence on             energy=1.00D-06.
 No special actions if energy rises.
 Fock matrices will be formed incrementally for  20 cycles.
 Integral accuracy reduced to 1.0D-05 until final iterations.

 Cycle   1  Pass 0  IDiag  1:
 FoFJK:  IHMeth= 1 ICntrl=       0 DoSepK=F KAlg= 0 I1Cent=           0 FoldK=F
 IRaf= 960000000 NMat=       1 IRICut=       1 DoRegI=T DoRafI=F ISym2E= 0 IDoP0=0 IntGTp=1.
 FoFCou: FMM=F IPFlag=           0 FMFlag=      100000 FMFlg1=           0
         NFxFlg=           0 DoJE=F BraDBF=F KetDBF=F FulRan=T
         wScrn=  0.000000 ICntrl=         0 IOpCl=  1 I1Cent=           0 NGrid=           0
         NMat0=    1 NMatS0=      1 NMatT0=    0 NMatD0=    1 NMtDS0=    0 NMtDT0=    0
 Symmetry not used in FoFCou.
 E= -326.138579020599    
 DIIS: error= 3.07D-02 at cycle   1 NSaved=   1.
 NSaved= 1 IEnMin= 1 EnMin= -326.138579020599     IErMin= 1 ErrMin= 3.07D-02
 ErrMax= 3.07D-02  0.00D+00 EMaxC= 1.00D-01 BMatC= 1.10D+00 BMatP= 1.10D+00
 IDIUse=3 WtCom= 6.93D-01 WtEn= 3.07D-01
 Coeff-Com:  0.100D+01
 Coeff-En:   0.100D+01
 Coeff:      0.100D+01
 Gap=     0.044 Goal=   None    Shift=    0.000
 Gap=     0.046 Goal=   None    Shift=    0.000
 GapD=    0.044 DampG=0.250 DampE=0.500 DampFc=0.2500 IDamp=-1.
 Damping current iteration by 2.50D-01
 RMSDP=7.06D-03 MaxDP=3.11D-01              OVMax= 6.30D-01

 Cycle   2  Pass 0  IDiag  1:
 RMSU=  1.74D-03    CP:  9.80D-01
 E= -326.251246453448     Delta-E=       -0.112667432849 Rises=F Damp=T
 DIIS: error= 2.30D-02 at cycle   2 NSaved=   2.
 NSaved= 2 IEnMin= 2 EnMin= -326.251246453448     IErMin= 2 ErrMin= 2.30D-02
 ErrMax= 2.30D-02  0.00D+00 EMaxC= 1.00D-01 BMatC= 2.73D-01 BMatP= 1.10D+00
 IDIUse=3 WtCom= 7.70D-01 WtEn= 2.30D-01
 Coeff-Com: -0.758D+00 0.176D+01
 Coeff-En:   0.000D+00 0.100D+01
 Coeff:     -0.584D+00 0.158D+01
 Gap=     0.172 Goal=   None    Shift=    0.000
 Gap=     0.188 Goal=   None    Shift=    0.000
 RMSDP=3.51D-03 MaxDP=8.67D-02 DE=-1.13D-01 OVMax= 2.16D-01

 Cycle   3  Pass 0  IDiag  1:
 RMSU=  2.46D-03    CP:  9.19D-01  2.35D+00
 E= -326.487218802112     Delta-E=       -0.235972348665 Rises=F Damp=F
 DIIS: error= 1.69D-02 at cycle   3 NSaved=   3.
 NSaved= 3 IEnMin= 3 EnMin= -326.487218802112     IErMin= 3 ErrMin= 1.69D-02
 ErrMax= 1.69D-02  0.00D+00 EMaxC= 1.00D-01 BMatC= 1.26D-01 BMatP= 2.73D-01
 IDIUse=3 WtCom= 8.31D-01 WtEn= 1.69D-01
 Coeff-Com: -0.436D+00 0.100D+01 0.436D+00
 Coeff-En:   0.000D+00 0.000D+00 0.100D+01
 Coeff:     -0.362D+00 0.831D+00 0.531D+00
 Gap=     0.192 Goal=   None    Shift=    0.000
 Gap=     0.185 Goal=   None    Shift=    0.000
 RMSDP=1.12D-03 MaxDP=3.07D-02 DE=-2.36D-01 OVMax= 9.11D-02

 Cycle   4  Pass 0  IDiag  1:
 RMSU=  1.08D-03    CP:  9.21D-01  2.47D+00  9.05D-01
 E= -326.505817777923     Delta-E=       -0.018598975810 Rises=F Damp=F
 DIIS: error= 1.25D-02 at cycle   4 NSaved=   4.
 NSaved= 4 IEnMin= 4 EnMin= -326.505817777923     IErMin= 4 ErrMin= 1.25D-02
 ErrMax= 1.25D-02  0.00D+00 EMaxC= 1.00D-01 BMatC= 6.20D-02 BMatP= 1.26D-01
 IDIUse=3 WtCom= 8.75D-01 WtEn= 1.25D-01
 Coeff-Com:  0.734D-02 0.347D-01 0.398D+00 0.560D+00
 Coeff-En:   0.000D+00 0.000D+00 0.327D+00 0.673D+00
 Coeff:      0.642D-02 0.303D-01 0.389D+00 0.574D+00
 Gap=     0.207 Goal=   None    Shift=    0.000
 Gap=     0.201 Goal=   None    Shift=    0.000
 RMSDP=6.57D-04 MaxDP=2.83D-02 DE=-1.86D-02 OVMax= 5.09D-02

 Cycle   5  Pass 0  IDiag  1:
 RMSU=  4.07D-04    CP:  9.13D-01  2.37D+00  1.08D+00  8.13D-01
 E= -326.520005564108     Delta-E=       -0.014187786185 Rises=F Damp=F
 DIIS: error= 3.02D-03 at cycle   5 NSaved=   5.
 NSaved= 5 IEnMin= 5 EnMin= -326.520005564108     IErMin= 5 ErrMin= 3.02D-03
 ErrMax= 3.02D-03  0.00D+00 EMaxC= 1.00D-01 BMatC= 5.59D-03 BMatP= 6.20D-02
 IDIUse=3 WtCom= 9.70D-01 WtEn= 3.02D-02
 Coeff-Com:  0.376D-01-0.562D-01 0.174D+00 0.343D+00 0.502D+00
 Coeff-En:   0.000D+00 0.000D+00 0.000D+00 0.000D+00 0.100D+01
 Coeff:      0.365D-01-0.546D-01 0.168D+00 0.333D+00 0.517D+00
 Gap=     0.206 Goal=   None    Shift=    0.000
 Gap=     0.209 Goal=   None    Shift=    0.000
 RMSDP=2.11D-04 MaxDP=4.73D-03 DE=-1.42D-02 OVMax= 1.63D-02

 Cycle   6  Pass 0  IDiag  1:
 RMSU=  1.90D-04    CP:  9.12D-01  2.39D+00  1.07D+00  8.85D-01  9.86D-01
 E= -326.521221185827     Delta-E=       -0.001215621719 Rises=F Damp=F
 DIIS: error= 1.32D-03 at cycle   6 NSaved=   6.
 NSaved= 6 IEnMin= 6 EnMin= -326.521221185827     IErMin= 6 ErrMin= 1.32D-03
 ErrMax= 1.32D-03  0.00D+00 EMaxC= 1.00D-01 BMatC= 5.70D-04 BMatP= 5.59D-03
 IDIUse=3 WtCom= 9.87D-01 WtEn= 1.32D-02
 Coeff-Com:  0.756D-02-0.201D-01-0.377D-01-0.225D-01 0.227D+00 0.846D+00
 Coeff-En:   0.000D+00 0.000D+00 0.000D+00 0.000D+00 0.000D+00 0.100D+01
 Coeff:      0.746D-02-0.198D-01-0.372D-01-0.222D-01 0.224D+00 0.848D+00
 Gap=     0.208 Goal=   None    Shift=    0.000
 Gap=     0.210 Goal=   None    Shift=    0.000
 RMSDP=1.21D-04 MaxDP=4.16D-03 DE=-1.22D-03 OVMax= 1.46D-02

 Cycle   7  Pass 0  IDiag  1:
 RMSU=  6.10D-05    CP:  9.11D-01  2.39D+00  1.08D+00  9.33D-01  1.17D+00
                    CP:  1.19D+00
 E= -326.521426496033     Delta-E=       -0.000205310206 Rises=F Damp=F
 DIIS: error= 2.77D-04 at cycle   7 NSaved=   7.
 NSaved= 7 IEnMin= 7 EnMin= -326.521426496033     IErMin= 7 ErrMin= 2.77D-04
 ErrMax= 2.77D-04  0.00D+00 EMaxC= 1.00D-01 BMatC= 7.42D-05 BMatP= 5.70D-04
 IDIUse=3 WtCom= 9.97D-01 WtEn= 2.77D-03
 Coeff-Com: -0.521D-02 0.654D-02-0.317D-01-0.515D-01 0.172D-01 0.305D+00
 Coeff-Com:  0.760D+00
 Coeff-En:   0.000D+00 0.000D+00 0.000D+00 0.000D+00 0.000D+00 0.000D+00
 Coeff-En:   0.100D+01
 Coeff:     -0.520D-02 0.652D-02-0.316D-01-0.514D-01 0.171D-01 0.304D+00
 Coeff:      0.761D+00
 Gap=     0.208 Goal=   None    Shift=    0.000
 Gap=     0.210 Goal=   None    Shift=    0.000
 RMSDP=4.28D-05 MaxDP=1.81D-03 DE=-2.05D-04 OVMax= 2.91D-03

 Cycle   8  Pass 0  IDiag  1:
 RMSU=  2.70D-05    CP:  9.11D-01  2.39D+00  1.09D+00  9.44D-01  1.22D+00
                    CP:  1.29D+00  9.99D-01
 E= -326.521450340748     Delta-E=       -0.000023844716 Rises=F Damp=F
 DIIS: error= 1.38D-04 at cycle   8 NSaved=   8.
 NSaved= 8 IEnMin= 8 EnMin= -326.521450340748     IErMin= 8 ErrMin= 1.38D-04
 ErrMax= 1.38D-04  0.00D+00 EMaxC= 1.00D-01 BMatC= 1.41D-05 BMatP= 7.42D-05
 IDIUse=3 WtCom= 9.99D-01 WtEn= 1.38D-03
 Coeff-Com: -0.320D-02 0.604D-02-0.586D-02-0.157D-01-0.174D-01-0.411D-02
 Coeff-Com:  0.321D+00 0.719D+00
 Coeff-En:   0.000D+00 0.000D+00 0.000D+00 0.000D+00 0.000D+00 0.000D+00
 Coeff-En:   0.000D+00 0.100D+01
 Coeff:     -0.320D-02 0.603D-02-0.585D-02-0.157D-01-0.174D-01-0.411D-02
 Coeff:      0.321D+00 0.720D+00
 Gap=     0.208 Goal=   None    Shift=    0.000
 Gap=     0.210 Goal=   None    Shift=    0.000
 RMSDP=1.18D-05 MaxDP=3.70D-04 DE=-2.38D-05 OVMax= 1.10D-03

 Cycle   9  Pass 0  IDiag  1:
 RMSU=  8.38D-06    CP:  9.11D-01  2.39D+00  1.09D+00  9.43D-01  1.23D+00
                    CP:  1.31D+00  1.10D+00  8.94D-01
 E= -326.521454949499     Delta-E=       -0.000004608751 Rises=F Damp=F
 DIIS: error= 4.83D-05 at cycle   9 NSaved=   9.
 NSaved= 9 IEnMin= 9 EnMin= -326.521454949499     IErMin= 9 ErrMin= 4.83D-05
 ErrMax= 4.83D-05  0.00D+00 EMaxC= 1.00D-01 BMatC= 1.15D-06 BMatP= 1.41D-05
 IDIUse=1 WtCom= 1.00D+00 WtEn= 0.00D+00
 Coeff-Com:  0.964D-04 0.382D-05 0.117D-02 0.118D-02-0.508D-02-0.356D-01
 Coeff-Com: -0.940D-02 0.184D+00 0.864D+00
 Coeff:      0.964D-04 0.382D-05 0.117D-02 0.118D-02-0.508D-02-0.356D-01
 Coeff:     -0.940D-02 0.184D+00 0.864D+00
 Gap=     0.208 Goal=   None    Shift=    0.000
 Gap=     0.210 Goal=   None    Shift=    0.000
 RMSDP=6.00D-06 MaxDP=2.63D-04 DE=-4.61D-06 OVMax= 5.14D-04

 Initial convergence to 1.0D-05 achieved.  Increase integral accuracy.
 Cycle  10  Pass 1  IDiag  1:
 E= -326.521457761251     Delta-E=       -0.000002811752 Rises=F Damp=F
 DIIS: error= 3.03D-05 at cycle   1 NSaved=   1.
 NSaved= 1 IEnMin= 1 EnMin= -326.521457761251     IErMin= 1 ErrMin= 3.03D-05
 ErrMax= 3.03D-05  0.00D+00 EMaxC= 1.00D-01 BMatC= 4.76D-07 BMatP= 4.76D-07
 IDIUse=1 WtCom= 1.00D+00 WtEn= 0.00D+00
 Coeff-Com:  0.100D+01
 Coeff:      0.100D+01
 Gap=     0.208 Goal=   None    Shift=    0.000
 Gap=     0.210 Goal=   None    Shift=    0.000
 RMSDP=6.00D-06 MaxDP=2.63D-04 DE=-2.81D-06 OVMax= 3.17D-04

 Cycle  11  Pass 1  IDiag  1:
 RMSU=  3.87D-06    CP:  1.00D+00
 E= -326.521457709344     Delta-E=        0.000000051906 Rises=F Damp=F
 DIIS: error= 3.97D-05 at cycle   2 NSaved=   2.
 NSaved= 2 IEnMin= 1 EnMin= -326.521457761251     IErMin= 1 ErrMin= 3.03D-05
 ErrMax= 3.97D-05  0.00D+00 EMaxC= 1.00D-01 BMatC= 9.63D-07 BMatP= 4.76D-07
 IDIUse=1 WtCom= 1.00D+00 WtEn= 0.00D+00
 Coeff-Com:  0.595D+00 0.405D+00
 Coeff:      0.595D+00 0.405D+00
 Gap=     0.208 Goal=   None    Shift=    0.000
 Gap=     0.210 Goal=   None    Shift=    0.000
 RMSDP=2.29D-06 MaxDP=8.47D-05 DE= 5.19D-08 OVMax= 1.61D-04

 Cycle  12  Pass 1  IDiag  1:
 RMSU=  1.34D-06    CP:  1.00D+00  5.22D-01
 E= -326.521457944464     Delta-E=       -0.000000235120 Rises=F Damp=F
 DIIS: error= 1.58D-05 at cycle   3 NSaved=   3.
 NSaved= 3 IEnMin= 3 EnMin= -326.521457944464     IErMin= 3 ErrMin= 1.58D-05
 ErrMax= 1.58D-05  0.00D+00 EMaxC= 1.00D-01 BMatC= 4.97D-08 BMatP= 4.76D-07
 IDIUse=1 WtCom= 1.00D+00 WtEn= 0.00D+00
 Coeff-Com:  0.239D+00 0.202D+00 0.559D+00
 Coeff:      0.239D+00 0.202D+00 0.559D+00
 Gap=     0.208 Goal=   None    Shift=    0.000
 Gap=     0.210 Goal=   None    Shift=    0.000
 RMSDP=7.44D-07 MaxDP=2.66D-05 DE=-2.35D-07 OVMax= 7.37D-05

 Cycle  13  Pass 1  IDiag  1:
 RMSU=  7.25D-07    CP:  1.00D+00  5.60D-01  9.84D-01
 E= -326.521457956148     Delta-E=       -0.000000011684 Rises=F Damp=F
 DIIS: error= 1.27D-05 at cycle   4 NSaved=   4.
 NSaved= 4 IEnMin= 4 EnMin= -326.521457956148     IErMin= 4 ErrMin= 1.27D-05
 ErrMax= 1.27D-05  0.00D+00 EMaxC= 1.00D-01 BMatC= 3.56D-08 BMatP= 4.97D-08
 IDIUse=1 WtCom= 1.00D+00 WtEn= 0.00D+00
 Coeff-Com: -0.242D+00-0.123D+00 0.571D+00 0.795D+00
 Coeff:     -0.242D+00-0.123D+00 0.571D+00 0.795D+00
 Gap=     0.208 Goal=   None    Shift=    0.000
 Gap=     0.210 Goal=   None    Shift=    0.000
 RMSDP=6.65D-07 MaxDP=2.63D-05 DE=-1.17D-08 OVMax= 1.01D-04

 Cycle  14  Pass 1  IDiag  1:
 RMSU=  4.69D-07    CP:  1.00D+00  5.97D-01  1.31D+00  9.11D-01
 E= -326.521457972274     Delta-E=       -0.000000016126 Rises=F Damp=F
 DIIS: error= 3.30D-06 at cycle   5 NSaved=   5.
 NSaved= 5 IEnMin= 5 EnMin= -326.521457972274     IErMin= 5 ErrMin= 3.30D-06
 ErrMax= 3.30D-06  0.00D+00 EMaxC= 1.00D-01 BMatC= 3.22D-09 BMatP= 3.56D-08
 IDIUse=1 WtCom= 1.00D+00 WtEn= 0.00D+00
 Coeff-Com: -0.147D+00-0.907D-01 0.131D+00 0.358D+00 0.748D+00
 Coeff:     -0.147D+00-0.907D-01 0.131D+00 0.358D+00 0.748D+00
 Gap=     0.208 Goal=   None    Shift=    0.000
 Gap=     0.210 Goal=   None    Shift=    0.000
 RMSDP=2.84D-07 MaxDP=8.69D-06 DE=-1.61D-08 OVMax= 2.70D-05

 Cycle  15  Pass 1  IDiag  1:
 RMSU=  2.08D-07    CP:  1.00D+00  6.07D-01  1.42D+00  1.07D+00  1.10D+00
 E= -326.521457974291     Delta-E=       -0.000000002017 Rises=F Damp=F
 DIIS: error= 1.01D-06 at cycle   6 NSaved=   6.
 NSaved= 6 IEnMin= 6 EnMin= -326.521457974291     IErMin= 6 ErrMin= 1.01D-06
 ErrMax= 1.01D-06  0.00D+00 EMaxC= 1.00D-01 BMatC= 4.58D-10 BMatP= 3.22D-09
 IDIUse=1 WtCom= 1.00D+00 WtEn= 0.00D+00
 Coeff-Com:  0.145D-02-0.598D-02-0.825D-01-0.441D-01 0.252D+00 0.879D+00
 Coeff:      0.145D-02-0.598D-02-0.825D-01-0.441D-01 0.252D+00 0.879D+00
 Gap=     0.208 Goal=   None    Shift=    0.000
 Gap=     0.210 Goal=   None    Shift=    0.000
 RMSDP=1.16D-07 MaxDP=3.96D-06 DE=-2.02D-09 OVMax= 1.26D-05

 Cycle  16  Pass 1  IDiag  1:
 RMSU=  5.73D-08    CP:  1.00D+00  6.10D-01  1.45D+00  1.14D+00  1.26D+00
                    CP:  1.05D+00
 E= -326.521457974675     Delta-E=       -0.000000000384 Rises=F Damp=F
 DIIS: error= 5.24D-07 at cycle   7 NSaved=   7.
 NSaved= 7 IEnMin= 7 EnMin= -326.521457974675     IErMin= 7 ErrMin= 5.24D-07
 ErrMax= 5.24D-07  0.00D+00 EMaxC= 1.00D-01 BMatC= 9.24D-11 BMatP= 4.58D-10
 IDIUse=1 WtCom= 1.00D+00 WtEn= 0.00D+00
 Coeff-Com:  0.232D-01 0.115D-01-0.491D-01-0.725D-01-0.228D-01 0.303D+00
 Coeff-Com:  0.806D+00
 Coeff:      0.232D-01 0.115D-01-0.491D-01-0.725D-01-0.228D-01 0.303D+00
 Coeff:      0.806D+00
 Gap=     0.208 Goal=   None    Shift=    0.000
 Gap=     0.210 Goal=   None    Shift=    0.000
 RMSDP=4.44D-08 MaxDP=1.59D-06 DE=-3.84D-10 OVMax= 5.96D-06

 Cycle  17  Pass 1  IDiag  1:
 RMSU=  3.03D-08    CP:  1.00D+00  6.10D-01  1.46D+00  1.16D+00  1.31D+00
                    CP:  1.10D+00  1.19D+00
 E= -326.521457974747     Delta-E=       -0.000000000072 Rises=F Damp=F
 DIIS: error= 2.31D-07 at cycle   8 NSaved=   8.
 NSaved= 8 IEnMin= 8 EnMin= -326.521457974747     IErMin= 8 ErrMin= 2.31D-07
 ErrMax= 2.31D-07  0.00D+00 EMaxC= 1.00D-01 BMatC= 1.91D-11 BMatP= 9.24D-11
 IDIUse=1 WtCom= 1.00D+00 WtEn= 0.00D+00
 Coeff-Com:  0.350D-02 0.382D-02 0.174D-01 0.860D-03-0.829D-01-0.223D+00
 Coeff-Com:  0.173D+00 0.111D+01
 Coeff:      0.350D-02 0.382D-02 0.174D-01 0.860D-03-0.829D-01-0.223D+00
 Coeff:      0.173D+00 0.111D+01
 Gap=     0.208 Goal=   None    Shift=    0.000
 Gap=     0.210 Goal=   None    Shift=    0.000
 RMSDP=3.01D-08 MaxDP=1.10D-06 DE=-7.23D-11 OVMax= 4.89D-06

 Cycle  18  Pass 1  IDiag  1:
 RMSU=  1.33D-08    CP:  1.00D+00  6.11D-01  1.46D+00  1.16D+00  1.33D+00
                    CP:  1.15D+00  1.53D+00  1.27D+00
 E= -326.521457974766     Delta-E=       -0.000000000019 Rises=F Damp=F
 DIIS: error= 1.38D-07 at cycle   9 NSaved=   9.
 NSaved= 9 IEnMin= 9 EnMin= -326.521457974766     IErMin= 9 ErrMin= 1.38D-07
 ErrMax= 1.38D-07  0.00D+00 EMaxC= 1.00D-01 BMatC= 7.27D-12 BMatP= 1.91D-11
 IDIUse=1 WtCom= 1.00D+00 WtEn= 0.00D+00
 Coeff-Com: -0.277D-03 0.116D-02 0.152D-01 0.814D-02-0.461D-01-0.161D+00
 Coeff-Com: -0.645D-04 0.629D+00 0.554D+00
 Coeff:     -0.277D-03 0.116D-02 0.152D-01 0.814D-02-0.461D-01-0.161D+00
 Coeff:     -0.645D-04 0.629D+00 0.554D+00
 Gap=     0.208 Goal=   None    Shift=    0.000
 Gap=     0.210 Goal=   None    Shift=    0.000
 RMSDP=8.08D-09 MaxDP=2.29D-07 DE=-1.91D-11 OVMax= 1.07D-06

 SCF Done:  E(UB3LYP) =  -326.521457975     A.U. after   18 cycles
            NFock= 18  Conv=0.81D-08     -V/T= 2.0041
 <Sx>= 0.0000 <Sy>= 0.0000 <Sz>= 0.5000 <S**2>= 0.7577 S= 0.5038
 <L.S>=  0.00000000000    
 KE= 3.251881718808D+02 PE=-1.339674356802D+03 EE= 3.986366820228D+02
 Annihilation of the first spin contaminant:
 S**2 before annihilation     0.7577,   after     0.7500
 Leave Link  502 at Tue Jul  7 12:15:09 2020, MaxMem= 39321600000 cpu:             262.5 elap:               7.1
 (Enter /home/gridsan/oscarwu/GRPAPI/Software/g16/l508.exe)
 QCSCF skips out because SCF is already converged.
 Leave Link  508 at Tue Jul  7 12:15:10 2020, MaxMem= 39321600000 cpu:               0.2 elap:               0.1
 (Enter /home/gridsan/oscarwu/GRPAPI/Software/g16/l801.exe)
 DoSCS=F DFT=T ScalE2(SS,OS)=  1.000000  1.000000
 Range of M.O.s used for correlation:     1   186
 NBasis=   186 NAE=    28 NBE=    27 NFC=     0 NFV=     0
 NROrb=    186 NOA=    28 NOB=    27 NVA=   158 NVB=   159
 Leave Link  801 at Tue Jul  7 12:15:12 2020, MaxMem= 39321600000 cpu:               1.0 elap:               0.4
 (Enter /home/gridsan/oscarwu/GRPAPI/Software/g16/l1101.exe)
 Using compressed storage, NAtomX=    17.
 Will process     18 centers per pass.
 Leave Link 1101 at Tue Jul  7 12:15:14 2020, MaxMem= 39321600000 cpu:              16.7 elap:               0.6
 (Enter /home/gridsan/oscarwu/GRPAPI/Software/g16/l1102.exe)
 Symmetrizing basis deriv contribution to polar:
 IMax=3 JMax=2 DiffMx= 0.00D+00
 Leave Link 1102 at Tue Jul  7 12:15:16 2020, MaxMem= 39321600000 cpu:               1.6 elap:               1.2
 (Enter /home/gridsan/oscarwu/GRPAPI/Software/g16/l1110.exe)
 Forming Gx(P) for the SCF density, NAtomX=    17.
 Integral derivatives from FoFJK, PRISM(SPDF).
 Do as many integral derivatives as possible in FoFJK.
 G2DrvN: MDV=   39321598504.
 G2DrvN: will do    18 centers at a time, making    1 passes.
 Calling FoFCou, ICntrl=  3107 FMM=F I1Cent=   0 AccDes= 0.00D+00.
 FoFJK:  IHMeth= 1 ICntrl=    3107 DoSepK=F KAlg= 0 I1Cent=           0 FoldK=F
 IRaf=         0 NMat=       1 IRICut=       1 DoRegI=T DoRafI=F ISym2E= 0 IDoP0=0 IntGTp=1.
 FoFCou: FMM=F IPFlag=           0 FMFlag=      100000 FMFlg1=           0
         NFxFlg=           0 DoJE=F BraDBF=F KetDBF=F FulRan=T
         wScrn=  0.000000 ICntrl=      3107 IOpCl=  1 I1Cent=           0 NGrid=           0
         NMat0=    1 NMatS0=      1 NMatT0=    0 NMatD0=    1 NMtDS0=    0 NMtDT0=    0
 Symmetry not used in FoFCou.
 End of G2Drv F.D. properties file   721 does not exist.
 End of G2Drv F.D. properties file   722 does not exist.
 End of G2Drv F.D. properties file   788 does not exist.
 Leave Link 1110 at Tue Jul  7 12:15:25 2020, MaxMem= 39321600000 cpu:             304.3 elap:               7.8
 (Enter /home/gridsan/oscarwu/GRPAPI/Software/g16/l1002.exe)
 Minotr:  UHF open shell wavefunction.
          IDoAtm=11111111111111111
          Direct CPHF calculation.
          Differentiating once with respect to electric field.
                with respect to dipole field.
          Differentiating once with respect to nuclear coordinates.
          Requested convergence is 1.0D-08 RMS, and 1.0D-07 maximum.
          Secondary convergence is 1.0D-12 RMS, and 1.0D-12 maximum.
          NewPWx=T KeepS1=F KeepF1=F KeepIn=T MapXYZ=F SortEE=F KeepMc=T.
         5067 words used for storage of precomputed grid.
 Keep R1 and R2 ints in memory in canonical form, NReq=343229629.
 FoFCou: FMM=F IPFlag=           0 FMFlag=           0 FMFlg1=           0
         NFxFlg=           0 DoJE=F BraDBF=F KetDBF=F FulRan=T
         wScrn=  0.000000 ICntrl=       600 IOpCl=  0 I1Cent=           0 NGrid=           0
         NMat0=    1 NMatS0=  17391 NMatT0=    0 NMatD0=    1 NMtDS0=    0 NMtDT0=    0
 Symmetry not used in FoFCou.
 Two-electron integral symmetry not used.
          MDV=   39321600000 using IRadAn=       1.
          Solving linear equations simultaneously, MaxMat=       0.
          There are    54 degrees of freedom in the 1st order CPHF.  IDoFFX=6 NUNeed=     3.
     51 vectors produced by pass  0 Test12= 1.61D-14 1.85D-09 XBig12= 1.57D+02 8.41D+00.
 AX will form    51 AO Fock derivatives at one time.
     51 vectors produced by pass  1 Test12= 1.61D-14 1.85D-09 XBig12= 5.97D+01 1.38D+00.
     51 vectors produced by pass  2 Test12= 1.61D-14 1.85D-09 XBig12= 1.55D+00 1.64D-01.
     51 vectors produced by pass  3 Test12= 1.61D-14 1.85D-09 XBig12= 9.48D-03 1.14D-02.
     51 vectors produced by pass  4 Test12= 1.61D-14 1.85D-09 XBig12= 7.88D-05 8.99D-04.
     51 vectors produced by pass  5 Test12= 1.61D-14 1.85D-09 XBig12= 3.25D-07 5.03D-05.
     29 vectors produced by pass  6 Test12= 1.61D-14 1.85D-09 XBig12= 9.02D-10 2.92D-06.
      4 vectors produced by pass  7 Test12= 1.61D-14 1.85D-09 XBig12= 3.44D-12 2.19D-07.
      2 vectors produced by pass  8 Test12= 1.61D-14 1.85D-09 XBig12= 1.49D-14 1.40D-08.
 InvSVY:  IOpt=1 It=  1 EMax= 5.33D-15
 Solved reduced A of dimension   341 with    54 vectors.
 FullF1:  Do perturbations      1 to       3.
 Isotropic polarizability for W=    0.000000       74.92 Bohr**3.
 End of Minotr F.D. properties file   721 does not exist.
 End of Minotr F.D. properties file   722 does not exist.
 End of Minotr F.D. properties file   788 does not exist.
 Leave Link 1002 at Tue Jul  7 12:15:39 2020, MaxMem= 39321600000 cpu:             494.0 elap:              12.6
 (Enter /home/gridsan/oscarwu/GRPAPI/Software/g16/l601.exe)
 Copying SCF densities to generalized density rwf, IOpCl= 1 IROHF=0.

 **********************************************************************

            Population analysis using the SCF Density.

 **********************************************************************

 Orbital symmetries:
 Alpha Orbitals:
       Occupied  (A) (A) (A) (A) (A) (A) (A) (A) (A) (A) (A) (A)
                 (A) (A) (A) (A) (A) (A) (A) (A) (A) (A) (A) (A)
                 (A) (A) (A) (A)
       Virtual   (A) (A) (A) (A) (A) (A) (A) (A) (A) (A) (A) (A)
                 (A) (A) (A) (A) (A) (A) (A) (A) (A) (A) (A) (A)
                 (A) (A) (A) (A) (A) (A) (A) (A) (A) (A) (A) (A)
                 (A) (A) (A) (A) (A) (A) (A) (A) (A) (A) (A) (A)
                 (A) (A) (A) (A) (A) (A) (A) (A) (A) (A) (A) (A)
                 (A) (A) (A) (A) (A) (A) (A) (A) (A) (A) (A) (A)
                 (A) (A) (A) (A) (A) (A) (A) (A) (A) (A) (A) (A)
                 (A) (A) (A) (A) (A) (A) (A) (A) (A) (A) (A) (A)
                 (A) (A) (A) (A) (A) (A) (A) (A) (A) (A) (A) (A)
                 (A) (A) (A) (A) (A) (A) (A) (A) (A) (A) (A) (A)
                 (A) (A) (A) (A) (A) (A) (A) (A) (A) (A) (A) (A)
                 (A) (A) (A) (A) (A) (A) (A) (A) (A) (A) (A) (A)
                 (A) (A) (A) (A) (A) (A) (A) (A) (A) (A) (A) (A)
                 (A) (A)
 Beta  Orbitals:
       Occupied  (A) (A) (A) (A) (A) (A) (A) (A) (A) (A) (A) (A)
                 (A) (A) (A) (A) (A) (A) (A) (A) (A) (A) (A) (A)
                 (A) (A) (A)
       Virtual   (A) (A) (A) (A) (A) (A) (A) (A) (A) (A) (A) (A)
                 (A) (A) (A) (A) (A) (A) (A) (A) (A) (A) (A) (A)
                 (A) (A) (A) (A) (A) (A) (A) (A) (A) (A) (A) (A)
                 (A) (A) (A) (A) (A) (A) (A) (A) (A) (A) (A) (A)
                 (A) (A) (A) (A) (A) (A) (A) (A) (A) (A) (A) (A)
                 (A) (A) (A) (A) (A) (A) (A) (A) (A) (A) (A) (A)
                 (A) (A) (A) (A) (A) (A) (A) (A) (A) (A) (A) (A)
                 (A) (A) (A) (A) (A) (A) (A) (A) (A) (A) (A) (A)
                 (A) (A) (A) (A) (A) (A) (A) (A) (A) (A) (A) (A)
                 (A) (A) (A) (A) (A) (A) (A) (A) (A) (A) (A) (A)
                 (A) (A) (A) (A) (A) (A) (A) (A) (A) (A) (A) (A)
                 (A) (A) (A) (A) (A) (A) (A) (A) (A) (A) (A) (A)
                 (A) (A) (A) (A) (A) (A) (A) (A) (A) (A) (A) (A)
                 (A) (A) (A)
 The electronic state is 2-A.
 Alpha  occ. eigenvalues --  -19.15650 -14.30042 -10.23910 -10.22085 -10.19778
 Alpha  occ. eigenvalues --  -10.18555 -10.18213  -1.06906  -0.90396  -0.82560
 Alpha  occ. eigenvalues --   -0.70960  -0.70166  -0.64636  -0.54946  -0.51417
 Alpha  occ. eigenvalues --   -0.48008  -0.46515  -0.44465  -0.42411  -0.40668
 Alpha  occ. eigenvalues --   -0.40252  -0.37478  -0.36929  -0.35989  -0.35087
 Alpha  occ. eigenvalues --   -0.32434  -0.31790  -0.18843
 Alpha virt. eigenvalues --    0.01957   0.02795   0.03305   0.05351   0.06892
 Alpha virt. eigenvalues --    0.07940   0.09616   0.10379   0.11179   0.12688
 Alpha virt. eigenvalues --    0.13602   0.14170   0.17656   0.21721   0.22445
 Alpha virt. eigenvalues --    0.22950   0.25047   0.27468   0.29408   0.30141
 Alpha virt. eigenvalues --    0.33631   0.36476   0.38300   0.39739   0.43111
 Alpha virt. eigenvalues --    0.45974   0.46432   0.48428   0.50367   0.50817
 Alpha virt. eigenvalues --    0.52456   0.53766   0.55099   0.55571   0.56651
 Alpha virt. eigenvalues --    0.58934   0.59352   0.60868   0.61066   0.62294
 Alpha virt. eigenvalues --    0.63193   0.64354   0.72268   0.75881   0.77063
 Alpha virt. eigenvalues --    0.81610   0.82628   0.83702   0.88296   0.89559
 Alpha virt. eigenvalues --    0.91289   0.96076   0.99977   1.01814   1.08614
 Alpha virt. eigenvalues --    1.13135   1.15680   1.18959   1.26200   1.26703
 Alpha virt. eigenvalues --    1.28990   1.32855   1.34899   1.36564   1.37175
 Alpha virt. eigenvalues --    1.39145   1.42333   1.43301   1.43831   1.45340
 Alpha virt. eigenvalues --    1.47883   1.48825   1.50261   1.53414   1.56755
 Alpha virt. eigenvalues --    1.57471   1.59628   1.61061   1.62213   1.64342
 Alpha virt. eigenvalues --    1.66051   1.67654   1.69963   1.73541   1.74114
 Alpha virt. eigenvalues --    1.82420   1.87379   1.89294   1.92584   1.96339
 Alpha virt. eigenvalues --    1.97981   2.01020   2.04285   2.07301   2.07630
 Alpha virt. eigenvalues --    2.10034   2.10736   2.13714   2.21903   2.24888
 Alpha virt. eigenvalues --    2.29422   2.31890   2.33249   2.36156   2.38771
 Alpha virt. eigenvalues --    2.39510   2.41707   2.46127   2.47134   2.47405
 Alpha virt. eigenvalues --    2.50157   2.51111   2.52449   2.54076   2.57346
 Alpha virt. eigenvalues --    2.58974   2.61941   2.63275   2.71132   2.75575
 Alpha virt. eigenvalues --    2.80632   2.82767   2.83863   2.85860   2.88908
 Alpha virt. eigenvalues --    2.94527   2.95868   3.02284   3.06899   3.07750
 Alpha virt. eigenvalues --    3.12054   3.13996   3.31963   3.36159   3.49281
 Alpha virt. eigenvalues --    3.68118   3.72786   3.75014   3.75368   3.78723
 Alpha virt. eigenvalues --    3.79469   3.87933   3.89604   3.91546   3.97607
 Alpha virt. eigenvalues --    4.09194   4.27759   4.52162   4.82371   5.22367
 Alpha virt. eigenvalues --    5.63711  23.69633  23.76397  23.86735  23.90403
 Alpha virt. eigenvalues --   24.39011  35.82716  49.84870
  Beta  occ. eigenvalues --  -19.15307 -14.29779 -10.23016 -10.21310 -10.19882
  Beta  occ. eigenvalues --  -10.18591 -10.18248  -1.06129  -0.89961  -0.81605
  Beta  occ. eigenvalues --   -0.70867  -0.68441  -0.64004  -0.54152  -0.50113
  Beta  occ. eigenvalues --   -0.47220  -0.45821  -0.44164  -0.40903  -0.40272
  Beta  occ. eigenvalues --   -0.40040  -0.37341  -0.36269  -0.35360  -0.34105
  Beta  occ. eigenvalues --   -0.32240  -0.29846
  Beta virt. eigenvalues --   -0.08814   0.02151   0.03126   0.03529   0.06083
  Beta virt. eigenvalues --    0.07146   0.08076   0.09792   0.10749   0.11478
  Beta virt. eigenvalues --    0.12749   0.13736   0.14660   0.18187   0.22537
  Beta virt. eigenvalues --    0.22818   0.23523   0.25267   0.28227   0.29907
  Beta virt. eigenvalues --    0.30576   0.34143   0.36650   0.38674   0.40159
  Beta virt. eigenvalues --    0.43243   0.46404   0.47387   0.48756   0.50493
  Beta virt. eigenvalues --    0.51194   0.53295   0.54321   0.55588   0.56251
  Beta virt. eigenvalues --    0.56856   0.59037   0.59652   0.61174   0.61774
  Beta virt. eigenvalues --    0.62527   0.63496   0.64575   0.72551   0.76429
  Beta virt. eigenvalues --    0.77235   0.82137   0.83093   0.83981   0.88680
  Beta virt. eigenvalues --    0.89965   0.91938   0.96731   1.00806   1.02499
  Beta virt. eigenvalues --    1.09145   1.14068   1.16401   1.19403   1.26495
  Beta virt. eigenvalues --    1.27070   1.29270   1.33193   1.35081   1.36971
  Beta virt. eigenvalues --    1.37376   1.39456   1.43105   1.43553   1.44034
  Beta virt. eigenvalues --    1.45971   1.48046   1.49176   1.50455   1.54028
  Beta virt. eigenvalues --    1.57104   1.58064   1.60009   1.61324   1.62705
  Beta virt. eigenvalues --    1.64659   1.66246   1.68210   1.70169   1.73676
  Beta virt. eigenvalues --    1.74217   1.83239   1.88198   1.90213   1.93171
  Beta virt. eigenvalues --    1.96676   1.98487   2.01793   2.04663   2.07714
  Beta virt. eigenvalues --    2.08114   2.10786   2.11435   2.14246   2.23116
  Beta virt. eigenvalues --    2.25220   2.29784   2.32037   2.33658   2.36680
  Beta virt. eigenvalues --    2.39235   2.39751   2.42255   2.46368   2.47293
  Beta virt. eigenvalues --    2.47803   2.50779   2.51538   2.52740   2.54298
  Beta virt. eigenvalues --    2.57487   2.59336   2.62121   2.63434   2.71647
  Beta virt. eigenvalues --    2.75889   2.80633   2.82723   2.84158   2.86473
  Beta virt. eigenvalues --    2.88959   2.94763   2.96799   3.02965   3.07326
  Beta virt. eigenvalues --    3.08197   3.13036   3.14375   3.32445   3.37961
  Beta virt. eigenvalues --    3.49883   3.68928   3.72912   3.75093   3.75970
  Beta virt. eigenvalues --    3.79007   3.79733   3.88452   3.90659   3.91832
  Beta virt. eigenvalues --    3.98527   4.10145   4.28303   4.52445   4.83793
  Beta virt. eigenvalues --    5.22776   5.64117  23.70356  23.77381  23.86726
  Beta virt. eigenvalues --   23.90368  24.39060  35.82991  49.85207
          Condensed to atoms (all electrons):
               1          2          3          4          5          6
     1  N    6.318487   1.031108  -0.106716   0.001061   0.000110  -0.000149
     2  C    1.031108   4.868003   0.193460  -0.061200  -0.064696   0.009346
     3  C   -0.106716   0.193460   5.645294   0.346535   0.354192  -0.040686
     4  C    0.001061  -0.061200   0.346535   4.857194  -0.058574   0.400800
     5  C    0.000110  -0.064696   0.354192  -0.058574   4.858417  -0.006038
     6  H   -0.000149   0.009346  -0.040686   0.400800  -0.006038   0.584466
     7  H    0.000391  -0.006508  -0.026775   0.400512   0.007898  -0.023993
     8  H    0.000659  -0.006593  -0.036557   0.403576  -0.004039  -0.032168
     9  H   -0.000151   0.008456  -0.038347  -0.004946   0.400381   0.005261
    10  H    0.000671  -0.004642  -0.038360  -0.004050   0.404933  -0.001677
    11  H    0.000939  -0.006165  -0.033126   0.007760   0.400836   0.000019
    12  C    0.001032  -0.000737  -0.171721   0.000067   0.000376   0.005763
    13  O   -0.000879   0.001848   0.007872  -0.000399   0.000454  -0.000633
    14  H   -0.000124  -0.000415   0.006065   0.000693   0.001448  -0.000297
    15  H    0.002385  -0.037276   0.179045  -0.034587  -0.044865  -0.008485
    16  H   -0.000038   0.000972   0.005592   0.000427   0.000489   0.000525
    17  H    0.001486   0.003594  -0.001417   0.000074   0.000012   0.000083
               7          8          9         10         11         12
     1  N    0.000391   0.000659  -0.000151   0.000671   0.000939   0.001032
     2  C   -0.006508  -0.006593   0.008456  -0.004642  -0.006165  -0.000737
     3  C   -0.026775  -0.036557  -0.038347  -0.038360  -0.033126  -0.171721
     4  C    0.400512   0.403576  -0.004946  -0.004050   0.007760   0.000067
     5  C    0.007898  -0.004039   0.400381   0.404933   0.400836   0.000376
     6  H   -0.023993  -0.032168   0.005261  -0.001677   0.000019   0.005763
     7  H    0.545446  -0.026548  -0.000074  -0.000219  -0.000418  -0.001433
     8  H   -0.026548   0.569203  -0.001491   0.006057  -0.000231  -0.000826
     9  H   -0.000074  -0.001491   0.581346  -0.033123  -0.024146   0.004524
    10  H   -0.000219   0.006057  -0.033123   0.567044  -0.025914  -0.000850
    11  H   -0.000418  -0.000231  -0.024146  -0.025914   0.560041   0.001198
    12  C   -0.001433  -0.000826   0.004524  -0.000850   0.001198   5.058795
    13  O    0.006248  -0.000009  -0.000024  -0.000006  -0.000023   0.270383
    14  H    0.000463  -0.000009  -0.000449   0.000015   0.000348   0.379853
    15  H   -0.007257   0.005572  -0.007460   0.005972  -0.003346   0.230745
    16  H   -0.000287   0.000034   0.000076  -0.000011  -0.000106   0.386596
    17  H   -0.000260  -0.000019   0.000017  -0.000008  -0.000011  -0.037438
              13         14         15         16         17
     1  N   -0.000879  -0.000124   0.002385  -0.000038   0.001486
     2  C    0.001848  -0.000415  -0.037276   0.000972   0.003594
     3  C    0.007872   0.006065   0.179045   0.005592  -0.001417
     4  C   -0.000399   0.000693  -0.034587   0.000427   0.000074
     5  C    0.000454   0.001448  -0.044865   0.000489   0.000012
     6  H   -0.000633  -0.000297  -0.008485   0.000525   0.000083
     7  H    0.006248   0.000463  -0.007257  -0.000287  -0.000260
     8  H   -0.000009  -0.000009   0.005572   0.000034  -0.000019
     9  H   -0.000024  -0.000449  -0.007460   0.000076   0.000017
    10  H   -0.000006   0.000015   0.005972  -0.000011  -0.000008
    11  H   -0.000023   0.000348  -0.003346  -0.000106  -0.000011
    12  C    0.270383   0.379853   0.230745   0.386596  -0.037438
    13  O    7.814425  -0.026083  -0.027800  -0.029970   0.317622
    14  H   -0.026083   0.599160  -0.027520  -0.031991  -0.012150
    15  H   -0.027800  -0.027520   0.635925  -0.030712  -0.003931
    16  H   -0.029970  -0.031991  -0.030712   0.567672   0.008408
    17  H    0.317622  -0.012150  -0.003931   0.008408   0.462763
          Atomic-Atomic Spin Densities.
               1          2          3          4          5          6
     1  N    0.143348  -0.004538  -0.010058   0.000160   0.000249   0.000017
     2  C   -0.004538  -0.059544  -0.017792   0.002898  -0.000499   0.001208
     3  C   -0.010058  -0.017792   0.730292  -0.027765  -0.018469  -0.009978
     4  C    0.000160   0.002898  -0.027765  -0.019925  -0.000160   0.001707
     5  C    0.000249  -0.000499  -0.018469  -0.000160  -0.024343  -0.000424
     6  H    0.000017   0.001208  -0.009978   0.001707  -0.000424   0.012971
     7  H    0.000025   0.000048  -0.000845   0.001698  -0.000199  -0.000012
     8  H    0.000239  -0.003222  -0.007506   0.003709   0.001512  -0.006569
     9  H    0.000017   0.001207  -0.008381   0.000057  -0.001643   0.001713
    10  H    0.000228  -0.003098  -0.009811   0.000596   0.010760  -0.001272
    11  H    0.000025   0.001091  -0.003139  -0.000013   0.000460   0.000131
    12  C    0.002366   0.009018  -0.178338   0.007563   0.001980   0.005791
    13  O   -0.000526  -0.000976   0.017995  -0.001294  -0.000094  -0.000475
    14  H   -0.000292  -0.000702   0.012498  -0.000353  -0.000472  -0.000278
    15  H    0.001020   0.011002  -0.071954   0.009913   0.008874   0.003432
    16  H   -0.000047  -0.000439   0.010717  -0.000844  -0.000252  -0.001334
    17  H    0.000285  -0.000091  -0.001235   0.000070   0.000007   0.000030
               7          8          9         10         11         12
     1  N    0.000025   0.000239   0.000017   0.000228   0.000025   0.002366
     2  C    0.000048  -0.003222   0.001207  -0.003098   0.001091   0.009018
     3  C   -0.000845  -0.007506  -0.008381  -0.009811  -0.003139  -0.178338
     4  C    0.001698   0.003709   0.000057   0.000596  -0.000013   0.007563
     5  C   -0.000199   0.001512  -0.001643   0.010760   0.000460   0.001980
     6  H   -0.000012  -0.006569   0.001713  -0.001272   0.000131   0.005791
     7  H    0.000782  -0.000119  -0.000034   0.000072  -0.000007  -0.000683
     8  H   -0.000119   0.031696  -0.001047   0.003032  -0.000152  -0.001479
     9  H   -0.000034  -0.001047   0.014912  -0.006423   0.001442   0.004585
    10  H    0.000072   0.003032  -0.006423   0.028661  -0.002296  -0.001131
    11  H   -0.000007  -0.000152   0.001442  -0.002296   0.002181   0.001214
    12  C   -0.000683  -0.001479   0.004585  -0.001131   0.001214   0.688143
    13  O   -0.000061   0.000138  -0.000083   0.000022  -0.000029  -0.092602
    14  H    0.000003   0.000063  -0.000655   0.000129  -0.000276  -0.023479
    15  H    0.001233  -0.002444   0.003793  -0.002471   0.001218   0.081031
    16  H    0.000013   0.000191  -0.000693   0.000105  -0.000077  -0.019587
    17  H   -0.000011  -0.000014   0.000014  -0.000005   0.000008   0.000959
              13         14         15         16         17
     1  N   -0.000526  -0.000292   0.001020  -0.000047   0.000285
     2  C   -0.000976  -0.000702   0.011002  -0.000439  -0.000091
     3  C    0.017995   0.012498  -0.071954   0.010717  -0.001235
     4  C   -0.001294  -0.000353   0.009913  -0.000844   0.000070
     5  C   -0.000094  -0.000472   0.008874  -0.000252   0.000007
     6  H   -0.000475  -0.000278   0.003432  -0.001334   0.000030
     7  H   -0.000061   0.000003   0.001233   0.000013  -0.000011
     8  H    0.000138   0.000063  -0.002444   0.000191  -0.000014
     9  H   -0.000083  -0.000655   0.003793  -0.000693   0.000014
    10  H    0.000022   0.000129  -0.002471   0.000105  -0.000005
    11  H   -0.000029  -0.000276   0.001218  -0.000077   0.000008
    12  C   -0.092602  -0.023479   0.081031  -0.019587   0.000959
    13  O    0.179569  -0.000265  -0.003391   0.000198   0.000828
    14  H   -0.000265   0.009029  -0.002789   0.008020  -0.000639
    15  H   -0.003391  -0.002789  -0.096730  -0.001496   0.000923
    16  H    0.000198   0.008020  -0.001496   0.000065  -0.000618
    17  H    0.000828  -0.000639   0.000923  -0.000618  -0.003320
 Mulliken charges and spin densities:
               1          2
     1  N   -0.250273   0.132517
     2  C    0.071445  -0.064428
     3  C   -0.244351   0.406233
     4  C   -0.254945  -0.021983
     5  C   -0.251337  -0.022712
     6  H    0.107863   0.006659
     7  H    0.132816   0.001902
     8  H    0.123388   0.018028
     9  H    0.110151   0.008780
    10  H    0.124167   0.017099
    11  H    0.122346   0.001780
    12  C   -0.126328   0.485352
    13  O   -0.333026   0.098954
    14  H    0.110991  -0.000458
    15  H    0.173595  -0.058835
    16  H    0.122324  -0.006077
    17  H    0.261175  -0.002810
 Sum of Mulliken charges =  -0.00000   1.00000
 Mulliken charges and spin densities with hydrogens summed into heavy atoms:
               1          2
     1  N   -0.250273   0.132517
     2  C    0.071445  -0.064428
     3  C   -0.070756   0.347398
     4  C    0.109122   0.004606
     5  C    0.105327   0.004946
    12  C    0.106987   0.478817
    13  O   -0.071851   0.096144
 APT charges:
               1
     1  N   -0.358113
     2  C    0.091955
     3  C    0.197226
     4  C    0.030611
     5  C    0.046313
     6  H   -0.008483
     7  H    0.010594
     8  H   -0.018364
     9  H   -0.010512
    10  H   -0.026820
    11  H   -0.002812
    12  C    0.629501
    13  O   -0.621635
    14  H   -0.079308
    15  H   -0.130715
    16  H   -0.036219
    17  H    0.286781
 Sum of APT charges =   0.00000
 APT charges with hydrogens summed into heavy atoms:
               1
     1  N   -0.358113
     2  C    0.091955
     3  C    0.066510
     4  C    0.014359
     5  C    0.006169
    12  C    0.513974
    13  O   -0.334855
 Electronic spatial extent (au):  <R**2>=            974.4578
 Charge=             -0.0000 electrons
 Dipole moment (field-independent basis, Debye):
    X=             -0.7708    Y=             -3.4015    Z=             -1.1235  Tot=              3.6642
 Quadrupole moment (field-independent basis, Debye-Ang):
   XX=            -44.4743   YY=            -50.9011   ZZ=            -43.1184
   XY=             -5.5838   XZ=              3.4640   YZ=             -0.1523
 Traceless Quadrupole moment (field-independent basis, Debye-Ang):
   XX=              1.6903   YY=             -4.7365   ZZ=              3.0462
   XY=             -5.5838   XZ=              3.4640   YZ=             -0.1523
 Octapole moment (field-independent basis, Debye-Ang**2):
  XXX=             -4.5988  YYY=            -26.5517  ZZZ=             -0.3266  XYY=            -20.8553
  XXY=              2.5855  XXZ=             -6.9881  XZZ=             -3.7397  YZZ=              0.5373
  YYZ=              0.8442  XYZ=              1.7025
 Hexadecapole moment (field-independent basis, Debye-Ang**3):
 XXXX=           -658.1716 YYYY=           -476.2639 ZZZZ=           -230.7006 XXXY=            -26.9331
 XXXZ=             18.5719 YYYX=            -32.9908 YYYZ=              2.9116 ZZZX=              0.3726
 ZZZY=              0.3938 XXYY=           -166.7860 XXZZ=           -144.8675 YYZZ=           -109.8853
 XXYZ=             -4.2980 YYXZ=              0.6551 ZZXY=             -1.8565
 N-N= 2.893280449240D+02 E-N=-1.339674356359D+03  KE= 3.251881718808D+02
  Exact polarizability:  85.787   2.788  78.674   3.410   0.209  60.291
 Approx polarizability: 113.695   6.367 123.769   3.174   0.059  80.531
                          Isotropic Fermi Contact Couplings
        Atom                 a.u.       MegaHertz       Gauss      10(-4) cm-1
     1  N(14)              0.00648       2.09377       0.74711       0.69841
     2  C(13)             -0.01955     -21.97745      -7.84210      -7.33089
     3  C(13)              0.14624     164.40280      58.66301      54.83887
     4  C(13)             -0.01251     -14.06088      -5.01727      -4.69020
     5  C(13)             -0.01324     -14.88887      -5.31272      -4.96639
     6  H(1)               0.00208       9.27802       3.31063       3.09481
     7  H(1)               0.00130       5.82558       2.07871       1.94321
     8  H(1)               0.00843      37.69773      13.45149      12.57461
     9  H(1)               0.00300      13.42878       4.79172       4.47936
    10  H(1)               0.00856      38.28078      13.65953      12.76909
    11  H(1)               0.00079       3.53197       1.26029       1.17814
    12  C(13)              0.16125     181.27209      64.68239      60.46586
    13  O(17)              0.01359      -8.23795      -2.93951      -2.74789
    14  H(1)               0.00062       2.78013       0.99202       0.92735
    15  H(1)              -0.02705    -120.89053     -43.13675     -40.32474
    16  H(1)              -0.00108      -4.81523      -1.71819      -1.60619
    17  H(1)              -0.00160      -7.14723      -2.55031      -2.38406
 --------------------------------------------------------
       Center         ----  Spin Dipole Couplings  ----
                      3XX-RR        3YY-RR        3ZZ-RR
 --------------------------------------------------------
     1   Atom        0.240511     -0.154119     -0.086392
     2   Atom       -0.045764      0.059899     -0.014135
     3   Atom        0.447868     -0.254139     -0.193729
     4   Atom        0.000118     -0.005426      0.005308
     5   Atom        0.007347     -0.003530     -0.003818
     6   Atom       -0.002198      0.000950      0.001248
     7   Atom       -0.002734     -0.005963      0.008696
     8   Atom       -0.000199     -0.003426      0.003626
     9   Atom        0.000189      0.002015     -0.002203
    10   Atom        0.004847     -0.002609     -0.002238
    11   Atom        0.001040     -0.005317      0.004277
    12   Atom        0.600056     -0.301519     -0.298537
    13   Atom        0.522317     -0.267812     -0.254505
    14   Atom       -0.005848     -0.033648      0.039496
    15   Atom        0.172065     -0.088657     -0.083408
    16   Atom       -0.004870      0.031183     -0.026312
    17   Atom       -0.007774      0.021936     -0.014162
 --------------------------------------------------------
                        XY            XZ            YZ
 --------------------------------------------------------
     1   Atom       -0.027957      0.113167     -0.007027
     2   Atom       -0.004669     -0.010262     -0.006177
     3   Atom        0.117538      0.237218      0.038828
     4   Atom       -0.002583      0.007155     -0.005383
     5   Atom       -0.006398     -0.005863      0.004002
     6   Atom       -0.001676      0.002232     -0.007331
     7   Atom        0.000752      0.000816     -0.000310
     8   Atom       -0.000778      0.004295     -0.002862
     9   Atom       -0.005183     -0.002365      0.004995
    10   Atom       -0.003393     -0.002526      0.002030
    11   Atom       -0.000404     -0.005916      0.001873
    12   Atom        0.154380      0.167325      0.024441
    13   Atom        0.121315      0.200612      0.021384
    14   Atom        0.006343      0.010310     -0.011151
    15   Atom        0.041883      0.058391      0.010644
    16   Atom        0.015221      0.003906     -0.023980
    17   Atom       -0.006894      0.002511     -0.013183
 --------------------------------------------------------


 ---------------------------------------------------------------------------------
              Anisotropic Spin Dipole Couplings in Principal Axis System
 ---------------------------------------------------------------------------------

       Atom             a.u.   MegaHertz   Gauss  10(-4) cm-1        Axes

              Baa    -0.1561    -6.021    -2.148    -2.008  0.0775  0.9967 -0.0253
     1 N(14)  Bbb    -0.1217    -4.692    -1.674    -1.565 -0.2946  0.0471  0.9545
              Bcc     0.2778    10.713     3.823     3.574  0.9525 -0.0665  0.2973
 
              Baa    -0.0492    -6.597    -2.354    -2.200  0.9553  0.0573  0.2900
     2 C(13)  Bbb    -0.0114    -1.528    -0.545    -0.510 -0.2934  0.0634  0.9539
              Bcc     0.0605     8.125     2.899     2.710 -0.0363  0.9963 -0.0774
 
              Baa    -0.2733   -36.676   -13.087   -12.234 -0.1261  0.9864 -0.1054
     3 C(13)  Bbb    -0.2719   -36.487   -13.019   -12.171 -0.3213  0.0600  0.9451
              Bcc     0.5452    73.163    26.106    24.405  0.9386  0.1530  0.3093
 
              Baa    -0.0077    -1.032    -0.368    -0.344 -0.0886  0.9021  0.4223
     4 C(13)  Bbb    -0.0046    -0.617    -0.220    -0.206  0.8435  0.2934 -0.4499
              Bcc     0.0123     1.649     0.588     0.550  0.5298 -0.3164  0.7869
 
              Baa    -0.0077    -1.032    -0.368    -0.344  0.0394  0.7238 -0.6889
     5 C(13)  Bbb    -0.0055    -0.740    -0.264    -0.247  0.5577  0.5561  0.6162
              Bcc     0.0132     1.771     0.632     0.591  0.8291 -0.4085 -0.3817
 
              Baa    -0.0063    -3.346    -1.194    -1.116 -0.1023  0.6969  0.7098
     6 H(1)   Bbb    -0.0028    -1.514    -0.540    -0.505  0.9659  0.2402 -0.0967
              Bcc     0.0091     4.860     1.734     1.621  0.2379 -0.6758  0.6977
 
              Baa    -0.0061    -3.279    -1.170    -1.094 -0.2226  0.9744  0.0326
     7 H(1)   Bbb    -0.0026    -1.395    -0.498    -0.465  0.9724  0.2243 -0.0640
              Bcc     0.0088     4.673     1.668     1.559  0.0697 -0.0174  0.9974
 
              Baa    -0.0046    -2.478    -0.884    -0.826 -0.2740  0.8559  0.4385
     8 H(1)   Bbb    -0.0025    -1.349    -0.482    -0.450  0.8176  0.4474 -0.3625
              Bcc     0.0072     3.827     1.366     1.277  0.5065 -0.2592  0.8224
 
              Baa    -0.0058    -3.080    -1.099    -1.027 -0.2736 -0.6416  0.7165
     9 H(1)   Bbb    -0.0032    -1.700    -0.607    -0.567  0.7945  0.2690  0.5444
              Bcc     0.0090     4.780     1.706     1.595 -0.5421  0.7183  0.4362
 
              Baa    -0.0046    -2.445    -0.873    -0.816  0.1477  0.8210 -0.5516
    10 H(1)   Bbb    -0.0026    -1.387    -0.495    -0.463  0.4610  0.4363  0.7728
              Bcc     0.0072     3.832     1.367     1.278  0.8750 -0.3684 -0.3140
 
              Baa    -0.0058    -3.099    -1.106    -1.034 -0.1929  0.9382 -0.2873
    11 H(1)   Bbb    -0.0032    -1.705    -0.608    -0.569  0.7795  0.3244  0.5359
              Bcc     0.0090     4.803     1.714     1.602 -0.5959  0.1207  0.7939
 
              Baa    -0.3312   -44.449   -15.860   -14.826 -0.2369  0.6066  0.7589
    12 C(13)  Bbb    -0.3245   -43.542   -15.537   -14.524 -0.0164  0.7785 -0.6274
              Bcc     0.6557    87.990    31.397    29.350  0.9714  0.1611  0.1745
 
              Baa    -0.3062    22.155     7.905     7.390 -0.2685  0.3483  0.8981
    13 O(17)  Bbb    -0.2825    20.444     7.295     6.819 -0.0466  0.9265 -0.3733
              Bcc     0.5887   -42.599   -15.200   -14.209  0.9622  0.1421  0.2325
 
              Baa    -0.0373   -19.907    -7.103    -6.640 -0.2485  0.9533  0.1718
    14 H(1)   Bbb    -0.0056    -3.006    -1.073    -1.003  0.9500  0.2745 -0.1492
              Bcc     0.0429    22.913     8.176     7.643  0.1894 -0.1261  0.9738
 
              Baa    -0.0972   -51.885   -18.514   -17.307 -0.0793 -0.5998  0.7962
    15 H(1)   Bbb    -0.0942   -50.257   -17.933   -16.764 -0.2479  0.7855  0.5671
              Bcc     0.1914   102.142    36.447    34.071  0.9655  0.1524  0.2110
 
              Baa    -0.0376   -20.046    -7.153    -6.687 -0.2784  0.3707  0.8861
    16 H(1)   Bbb    -0.0059    -3.127    -1.116    -1.043  0.9233 -0.1508  0.3532
              Bcc     0.0434    23.174     8.269     7.730  0.2645  0.9164 -0.3003
 
              Baa    -0.0185    -9.855    -3.516    -3.287 -0.0262  0.3060  0.9517
    17 H(1)   Bbb    -0.0093    -4.952    -1.767    -1.652  0.9790  0.2004 -0.0375
              Bcc     0.0278    14.807     5.283     4.939 -0.2022  0.9307 -0.3048
 

 ---------------------------------------------------------------------------------

 No NMR shielding tensors so no spin-rotation constants.
 Leave Link  601 at Tue Jul  7 12:15:41 2020, MaxMem= 39321600000 cpu:              28.8 elap:               1.6
 (Enter /home/gridsan/oscarwu/GRPAPI/Software/g16/l701.exe)
 ... and contract with generalized density number  0.
 Compute integral second derivatives.
 Leave Link  701 at Tue Jul  7 12:15:44 2020, MaxMem= 39321600000 cpu:              24.5 elap:               1.6
 (Enter /home/gridsan/oscarwu/GRPAPI/Software/g16/l702.exe)
 L702 exits ... SP integral derivatives will be done elsewhere.
 Leave Link  702 at Tue Jul  7 12:15:45 2020, MaxMem= 39321600000 cpu:               0.7 elap:               0.1
 (Enter /home/gridsan/oscarwu/GRPAPI/Software/g16/l703.exe)
 Integral derivatives from FoFJK, PRISM(SPDF).
 Compute integral second derivatives, UseDBF=F ICtDFT=           0.
 Calling FoFJK, ICntrl=    100127 FMM=F ISym2X=0 I1Cent= 0 IOpClX= 1 NMat=1 NMatS=1 NMatT=0.
 FoFJK:  IHMeth= 1 ICntrl=  100127 DoSepK=F KAlg= 0 I1Cent=           0 FoldK=F
 IRaf=         0 NMat=       1 IRICut=       1 DoRegI=T DoRafI=F ISym2E= 0 IDoP0=0 IntGTp=1.
 FoFCou: FMM=F IPFlag=           0 FMFlag=      100000 FMFlg1=         800
         NFxFlg=           0 DoJE=F BraDBF=F KetDBF=F FulRan=T
         wScrn=  0.000000 ICntrl=    100127 IOpCl=  1 I1Cent=           0 NGrid=           0
         NMat0=    1 NMatS0=      1 NMatT0=    0 NMatD0=    1 NMtDS0=    0 NMtDT0=    0
 Symmetry not used in FoFCou.
 Leave Link  703 at Tue Jul  7 12:15:58 2020, MaxMem= 39321600000 cpu:             458.0 elap:              11.5
 (Enter /home/gridsan/oscarwu/GRPAPI/Software/g16/l716.exe)
 Dipole        =-3.03249613D-01-1.33825226D+00-4.42012839D-01
 Polarizability= 8.57873175D+01 2.78849305D+00 7.86738496D+01
                 3.40989359D+00 2.08669271D-01 6.02909893D+01
 ***** Axes restored to original set *****
 -------------------------------------------------------------------
 Center     Atomic                   Forces (Hartrees/Bohr)
 Number     Number              X              Y              Z
 -------------------------------------------------------------------
      1        7           0.003201325    0.001676805   -0.000446255
      2        6           0.001734820    0.001711871    0.000115030
      3        6          -0.002866684    0.000531849    0.001096846
      4        6           0.000763707    0.001864899    0.006991901
      5        6          -0.001362295   -0.001250268   -0.009119707
      6        1          -0.004109109   -0.001631751    0.001461029
      7        1           0.000923831    0.003442584   -0.004330384
      8        1           0.002773157   -0.002922749   -0.001305549
      9        1          -0.004756105   -0.001974042    0.002738272
     10        1           0.001366276   -0.001924530   -0.000869511
     11        1           0.001495443    0.005428624    0.002566087
     12        6           0.009189670    0.006500494   -0.010591767
     13        8          -0.000309944   -0.003103463    0.004397682
     14        1          -0.000259383    0.001152470    0.004618890
     15        1          -0.001932848   -0.005401580    0.002881530
     16        1          -0.003618109   -0.003822823   -0.000542681
     17        1          -0.002233753   -0.000278389    0.000338588
 -------------------------------------------------------------------
 Cartesian Forces:  Max     0.010591767 RMS     0.003660193
 FormGI is forming the generalized inverse of G from B-inverse, IUseBI=4.
 Leave Link  716 at Tue Jul  7 12:15:59 2020, MaxMem= 39321600000 cpu:               4.0 elap:               0.4
 (Enter /home/gridsan/oscarwu/GRPAPI/Software/g16/l103.exe)

 GradGradGradGradGradGradGradGradGradGradGradGradGradGradGradGradGradGrad
 Berny optimization.
 Red2BG is reusing G-inverse.
 Internal  Forces:  Max     0.006175368 RMS     0.002371387
 Search for a saddle point.
 Step number   1 out of a maximum of  102
 All quantities printed in internal units (Hartrees-Bohrs-Radians)
 Swapping is turned off.
 Second derivative matrix not updated -- analytic derivatives used.
 ITU=  0
     Eigenvalues ---   -0.04918   0.00066   0.00170   0.00203   0.00457
     Eigenvalues ---    0.00983   0.02243   0.02877   0.03045   0.04190
     Eigenvalues ---    0.04460   0.04465   0.04532   0.04581   0.04774
     Eigenvalues ---    0.05046   0.06695   0.07186   0.08286   0.09701
     Eigenvalues ---    0.09777   0.10627   0.11864   0.12045   0.12423
     Eigenvalues ---    0.14331   0.14582   0.15110   0.15386   0.16840
     Eigenvalues ---    0.17454   0.29061   0.29338   0.31382   0.31428
     Eigenvalues ---    0.31529   0.31869   0.32002   0.32688   0.32739
     Eigenvalues ---    0.32842   0.34180   0.43528   0.53177   1.18182
 Eigenvectors required to have negative eigenvalues:
                          R14       R5        D28       D30       D4
   1                    0.71995  -0.62225   0.09227  -0.07480  -0.06894
                          D13       D6        A23       A24       D12
   1                    0.06722  -0.06462   0.06448  -0.06358  -0.06167
 RFO step:  Lambda0=1.465425042D-05 Lambda=-3.67788299D-03.
 Linear search not attempted -- option 19 set.
 Iteration  1 RMS(Cart)=  0.17619852 RMS(Int)=  0.01321370
 Iteration  2 RMS(Cart)=  0.02064582 RMS(Int)=  0.00185541
 Iteration  3 RMS(Cart)=  0.00040736 RMS(Int)=  0.00183673
 Iteration  4 RMS(Cart)=  0.00000171 RMS(Int)=  0.00183673
 Iteration  5 RMS(Cart)=  0.00000002 RMS(Int)=  0.00183673
 ITry= 1 IFail=0 DXMaxC= 6.87D-01 DCOld= 1.00D+10 DXMaxT= 3.00D-01 DXLimC= 3.00D+00 Rises=F
 Variable       Old X    -DE/DX   Delta X   Delta X   Delta X     New X
                                 (Linear)    (Quad)   (Total)
    R1        2.19245  -0.00352   0.00000  -0.00194  -0.00194   2.19051
    R2        2.72644  -0.00598   0.00000  -0.01377  -0.01377   2.71268
    R3        2.87077   0.00288   0.00000   0.00967   0.00964   2.88041
    R4        2.87038   0.00393   0.00000   0.00837   0.00837   2.87874
    R5        2.51322   0.00343   0.00000   0.00916   0.00935   2.52257
    R6        2.08014  -0.00460   0.00000  -0.01421  -0.01420   2.06594
    R7        2.07894  -0.00549   0.00000  -0.01687  -0.01687   2.06207
    R8        2.08355  -0.00422   0.00000  -0.01344  -0.01344   2.07011
    R9        2.08369  -0.00556   0.00000  -0.01736  -0.01736   2.06633
   R10        2.07736  -0.00244   0.00000  -0.00663  -0.00663   2.07073
   R11        2.08040  -0.00530   0.00000  -0.01751  -0.01751   2.06289
   R12        2.59009   0.00618   0.00000   0.01626   0.01626   2.60635
   R13        2.08211  -0.00473   0.00000  -0.01598  -0.01598   2.06613
   R14        2.61187   0.00169   0.00000   0.03079   0.03063   2.64251
[...]
   yy         0.725605D+02      0.107524D+02      0.119636D+02
   zx         0.216292D+01      0.320512D+00      0.356617D+00
   zy        -0.378946D+01     -0.561540D+00     -0.624797D+00
   zz         0.753979D+02      0.111728D+02      0.124314D+02

 ----------------------------------------------------------------------

 Test job not archived.
 1\1\GINC-D-9-16-1\Freq\UB3LYP\6-311G(2d,d,p)\C5H10N1O1(2)\OSCARWU\07-J
 ul-2020\0\\#P Geom=AllCheck Guess=TCheck SCRF=Check Test GenChk UB3LYP
 /6-311G(2d,d,p) Freq\\0xd628bc800d04214f0f9db0fec47002f2\\0,2\N,-2.220
 2876923,-1.5501565753,0.1036559546\C,-1.5012068224,-0.6419053456,0.058
 1241721\C,-0.4945356011,0.3798484731,-0.0135094585\C,-0.2138899047,1.0
 687455836,1.3168592617\C,-0.6036834219,1.297831931,-1.2242471143\H,0.6
 663114676,1.7102922089,1.2240699293\H,-0.0251647907,0.3363455457,2.104
 1002808\H,-1.0569933839,1.6954722525,1.6274151366\H,0.3046448608,1.898
 9700606,-1.3187162314\H,-1.4506227291,1.9860184815,-1.1249729362\H,-0.
 7398607902,0.7310731154,-2.1477026784\C,1.488103561,-1.4615914537,-0.2
 177171828\O,1.0613679078,-2.3025390672,0.7891357931\H,1.4027608339,-1.
 8527590104,-1.2357582018\H,0.5830653683,-0.3952918117,-0.2164769588\H,
 2.4651203266,-1.0480839174,0.0221525568\H,0.2171661904,-2.6974478709,0
 .5360259171\\Version=ES64L-G16RevB.01\State=2-A\HF=-326.5236818\S2=0.7
 57508\S2-1=0.\S2A=0.750039\RMSD=2.983e-09\RMSF=1.012e-06\ZeroPoint=0.1
 371321\Thermal=0.1467539\Dipole=0.9214145,0.931872,-0.4811096\DipoleDe
 riv=-0.452909,-0.0091937,0.0098982,-0.1977864,-0.3590449,0.0077704,0.0
 017206,-0.003562,-0.2930439,0.3018659,0.1326977,-0.0291064,0.3747732,0
 .0678003,-0.007281,-0.0186786,-0.0019604,-0.0667615,0.06389,-0.2475017
 ,0.0424668,-0.2206568,0.2724816,-0.012055,-0.0155832,0.0620048,0.20436
 72,0.0458408,0.0921939,0.0196112,0.003026,0.024997,0.0338946,-0.010986
 ,0.0996501,0.0112958,0.0327116,0.0743269,-0.0496848,0.0026468,0.046124
 8,-0.0024156,0.0112383,-0.117338,0.0499515,-0.0540148,-0.1255041,0.001
 9505,-0.0882243,-0.0130979,-0.0140204,0.0398597,-0.0002247,0.0479526,0
 .0742947,0.0019039,-0.0331671,0.0216746,0.0007083,0.0979889,-0.0169948
 ,0.0488022,-0.0323131,-0.0377,0.0954664,0.0465487,0.0853138,-0.03643,-
 0.0693878,0.0294379,-0.0869313,0.0257054,-0.0669655,-0.1209058,0.02411
 32,-0.0738185,-0.0123814,0.0315688,-0.0187156,0.0287052,0.0566498,-0.0
 40427,0.1219542,0.0022842,0.1065194,-0.0692284,0.0335361,0.0134371,0.0
 378826,0.032686,0.0767263,-0.0107241,-0.0195536,-0.0096743,0.0124879,-
 0.0952953,-0.0287963,-0.0396384,-0.0911185,0.3985956,-0.0377502,-0.102
 8038,-0.3371415,0.8468681,-0.1994281,0.1744767,-0.3916257,0.5075809,-0
 .2882428,-0.1364076,0.1871227,0.3175065,-0.9798464,0.2444469,-0.122180
 9,0.4418759,-0.5621569,-0.0577392,0.0549381,-0.0059061,0.0453949,-0.03
 95844,-0.0744471,0.0250381,-0.0346616,-0.1383774,-0.1053619,0.2069031,
 -0.038537,0.0583553,-0.2278965,0.0388569,0.0332559,-0.0322618,-0.00493
 04,-0.1074581,-0.0484868,-0.0093524,0.0122656,0.0211333,-0.0011235,-0.
 0207936,-0.0288808,0.0326007,0.2168933,-0.0439101,-0.0458845,-0.100174
 3,0.4449085,-0.0126086,-0.0757355,0.0181639,0.2199118\Polar=79.8487394
 ,-4.410304,81.705339,-0.657969,-1.5249571,59.7017313\Quadrupole=-3.303
 6757,1.6412986,1.6623771,-1.9855216,-1.4214386,1.4192766\PG=C01 [X(C5H
 10N1O1)]\NImag=1\\0.47342216,0.56917758,0.73021027,-0.02915134,-0.0360
 8913,0.02107125,-0.47218266,-0.54788335,0.02743797,0.65117365,-0.54376
 297,-0.72391269,0.03409406,0.66487068,0.91997500,0.02819739,0.03493252
 ,-0.04107292,-0.03235688,-0.04423304,0.12579879,-0.01117042,-0.0313641
 1,0.00272714,-0.12474949,-0.07241233,0.00189167,0.26847762,-0.02140908
 ,-0.00499840,0.00119575,-0.10870282,-0.16699272,0.01013460,0.13935032,
 0.43624783,0.00309015,0.00297459,0.02010691,-0.00139781,0.00420375,-0.
 07723397,0.03990222,-0.02671407,0.44104405,0.00181647,0.00192715,0.003
 04916,-0.01353992,-0.02212829,-0.02489321,-0.05996443,-0.01284221,-0.0
 1648371,0.54800243,-0.00070171,0.00151629,0.00220630,-0.00685026,-0.01
 779150,-0.02212885,-0.02054887,-0.09458305,-0.04478959,0.00055407,0.54
 316685,0.00386177,0.00462408,-0.00192436,-0.00737207,-0.00877608,0.003
 18189,-0.02012436,-0.03428552,-0.15817106,-0.01549955,-0.05340988,0.48
 331485,-0.00037507,0.00133974,-0.00333979,-0.00383659,-0.02353592,0.02
 389983,-0.05862037,-0.00010021,-0.01413705,0.00035703,0.00394160,-0.00
 356190,0.54929120,-0.00066023,0.00234942,-0.00147063,-0.00129091,-0.02
 220610,0.01942171,-0.00621315,-0.11207560,0.05854150,-0.00046700,0.011
 62768,-0.01160275,0.01878684,0.51860650,-0.00450814,-0.00455884,-0.000
 50678,0.00943261,0.01184515,-0.00186002,-0.01123223,0.04686877,-0.1447
 1665,-0.00531827,0.01841507,-0.02730254,0.00000133,0.05690031,0.503049
 83,0.00037801,0.00039422,-0.00010167,-0.00009770,-0.00097240,-0.000986
 58,-0.00361944,-0.00269390,0.00060112,-0.21686542,-0.12276584,0.019883
 10,0.00009817,0.00014062,0.00062119,0.23344779,-0.00014015,-0.00009729
 ,0.00030481,-0.00114089,-0.00092241,-0.00318565,-0.01136462,-0.0109643
 9,0.00018974,-0.12201484,-0.13479267,0.01558667,0.00067064,0.00044921,
 0.00099779,0.13620732,0.14539872,-0.00051827,-0.00063182,0.00121374,-0
 .00151238,-0.00275180,-0.00576670,-0.02305969,-0.01836370,0.00078979,0
 .02154126,0.01691243,-0.04956759,-0.00072187,-0.00036400,0.00183013,-0
 .02205173,-0.01344147,0.05385238,-0.00014214,-0.00024227,0.00024665,0.
 00038289,0.00093256,-0.00062399,-0.00257050,0.00367751,-0.00351838,-0.
 05551789,0.02997821,-0.03298093,0.00013875,-0.00091661,-0.00063645,0.0
 0578238,-0.01743606,0.01975456,0.05520999,0.00036658,-0.00001238,-0.00
 003110,-0.00049237,0.00103678,-0.00019921,-0.00276216,0.01202570,-0.01
 268965,0.03038693,-0.17131361,0.13076999,-0.00050924,-0.00154833,-0.00
 255850,0.00416863,-0.01185808,0.01171547,-0.03284940,0.18267046,-0.000
 26881,-0.00064803,0.00025302,0.00076058,0.00131551,0.00026050,-0.00383
 139,0.01843234,-0.02138680,-0.03246080,0.12750223,-0.18054589,-0.00125
 046,-0.00432960,-0.00393321,0.00017466,0.00091961,-0.00150872,0.036486
 07,-0.13867088,0.19990013,0.00001150,0.00073180,0.00003628,0.00100205,
 -0.00077221,0.00001813,0.00607880,-0.00358862,-0.00134445,-0.20159026,
 0.11210078,0.05258595,0.00032745,-0.00030711,0.00049620,-0.01984941,0.
 01511217,0.00630256,-0.00418808,0.00195549,0.00099481,0.21676082,-0.00
 100450,-0.00075618,0.00026478,0.00207420,0.00175884,-0.00032799,0.0082
 6464,-0.01127152,-0.00732103,0.11368689,-0.12734239,-0.03687552,-0.000
 50191,0.00043592,0.00074896,-0.01492345,0.01186999,0.00572036,0.017120
 11,-0.01221880,-0.00643788,-0.12394897,0.13706889,-0.00123333,-0.00120
 743,0.00006256,0.00258855,0.00280230,0.00027609,0.01818620,-0.01874774
 ,-0.01219702,0.05542421,-0.03844929,-0.06322035,0.00067549,-0.00051001
 ,0.00183978,0.00261913,-0.00149192,-0.00147933,-0.01874200,0.01239145,
 0.00733604,-0.05852448,0.04580294,0.06997059,0.00064275,0.00051296,0.0
 0034343,0.00006973,0.00006066,-0.00079455,0.00343157,0.00252141,-0.000
 89152,0.00023066,0.00024784,-0.00005540,-0.22920224,-0.11913745,0.0169
 4647,0.00025513,0.00006382,0.00046587,0.00024469,0.00020807,0.00005932
 ,-0.00013489,-0.00005069,0.00000706,0.24714740,-0.00034636,-0.00016799
 ,-0.00045277,-0.00023105,-0.00204342,0.00419499,-0.01545927,-0.0139332
 8,0.00249880,0.00021663,0.00051806,-0.00128615,-0.11802193,-0.12210436
 ,0.00979269,0.00025616,0.00057793,0.00043554,0.00024151,0.00000164,-0.
 00018840,0.00007376,0.00008817,-0.00001048,0.13030599,0.13366120,0.000
 57122,0.00027082,0.00093621,-0.00006720,0.00345069,-0.00467405,0.02070
 863,0.01518463,-0.00302003,0.00120964,0.00018952,0.00136444,0.01575607
 ,0.00909875,-0.04919439,-0.00061158,-0.00036831,-0.00033668,-0.0002325
 2,-0.00009959,0.00036806,-0.00007145,-0.00003542,-0.00011128,-0.017447
 01,-0.01525659,0.05151390,0.00034701,0.00101356,0.00000230,0.00004784,
 -0.00146668,-0.00026808,0.00015354,0.00223640,-0.00208526,0.00023640,-
 0.00023291,0.00003558,-0.20047206,0.12176201,0.02242894,-0.00017011,0.
 00007268,0.00004946,0.00015428,-0.00014350,-0.00012077,-0.00008327,-0.
 00001255,-0.00055291,-0.02081629,0.01697667,0.00331361,0.21555219,-0.0
 0126709,-0.00098542,-0.00001686,0.00261821,0.00219773,-0.00016977,0.01
 309400,-0.01644200,0.00284182,-0.00072647,0.00072327,-0.00092643,0.123
 33903,-0.14262525,-0.01942632,-0.00003219,0.00007773,0.00011073,-0.000
 22842,-0.00002118,-0.00003255,0.00005577,0.00052276,0.00069828,-0.0139
 3597,0.01209846,0.00173261,-0.13593671,0.15577335,0.00102870,0.0008771
 4,-0.00008924,-0.00242417,-0.00226808,0.00055589,-0.01838216,0.0188574
 7,-0.00098547,-0.00021825,0.00010795,0.00210480,0.01987768,-0.01711303
 ,-0.04812610,-0.00005544,-0.00000283,-0.00014823,0.00033923,-0.0001120
 5,0.00019785,0.00046270,-0.00045125,-0.00036742,0.00127424,-0.00151269
 ,-0.00096144,-0.02279447,0.01549499,0.05198281,-0.00009095,-0.00000987
 ,-0.00013059,0.00038398,0.00040428,0.00062232,-0.00244209,-0.00106626,
 -0.00197792,0.00045750,0.00024086,-0.00032731,-0.05109366,-0.01815848,
 -0.02710185,0.00029782,0.00027021,0.00028319,0.00048465,0.00001203,-0.
 00025445,0.00009854,-0.00012715,-0.00043112,-0.00236654,-0.01343051,-0
 .02349228,0.00370070,0.01337099,0.02206254,0.05043368,0.00029324,-0.00
 009250,-0.00014314,-0.00018991,0.00127248,0.00031482,0.00336084,0.0117
 7165,0.01910523,0.00002919,-0.00275560,0.00267084,-0.01841256,-0.12246
 605,-0.11914581,0.00024042,-0.00002225,-0.00004000,0.00026589,0.000626
 68,0.00110457,-0.00011320,-0.00000700,0.00020193,-0.00048232,-0.009083
 24,-0.01360128,-0.00351354,-0.01076023,-0.01625160,0.01883606,0.130875
 69,0.00052401,0.00069253,0.00032466,-0.00093107,-0.00146692,0.00025601
 ,-0.00323712,-0.01295219,-0.02097578,-0.00007245,0.00477773,-0.0027740
 2,-0.02692801,-0.11656504,-0.23202531,0.00002078,0.00005233,0.00035372
 ,-0.00020766,-0.00083944,-0.00126160,0.00013313,0.00001255,0.00025501,
 -0.00011262,0.00211981,0.00369261,0.00007120,-0.00179616,-0.00238382,0
 .03085608,0.12605075,0.25424837,-0.00041320,-0.00321789,0.00024540,0.0
 0519892,0.00916004,-0.00064561,-0.06963568,0.04605162,0.01276127,0.004
 87547,-0.00383471,-0.00280913,0.00510595,-0.00452318,-0.00008305,0.000
 10256,0.00014839,0.00035228,0.00002183,0.00019652,0.00073954,-0.000533
 07,-0.00025799,-0.00042794,0.00010148,0.00051120,-0.00026810,-0.000288
 96,-0.00007587,0.00064762,-0.00016859,0.00006513,-0.00026759,0.4460559
 2,0.00343317,0.00099130,0.00022322,-0.01158624,-0.00518705,0.00155176,
 0.08588217,-0.04851462,-0.01465588,-0.00788796,0.00605275,0.00259967,-
 0.00793598,0.00651371,0.00109477,-0.00012878,-0.00049935,-0.00011816,0
 .00005792,0.00065870,0.00041179,0.00062125,0.00102820,0.00203781,-0.00
 013442,-0.00061117,0.00020591,0.00000409,0.00087021,-0.00179934,0.0003
 0938,-0.00017953,0.00003694,0.21609345,0.30026740,0.00156031,0.0049380
 9,-0.00101150,-0.00289503,-0.00612659,0.00129846,0.00073201,0.00282631
 ,0.00467730,0.00268723,-0.00165536,0.00103912,0.00134490,-0.00062534,-
 0.00032739,-0.00031434,0.00023767,-0.00003173,-0.00002639,-0.00021772,
 -0.00095630,-0.00065198,0.00012700,-0.00077776,-0.00016675,-0.00007161
 ,0.00018148,0.00015413,-0.00088942,0.00054831,-0.00013751,-0.00005703,
 -0.00003383,0.03483064,0.02290690,0.55396045,-0.00061841,0.00406429,-0
 .00096633,-0.00182798,-0.00344214,0.00028489,0.00166144,-0.00111251,-0
 .00036793,0.00097528,-0.00045274,0.00044368,0.00037326,-0.00005265,-0.
 00001067,-0.00007750,0.00034820,-0.00009062,-0.00034592,-0.00032118,-0
 .00064589,-0.00013091,-0.00006362,-0.00045643,-0.00002330,0.00014566,0
 .00000303,0.00008669,-0.00022108,0.00018628,-0.00007637,-0.00004061,0.
 00009208,-0.09769407,-0.06802828,0.04636186,0.48389615,0.00234507,0.00
 524843,-0.00008194,-0.00363360,-0.00631598,-0.00050019,-0.00992699,0.0
 1142194,0.00213012,0.00245869,-0.00117241,0.00004562,0.00255347,-0.001
 31510,-0.00168159,-0.00027214,0.00005224,0.00005355,-0.00009705,-0.000
 20614,-0.00007134,-0.00026521,-0.00071227,-0.00093570,-0.00041198,0.00
 019771,0.00010640,-0.00016055,-0.00055031,0.00090266,-0.00019675,0.000
 14501,0.00015879,-0.06787787,-0.12927971,0.11770466,0.25024287,0.25040
 924,-0.00203898,-0.00441182,0.00087024,0.00292409,0.00583484,0.0000158
 9,0.00380291,-0.00697738,-0.00119572,-0.00246866,0.00159397,-0.0008865
 4,-0.00158474,0.00075593,0.00103148,0.00027609,-0.00016954,0.00014460,
 -0.00000578,0.00037791,0.00109129,0.00049566,0.00030229,0.00108698,0.0
 0031150,-0.00011276,-0.00016733,0.00006453,0.00049675,-0.00054660,0.00
 029117,-0.00012069,0.00006633,0.02704908,0.07957039,-0.19947844,0.0684
 3761,-0.09243807,0.30200780,-0.00062708,-0.00134425,-0.00010975,0.0006
 2559,0.00166136,-0.00004395,0.00448663,-0.00409639,-0.00108984,-0.0011
 2516,0.00054112,-0.00008240,-0.00080383,0.00054059,0.00052018,0.000123
 74,0.00006288,-0.00001907,0.00002755,-0.00006198,0.00005195,0.00025023
 ,0.00011441,0.00031224,0.00007684,0.00002957,-0.00006546,0.00001046,0.
 00021881,-0.00039900,-0.00007764,0.00006985,-0.00021534,-0.04522749,-0
 .02288606,-0.01772875,0.00400291,0.00163772,0.01147368,0.04208610,0.00
 029053,0.00093418,0.00003770,0.00004472,-0.00121245,0.00000991,-0.0028
 4933,0.00297121,0.00082115,0.00078345,-0.00048900,0.00005914,0.0005325
 0,-0.00039763,-0.00042527,-0.00010443,0.00016057,0.00000844,-0.0000866
 5,-0.00007163,0.00006842,-0.00010594,-0.00002622,-0.00010219,-0.000071
 62,-0.00009249,-0.00000751,-0.00004426,-0.00013220,0.00034370,0.000206
 82,-0.00005171,0.00026371,-0.02788747,-0.08426199,-0.10591130,-0.00029
 996,0.00860083,0.03182125,0.02185056,0.08280776,-0.00001793,0.00008367
 ,0.00024816,0.00014176,-0.00026873,-0.00022764,0.00102568,-0.00015856,
 0.00009925,-0.00028629,0.00024915,0.00004903,0.00017914,-0.00015067,-0
 .00012917,-0.00002171,0.00001322,0.00001787,-0.00006629,0.00012392,0.0
 0013917,0.00003631,0.00002891,0.00009165,-0.00004558,0.00000430,-0.000
 01012,-0.00005994,0.00004062,0.00006509,0.00003858,0.00000541,0.000106
 46,-0.02844861,-0.08810657,-0.26367466,0.00649960,0.00047085,-0.027756
 48,0.02191803,0.09180336,0.29244556,0.00949730,0.00850996,-0.00070865,
 -0.04519381,-0.01264447,0.00591329,0.04685229,-0.03712728,-0.01290553,
 -0.00709490,0.00751515,0.00583586,-0.01019729,0.01018995,-0.00184105,0
 .00010683,-0.00101281,-0.00077058,0.00019083,-0.00002150,-0.00051379,0
 .00168075,-0.00063342,0.00017069,0.00025159,-0.00126234,0.00072035,0.0
 0141142,-0.00051024,-0.00129141,0.00032270,-0.00036568,0.00031738,0.03
 232878,-0.07222827,0.00307912,0.00259763,0.01063170,-0.00619244,-0.006
 20857,0.00350555,-0.00061121,-0.01661994,-0.00606817,-0.01074620,0.000
 21794,0.01085994,0.02159153,0.00016430,-0.07429769,0.00540425,0.012699
 46,0.01559551,-0.01316578,-0.00896729,0.01756789,-0.01514260,0.0009580
 0,0.00039897,0.00064478,0.00082785,-0.00037846,0.00041803,0.00089889,-
 0.00143085,-0.00042088,-0.00234114,0.00023671,0.00092231,-0.00086933,-
 0.00049751,-0.00077591,0.00290020,-0.00064004,0.00075244,-0.00053440,-
 0.05389808,0.03720633,-0.00619738,0.00609082,-0.02883176,0.01500155,0.
 01115282,-0.00883960,-0.00144013,0.07508319,0.00896770,-0.00126792,-0.
 00124568,0.00042369,0.00509657,0.00186641,-0.00076361,-0.00792584,0.00
 375351,-0.02730969,0.01354532,-0.01136221,-0.00682312,-0.01027291,0.00
 815479,0.00043046,-0.00005828,0.00035324,0.00068593,0.00030652,0.00007
 258,0.00015448,-0.00093774,-0.00151402,-0.00266106,0.00011346,-0.00020
 199,0.00039739,-0.00027455,0.00185478,-0.00187829,-0.00028030,-0.00010
 213,0.00018799,-0.00558742,0.00338176,-0.02749970,-0.00529150,0.015564
 07,-0.00407805,0.00854243,-0.01060753,-0.00025862,0.00700249,-0.012405
 98,0.06886465,0.00002151,0.00019668,-0.00011495,-0.00018224,0.00001050
 ,0.00019202,0.00130352,-0.00049061,0.00012469,-0.00063063,0.00016116,-
 0.00007842,-0.00046445,0.00015168,0.00032961,0.00009935,0.00032579,0.0
 0006178,-0.00009184,-0.00007159,0.00011088,0.00020893,0.00015269,0.000
 24852,0.00007529,0.00016349,-0.00008351,0.00005820,0.00010740,-0.00018
 030,0.00003992,-0.00006515,0.00000826,-0.26845250,-0.10757328,-0.06559
 522,-0.00903416,-0.00565563,0.00321429,0.00189784,0.00201020,0.0015097
 4,-0.00901089,-0.00101834,-0.00252078,0.28232129,-0.00036812,0.0000109
 9,0.00001806,0.00094766,-0.00005518,-0.00024729,-0.00359100,0.00190730
 ,0.00053173,0.00065183,-0.00023040,0.00000032,0.00068295,-0.00037321,-
 0.00031308,-0.00001033,-0.00023477,-0.00009966,0.00003198,-0.00003499,
 -0.00011546,-0.00012982,-0.00022761,-0.00029601,-0.00001621,-0.0001326
 2,0.00008248,-0.00002547,-0.00018431,0.00025667,-0.00002396,0.00002372
 ,0.00002694,-0.08549364,-0.06818982,-0.02039955,-0.02480201,-0.0135429
 4,-0.00105631,-0.01137709,-0.00122346,-0.00329803,0.01271168,0.0010852
 2,0.00217675,0.11228207,0.08177228,0.00016278,0.00020316,0.00013549,-0
 .00001046,-0.00024827,-0.00007142,-0.00118821,0.00103641,0.00031232,0.
 00011908,-0.00005435,0.00004819,0.00018249,-0.00025088,-0.00015482,-0.
 00000191,-0.00007160,0.00002263,0.00008631,0.00000668,-0.00007118,-0.0
 0004771,-0.00005686,-0.00010008,-0.00001294,0.00005904,0.00003210,0.00
 001888,-0.00003379,0.00010687,0.00001307,-0.00003090,0.00006533,-0.071
 11515,-0.02831474,-0.07218307,0.02967261,0.01455295,0.00560430,-0.0243
 4316,-0.00763091,-0.00211207,0.00240903,-0.00192051,-0.00005492,0.0614
 3461,0.01860888,0.07170449,-0.00051679,-0.00380623,0.00053474,0.002725
 73,0.00403732,-0.00040670,0.00032702,-0.00060736,-0.00028005,-0.000622
 63,0.00010622,0.00024554,-0.00062624,0.00015509,-0.00004482,-0.0000122
 1,-0.00017273,-0.00006673,0.00021855,-0.00006132,-0.00003143,0.0000908
 2,0.00011128,0.00013611,0.00001613,-0.00016918,0.00005654,0.00007196,0
 .00012982,-0.00013378,0.00009635,0.00002236,-0.00005106,-0.01137735,-0
 .00801215,-0.00323423,-0.38376476,-0.18137175,-0.10605000,0.00048188,0
 .00222534,-0.00179129,-0.00091471,0.00124329,-0.00018953,0.00184086,-0
 .00147055,0.00262067,0.39196538,-0.00017780,0.00050818,-0.00027706,0.0
 0058599,-0.00119287,0.00026738,0.00083752,-0.00197430,-0.00036766,-0.0
 0022358,0.00003152,-0.00022671,-0.00039691,0.00027180,0.00048790,0.000
 09712,0.00016003,0.00002624,-0.00007076,-0.00015285,-0.00015924,0.0000
 1091,0.00021010,0.00015721,0.00008319,0.00010310,-0.00008378,-0.000031
 72,0.00021331,-0.00022989,0.00000239,-0.00004956,-0.00003792,-0.025159
 66,-0.01686536,-0.00658933,-0.16205506,-0.09414879,-0.03046832,0.00188
 609,0.00132382,0.00059927,-0.00234117,0.00093013,0.00026166,-0.0006870
 7,-0.00037021,0.00414567,0.18764052,0.11100196,0.00000839,-0.00080386,
 -0.00104114,0.00058494,0.00072679,0.00002680,0.00000456,-0.00009062,0.
 00016255,0.00012530,-0.00010482,0.00011314,-0.00012019,0.00010895,0.00
 009470,0.00000716,0.00007624,-0.00007180,-0.00017899,-0.00003984,-0.00
 003683,0.00001609,0.00001216,-0.00000440,0.00000503,-0.00001174,-0.000
 01087,0.00001736,0.00002072,-0.00007501,-0.00003363,0.00003902,-0.0001
 0212,0.03302677,0.01897377,0.00426928,-0.14415227,-0.05598082,-0.07780
 975,0.00127821,-0.00055205,0.00090653,-0.00061356,0.00100797,0.0001824
 6,0.00133878,0.00412356,-0.00328415,0.10868605,0.03249458,0.07668061\\
 0.00000028,0.00000068,0.00000077,-0.00000021,-0.00000088,0.00000073,0.
 00000300,-0.00000032,-0.00000113,-0.00000015,0.00000048,-0.00000168,0.
 00000028,-0.00000118,0.00000225,0.00000095,-0.00000032,-0.00000066,0.0
 0000017,-0.00000062,-0.00000036,0.00000047,0.00000071,0.00000036,0.000
 00050,-0.00000057,0.00000100,-0.00000039,0.00000093,0.00000102,-0.0000
 0078,-0.00000027,0.00000077,-0.00000039,-0.00000103,-0.00000014,-0.000
 00239,-0.00000039,0.00000046,-0.00000057,-0.00000003,-0.00000055,0.000
 00021,0.00000272,-0.00000206,-0.00000024,-0.00000053,-0.00000099,-0.00
 000075,0.00000063,0.00000020\\\@


 SOME PEOPLE TRY TO PULL THE WOOL OVER YOUR EYES
 USING THE WRONG YARN.
 Job cpu time:       0 days  0 hours 21 minutes 38.7 seconds.
 Elapsed time:       0 days  0 hours  0 minutes 33.0 seconds.
 File lengths (MBytes):  RWF=    121 Int=      0 D2E=      0 Chk=      5 Scr=      1
 Normal termination of Gaussian 16 at Tue Jul  7 12:18:27 2020.
