 Entering Gaussian System, Link 0=/Local/ce_dana/g09/g09
 Initial command:
 /Local/ce_dana/g09/l1.exe "/storage/ce_dana/alongd/scratch/g09/Gau-44350.inp" -scrdir="/storage/ce_dana/alongd/scratch/g09/"
 Entering Link 1 = /Local/ce_dana/g09/l1.exe PID=     44351.
  
 Copyright (c) 1988,1990,1992,1993,1995,1998,2003,2009,2013,
            Gaussian, Inc.  All Rights Reserved.
  
 This is part of the Gaussian(R) 09 program.  It is based on
 the Gaussian(R) 03 system (copyright 2003, Gaussian, Inc.),
 the Gaussian(R) 98 system (copyright 1998, Gaussian, Inc.),
 the Gaussian(R) 94 system (copyright 1995, Gaussian, Inc.),
 the Gaussian 92(TM) system (copyright 1992, Gaussian, Inc.),
 the Gaussian 90(TM) system (copyright 1990, Gaussian, Inc.),
 the Gaussian 88(TM) system (copyright 1988, Gaussian, Inc.),
 the Gaussian 86(TM) system (copyright 1986, Carnegie Mellon
 University), and the Gaussian 82(TM) system (copyright 1983,
 Carnegie Mellon University). Gaussian is a federally registered
 trademark of Gaussian, Inc.
  
 This software contains proprietary and confidential information,
 including trade secrets, belonging to Gaussian, Inc.
  
 This software is provided under written license and may be
 used, copied, transmitted, or stored only in accord with that
 written license.
  
 The following legend is applicable only to US Government
 contracts under FAR:
  
                    RESTRICTED RIGHTS LEGEND
  
 Use, reproduction and disclosure by the US Government is
 subject to restrictions as set forth in subparagraphs (a)
 and (c) of the Commercial Computer Software - Restricted
 Rights clause in FAR 52.227-19.
  
 Gaussian, Inc.
 340 Quinnipiac St., Bldg. 40, Wallingford CT 06492
  
  
 ---------------------------------------------------------------
 Warning -- This program may not be used in any manner that
 competes with the business of Gaussian, Inc. or will provide
 assistance to any competitor of Gaussian, Inc.  The licensee
 of this program is prohibited from giving any competitor of
 Gaussian, Inc. access to this program.  By using this program,
 the user acknowledges that Gaussian, Inc. is engaged in the
 business of creating and licensing software in the field of
 computational chemistry and represents and warrants to the
 licensee that it is not a competitor of Gaussian, Inc. and that
 it will not use this program in any manner prohibited above.
 ---------------------------------------------------------------
  

 Cite this work as:
 Gaussian 09, Revision D.01,
 M. J. Frisch, G. W. Trucks, H. B. Schlegel, G. E. Scuseria, 
 M. A. Robb, J. R. Cheeseman, G. Scalmani, V. Barone, B. Mennucci, 
 G. A. Petersson, H. Nakatsuji, M. Caricato, X. Li, H. P. Hratchian, 
 A. F. Izmaylov, J. Bloino, G. Zheng, J. L. Sonnenberg, M. Hada, 
 M. Ehara, K. Toyota, R. Fukuda, J. Hasegawa, M. Ishida, T. Nakajima, 
 Y. Honda, O. Kitao, H. Nakai, T. Vreven, J. A. Montgomery, Jr., 
 J. E. Peralta, F. Ogliaro, M. Bearpark, J. J. Heyd, E. Brothers, 
 K. N. Kudin, V. N. Staroverov, T. Keith, R. Kobayashi, J. Normand, 
 K. Raghavachari, A. Rendell, J. C. Burant, S. S. Iyengar, J. Tomasi, 
 M. Cossi, N. Rega, J. M. Millam, M. Klene, J. E. Knox, J. B. Cross, 
 V. Bakken, C. Adamo, J. Jaramillo, R. Gomperts, R. E. Stratmann, 
 O. Yazyev, A. J. Austin, R. Cammi, C. Pomelli, J. W. Ochterski, 
 R. L. Martin, K. Morokuma, V. G. Zakrzewski, G. A. Voth, 
 P. Salvador, J. J. Dannenberg, S. Dapprich, A. D. Daniels, 
 O. Farkas, J. B. Foresman, J. V. Ortiz, J. Cioslowski, 
 and D. J. Fox, Gaussian, Inc., Wallingford CT, 2013.
 
 ******************************************
 Gaussian 09:  ES64L-G09RevD.01 24-Apr-2013
                22-May-2022 
 ******************************************
 %chk=check.chk
 %mem=7168mb
 %NProcShared=10
 Will use up to   10 processors via shared memory.
 ----------------------------------------------------------------------
 #P guess=read uhf/3-21g freq IOp(7/33=1) scf=(tight, direct) integral=
 (grid=ultrafine, Acc2E=12) IOp(2/9=2000) scf=xqc
 ----------------------------------------------------------------------
 1/10=4,30=1,38=1/1,3;
 2/9=2000,12=2,17=6,18=5,40=1/2;
 3/5=5,11=2,16=1,25=1,30=1,71=2,75=-5,116=2,140=1/1,2,3;
 4/5=1/1;
 5/5=2,8=3,13=1,32=2,38=6,87=12,98=1/2,8;
 8/6=4,10=90,11=11,87=12/1;
 10/13=10,15=4,87=12/2;
 11/6=3,8=1,9=11,15=111,16=1,87=12/1,2,10;
 10/6=1,87=12/2;
 6/7=2,8=2,9=2,10=2,18=1,28=1/1;
 7/8=1,10=1,25=1,33=1,87=12/1,2,3,16;
 1/10=4,30=1/3;
 99//99;
 Leave Link    1 at Sun May 22 09:08:51 2022, MaxMem=   939524096 cpu:         0.1
 (Enter /Local/ce_dana/g09/l101.exe)
 -----
 iC3H7
 -----
 Symbolic Z-matrix:
 Charge =  0 Multiplicity = 2
 C                     1.30665   0.15104   0.3273 
 C                    -0.0363   -0.15829   0.93879 
 C                    -1.27805   0.46701   0.35553 
 H                     1.43794   1.22285   0.20961 
 H                     2.1183   -0.22493   0.93914 
 H                     1.40171  -0.29733  -0.66204 
 H                    -0.13628  -1.03137   1.55744 
 H                    -1.49957   0.05735  -0.63036 
 H                    -2.143     0.296     0.98567 
 H                    -1.14981   1.53919   0.23786 
 
 NAtoms=     10 NQM=       10 NQMF=       0 NMMI=      0 NMMIF=      0
                NMic=       0 NMicF=      0.
                    Isotopes and Nuclear Properties:
 (Nuclear quadrupole moments (NQMom) in fm**2, nuclear magnetic moments (NMagM)
  in nuclear magnetons)

  Atom         1           2           3           4           5           6           7           8           9          10
 IAtWgt=          12          12          12           1           1           1           1           1           1           1
 AtmWgt=  12.0000000  12.0000000  12.0000000   1.0078250   1.0078250   1.0078250   1.0078250   1.0078250   1.0078250   1.0078250
 NucSpn=           0           0           0           1           1           1           1           1           1           1
 AtZEff=   0.0000000   0.0000000   0.0000000   0.0000000   0.0000000   0.0000000   0.0000000   0.0000000   0.0000000   0.0000000
 NQMom=    0.0000000   0.0000000   0.0000000   0.0000000   0.0000000   0.0000000   0.0000000   0.0000000   0.0000000   0.0000000
 NMagM=    0.0000000   0.0000000   0.0000000   2.7928460   2.7928460   2.7928460   2.7928460   2.7928460   2.7928460   2.7928460
 AtZNuc=   6.0000000   6.0000000   6.0000000   1.0000000   1.0000000   1.0000000   1.0000000   1.0000000   1.0000000   1.0000000
 Leave Link  101 at Sun May 22 09:08:51 2022, MaxMem=   939524096 cpu:         0.1
 (Enter /Local/ce_dana/g09/l103.exe)

 GradGradGradGradGradGradGradGradGradGradGradGradGradGradGradGradGradGrad
 Berny optimization.
 Initialization pass.
 Trust Radius=3.00D-01 FncErr=1.00D-07 GrdErr=1.00D-07
 Number of steps in this run=      2 maximum allowed number of steps=      2.
 GradGradGradGradGradGradGradGradGradGradGradGradGradGradGradGradGradGrad

 Leave Link  103 at Sun May 22 09:08:51 2022, MaxMem=   939524096 cpu:         0.0
 (Enter /Local/ce_dana/g09/l202.exe)
                          Input orientation:                          
 ---------------------------------------------------------------------
 Center     Atomic      Atomic             Coordinates (Angstroms)
 Number     Number       Type             X           Y           Z
 ---------------------------------------------------------------------
      1          6           0        1.306654    0.151038    0.327302
      2          6           0       -0.036303   -0.158288    0.938787
      3          6           0       -1.278050    0.467012    0.355525
      4          1           0        1.437940    1.222848    0.209608
      5          1           0        2.118295   -0.224934    0.939142
      6          1           0        1.401710   -0.297327   -0.662041
      7          1           0       -0.136280   -1.031373    1.557437
      8          1           0       -1.499566    0.057347   -0.630361
      9          1           0       -2.142997    0.295999    0.985672
     10          1           0       -1.149808    1.539194    0.237864
 ---------------------------------------------------------------------
                    Distance matrix (angstroms):
                    1          2          3          4          5
     1  C    0.000000
     2  C    1.507690   0.000000
     3  C    2.604099   1.507690   0.000000
     4  H    1.086216   2.147704   2.822974   0.000000
     5  H    1.083727   2.155629   3.514905   1.758174   0.000000
     6  H    1.090351   2.156354   2.966609   1.752717   1.755711
     7  H    2.234589   1.074710   2.234589   3.062078   2.473002
     8  H    2.966609   2.156354   1.090351   3.269997   3.953725
     9  H    3.514905   2.155629   1.083727   3.779475   4.293267
    10  H    2.822974   2.147704   1.086216   2.607166   3.779476
                    6          7          8          9         10
     6  H    0.000000
     7  H    2.798271   0.000000
     8  H    2.923046   2.798271   0.000000
     9  H    3.953725   2.473003   1.755711   0.000000
    10  H    3.269997   3.062079   1.752717   1.758174   0.000000
 Stoichiometry    C3H7(2)
 Framework group  CS[SG(CH),X(C2H6)]
 Deg. of freedom    13
 Full point group                 CS      NOp   2
 Largest Abelian subgroup         CS      NOp   2
 Largest concise Abelian subgroup CS      NOp   2
                         Standard orientation:                         
 ---------------------------------------------------------------------
 Center     Atomic      Atomic             Coordinates (Angstroms)
 Number     Number       Type             X           Y           Z
 ---------------------------------------------------------------------
      1          6           0       -0.012918   -0.205187   -1.302049
      2          6           0       -0.012918    0.554942   -0.000000
      3          6           0       -0.012918   -0.205187    1.302049
      4          1           0       -0.788815   -0.965349   -1.303583
      5          1           0       -0.181011    0.452753   -2.146634
      6          1           0        0.938490   -0.713378   -1.461523
      7          1           0        0.295186    1.584541   -0.000000
      8          1           0        0.938490   -0.713378    1.461523
      9          1           0       -0.181011    0.452753    2.146634
     10          1           0       -0.788815   -0.965349    1.303583
 ---------------------------------------------------------------------
 Rotational constants (GHZ):     36.8226643      8.3033237      7.4022272
 Leave Link  202 at Sun May 22 09:08:51 2022, MaxMem=   939524096 cpu:         0.0
 (Enter /Local/ce_dana/g09/l301.exe)
 Standard basis: 3-21G (6D, 7F)
 Ernie: Thresh=  0.10000D-02 Tol=  0.10000D-05 Strict=F.
 
 
 
 < output shortened >
 
 
 
 Harmonic frequencies (cm**-1), IR intensities (KM/Mole), Raman scattering
 activities (A**4/AMU), depolarization ratios for plane and unpolarized
 incident light, reduced masses (AMU), force constants (mDyne/A),
 and normal coordinates:
                      1                      2                      3
                     A"                     A'                     A'
 Frequencies --    123.7161               147.3535               356.2644
 Red. masses --      1.0232                 1.1565                 1.6279
 Frc consts  --      0.0092                 0.0148                 0.1217
 IR Inten    --      0.0004                 0.4496                16.6917
 Raman Activ --      0.1033                 0.7649                 2.4344
 Depolar (P) --      0.7500                 0.6447                 0.7242
 Depolar (U) --      0.8571                 0.7840                 0.8401
  Atom  AN      X      Y      Z        X      Y      Z        X      Y      Z
     1   6     0.03  -0.00   0.00     0.04  -0.01   0.01    -0.01   0.04  -0.10
     2   6     0.00  -0.00  -0.00    -0.09   0.02   0.00     0.12  -0.13   0.00
     3   6    -0.03   0.00   0.00     0.04  -0.01  -0.01    -0.01   0.04   0.10
     4   1     0.30  -0.28   0.14    -0.15   0.18  -0.17    -0.07   0.09  -0.18
     5   1    -0.36  -0.06   0.03     0.42   0.01  -0.05    -0.05   0.21   0.04
     6   1     0.18   0.34  -0.18    -0.04  -0.25   0.28    -0.07   0.00  -0.30
     7   1     0.00  -0.00  -0.01    -0.40   0.10  -0.00    -0.75   0.12   0.00
     8   1    -0.18  -0.34  -0.18    -0.04  -0.25  -0.28    -0.07   0.00   0.30
     9   1     0.36   0.06   0.03     0.42   0.01   0.05    -0.05   0.21  -0.04
    10   1    -0.30   0.28   0.14    -0.15   0.18   0.17    -0.07   0.09   0.18
                      4                      5                      6
                     A'                     A'                     A"
 Frequencies --    423.1096               889.8239              1045.3526
 Red. masses --      1.6127                 3.1359                 1.2380
 Frc consts  --      0.1701                 1.4629                 0.7971
 IR Inten    --     11.4362                 1.5683                 1.3276
 Raman Activ --      3.2219                 9.7846                 0.9636
 Depolar (P) --      0.4520                 0.2471                 0.7500
 Depolar (U) --      0.6226                 0.3963                 0.8571
  Atom  AN      X      Y      Z        X      Y      Z        X      Y      Z
     1   6    -0.02  -0.03   0.11    -0.01   0.08   0.25     0.00   0.09  -0.01
     2   6     0.13   0.10   0.00     0.00  -0.24   0.00     0.00  -0.00  -0.06
     3   6    -0.02  -0.03  -0.11    -0.01   0.08  -0.25    -0.00  -0.09  -0.01
     4   1    -0.03  -0.03   0.38     0.01   0.07  -0.05     0.04   0.05   0.41
     5   1    -0.15  -0.21  -0.00     0.04   0.36   0.45    -0.04  -0.33  -0.32
     6   1    -0.06  -0.10   0.07     0.02   0.16   0.08    -0.04  -0.07   0.25
     7   1    -0.62   0.31   0.00    -0.02  -0.24  -0.00    -0.00   0.00   0.29
     8   1    -0.06  -0.10  -0.07     0.02   0.16  -0.08     0.04   0.07   0.25
     9   1    -0.15  -0.21   0.00     0.04   0.36  -0.45     0.04   0.33  -0.32
    10   1    -0.03  -0.03  -0.38     0.01   0.07   0.05    -0.04  -0.05   0.41
                      7                      8                      9
                     A"                     A'                     A"
 Frequencies --   1062.7438              1153.8839              1163.8414
 Red. masses --      1.2253                 1.4036                 2.4691
 Frc consts  --      0.8154                 1.1011                 1.9705
 IR Inten    --      0.2192                 1.2570                 0.1184
 Raman Activ --      4.6176                 1.2470                 4.3255
 Depolar (P) --      0.7500                 0.3326                 0.7500
 Depolar (U) --      0.8571                 0.4992                 0.8571
  Atom  AN      X      Y      Z        X      Y      Z        X      Y      Z
     1   6     0.09  -0.02  -0.02     0.10  -0.01   0.01    -0.04  -0.08  -0.14
     2   6    -0.00  -0.00   0.03    -0.12   0.01  -0.00    -0.00   0.00   0.27
     3   6    -0.09   0.02  -0.02     0.10  -0.01  -0.01     0.04   0.08  -0.14
     4   1    -0.15   0.21   0.26    -0.17   0.25   0.26     0.05  -0.17  -0.15
     5   1    -0.21   0.04   0.08    -0.22   0.07   0.13     0.05  -0.16  -0.22
     6   1    -0.12  -0.27  -0.43    -0.12  -0.27  -0.40     0.04  -0.01   0.09
     7   1     0.00  -0.00   0.23     0.05  -0.03  -0.00     0.00  -0.00   0.77
     8   1     0.12   0.27  -0.43    -0.12  -0.27   0.40    -0.04   0.01   0.09
     9   1     0.21  -0.04   0.08    -0.22   0.07  -0.13    -0.05   0.16  -0.22
    10   1     0.15  -0.21   0.26    -0.17   0.25  -0.26    -0.05   0.17  -0.15
                     10                     11                     12
                     A'                     A"                     A"
 Frequencies --   1301.3756              1482.0387              1565.0737
 Red. masses --      1.7197                 1.4308                 1.1826
 Frc consts  --      1.7160                 1.8517                 1.7067
 IR Inten    --      6.1792                 9.0643                 7.3490
 Raman Activ --      2.5024                 1.4759                 8.8567
 Depolar (P) --      0.3715                 0.7500                 0.7500
 Depolar (U) --      0.5418                 0.8571                 0.8571
  Atom  AN      X      Y      Z        X      Y      Z        X      Y      Z
     1   6     0.01   0.13  -0.04     0.02   0.04  -0.05    -0.00   0.04   0.08
     2   6    -0.02  -0.17  -0.00     0.00   0.00   0.17     0.00  -0.00  -0.00
     3   6     0.01   0.13   0.04    -0.02  -0.04  -0.05     0.00  -0.04   0.08
     4   1     0.08   0.04   0.40     0.04   0.01   0.10     0.15  -0.13  -0.36
     5   1    -0.05  -0.29  -0.34    -0.06  -0.11  -0.15     0.06  -0.31  -0.23
     6   1    -0.07  -0.13   0.24    -0.05  -0.12   0.03    -0.16  -0.15  -0.36
     7   1     0.00  -0.19  -0.00    -0.00   0.00  -0.91    -0.00  -0.00   0.06
     8   1    -0.07  -0.13  -0.24     0.05   0.12   0.03     0.16   0.15  -0.36
     9   1    -0.05  -0.29   0.34     0.06   0.11  -0.15    -0.06   0.31  -0.23
    10   1     0.08   0.04  -0.40    -0.04  -0.01   0.10    -0.15   0.13  -0.36
                     13                     14                     15
                     A'                     A"                     A"
 Frequencies --   1581.1396              1650.7497              1655.9953
 Red. masses --      1.1794                 1.0496                 1.0427
 Frc consts  --      1.7372                 1.6851                 1.6847
 IR Inten    --      6.3856                 0.6934                 2.2195
 Raman Activ --      5.9960                41.1403                 5.9022
 Depolar (P) --      0.6207                 0.7500                 0.7500
 Depolar (U) --      0.7660                 0.8571                 0.8571
  Atom  AN      X      Y      Z        X      Y      Z        X      Y      Z
     1   6     0.00  -0.05  -0.08    -0.04   0.00  -0.01     0.00   0.03  -0.02
     2   6     0.00  -0.01   0.00     0.00  -0.00   0.01     0.00   0.00  -0.02
     3   6     0.00  -0.05   0.08     0.04  -0.00  -0.01    -0.00  -0.03  -0.02
     4   1    -0.15   0.12   0.35     0.18  -0.20   0.34     0.28  -0.27  -0.05
     5   1    -0.06   0.31   0.23     0.47   0.16   0.01    -0.17   0.21   0.18
     6   1     0.16   0.15   0.37    -0.06   0.00  -0.25    -0.19  -0.41   0.20
     7   1    -0.01   0.00  -0.00    -0.00   0.00  -0.02    -0.00   0.00   0.08
     8   1     0.16   0.15  -0.37     0.06  -0.00  -0.25     0.19   0.41   0.20
     9   1    -0.06   0.31  -0.23    -0.47  -0.16   0.01     0.17  -0.21   0.18
    10   1    -0.15   0.12  -0.35    -0.18   0.20   0.34    -0.28   0.27  -0.05
                     16                     17                     18
                     A'                     A'                     A"
 Frequencies --   1664.2764              1667.4408              3141.8646
 Red. masses --      1.0477                 1.0409                 1.0524
 Frc consts  --      1.7098                 1.7051                 6.1205
 IR Inten    --     15.4017                 5.9518                16.6194
 Raman Activ --      7.9088                34.8087                12.4228
 Depolar (P) --      0.7490                 0.7486                 0.7500
 Depolar (U) --      0.8565                 0.8563                 0.8571
  Atom  AN      X      Y      Z        X      Y      Z        X      Y      Z
     1   6    -0.04   0.00  -0.01    -0.01  -0.03   0.02     0.03  -0.03  -0.02
     2   6    -0.02   0.01  -0.00    -0.00  -0.03  -0.00    -0.00  -0.00  -0.00
     3   6    -0.04   0.00   0.01    -0.01  -0.03  -0.02    -0.03   0.03  -0.02
     4   1     0.18  -0.21   0.34    -0.27   0.26   0.08     0.15   0.12  -0.00
     5   1     0.46   0.17   0.03     0.20  -0.20  -0.18     0.04  -0.10   0.11
     6   1    -0.07  -0.02  -0.25     0.18   0.41  -0.20    -0.58   0.30   0.09
     7   1     0.00   0.00   0.00    -0.01  -0.03   0.00     0.00   0.00  -0.00
     8   1    -0.07  -0.02   0.25     0.18   0.41   0.20     0.58  -0.30   0.09
     9   1     0.46   0.17  -0.03     0.20  -0.20   0.18    -0.04   0.10   0.11
    10   1     0.18  -0.21  -0.34    -0.27   0.26  -0.08    -0.15  -0.12  -0.00
                     19                     20                     21
                     A'                     A"                     A'
 Frequencies --   3145.8648              3204.0920              3207.8055
 Red. masses --      1.0527                 1.0803                 1.0787
 Frc consts  --      6.1384                 6.5345                 6.5397
 IR Inten    --     40.3890                 6.6711                50.6880
 Raman Activ --    180.9353                15.2628               131.9136
 Depolar (P) --      0.1012                 0.7500                 0.3186
 Depolar (U) --      0.1837                 0.8571                 0.4833
  Atom  AN      X      Y      Z        X      Y      Z        X      Y      Z
     1   6    -0.03   0.03   0.02    -0.05  -0.01  -0.01     0.05   0.01   0.01
     2   6    -0.00   0.00   0.00     0.00   0.00   0.00     0.00  -0.00  -0.00
     3   6    -0.03   0.03  -0.02     0.05   0.01  -0.01     0.05   0.01  -0.01
     4   1    -0.14  -0.12   0.00     0.44   0.44  -0.01    -0.44  -0.44   0.01
     5   1    -0.04   0.10  -0.11     0.02  -0.16   0.19    -0.03   0.17  -0.21
     6   1     0.58  -0.30  -0.09     0.18  -0.11  -0.03    -0.18   0.11   0.03
     7   1    -0.00  -0.01  -0.00    -0.00  -0.00   0.00     0.01   0.02   0.00
     8   1     0.58  -0.30   0.09    -0.18   0.11  -0.03    -0.18   0.11  -0.03
     9   1    -0.04   0.10   0.11    -0.02   0.16   0.19    -0.03   0.17   0.21
    10   1    -0.14  -0.12  -0.00    -0.44  -0.44  -0.01    -0.44  -0.44  -0.01
                     22                     23                     24
                     A'                     A"                     A'
 Frequencies --   3249.9163              3250.9288              3325.5107
 Red. masses --      1.0962                 1.0967                 1.0887
 Frc consts  --      6.8213                 6.8291                 7.0939
 IR Inten    --     20.0009                30.2026                31.9973
 Raman Activ --     88.6551                66.5511                73.0956
 Depolar (P) --      0.6449                 0.7500                 0.2218
 Depolar (U) --      0.7841                 0.8571                 0.3630
  Atom  AN      X      Y      Z        X      Y      Z        X      Y      Z
     1   6     0.00   0.05  -0.04    -0.00  -0.05   0.04    -0.00  -0.01   0.01
     2   6    -0.00  -0.01  -0.00    -0.00  -0.00  -0.00    -0.02  -0.08  -0.00
     3   6     0.00   0.05   0.04     0.00   0.05   0.04    -0.00  -0.01  -0.01
     4   1    -0.21  -0.19  -0.01     0.20   0.18   0.01     0.05   0.05   0.00
     5   1     0.10  -0.39   0.49    -0.10   0.40  -0.50    -0.02   0.06  -0.09
     6   1     0.06  -0.01  -0.02    -0.06   0.02   0.02    -0.00  -0.00   0.00
     7   1     0.05   0.17  -0.00     0.00   0.00   0.00     0.27   0.94  -0.00
     8   1     0.06  -0.01   0.02     0.06  -0.02   0.02    -0.00  -0.00  -0.00
     9   1     0.10  -0.39  -0.49     0.10  -0.40  -0.50    -0.02   0.06   0.09
    10   1    -0.21  -0.19   0.01    -0.20  -0.18   0.01     0.05   0.05  -0.00

 -------------------
 - Thermochemistry -
 -------------------
 Temperature   298.150 Kelvin.  Pressure   1.00000 Atm.
 Atom     1 has atomic number  6 and mass  12.00000
 Atom     2 has atomic number  6 and mass  12.00000
 Atom     3 has atomic number  6 and mass  12.00000
 Atom     4 has atomic number  1 and mass   1.00783
 Atom     5 has atomic number  1 and mass   1.00783
 Atom     6 has atomic number  1 and mass   1.00783
 Atom     7 has atomic number  1 and mass   1.00783
 Atom     8 has atomic number  1 and mass   1.00783
 Atom     9 has atomic number  1 and mass   1.00783
 Atom    10 has atomic number  1 and mass   1.00783
 Molecular mass:    43.05478 amu.
 Principal axes and moments of inertia in atomic units:
                           1         2         3
     Eigenvalues --    49.01170 217.35166 243.81057
           X           -0.00000   0.06408   0.99794
           Y           -0.00000   0.99794  -0.06408
           Z            1.00000   0.00000   0.00000
 This molecule is an asymmetric top.
 Rotational symmetry number  1.
 Rotational temperatures (Kelvin)      1.76721     0.39850     0.35525
 Rotational constants (GHZ):          36.82266     8.30332     7.40223
 Zero-point vibrational energy     247986.8 (Joules/Mol)
                                   59.27028 (Kcal/Mol)
 Warning -- explicit consideration of   4 degrees of freedom as
           vibrations may cause significant error
 Vibrational temperatures:    178.00   212.01   512.58   608.76  1280.26
          (Kelvin)           1504.03  1529.05  1660.18  1674.51  1872.39
                             2132.32  2251.79  2274.90  2375.06  2382.60
                             2394.52  2399.07  4520.44  4526.19  4609.97
                             4615.31  4675.90  4677.36  4784.66
 
 Zero-point correction=                           0.094453 (Hartree/Particle)
 Thermal correction to Energy=                    0.099455
 Thermal correction to Enthalpy=                  0.100399
 Thermal correction to Gibbs Free Energy=         0.067471
 Sum of electronic and zero-point Energies=           -116.891636
 Sum of electronic and thermal Energies=              -116.886634
 Sum of electronic and thermal Enthalpies=            -116.885690
 Sum of electronic and thermal Free Energies=         -116.918619
 
                     E (Thermal)             CV                S
                      KCal/Mol        Cal/Mol-Kelvin    Cal/Mol-Kelvin
 Total                   62.409             14.916             69.304
 Electronic               0.000              0.000              1.377
 Translational            0.889              2.981             37.206
 Rotational               0.889              2.981             22.478
 Vibrational             60.631              8.955              8.242
 Vibration     1          0.610              1.929              3.041
 Vibration     2          0.617              1.906              2.706
 Vibration     3          0.732              1.562              1.138
 Vibration     4          0.785              1.420              0.881
                       Q            Log10(Q)             Ln(Q)
 Total Bot       0.924235D-31        -31.034218        -71.458927
 Total V=0       0.257718D+13         12.411144         28.577716
 Vib (Bot)       0.228119D-42        -42.641839        -98.186463
 Vib (Bot)    1  0.165038D+01          0.217585          0.501008
 Vib (Bot)    2  0.137711D+01          0.138970          0.319990
 Vib (Bot)    3  0.515755D+00         -0.287557         -0.662124
 Vib (Bot)    4  0.414009D+00         -0.382990         -0.881867
 Vib (V=0)       0.636097D+01          0.803523          1.850180
 Vib (V=0)    1  0.222446D+01          0.347225          0.799515
 Vib (V=0)    2  0.196507D+01          0.293379          0.675530
 Vib (V=0)    3  0.121833D+01          0.085766          0.197484
 Vib (V=0)    4  0.114916D+01          0.060379          0.139028
 Electronic      0.200000D+01          0.301030          0.693147
 Translational   0.111042D+08          7.045487         16.222834
 Rotational      0.182433D+05          4.261104          9.811555
 
                                                                iC3H7
                                                             IR Spectrum
 
     3 3333 33                                                    1111  11  1      1   11   11                                       
     3 2222 11                                                    6666  55  4      3   11   00     8                4  3       11    
     2 5500 44                                                    6655  86  8      0   65   64     9                2  5       42    
     6 1084 62                                                    7461  15  2      1   44   35     0                3  6       74    
 
     X XXXX XX                                                    XXXX  XX  X      X   XX   XX     X                X  X       X     
     X XXXX XX                                                    XX    XX  X      X                                X  X             
     X XXXX XX                                                     X    XX  X                                       X  X             
     X XXX  XX                                                     X        X                                       X  X             
     X XXX  XX                                                     X                                                X  X             
     X XXX  XX                                                     X                                                   X             
     X XXX  XX                                                                                                         X             
     X XXX  X                                                                                                                        
     X X X  X                                                                                                                        
     X X X  X                                                                                                                        
     X X X  X                                                                                                                        
     X X X  X                                                                                                                        
     X   X  X                                                                                                                        
         X  X                                                                                                                        
         X  X                                                                                                                        
         X  X                                                                                                                        
         X                                                                                                                           
         X                                                                                                                           
         X                                                                                                                           
         X                                                                                                                           
 
 
                                                                iC3H7
                                                            Raman Spectrum
 
     3 3333 33                                                    1111  11  1      1   11   11                                       
     3 2222 11                                                    6666  55  4      3   11   00     8                4  3       11    
     2 5500 44                                                    6655  86  8      0   65   64     9                2  5       42    
     6 1084 62                                                    7461  15  2      1   44   35     0                3  6       74    
 
     X XXXX XX                                                    XXXX  XX  X      X   XX   XX     X                X  X       XX    
     X XXXX X                                                     X  X                                                               
     X XXX  X                                                     X  X                                                               
     X XXX  X                                                     X  X                                                               
     X XXX  X                                                        X                                                               
     X XXX  X                                                                                                                        
     X XXX  X                                                                                                                        
     X  XX  X                                                                                                                        
        XX  X                                                                                                                        
        XX  X                                                                                                                        
         X  X                                                                                                                        
         X  X                                                                                                                        
         X  X                                                                                                                        
         X  X                                                                                                                        
         X  X                                                                                                                        
            X                                                                                                                        
            X                                                                                                                        
            X                                                                                                                        
            X                                                                                                                        
            X                                                                                                                        
 
 Forces in standard orientation:
 -------------------------------------------------------------------
 Center     Atomic                   Forces (Hartrees/Bohr)
 Number     Number              X              Y              Z
 -------------------------------------------------------------------
      1        6           0.000003822    0.000000265    0.000005615
      2        6          -0.000007895   -0.000009214   -0.000000000
      3        6           0.000003822    0.000000265   -0.000005615
      4        1           0.000001773    0.000001216   -0.000000409
      5        1          -0.000000723    0.000000540   -0.000007920
      6        1          -0.000003003    0.000001040   -0.000003420
      7        1           0.000004157    0.000003091   -0.000000000
      8        1          -0.000003003    0.000001040    0.000003420
      9        1          -0.000000723    0.000000540    0.000007920
     10        1           0.000001773    0.000001216    0.000000409
 -------------------------------------------------------------------
 ***** Axes restored to original set *****
 Rotating derivatives, DoTrsp=F IDiff=-2 LEDeriv=   1492 LFDPrp=       0 LDFDPr=       0.
 -------------------------------------------------------------------
 Center     Atomic                   Forces (Hartrees/Bohr)
 Number     Number              X              Y              Z
 -------------------------------------------------------------------
      1        6           0.000005981    0.000002460    0.000002094
      2        6          -0.000001419   -0.000011817    0.000002360
      3        6          -0.000005166    0.000003823    0.000002216
      4        1          -0.000000144    0.000002179    0.000000145
      5        1          -0.000007899    0.000000729   -0.000000786
      6        1          -0.000003631   -0.000001286   -0.000002637
      7        1           0.000000630    0.000005140    0.000000141
      8        1           0.000003157   -0.000002116   -0.000002711
      9        1           0.000007823   -0.000001192   -0.000000958
     10        1           0.000000668    0.000002080    0.000000136
 -------------------------------------------------------------------
 Cartesian Forces:  Max     0.000011817 RMS     0.000003859
 Z-matrix is all fixed cartesians, so copy forces.
 Force constants in Cartesian coordinates: 
                1             2             3             4             5 
      1  0.540295D+00
      2 -0.298394D-01  0.601005D+00
      3  0.555655D-01 -0.229599D-01  0.561551D+00
      4 -0.186985D+00 -0.149998D-01  0.473121D-01  0.504972D+00
      5 -0.183019D-01 -0.852117D-01  0.368647D-01 -0.117583D-01  0.434842D+00
      6  0.406302D-01  0.335405D-01 -0.939646D-01 -0.350438D-01 -0.271309D+00
      7 -0.231642D-01  0.130384D-01 -0.164093D-01 -0.174725D+00  0.412497D-01
      8 -0.639086D-02  0.415739D-02 -0.392123D-02  0.378592D-01 -0.991368D-01
      9  0.156783D-01 -0.805601D-02  0.100092D-01 -0.351996D-01  0.462849D-01
     10 -0.623392D-01 -0.304421D-01 -0.134241D-02 -0.564472D-02 -0.353430D-01
     11 -0.286295D-01 -0.324627D+00  0.273475D-01 -0.138512D-02 -0.569176D-02
     12  0.383688D-03  0.282512D-01 -0.565802D-01  0.447788D-02  0.184050D-01
     13 -0.211724D+00  0.705038D-01 -0.118836D+00 -0.265027D-01  0.160605D-01
     14  0.725921D-01 -0.945932D-01  0.574279D-01 -0.760269D-02  0.303717D-02
     15 -0.121252D+00  0.581405D-01 -0.149184D+00  0.165276D-01 -0.832826D-02
     16 -0.567421D-01  0.128243D-01  0.206147D-01 -0.913364D-02  0.104303D-01
     17  0.722666D-02 -0.100501D+00 -0.964379D-01 -0.112341D-02  0.520371D-02
     18  0.116256D-01 -0.101356D+00 -0.268747D+00  0.833416D-02 -0.156270D-02
     19  0.617910D-04 -0.257818D-01  0.156658D-01 -0.666584D-01 -0.207182D-01
     20  0.320475D-02  0.893783D-04  0.429400D-03 -0.206046D-01 -0.248539D+00
     21 -0.113646D-02  0.113695D-01 -0.292824D-02  0.194141D-01  0.164693D+00
     22  0.170551D-02 -0.384808D-03  0.518948D-03 -0.113262D-01 -0.644404D-02
     23 -0.938209D-03  0.274548D-03 -0.205934D-03  0.541412D-02  0.650013D-02
     24  0.742217D-04  0.197438D-03  0.594677D-03 -0.851322D-02  0.684039D-03
     25 -0.299233D-02  0.405292D-02 -0.384017D-02 -0.267513D-01 -0.879781D-02
     26  0.162122D-02 -0.111462D-02  0.196682D-02  0.148132D-01  0.333947D-02
     27 -0.232332D-02  0.149149D-02 -0.103866D-02 -0.172109D-01 -0.393204D-02
     28  0.188466D-02  0.102832D-02  0.750734D-03  0.275536D-02  0.336228D-01
     29 -0.544908D-03  0.521534D-03 -0.511222D-03 -0.612641D-03 -0.143426D-01
     30  0.754660D-03 -0.618696D-03  0.286559D-03 -0.983472D-04  0.182002D-01
                6             7             8             9            10 
      6  0.334902D+00
      7 -0.295063D-01  0.555217D+00
      8  0.415210D-01  0.405261D-01  0.583578D+00
      9 -0.922992D-01 -0.592176D-01 -0.971624D-02  0.564056D+00
     10  0.987788D-02  0.165457D-02 -0.132537D-02 -0.884714D-03  0.665543D-01
     11  0.447372D-02  0.249786D-03  0.715555D-03 -0.319662D-03  0.339434D-01
     12 -0.583857D-02 -0.910274D-03 -0.389154D-03  0.322624D-03 -0.646111D-02
     13 -0.199643D-01 -0.406204D-02 -0.327586D-02  0.425737D-02  0.404209D-02
     14 -0.603481D-02 -0.838502D-03  0.979900D-04  0.100520D-02  0.299607D-01
     15  0.103064D-01  0.267708D-02  0.961658D-03 -0.118155D-02 -0.126867D-02
     16  0.342152D-01  0.191876D-02 -0.205369D-04 -0.581825D-03  0.589348D-03
     17  0.955098D-02  0.525226D-03  0.479282D-04 -0.876312D-04  0.257011D-02
     18 -0.142222D-01 -0.515799D-04  0.208555D-03  0.608045D-03 -0.111001D-02
     19  0.206859D-01  0.509649D-02  0.247437D-01 -0.152085D-01 -0.480260D-02
     20  0.175096D+00 -0.442718D-02 -0.522951D-02  0.428031D-02 -0.955578D-03
     21 -0.130222D+00  0.365782D-02  0.102250D-01 -0.264410D-02  0.128925D-02
     22 -0.309857D-01 -0.657633D-01 -0.238182D-01 -0.476725D-01 -0.164617D-03
     23  0.174532D-01 -0.180924D-01 -0.927916D-01 -0.878015D-01  0.196740D-03
     24 -0.133260D-01 -0.401179D-01 -0.946182D-01 -0.267435D+00  0.000000D+00
     25  0.186967D-01 -0.232732D+00 -0.345607D-01  0.130879D+00  0.535925D-03
     26 -0.110055D-01 -0.366574D-01 -0.680799D-01  0.281218D-01  0.308481D-03
     27  0.102527D-01  0.133390D+00  0.281864D-01 -0.154688D+00  0.131401D-03
     28 -0.860561D-02 -0.634394D-01 -0.337376D-01  0.795038D-02 -0.425128D-03
     29  0.671364D-02 -0.355737D-01 -0.323359D+00  0.262888D-01  0.108656D-02
     30 -0.558779D-02  0.648801D-02  0.275424D-01 -0.567482D-01 -0.232459D-03
               11            12            13            14            15 
     11  0.358666D+00
     12 -0.316679D-01  0.610086D-01
     13 -0.981353D-03  0.365956D-02  0.234882D+00
     14 -0.124017D-01  0.233336D-01 -0.805025D-01  0.964150D-01
     15  0.946595D-03 -0.242470D-02  0.130554D+00 -0.649039D-01  0.162560D+00
     16 -0.114745D-02 -0.406155D-02  0.282615D-02 -0.136060D-01 -0.272281D-01
     17 -0.177984D-01 -0.378362D-01 -0.164492D-02  0.621246D-02  0.136475D-01
     18  0.837653D-03  0.365182D-02  0.993443D-03 -0.100827D-01 -0.213399D-01
     19 -0.122146D-02  0.307475D-02  0.154030D-02  0.253659D-03 -0.900473D-03
     20  0.131365D-03  0.578317D-03 -0.728606D-03  0.344293D-03 -0.321517D-03
     21 -0.121325D-02 -0.400426D-03  0.106004D-03 -0.801209D-03  0.909287D-03
     22 -0.167438D-04 -0.122544D-03  0.842174D-04  0.296988D-03  0.303527D-03
     23 -0.820488D-04 -0.225432D-03 -0.143436D-03 -0.875799D-04  0.485184D-04
     24 -0.363007D-04 -0.181889D-04 -0.221890D-03  0.143998D-03  0.192316D-03
     25  0.119448D-04 -0.200378D-03 -0.154175D-02 -0.235181D-03  0.735702D-03
     26  0.419366D-03 -0.412223D-04  0.733324D-03  0.474298D-03 -0.196706D-03
     27 -0.290350D-04 -0.145637D-03 -0.719680D-03 -0.821416D-05  0.308475D-03
     28 -0.823485D-03  0.159967D-03  0.455034D-03 -0.318574D-03 -0.148290D-03
     29  0.668563D-03 -0.408221D-03 -0.209724D-04  0.501255D-03  0.562395D-05
     30 -0.339392D-03  0.424683D-03  0.171564D-03 -0.797364D-04 -0.146635D-03
               16            17            18            19            20 
     16  0.624468D-01
     17 -0.767932D-02  0.107674D+00
     18 -0.219548D-01  0.111986D+00  0.299953D+00
     19 -0.902222D-03 -0.210056D-04  0.978767D-03  0.689648D-01
     20 -0.529828D-03 -0.791029D-03  0.238785D-03  0.210814D-01  0.255280D+00
     21  0.167291D-03 -0.598485D-03 -0.563827D-03 -0.214296D-01 -0.181475D+00
     22 -0.840204D-03  0.204874D-03  0.936839D-03 -0.792662D-03  0.534587D-03
     23  0.860052D-05  0.388443D-04 -0.325863D-03  0.573461D-05 -0.926049D-03
     24 -0.959186D-03 -0.962215D-04  0.486356D-03 -0.887470D-03  0.455171D-03
     25  0.377057D-04  0.114071D-03  0.253675D-03  0.159239D-02  0.410714D-03
     26 -0.325577D-03 -0.422574D-04  0.927212D-04 -0.578988D-03  0.306022D-03
     27 -0.280428D-03  0.117156D-03  0.193505D-03  0.780267D-03 -0.539490D-03
     28 -0.200643D-03 -0.172275D-03 -0.608465D-05 -0.409989D-02  0.201430D-02
     29  0.455531D-04 -0.440148D-04 -0.360867D-04  0.223688D-02 -0.664971D-03
     30  0.686686D-04 -0.244730D-03 -0.201970D-04 -0.275937D-02  0.125816D-02
               21            22            23            24            25 
     21  0.135799D+00
     22 -0.300217D-03  0.708476D-01
     23 -0.541764D-03  0.194436D-01  0.100917D+00
     24 -0.538333D-03  0.532695D-01  0.102482D+00  0.298309D+00
     25 -0.309527D-03  0.714198D-02  0.170552D-02 -0.400178D-02  0.258322D+00
     26 -0.741388D-03  0.132275D-01  0.245805D-02 -0.977085D-02  0.384721D-01
     27  0.895463D-03  0.291361D-01  0.671475D-02 -0.219014D-01 -0.144305D+00
     28 -0.145868D-02 -0.892307D-03 -0.760020D-02  0.135692D-02 -0.361201D-02
     29 -0.916012D-03 -0.304371D-02 -0.163012D-01  0.558760D-03 -0.117361D-02
     30 -0.306791D-03 -0.508393D-02 -0.375982D-01  0.363622D-02  0.209229D-02
               26            27            28            29            30 
     26  0.669760D-01
     27 -0.326334D-01  0.168560D+00
     28 -0.316138D-01  0.140174D-02  0.675744D-01
     29 -0.473646D-02  0.632460D-03  0.376006D-01  0.357757D+00
     30  0.242077D-01 -0.243584D-02 -0.140109D-02 -0.323277D-01  0.608980D-01
 Final forces over variables, Energy=-1.16986089D+02:
  5.98084142D-06-1.41887447D-06-5.16569377D-06-1.43840817D-07
 -7.89882908D-06-3.63131778D-06 6.29876508D-07 3.15711865D-06
  7.82318784D-06 6.67531515D-07 2.46022662D-06-1.18173543D-05
  3.82286460D-06 2.17898658D-06 7.29490480D-07-1.28574499D-06
  5.13983789D-06-2.11561555D-06-1.19248949D-06 2.07979819D-06
  2.09380176D-06 2.36002191D-06 2.21551321D-06 1.44740852D-07
 -7.86052768D-07-2.63669709D-06 1.41337252D-07-2.71082151D-06
 -9.57724913D-07 1.35881300D-07
 Leave Link  716 at Sun May 22 09:08:54 2022, MaxMem=   939524096 cpu:         0.1
 (Enter /Local/ce_dana/g09/l103.exe)

 GradGradGradGradGradGradGradGradGradGradGradGradGradGradGradGradGradGrad
 Berny optimization.
 Search for a local minimum.
 Step number   1 out of a maximum of    2
 All quantities printed in internal units (Hartrees-Bohrs-Radians)
 Second derivative matrix not updated -- analytic derivatives used.
 ITU=  0
     Eigenvalues ---    0.00061   0.00100   0.01023   0.01334   0.05348
     Eigenvalues ---    0.06669   0.06915   0.08342   0.11968   0.12442
     Eigenvalues ---    0.13071   0.13243   0.15971   0.18663   0.18869
     Eigenvalues ---    0.26413   0.41305   0.58476   0.73946   0.75587
     Eigenvalues ---    0.77424   0.83199   0.83380   1.01468
 Angle between quadratic step and forces=  81.18 degrees.
 ClnCor:  largest displacement from symmetrization is 1.42D-08 for atom    10.
 Linear search not attempted -- first point.
 ClnCor:  largest displacement from symmetrization is 3.94D-15 for atom     7.
 TrRot= -0.000001 -0.000005 -0.000007  0.000000  0.000001  0.000000
 Variable       Old X    -DE/DX   Delta X   Delta X   Delta X     New X
                                 (Linear)    (Quad)   (Total)
    X1        2.46922   0.00001   0.00000  -0.00006  -0.00006   2.46916
    Y1        0.28542   0.00000   0.00000  -0.00008  -0.00008   0.28534
    Z1        0.61851   0.00000   0.00000  -0.00010  -0.00011   0.61840
    X2       -0.06860  -0.00000   0.00000   0.00002   0.00002  -0.06859
    Y2       -0.29912  -0.00001   0.00000   0.00013   0.00013  -0.29899
    Z2        1.77405   0.00000   0.00000   0.00015   0.00015   1.77420
    X3       -2.41516  -0.00001   0.00000   0.00004   0.00004  -2.41513
    Y3        0.88252   0.00000   0.00000  -0.00009  -0.00009   0.88243
    Z3        0.67184   0.00000   0.00000  -0.00010  -0.00011   0.67174
    X4        2.71731  -0.00000   0.00000   0.00031   0.00031   2.71763
    Y4        2.31085   0.00000   0.00000  -0.00005  -0.00006   2.31079
    Z4        0.39610   0.00000   0.00000   0.00040   0.00039   0.39649
    X5        4.00300  -0.00001   0.00000  -0.00004  -0.00004   4.00295
    Y5       -0.42506   0.00000   0.00000  -0.00071  -0.00071  -0.42578
    Z5        1.77472  -0.00000   0.00000  -0.00055  -0.00056   1.77416
    X6        2.64885  -0.00000   0.00000  -0.00062  -0.00062   2.64823
    Y6       -0.56187  -0.00000   0.00000   0.00040   0.00040  -0.56147
    Z6       -1.25108  -0.00000   0.00000  -0.00038  -0.00038  -1.25146
    X7       -0.25753   0.00000   0.00000   0.00012   0.00012  -0.25741
    Y7       -1.94901   0.00001   0.00000   0.00087   0.00087  -1.94815
    Z7        2.94313   0.00000   0.00000   0.00117   0.00117   2.94430
    X8       -2.83377   0.00000   0.00000   0.00069   0.00069  -2.83308
    Y8        0.10837  -0.00000   0.00000   0.00024   0.00024   0.10861
    Z8       -1.19121  -0.00000   0.00000  -0.00039  -0.00040  -1.19161
    X9       -4.04968   0.00001   0.00000  -0.00014  -0.00014  -4.04982
    Y9        0.55936  -0.00000   0.00000  -0.00070  -0.00070   0.55866
    Z9        1.86265  -0.00000   0.00000  -0.00055  -0.00055   1.86210
   X10       -2.17282   0.00000   0.00000  -0.00031  -0.00031  -2.17313
   Y10        2.90866   0.00000   0.00000   0.00002   0.00002   2.90867
   Z10        0.44950   0.00000   0.00000   0.00041   0.00040   0.44990
         Item               Value     Threshold  Converged?
 Maximum Force            0.000012     0.000450     YES
 RMS     Force            0.000004     0.000300     YES
 Maximum Displacement     0.001167     0.001800     YES
 RMS     Displacement     0.000437     0.001200     YES
 Predicted change in Energy=-3.883729D-09
 Optimization completed.
    -- Stationary point found.
 GradGradGradGradGradGradGradGradGradGradGradGradGradGradGradGradGradGrad

 Leave Link  103 at Sun May 22 09:08:54 2022, MaxMem=   939524096 cpu:         0.0
 (Enter /Local/ce_dana/g09/l9999.exe)

 Test job not archived.
 1\1\GINC-TECH-WN168\Freq\UHF\3-21G\C3H7(2)\ALONGD\22-May-2022\0\\#P gu
 ess=read uhf/3-21g freq IOp(7/33=1) scf=(tight, direct) integral=(grid
 =ultrafine, Acc2E=12) IOp(2/9=2000) scf=xqc\\iC3H7\\0,2\C,1.306654,0.1
 51038,0.327302\C,-0.0363030313,-0.1582879962,0.9387870003\C,-1.2780499
 116,0.4670120357,0.3555249485\H,1.43794,1.222848,0.209608\H,2.118295,-
 0.224934,0.939142\H,1.40171,-0.297327,-0.662041\H,-0.1362804586,-1.031
 3729439,1.557437005\H,-1.4995660181,0.0573472387,-0.6303613313\H,-2.14
 29970266,0.2959990295,0.9856719815\H,-1.1498077587,1.5391941389,0.2378
 641849\\Version=ES64L-G09RevD.01\State=2-A'\HF=-116.9860891\S2=0.76460
 1\S2-1=0.\S2A=0.750171\RMSD=4.798e-09\RMSF=3.859e-06\ZeroPoint=0.09445
 32\Thermal=0.099455\Dipole=-0.006194,-0.0433764,-0.081635\DipoleDeriv=
 -0.0315417,0.0024991,0.0185776,0.0327876,0.0657891,0.0551762,0.0373544
 ,0.0520875,0.0842203,0.1569433,-0.018104,-0.031079,-0.0186846,0.027195
 3,-0.2299789,-0.0245821,-0.1768294,-0.1120294,-0.0347002,0.0235893,-0.
 002116,-0.0066751,0.0680823,0.0581411,-0.0211636,0.0590151,0.0850856,0
 .0582893,-0.0070134,0.0134275,-0.0494942,-0.1552041,0.0301764,0.015448
 2,0.0247682,0.0692899,-0.1007401,0.0557485,-0.0800559,0.0650673,0.0602
 213,0.047248,-0.0998627,0.0458196,0.0070241,0.0334806,-0.0029303,0.008
 5043,0.003402,0.0336842,-0.0894583,0.0563018,-0.0875119,-0.1314303,-0.
 0562139,0.001117,0.0200102,0.0016532,-0.0567783,0.1537454,0.0140073,0.
 1046399,0.054717,0.0310359,0.0015567,-0.0332985,-0.0049417,0.0341922,-
 0.0842537,-0.0792365,-0.0709884,-0.1294936,-0.1153503,-0.0108985,0.091
 686,-0.0201323,0.0790025,0.0272028,0.110541,0.0208454,0.0028531,0.0587
 969,-0.0455642,-0.0056559,-0.0029823,-0.1561849,0.0320008,-0.008808,0.
 0281537,0.0697631\Polar=32.2540981,-0.7060449,26.8094585,-0.394617,-2.
 6899451,26.3207104\PolarDeriv=-1.3560633,1.2596619,-0.3045895,-1.80729
 78,0.2100865,-1.2450365,1.7816609,-2.3752003,-5.1501234,0.5991229,1.48
 18536,2.3693329,-3.3980187,0.3501175,0.7095417,-2.9714958,2.3980251,3.
 3959119,-0.2142587,-0.8592345,0.7224365,1.4656501,-0.3581637,0.1642851
 ,-0.3824879,0.6630938,4.1442342,-0.3524128,-1.5528521,1.514663,2.84519
 82,-0.5148845,-1.4354321,0.0265495,0.5129536,1.1026177,2.2817874,0.989
 2412,-1.6175366,-1.7373589,0.6101383,1.9297593,1.980625,0.2850091,-5.6
 415644,0.2086973,1.450086,1.9894843,-3.2159427,0.6556414,0.6465862,3.6
 436031,1.5812831,3.216739,0.983733,2.5668827,0.5685237,0.1781754,-0.08
 23347,0.0895543,1.0121338,1.8356078,7.7001708,-0.3469471,-0.7953529,0.
 0335011,0.4409015,-0.1978947,-0.2650999,0.9639609,1.9122732,-0.9891773
 ,6.7153343,-1.6938829,0.4654521,2.7877228,-0.3065816,0.7687832,-1.3903
 674,2.5262681,-1.0298187,-0.2841707,1.2418387,-0.734479,2.3157725,-0.3
 256226,0.2399701,2.8316858,-1.3530171,2.710162,1.4115987,-1.4229261,0.
 0686417,-2.3543911,0.0622155,0.5979445,-0.9194956,0.9926496,-1.5542231
 ,0.3204502,-2.7488515,-1.5487279,-0.891404,0.3026516,-0.7173518,2.1894
 419,-2.1615942,-7.3041186,-0.4194963,-1.3870821,-0.3645173,0.8503802,0
 .2637894,-0.2050113,-0.8760953,-0.4093614,-5.8321289,0.2690268,3.10595
 18,-1.8113455,0.1566844,0.1512914,1.5064017,-0.3185339,-2.8006504,3.14
 24154,-2.4119084,-1.1644154,0.2378972,-2.4981783,-0.1375725,-1.0031218
 ,-0.911231,-0.8231359,-1.1318279,-0.3950451,-2.6147167,-1.3369374,-1.0
 903225,-0.2304114,-0.585962,-2.7269935,-1.5520869,-7.179206,-7.374366,
 -0.5663266,0.0014233,2.907937,-0.0881316,-0.9872432,-0.765333,-2.04981
 04,0.1284362,-0.1037725,1.2412109,-0.5239386,2.37268,-0.1962768,0.2118
 51,-3.1277187,-0.6284569,2.8594634,0.383643,2.2780806,0.2222662,0.2073
 615,-0.1734453,-0.109914,0.4705845,-0.6451189,8.3668476,0.0850511,-0.8
 091678,0.0484469,0.4644479,0.0053885,-0.3105038,-0.510498,2.0912704,-0
 .9548084\HyperPolar=-2.1067085,-6.9886397,6.579297,37.8218374,20.17729
 65,-2.4275671,3.1869862,-5.1841259,-36.0933898,-29.6368211\PG=CS [SG(C
 1H1),X(C2H6)]\NImag=0\\0.54029464,-0.02983935,0.60100474,0.05556548,-0
 .02295995,0.56155144,-0.18698518,-0.01499977,0.04731214,0.50497214,-0.
 01830185,-0.08521167,0.03686470,-0.01175829,0.43484155,0.04063016,0.03
 354049,-0.09396458,-0.03504384,-0.27130903,0.33490165,-0.02316417,0.01
 303844,-0.01640927,-0.17472536,0.04124966,-0.02950633,0.55521677,-0.00
 639086,0.00415739,-0.00392123,0.03785924,-0.09913681,0.04152096,0.0405
 2611,0.58357770,0.01567832,-0.00805601,0.01000924,-0.03519960,0.046284
 95,-0.09229924,-0.05921761,-0.00971624,0.56405634,-0.06233921,-0.03044
 208,-0.00134241,-0.00564472,-0.03534301,0.00987788,0.00165457,-0.00132
 537,-0.00088471,0.06655435,-0.02862953,-0.32462692,0.02734749,-0.00138
 512,-0.00569176,0.00447372,0.00024979,0.00071556,-0.00031966,0.0339434
 1,0.35866598,0.00038369,0.02825116,-0.05658017,0.00447788,0.01840503,-
 0.00583857,-0.00091027,-0.00038915,0.00032262,-0.00646111,-0.03166785,
 0.06100858,-0.21172362,0.07050383,-0.11883598,-0.02650271,0.01606049,-
 0.01996434,-0.00406204,-0.00327586,0.00425737,0.00404209,-0.00098135,0
 .00365956,0.23488234,0.07259206,-0.09459323,0.05742787,-0.00760269,0.0
 0303717,-0.00603481,-0.00083850,0.00009799,0.00100520,0.02996073,-0.01
 240170,0.02333358,-0.08050250,0.09641505,-0.12125232,0.05814053,-0.149
 18357,0.01652760,-0.00832826,0.01030639,0.00267708,0.00096166,-0.00118
 155,-0.00126867,0.00094660,-0.00242470,0.13055396,-0.06490393,0.162559
 94,-0.05674208,0.01282428,0.02061473,-0.00913364,0.01043027,0.03421519
 ,0.00191876,-0.00002054,-0.00058183,0.00058935,-0.00114745,-0.00406155
 ,0.00282615,-0.01360599,-0.02722812,0.06244682,0.00722666,-0.10050112,
 -0.09643793,-0.00112341,0.00520371,0.00955098,0.00052523,0.00004793,-0
 .00008763,0.00257011,-0.01779844,-0.03783619,-0.00164492,0.00621246,0.
 01364748,-0.00767932,0.10767389,0.01162558,-0.10135591,-0.26874667,0.0
 0833416,-0.00156270,-0.01422218,-0.00005158,0.00020856,0.00060805,-0.0
 0111001,0.00083765,0.00365182,0.00099344,-0.01008274,-0.02133995,-0.02
 195478,0.11198555,0.29995306,0.00006179,-0.02578178,0.01566579,-0.0666
 5840,-0.02071819,0.02068586,0.00509649,0.02474371,-0.01520854,-0.00480
 260,-0.00122146,0.00307475,0.00154030,0.00025366,-0.00090047,-0.000902
 22,-0.00002101,0.00097877,0.06896481,0.00320475,0.00008938,0.00042940,
 -0.02060460,-0.24853916,0.17509635,-0.00442718,-0.00522951,0.00428031,
 -0.00095558,0.00013137,0.00057832,-0.00072861,0.00034429,-0.00032152,-
 0.00052983,-0.00079103,0.00023878,0.02108143,0.25527966,-0.00113646,0.
 01136949,-0.00292824,0.01941410,0.16469312,-0.13022233,0.00365782,0.01
 022497,-0.00264410,0.00128925,-0.00121325,-0.00040043,0.00010600,-0.00
 080121,0.00090929,0.00016729,-0.00059849,-0.00056383,-0.02142958,-0.18
 147548,0.13579931,0.00170551,-0.00038481,0.00051895,-0.01132622,-0.006
 44404,-0.03098569,-0.06576327,-0.02381818,-0.04767249,-0.00016462,-0.0
 0001674,-0.00012254,0.00008422,0.00029699,0.00030353,-0.00084020,0.000
 20487,0.00093684,-0.00079266,0.00053459,-0.00030022,0.07084757,-0.0009
 3821,0.00027455,-0.00020593,0.00541412,0.00650013,0.01745319,-0.018092
 43,-0.09279164,-0.08780147,0.00019674,-0.00008205,-0.00022543,-0.00014
 344,-0.00008758,0.00004852,0.00000860,0.00003884,-0.00032586,0.0000057
 3,-0.00092605,-0.00054176,0.01944357,0.10091692,0.00007422,0.00019744,
 0.00059468,-0.00851322,0.00068404,-0.01332602,-0.04011789,-0.09461825,
 -0.26743495,0.00000084,-0.00003630,-0.00001819,-0.00022189,0.00014400,
 0.00019232,-0.00095919,-0.00009622,0.00048636,-0.00088747,0.00045517,-
 0.00053833,0.05326948,0.10248218,0.29830928,-0.00299233,0.00405292,-0.
 00384017,-0.02675129,-0.00879781,0.01869672,-0.23273229,-0.03456069,0.
 13087871,0.00053593,0.00001194,-0.00020038,-0.00154175,-0.00023518,0.0
 0073570,0.00003771,0.00011407,0.00025367,0.00159239,0.00041071,-0.0003
 0953,0.00714198,0.00170552,-0.00400178,0.25832167,0.00162122,-0.001114
 62,0.00196682,0.01481316,0.00333947,-0.01100548,-0.03665741,-0.0680798
 8,0.02812179,0.00030848,0.00041937,-0.00004122,0.00073332,0.00047430,-
 0.00019671,-0.00032558,-0.00004226,0.00009272,-0.00057899,0.00030602,-
 0.00074139,0.01322746,0.00245805,-0.00977085,0.03847213,0.06697602,-0.
 00232332,0.00149149,-0.00103866,-0.01721089,-0.00393204,0.01025267,0.1
 3339007,0.02818636,-0.15468826,0.00013140,-0.00002904,-0.00014564,-0.0
 0071968,-0.00000821,0.00030848,-0.00028043,0.00011716,0.00019350,0.000
 78027,-0.00053949,0.00089546,0.02913607,0.00671475,-0.02190137,-0.1443
 0525,-0.03263342,0.16855965,0.00188466,0.00102832,0.00075073,0.0027553
 6,0.03362276,-0.00860561,-0.06343944,-0.03373760,0.00795038,-0.0004251
 3,-0.00082348,0.00015997,0.00045503,-0.00031857,-0.00014829,-0.0002006
 4,-0.00017227,-0.00000608,-0.00409989,0.00201430,-0.00145868,-0.000892
 31,-0.00760020,0.00135692,-0.00361201,-0.03161382,0.00140174,0.0675743
 7,-0.00054491,0.00052153,-0.00051122,-0.00061264,-0.01434263,0.0067136
 4,-0.03557371,-0.32335870,0.02628876,0.00108656,0.00066856,-0.00040822
 ,-0.00002097,0.00050126,0.00000562,0.00004555,-0.00004401,-0.00003609,
 0.00223688,-0.00066497,-0.00091601,-0.00304371,-0.01630118,0.00055876,
 -0.00117361,-0.00473646,0.00063246,0.03760057,0.35775658,0.00075466,-0
 .00061870,0.00028656,-0.00009835,0.01820019,-0.00558779,0.00648801,0.0
 2754237,-0.05674817,-0.00023246,-0.00033939,0.00042468,0.00017156,-0.0
 0007974,-0.00014663,0.00006867,-0.00024473,-0.00002020,-0.00275937,0.0
 0125816,-0.00030679,-0.00508393,-0.03759818,0.00363622,0.00209229,0.02
 420773,-0.00243584,-0.00140109,-0.03232772,0.06089795\\-0.00000598,-0.
 00000246,-0.00000209,0.00000142,0.00001182,-0.00000236,0.00000517,-0.0
 0000382,-0.00000222,0.00000014,-0.00000218,-0.00000014,0.00000790,-0.0
 0000073,0.00000079,0.00000363,0.00000129,0.00000264,-0.00000063,-0.000
 00514,-0.00000014,-0.00000316,0.00000212,0.00000271,-0.00000782,0.0000
 0119,0.00000096,-0.00000067,-0.00000208,-0.00000014\\\@


 THE MOST BEAUTIFUL EXPERIENCE WE CAN HAVE IS THE MYSTERIOUS.
 IT IS THE FUNDAMENTAL EMOTION WHICH STANDS AT AT THE CRADLE 
 OF TRUE ART AND TRUE SCIENCE.

                                    -- ALBERT EINSTEIN
 Job cpu time:       0 days  0 hours  0 minutes 16.5 seconds.
 File lengths (MBytes):  RWF=      6 Int=      0 D2E=      0 Chk=      1 Scr=      1
 Normal termination of Gaussian 09 at Sun May 22 09:08:54 2022.
