 Entering Gaussian System, Link 0=/Local/ce_dana/g09/g09
 Initial command:
 /Local/ce_dana/g09/l1.exe "/storage/ce_dana/alongd/scratch/g09/Gau-44350.inp" -scrdir="/storage/ce_dana/alongd/scratch/g09/"
 Entering Link 1 = /Local/ce_dana/g09/l1.exe PID=     44351.
  
 Copyright (c) 1988,1990,1992,1993,1995,1998,2003,2009,2013,
            Gaussian, Inc.  All Rights Reserved.
  
 This is part of the Gaussian(R) 09 program.  It is based on
 the Gaussian(R) 03 system (copyright 2003, Gaussian, Inc.),
 the Gaussian(R) 98 system (copyright 1998, Gaussian, Inc.),
 the Gaussian(R) 94 system (copyright 1995, Gaussian, Inc.),
 the Gaussian 92(TM) system (copyright 1992, Gaussian, Inc.),
 the Gaussian 90(TM) system (copyright 1990, Gaussian, Inc.),
 the Gaussian 88(TM) system (copyright 1988, Gaussian, Inc.),
 the Gaussian 86(TM) system (copyright 1986, Carnegie Mellon
 University), and the Gaussian 82(TM) system (copyright 1983,
 Carnegie Mellon University). Gaussian is a federally registered
 trademark of Gaussian, Inc.
  
 This software contains proprietary and confidential information,
 including trade secrets, belonging to Gaussian, Inc.
  
 This software is provided under written license and may be
 used, copied, transmitted, or stored only in accord with that
 written license.
  
 The following legend is applicable only to US Government
 contracts under FAR:
  
                    RESTRICTED RIGHTS LEGEND
  
 Use, reproduction and disclosure by the US Government is
 subject to restrictions as set forth in subparagraphs (a)
 and (c) of the Commercial Computer Software - Restricted
 Rights clause in FAR 52.227-19.
  
 Gaussian, Inc.
 340 Quinnipiac St., Bldg. 40, Wallingford CT 06492
  
  
 ---------------------------------------------------------------
 Warning -- This program may not be used in any manner that
 competes with the business of Gaussian, Inc. or will provide
 assistance to any competitor of Gaussian, Inc.  The licensee
 of this program is prohibited from giving any competitor of
 Gaussian, Inc. access to this program.  By using this program,
 the user acknowledges that Gaussian, Inc. is engaged in the
 business of creating and licensing software in the field of
 computational chemistry and represents and warrants to the
 licensee that it is not a competitor of Gaussian, Inc. and that
 it will not use this program in any manner prohibited above.
 ---------------------------------------------------------------
  

 Cite this work as:
 Gaussian 09, Revision D.01,
 M. J. Frisch, G. W. Trucks, H. B. Schlegel, G. E. Scuseria, 
 M. A. Robb, J. R. Cheeseman, G. Scalmani, V. Barone, B. Mennucci, 
 G. A. Petersson, H. Nakatsuji, M. Caricato, X. Li, H. P. Hratchian, 
 A. F. Izmaylov, J. Bloino, G. Zheng, J. L. Sonnenberg, M. Hada, 
 M. Ehara, K. Toyota, R. Fukuda, J. Hasegawa, M. Ishida, T. Nakajima, 
 Y. Honda, O. Kitao, H. Nakai, T. Vreven, J. A. Montgomery, Jr., 
 J. E. Peralta, F. Ogliaro, M. Bearpark, J. J. Heyd, E. Brothers, 
 K. N. Kudin, V. N. Staroverov, T. Keith, R. Kobayashi, J. Normand, 
 K. Raghavachari, A. Rendell, J. C. Burant, S. S. Iyengar, J. Tomasi, 
 M. Cossi, N. Rega, J. M. Millam, M. Klene, J. E. Knox, J. B. Cross, 
 V. Bakken, C. Adamo, J. Jaramillo, R. Gomperts, R. E. Stratmann, 
 O. Yazyev, A. J. Austin, R. Cammi, C. Pomelli, J. W. Ochterski, 
 R. L. Martin, K. Morokuma, V. G. Zakrzewski, G. A. Voth, 
 P. Salvador, J. J. Dannenberg, S. Dapprich, A. D. Daniels, 
 O. Farkas, J. B. Foresman, J. V. Ortiz, J. Cioslowski, 
 and D. J. Fox, Gaussian, Inc., Wallingford CT, 2013.
 
 ******************************************
 Gaussian 09:  ES64L-G09RevD.01 24-Apr-2013
                22-May-2022 
 ******************************************
 %chk=check.chk
 %mem=7168mb
 %NProcShared=10
 Will use up to   10 processors via shared memory.
 ----------------------------------------------------------------------
 #P guess=read uhf/3-21g freq IOp(7/33=1) scf=(tight, direct) integral=
 (grid=ultrafine, Acc2E=12) IOp(2/9=2000) scf=xqc
 ----------------------------------------------------------------------
 1/10=4,30=1,38=1/1,3;
 2/9=2000,12=2,17=6,18=5,40=1/2;
 3/5=5,11=2,16=1,25=1,30=1,71=2,75=-5,116=2,140=1/1,2,3;
 4/5=1/1;
 5/5=2,8=3,13=1,32=2,38=6,87=12,98=1/2,8;
 8/6=4,10=90,11=11,87=12/1;
 10/13=10,15=4,87=12/2;
 11/6=3,8=1,9=11,15=111,16=1,87=12/1,2,10;
 10/6=1,87=12/2;
 6/7=2,8=2,9=2,10=2,18=1,28=1/1;
 7/8=1,10=1,25=1,33=1,87=12/1,2,3,16;
 1/10=4,30=1/3;
 99//99;
 Leave Link    1 at Sun May 22 09:08:51 2022, MaxMem=   939524096 cpu:         0.1
 (Enter /Local/ce_dana/g09/l101.exe)
 -----
 iC3H7
 -----
 Symbolic Z-matrix:
 Charge =  0 Multiplicity = 2
 C                     1.30665   0.15104   0.3273 
 C                    -0.0363   -0.15829   0.93879 
 C                    -1.27805   0.46701   0.35553 
 H                     1.43794   1.22285   0.20961 
 H                     2.1183   -0.22493   0.93914 
 H                     1.40171  -0.29733  -0.66204 
 H                    -0.13628  -1.03137   1.55744 
 H                    -1.49957   0.05735  -0.63036 
 H                    -2.143     0.296     0.98567 
 H                    -1.14981   1.53919   0.23786 
 
 NAtoms=     10 NQM=       10 NQMF=       0 NMMI=      0 NMMIF=      0
                NMic=       0 NMicF=      0.
                    Isotopes and Nuclear Properties:
 (Nuclear quadrupole moments (NQMom) in fm**2, nuclear magnetic moments (NMagM)
  in nuclear magnetons)

  Atom         1           2           3           4           5           6           7           8           9          10
 IAtWgt=          12          12          12           1           1           1           1           1           1           1
 AtmWgt=  12.0000000  12.0000000  12.0000000   1.0078250   1.0078250   1.0078250   1.0078250   1.0078250   1.0078250   1.0078250
 NucSpn=           0           0           0           1           1           1           1           1           1           1
 AtZEff=   0.0000000   0.0000000   0.0000000   0.0000000   0.0000000   0.0000000   0.0000000   0.0000000   0.0000000   0.0000000
 NQMom=    0.0000000   0.0000000   0.0000000   0.0000000   0.0000000   0.0000000   0.0000000   0.0000000   0.0000000   0.0000000
 NMagM=    0.0000000   0.0000000   0.0000000   2.7928460   2.7928460   2.7928460   2.7928460   2.7928460   2.7928460   2.7928460
 AtZNuc=   6.0000000   6.0000000   6.0000000   1.0000000   1.0000000   1.0000000   1.0000000   1.0000000   1.0000000   1.0000000
 Leave Link  101 at Sun May 22 09:08:51 2022, MaxMem=   939524096 cpu:         0.1
 (Enter /Local/ce_dana/g09/l103.exe)

 GradGradGradGradGradGradGradGradGradGradGradGradGradGradGradGradGradGrad
 Berny optimization.
 Initialization pass.
 Trust Radius=3.00D-01 FncErr=1.00D-07 GrdErr=1.00D-07
 Number of steps in this run=      2 maximum allowed number of steps=      2.
 GradGradGradGradGradGradGradGradGradGradGradGradGradGradGradGradGradGrad

 Leave Link  103 at Sun May 22 09:08:51 2022, MaxMem=   939524096 cpu:         0.0
 (Enter /Local/ce_dana/g09/l202.exe)
                          Input orientation:                          
 ---------------------------------------------------------------------
 Center     Atomic      Atomic             Coordinates (Angstroms)
 Number     Number       Type             X           Y           Z
 ---------------------------------------------------------------------
      1          6           0        1.306654    0.151038    0.327302
      2          6           0       -0.036303   -0.158288    0.938787
      3          6           0       -1.278050    0.467012    0.355525
      4          1           0        1.437940    1.222848    0.209608
      5          1           0        2.118295   -0.224934    0.939142
      6          1           0        1.401710   -0.297327   -0.662041
      7          1           0       -0.136280   -1.031373    1.557437
      8          1           0       -1.499566    0.057347   -0.630361
      9          1           0       -2.142997    0.295999    0.985672
     10          1           0       -1.149808    1.539194    0.237864
 ---------------------------------------------------------------------
                    Distance matrix (angstroms):
                    1          2          3          4          5
     1  C    0.000000
     2  C    1.507690   0.000000
     3  C    2.604099   1.507690   0.000000
     4  H    1.086216   2.147704   2.822974   0.000000
     5  H    1.083727   2.155629   3.514905   1.758174   0.000000
     6  H    1.090351   2.156354   2.966609   1.752717   1.755711
     7  H    2.234589   1.074710   2.234589   3.062078   2.473002
     8  H    2.966609   2.156354   1.090351   3.269997   3.953725
     9  H    3.514905   2.155629   1.083727   3.779475   4.293267
    10  H    2.822974   2.147704   1.086216   2.607166   3.779476
                    6          7          8          9         10
     6  H    0.000000
     7  H    2.798271   0.000000
     8  H    2.923046   2.798271   0.000000
     9  H    3.953725   2.473003   1.755711   0.000000
    10  H    3.269997   3.062079   1.752717   1.758174   0.000000
 Stoichiometry    C3H7(2)
 Framework group  CS[SG(CH),X(C2H6)]
 Deg. of freedom    13
 Full point group                 CS      NOp   2
 Largest Abelian subgroup         CS      NOp   2
 Largest concise Abelian subgroup CS      NOp   2
                         Standard orientation:                         
 ---------------------------------------------------------------------
 Center     Atomic      Atomic             Coordinates (Angstroms)
 Number     Number       Type             X           Y           Z
 ---------------------------------------------------------------------
      1          6           0       -0.012918   -0.205187   -1.302049
      2          6           0       -0.012918    0.554942   -0.000000
      3          6           0       -0.012918   -0.205187    1.302049
      4          1           0       -0.788815   -0.965349   -1.303583
      5          1           0       -0.181011    0.452753   -2.146634
      6          1           0        0.938490   -0.713378   -1.461523
      7          1           0        0.295186    1.584541   -0.000000
      8          1           0        0.938490   -0.713378    1.461523
      9          1           0       -0.181011    0.452753    2.146634
     10          1           0       -0.788815   -0.965349    1.303583
 ---------------------------------------------------------------------
 Rotational constants (GHZ):     36.8226643      8.3033237      7.4022272
 Leave Link  202 at Sun May 22 09:08:51 2022, MaxMem=   939524096 cpu:         0.0
 (Enter /Local/ce_dana/g09/l301.exe)
 Standard basis: 3-21G (6D, 7F)
 Ernie: Thresh=  0.10000D-02 Tol=  0.10000D-05 Strict=F.
 There are    24 symmetry adapted cartesian basis functions of A'  symmetry.
 There are    17 symmetry adapted cartesian basis functions of A"  symmetry.
 There are    24 symmetry adapted basis functions of A'  symmetry.
 There are    17 symmetry adapted basis functions of A"  symmetry.
    41 basis functions,    66 primitive gaussians,    41 cartesian basis functions
    13 alpha electrons       12 beta electrons
       nuclear repulsion energy        75.2951651855 Hartrees.
 IExCor=    0 DFT=F Ex=HF Corr=None ExCW=0 ScaHFX=  1.000000
 ScaDFX=  1.000000  1.000000  1.000000  1.000000 ScalE2=  1.000000  1.000000
 IRadAn=      5 IRanWt=     -1 IRanGd=            0 ICorTp=0 IEmpDi=  4
 NAtoms=   10 NActive=   10 NUniq=    6 SFac= 2.78D+00 NAtFMM=   60 NAOKFM=F Big=F
 Integral buffers will be    131072 words long.
 Raffenetti 2 integral format.
 Two-electron integral symmetry is turned on.
 Leave Link  301 at Sun May 22 09:08:51 2022, MaxMem=   939524096 cpu:         0.1
 (Enter /Local/ce_dana/g09/l302.exe)
 NPDir=0 NMtPBC=     1 NCelOv=     1 NCel=       1 NClECP=     1 NCelD=      1
         NCelK=      1 NCelE2=     1 NClLst=     1 CellRange=     0.0.
 One-electron integrals computed using PRISM.
 One-electron integral symmetry used in STVInt
 NBasis=    41 RedAO= T EigKep=  1.47D-02  NBF=    24    17
 NBsUse=    41 1.00D-06 EigRej= -1.00D+00 NBFU=    24    17
 Leave Link  302 at Sun May 22 09:08:51 2022, MaxMem=   939524096 cpu:         0.8
 (Enter /Local/ce_dana/g09/l303.exe)
 DipDrv:  MaxL=1.
 Leave Link  303 at Sun May 22 09:08:51 2022, MaxMem=   939524096 cpu:         0.1
 (Enter /Local/ce_dana/g09/l401.exe)
 Initial guess from the checkpoint file:  "check.chk"
 B after Tr=    -0.000000   -0.000000    0.000000
         Rot=   -0.000000    0.000000    1.000000    0.000000 Ang= 180.00 deg.
 Guess basis will be translated and rotated to current coordinates.
 JPrj=2 DoOrth=T DoCkMO=T.
 Initial guess orbital symmetries:
 Alpha Orbitals:
       Occupied  (A') (A") (A') (A') (A") (A') (A') (A') (A") (A")
                 (A") (A') (A')
       Virtual   (A') (A') (A") (A') (A") (A') (A") (A') (A") (A')
                 (A') (A") (A") (A') (A') (A") (A') (A") (A') (A')
                 (A") (A") (A') (A') (A") (A') (A') (A")
 Beta  Orbitals:
       Occupied  (A") (A') (A') (A') (A") (A') (A') (A') (A") (A")
                 (A") (A')
       Virtual   (A') (A') (A') (A") (A") (A') (A") (A') (A') (A")
                 (A') (A") (A') (A") (A') (A") (A') (A') (A") (A')
                 (A') (A") (A") (A') (A') (A") (A') (A") (A')
 The electronic state of the initial guess is 2-A'.
 Initial guess <Sx>= 0.0000 <Sy>= 0.0000 <Sz>= 0.5000 <S**2>= 0.7646 S= 0.5073
 Leave Link  401 at Sun May 22 09:08:52 2022, MaxMem=   939524096 cpu:         0.2
 (Enter /Local/ce_dana/g09/l502.exe)
 UHF open shell SCF:
 Using DIIS extrapolation, IDIIS=  1040.
 Integral symmetry usage will be decided dynamically.
 Keep R1 and R2 ints in memory in symmetry-blocked form, NReq=1201522.
 IVT=       11793 IEndB=       11793 NGot=   939524096 MDV=   939137695
 LenX=   939137695 LenY=   939135573
 Requested convergence on RMS density matrix=1.00D-08 within  64 cycles.
 Requested convergence on MAX density matrix=1.00D-06.
 Requested convergence on             energy=1.00D-06.
 No special actions if energy rises.
 FoFCou: FMM=F IPFlag=           0 FMFlag=           0 FMFlg1=           0
         NFxFlg=           0 DoJE=F BraDBF=F KetDBF=F FulRan=T
         wScrn=  0.000000 ICntrl=     600 IOpCl=  0 I1Cent=           0 NGrid=           0
         NMat0=    1 NMatS0=    861 NMatT0=    0 NMatD0=    1 NMtDS0=    0 NMtDT0=    0
 Petite list used in FoFCou.

 Cycle   1  Pass 1  IDiag  1:
 E= -116.986089068503    
 DIIS: error= 5.57D-08 at cycle   1 NSaved=   1.
 NSaved= 1 IEnMin= 1 EnMin= -116.986089068503     IErMin= 1 ErrMin= 5.57D-08
 ErrMax= 5.57D-08  0.00D+00 EMaxC= 1.00D-01 BMatC= 1.12D-12 BMatP= 1.12D-12
 IDIUse=1 WtCom= 1.00D+00 WtEn= 0.00D+00
 Coeff-Com:  0.100D+01
 Coeff:      0.100D+01
 Gap=     0.610 Goal=   None    Shift=    0.000
 Gap=     0.653 Goal=   None    Shift=    0.000
 RMSDP=1.30D-08 MaxDP=6.95D-08              OVMax= 1.79D-07

 Cycle   2  Pass 1  IDiag  1:
 E= -116.986089068503     Delta-E=       -0.000000000000 Rises=F Damp=F
 DIIS: error= 1.74D-08 at cycle   2 NSaved=   2.
 NSaved= 2 IEnMin= 2 EnMin= -116.986089068503     IErMin= 2 ErrMin= 1.74D-08
 ErrMax= 1.74D-08  0.00D+00 EMaxC= 1.00D-01 BMatC= 7.29D-14 BMatP= 1.12D-12
 IDIUse=1 WtCom= 1.00D+00 WtEn= 0.00D+00
 Coeff-Com: -0.996D-01 0.110D+01
 Coeff:     -0.996D-01 0.110D+01
 Gap=     0.610 Goal=   None    Shift=    0.000
 Gap=     0.653 Goal=   None    Shift=    0.000
 RMSDP=4.80D-09 MaxDP=2.98D-08 DE=-8.53D-14 OVMax= 9.26D-08

 SCF Done:  E(UHF) =  -116.986089069     A.U. after    2 cycles
            NFock=  2  Conv=0.48D-08     -V/T= 2.0018
 <Sx>= 0.0000 <Sy>= 0.0000 <Sz>= 0.5000 <S**2>= 0.7646 S= 0.5073
 <L.S>=  0.00000000000    
 KE= 1.167749059779D+02 PE=-4.220564026442D+02 EE= 1.130002424123D+02
 Annihilation of the first spin contaminant:
 S**2 before annihilation     0.7646,   after     0.7502
 Leave Link  502 at Sun May 22 09:08:52 2022, MaxMem=   939524096 cpu:         0.9
 (Enter /Local/ce_dana/g09/l508.exe)
 QCSCF skips out because SCF is already converged.
 Leave Link  508 at Sun May 22 09:08:52 2022, MaxMem=   939524096 cpu:         0.0
 (Enter /Local/ce_dana/g09/l801.exe)
 Range of M.O.s used for correlation:     1    41
 NBasis=    41 NAE=    13 NBE=    12 NFC=     0 NFV=     0
 NROrb=     41 NOA=    13 NOB=    12 NVA=    28 NVB=    29
 Leave Link  801 at Sun May 22 09:08:52 2022, MaxMem=   939524096 cpu:         0.1
 (Enter /Local/ce_dana/g09/l1002.exe)
 Minotr:  UHF open shell wavefunction.
          Direct CPHF calculation.
          Differentiating once with respect to electric field.
                with respect to dipole field.
          Electric field/nuclear overlap derivatives assumed to be zero.
          Using symmetry in CPHF.
          Requested convergence is 1.0D-08 RMS, and 1.0D-07 maximum.
          Secondary convergence is 1.0D-12 RMS, and 1.0D-12 maximum.
          NewPWx=F KeepS1=T KeepF1=T KeepIn=T MapXYZ=F SortEE=F KeepMc=T.
          MDV=     939523930 using IRadAn=       1.
 Keep R1 and R2 ints in memory in symmetry-blocked form, NReq=1195153.
 FoFCou: FMM=F IPFlag=           0 FMFlag=           0 FMFlg1=           0
         NFxFlg=           0 DoJE=F BraDBF=F KetDBF=F FulRan=T
         wScrn=  0.000000 ICntrl=     600 IOpCl=  0 I1Cent=           0 NGrid=           0
         NMat0=    1 NMatS0=    861 NMatT0=    0 NMatD0=    1 NMtDS0=    0 NMtDT0=    0
 Petite list used in FoFCou.
          Solving linear equations simultaneously, MaxMat=       0.
          There are     3 degrees of freedom in the 1st order CPHF.  IDoFFX=0 NUNeed=     3.
      3 vectors produced by pass  0 Test12= 2.37D-14 3.33D-08 XBig12= 1.35D+01 1.09D+00.
 AX will form     3 AO Fock derivatives at one time.
      3 vectors produced by pass  1 Test12= 2.37D-14 3.33D-08 XBig12= 2.95D-01 1.56D-01.
      3 vectors produced by pass  2 Test12= 2.37D-14 3.33D-08 XBig12= 1.53D-02 3.48D-02.
      3 vectors produced by pass  3 Test12= 2.37D-14 3.33D-08 XBig12= 5.68D-04 6.08D-03.
      3 vectors produced by pass  4 Test12= 2.37D-14 3.33D-08 XBig12= 1.97D-05 1.63D-03.
      3 vectors produced by pass  5 Test12= 2.37D-14 3.33D-08 XBig12= 4.83D-07 2.34D-04.
      3 vectors produced by pass  6 Test12= 2.37D-14 3.33D-08 XBig12= 1.05D-08 3.42D-05.
      3 vectors produced by pass  7 Test12= 2.37D-14 3.33D-08 XBig12= 4.01D-10 4.55D-06.
      3 vectors produced by pass  8 Test12= 2.37D-14 3.33D-08 XBig12= 7.42D-12 6.68D-07.
      3 vectors produced by pass  9 Test12= 2.37D-14 3.33D-08 XBig12= 1.89D-13 1.54D-07.
 InvSVY:  IOpt=1 It=  1 EMax= 8.88D-16
 Solved reduced A of dimension    30 with     3 vectors.
 End of Minotr F.D. properties file   721 does not exist.
 End of Minotr F.D. properties file   722 does not exist.
 End of Minotr F.D. properties file   788 does not exist.
 Leave Link 1002 at Sun May 22 09:08:52 2022, MaxMem=   939524096 cpu:         1.0
 (Enter /Local/ce_dana/g09/l1101.exe)
 Using compressed storage, NAtomX=    10.
 Will process     11 centers per pass.
 Leave Link 1101 at Sun May 22 09:08:52 2022, MaxMem=   939524096 cpu:         2.7
 (Enter /Local/ce_dana/g09/l1102.exe)
 Symmetrizing basis deriv contribution to polar:
 IMax=3 JMax=2 DiffMx= 0.00D+00
 Leave Link 1102 at Sun May 22 09:08:52 2022, MaxMem=   939524096 cpu:         0.1
 (Enter /Local/ce_dana/g09/l1110.exe)
 Forming Gx(P) for the SCF density, NAtomX=    10.
 Integral derivatives from FoFJK, PRISM(SPDF).
 Do as many integral derivatives as possible in FoFJK.
 G2DrvN: MDV=     939523912.
 G2DrvN: will do    11 centers at a time, making    1 passes.
 PxScal for G2LodP:  IOpCl= 1 ISclPx=1 IMOff=     1 NMtTot=     4 NTT=     861 ScalPx= 1.89D+00
 Calling FoFCou, ICntrl=  3107 FMM=F I1Cent=   0 AccDes= 1.00D-12.
 FoFJK:  IHMeth= 1 ICntrl=    3107 DoSepK=F KAlg= 0 I1Cent=   0 FoldK=F
 IRaf=         0 NMat=   1 IRICut=       1 DoRegI=T DoRafI=F ISym2E= 1.
 FoFCou: FMM=F IPFlag=           0 FMFlag=      100000 FMFlg1=           0
         NFxFlg=           0 DoJE=F BraDBF=F KetDBF=F FulRan=T
         wScrn=  0.000000 ICntrl=    3107 IOpCl=  1 I1Cent=           0 NGrid=           0
         NMat0=    1 NMatS0=      1 NMatT0=    0 NMatD0=    4 NMtDS0=    3 NMtDT0=    0
 Petite list used in FoFCou.
 End of G2Drv F.D. properties file   721 does not exist.
 End of G2Drv F.D. properties file   722 does not exist.
 End of G2Drv F.D. properties file   788 does not exist.
 Leave Link 1110 at Sun May 22 09:08:53 2022, MaxMem=   939524096 cpu:         0.9
 (Enter /Local/ce_dana/g09/l1002.exe)
 Minotr:  UHF open shell wavefunction.
          IDoAtm=1111111111
          Direct CPHF calculation.
          Differentiating once with respect to electric field.
                with respect to dipole field.
          Differentiating once with respect to nuclear coordinates.
          Using symmetry in CPHF.
          Requested convergence is 1.0D-08 RMS, and 1.0D-07 maximum.
          Secondary convergence is 1.0D-12 RMS, and 1.0D-12 maximum.
          NewPWx=T KeepS1=F KeepF1=F KeepIn=T MapXYZ=F SortEE=F KeepMc=T.
          MDV=     939523910 using IRadAn=       1.
 Keep R1 and R2 ints in memory in symmetry-blocked form, NReq=1195383.
 FoFCou: FMM=F IPFlag=           0 FMFlag=           0 FMFlg1=           0
         NFxFlg=           0 DoJE=F BraDBF=F KetDBF=F FulRan=T
         wScrn=  0.000000 ICntrl=     600 IOpCl=  0 I1Cent=           0 NGrid=           0
         NMat0=    1 NMatS0=    861 NMatT0=    0 NMatD0=    1 NMtDS0=    0 NMtDT0=    0
 Petite list used in FoFCou.
          Solving linear equations simultaneously, MaxMat=       0.
          There are    21 degrees of freedom in the 1st order CPHF.  IDoFFX=4 NUNeed=    21.
 Will reuse    3 saved solutions.
     18 vectors produced by pass  0 Test12= 3.39D-15 4.76D-09 XBig12= 8.11D-02 7.51D-02.
 AX will form    18 AO Fock derivatives at one time.
     18 vectors produced by pass  1 Test12= 3.39D-15 4.76D-09 XBig12= 2.71D-03 1.26D-02.
     18 vectors produced by pass  2 Test12= 3.39D-15 4.76D-09 XBig12= 5.85D-05 2.30D-03.
     18 vectors produced by pass  3 Test12= 3.39D-15 4.76D-09 XBig12= 1.18D-06 1.90D-04.
     18 vectors produced by pass  4 Test12= 3.39D-15 4.76D-09 XBig12= 1.86D-08 3.31D-05.
     18 vectors produced by pass  5 Test12= 3.39D-15 4.76D-09 XBig12= 2.14D-10 3.03D-06.
     18 vectors produced by pass  6 Test12= 3.39D-15 4.76D-09 XBig12= 2.53D-12 2.52D-07.
      7 vectors produced by pass  7 Test12= 3.39D-15 4.76D-09 XBig12= 2.46D-14 2.55D-08.
 InvSVY:  IOpt=1 It=  1 EMax= 3.33D-16
 Solved reduced A of dimension   133 with    21 vectors.
 FullF1:  Do perturbations    1 to    21.
 Isotropic polarizability for W=    0.000000       28.46 Bohr**3.
 FullF1:  Do perturbations    1 to     6.
 End of Minotr F.D. properties file   721 does not exist.
 End of Minotr F.D. properties file   722 does not exist.
 End of Minotr F.D. properties file   788 does not exist.
 Leave Link 1002 at Sun May 22 09:08:53 2022, MaxMem=   939524096 cpu:         2.0
 (Enter /Local/ce_dana/g09/l601.exe)
 Copying SCF densities to generalized density rwf, IOpCl= 1 IROHF=0.

 **********************************************************************

            Population analysis using the SCF density.

 **********************************************************************

 Orbital symmetries:
 Alpha Orbitals:
       Occupied  (A') (A") (A') (A') (A") (A') (A') (A') (A") (A")
                 (A") (A') (A')
       Virtual   (A') (A') (A") (A') (A") (A') (A") (A') (A") (A')
                 (A') (A") (A") (A') (A') (A") (A') (A") (A') (A')
                 (A") (A") (A') (A') (A") (A') (A') (A")
 Beta  Orbitals:
       Occupied  (A") (A') (A') (A') (A") (A') (A') (A') (A") (A")
                 (A") (A')
       Virtual   (A') (A') (A') (A") (A") (A') (A") (A') (A') (A")
                 (A') (A") (A') (A") (A') (A") (A') (A') (A") (A')
                 (A') (A") (A") (A') (A') (A") (A') (A") (A')
 The electronic state is 2-A'.
 Alpha  occ. eigenvalues --  -11.17127 -11.15303 -11.15269  -1.06165  -0.93733
 Alpha  occ. eigenvalues --   -0.79406  -0.62007  -0.60093  -0.56191  -0.53895
 Alpha  occ. eigenvalues --   -0.49077  -0.49030  -0.32945
 Alpha virt. eigenvalues --    0.28090   0.30075   0.32958   0.35329   0.36243
 Alpha virt. eigenvalues --    0.36303   0.37434   0.44996   0.48192   0.86733
 Alpha virt. eigenvalues --    0.93643   0.95794   0.99511   0.99898   1.07168
 Alpha virt. eigenvalues --    1.12579   1.22074   1.25794   1.26443   1.33086
 Alpha virt. eigenvalues --    1.34844   1.37374   1.39825   1.41211   1.44239
 Alpha virt. eigenvalues --    1.79211   2.16076   2.17743
  Beta  occ. eigenvalues --  -11.15659 -11.15625 -11.14568  -1.02097  -0.93794
  Beta  occ. eigenvalues --   -0.73998  -0.60966  -0.56252  -0.55325  -0.52970
  Beta  occ. eigenvalues --   -0.48409  -0.48195
  Beta virt. eigenvalues --    0.17108   0.28362   0.30600   0.33365   0.36828
  Beta virt. eigenvalues --    0.37106   0.37374   0.38467   0.47515   0.49594
  Beta virt. eigenvalues --    0.86738   0.96031   0.98452   1.00228   1.02237
  Beta virt. eigenvalues --    1.14059   1.14418   1.23680   1.26125   1.27878
  Beta virt. eigenvalues --    1.33919   1.35465   1.37789   1.40912   1.41491
  Beta virt. eigenvalues --    1.44675   1.81878   2.17589   2.17900
          Condensed to atoms (all electrons):
               1          2          3          4          5          6
     1  C    5.357308   0.259955  -0.078673   0.377879   0.378442   0.369089
     2  C    0.259955   5.565526   0.259955  -0.049929  -0.040216  -0.053685
     3  C   -0.078673   0.259955   5.357308  -0.000522   0.002709   0.000920
     4  H    0.377879  -0.049929  -0.000522   0.514903  -0.023416  -0.030679
     5  H    0.378442  -0.040216   0.002709  -0.023416   0.502364  -0.026836
     6  H    0.369089  -0.053685   0.000920  -0.030679  -0.026836   0.533813
     7  H   -0.038367   0.391160  -0.038367   0.002223  -0.001926   0.000744
     8  H    0.000920  -0.053685   0.369089  -0.000217  -0.000062   0.001606
     9  H    0.002709  -0.040216   0.378442   0.000001  -0.000050  -0.000062
    10  H   -0.000522  -0.049929   0.377879   0.002485   0.000001  -0.000217
               7          8          9         10
     1  C   -0.038367   0.000920   0.002709  -0.000522
     2  C    0.391160  -0.053685  -0.040216  -0.049929
     3  C   -0.038367   0.369089   0.378442   0.377879
     4  H    0.002223  -0.000217   0.000001   0.002485
     5  H   -0.001926  -0.000062  -0.000050   0.000001
     6  H    0.000744   0.001606  -0.000062  -0.000217
     7  H    0.480215   0.000744  -0.001926   0.002223
     8  H    0.000744   0.533813  -0.026836  -0.030679
     9  H   -0.001926  -0.026836   0.502364  -0.023416
    10  H    0.002223  -0.030679  -0.023416   0.514903
          Atomic-Atomic Spin Densities.
               1          2          3          4          5          6
     1  C   -0.184104  -0.065933   0.003239   0.012566   0.008774   0.014881
     2  C   -0.065933   1.530895  -0.065933  -0.013339  -0.005831  -0.027222
     3  C    0.003239  -0.065933  -0.184104   0.001025   0.000061   0.000332
     4  H    0.012566  -0.013339   0.001025   0.041391   0.001165  -0.011425
     5  H    0.008774  -0.005831   0.000061   0.001165   0.015470  -0.005501
     6  H    0.014881  -0.027222   0.000332  -0.011425  -0.005501   0.098161
     7  H    0.003603  -0.022336   0.003603   0.000083   0.000613  -0.000586
     8  H    0.000332  -0.027222   0.014881  -0.000548  -0.000041   0.001926
     9  H    0.000061  -0.005831   0.008774   0.000033   0.000002  -0.000041
    10  H    0.001025  -0.013339   0.012566   0.001222   0.000033  -0.000548
               7          8          9         10
     1  C    0.003603   0.000332   0.000061   0.001025
     2  C   -0.022336  -0.027222  -0.005831  -0.013339
     3  C    0.003603   0.014881   0.008774   0.012566
     4  H    0.000083  -0.000548   0.000033   0.001222
     5  H    0.000613  -0.000041   0.000002   0.000033
     6  H   -0.000586   0.001926  -0.000041  -0.000548
     7  H   -0.091682  -0.000586   0.000613   0.000083
     8  H   -0.000586   0.098161  -0.005501  -0.011425
     9  H    0.000613  -0.005501   0.015470   0.001165
    10  H    0.000083  -0.011425   0.001165   0.041391
 Mulliken charges and spin densities:
               1          2
     1  C   -0.628739  -0.205556
     2  C   -0.188938   1.283909
     3  C   -0.628739  -0.205556
     4  H    0.207273   0.032174
     5  H    0.208990   0.014746
     6  H    0.205307   0.069977
     7  H    0.203276  -0.106591
     8  H    0.205307   0.069977
     9  H    0.208990   0.014746
    10  H    0.207273   0.032174
 Sum of Mulliken charges =  -0.00000   1.00000
 Mulliken charges and spin densities with hydrogens summed into heavy atoms:
               1          2
     1  C   -0.007169  -0.088659
     2  C    0.014339   1.177318
     3  C   -0.007169  -0.088659
 APT charges:
               1
     1  C    0.039489
     2  C    0.024036
     3  C    0.039489
     4  H   -0.009208
     5  H   -0.011165
     6  H   -0.021422
     7  H   -0.019425
     8  H   -0.021422
     9  H   -0.011165
    10  H   -0.009208
 Sum of APT charges =  -0.00000
 APT charges with hydrogens summed into heavy atoms:
               1
     1  C   -0.002306
     2  C    0.004611
     3  C   -0.002306
 Electronic spatial extent (au):  <R**2>=            220.4937
 Charge=              0.0000 electrons
 Dipole moment (field-independent basis, Debye):
    X=              0.2158    Y=             -0.0942    Z=              0.0000  Tot=              0.2355
 Quadrupole moment (field-independent basis, Debye-Ang):
   XX=            -21.7697   YY=            -20.7634   ZZ=            -20.8534
   XY=              0.4315   XZ=             -0.0000   YZ=             -0.0000
 Traceless Quadrupole moment (field-independent basis, Debye-Ang):
   XX=             -0.6409   YY=              0.3655   ZZ=              0.2754
   XY=              0.4315   XZ=             -0.0000   YZ=             -0.0000
 Octapole moment (field-independent basis, Debye-Ang**2):
  XXX=              0.6945  YYY=              1.0429  ZZZ=              0.0000  XYY=              0.2592
  XXY=             -1.6610  XXZ=              0.0000  XZZ=             -0.2143  YZZ=              1.1404
  YYZ=              0.0000  XYZ=              0.0000
 Hexadecapole moment (field-independent basis, Debye-Ang**3):
 XXXX=            -35.3853 YYYY=            -57.0363 ZZZZ=           -204.4985 XXXY=             -0.9914
 XXXZ=              0.0000 YYYX=              0.8503 YYYZ=              0.0000 ZZZX=              0.0000
 ZZZY=              0.0000 XXYY=            -15.1295 XXZZ=            -40.6754 YYZZ=            -43.4432
 XXYZ=             -0.0000 YYXZ=             -0.0000 ZZXY=             -1.0272
 N-N= 7.529516518552D+01 E-N=-4.220564028424D+02  KE= 1.167749059779D+02
 Symmetry A'   KE= 7.587227651166D+01
 Symmetry A"   KE= 4.090262946623D+01
  Exact polarizability:  23.925   0.834  29.115   0.000   0.000  32.345
 Approx polarizability:  20.303   0.684  24.632   0.000   0.000  24.241
                          Isotropic Fermi Contact Couplings
        Atom                 a.u.       MegaHertz       Gauss      10(-4) cm-1
     1  C(13)             -0.05716     -64.25913     -22.92925     -21.43454
     2  C(13)              0.26039     292.73087     104.45365      97.64451
     3  C(13)             -0.05716     -64.25913     -22.92925     -21.43454
     4  H(1)               0.01144      51.13022      18.24453      17.05521
     5  H(1)               0.00485      21.68516       7.73780       7.23339
     6  H(1)               0.02509     112.13755      40.01346      37.40506
     7  H(1)              -0.02634    -117.74173     -42.01318     -39.27441
     8  H(1)               0.02509     112.13755      40.01346      37.40506
     9  H(1)               0.00485      21.68516       7.73780       7.23339
    10  H(1)               0.01144      51.13022      18.24453      17.05521
 --------------------------------------------------------
       Center         ----  Spin Dipole Couplings  ----
                      3XX-RR        3YY-RR        3ZZ-RR
 --------------------------------------------------------
     1   Atom       -0.002877      0.000092      0.002785
     2   Atom        0.909929     -0.423558     -0.486371
     3   Atom       -0.002877      0.000092      0.002785
     4   Atom       -0.009745      0.004463      0.005282
     5   Atom       -0.004810     -0.012591      0.017401
     6   Atom       -0.012417      0.002401      0.010016
     7   Atom       -0.003411      0.084317     -0.080905
     8   Atom       -0.012417      0.002401      0.010016
     9   Atom       -0.004810     -0.012591      0.017401
    10   Atom       -0.009745      0.004463      0.005282
 --------------------------------------------------------
                        XY            XZ            YZ
 --------------------------------------------------------
     1   Atom        0.000511     -0.001723     -0.001917
     2   Atom       -0.275360      0.000000     -0.000000
     3   Atom        0.000511      0.001723      0.001917
     4   Atom       -0.001207      0.006292      0.015315
     5   Atom        0.000735     -0.000965      0.008142
     6   Atom        0.000193     -0.006033      0.011625
     7   Atom        0.034891     -0.000000     -0.000000
     8   Atom        0.000193      0.006033     -0.011625
     9   Atom        0.000735      0.000965     -0.008142
    10   Atom       -0.001207     -0.006292     -0.015315
 --------------------------------------------------------


 ---------------------------------------------------------------------------------
              Anisotropic Spin Dipole Couplings in Principal Axis System
 ---------------------------------------------------------------------------------

       Atom             a.u.   MegaHertz   Gauss  10(-4) cm-1        Axes

              Baa    -0.0034    -0.451    -0.161    -0.150  0.9621  0.0091  0.2727
     1 C(13)  Bbb    -0.0009    -0.116    -0.041    -0.039 -0.1260  0.9013  0.4144
              Bcc     0.0042     0.566     0.202     0.189 -0.2420 -0.4331  0.8683
 
              Baa    -0.4864   -65.266   -23.289   -21.771  0.0000  0.0000  1.0000
     2 C(13)  Bbb    -0.4782   -64.167   -22.896   -21.404  0.1946  0.9809 -0.0000
              Bcc     0.9646   129.434    46.185    43.174  0.9809 -0.1946  0.0000
 
              Baa    -0.0034    -0.451    -0.161    -0.150  0.9621  0.0091 -0.2727
     3 C(13)  Bbb    -0.0009    -0.116    -0.041    -0.039 -0.1260  0.9013 -0.4144
              Bcc     0.0042     0.566     0.202     0.189  0.2420  0.4331  0.8683
 
              Baa    -0.0155    -8.292    -2.959    -2.766  0.6943  0.4634 -0.5506
     4 H(1)   Bbb    -0.0051    -2.725    -0.972    -0.909  0.7091 -0.5715  0.4130
              Bcc     0.0206    11.017     3.931     3.675  0.1233  0.6772  0.7254
 
              Baa    -0.0147    -7.870    -2.808    -2.625 -0.0953  0.9643 -0.2471
     5 H(1)   Bbb    -0.0047    -2.530    -0.903    -0.844  0.9950  0.1001  0.0066
              Bcc     0.0195    10.400     3.711     3.469 -0.0311  0.2452  0.9690
 
              Baa    -0.0147    -7.834    -2.795    -2.613  0.9117 -0.2381  0.3348
     6 H(1)   Bbb    -0.0045    -2.396    -0.855    -0.799  0.3817  0.7922 -0.4761
              Bcc     0.0192    10.230     3.650     3.413 -0.1519  0.5618  0.8132
 
              Baa    -0.0809   -43.167   -15.403   -14.399  0.0000  0.0000  1.0000
     7 H(1)   Bbb    -0.0156    -8.321    -2.969    -2.776  0.9441 -0.3297  0.0000
              Bcc     0.0965    51.488    18.372    17.175  0.3297  0.9441 -0.0000
 
              Baa    -0.0147    -7.834    -2.795    -2.613  0.9117 -0.2381 -0.3348
     8 H(1)   Bbb    -0.0045    -2.396    -0.855    -0.799  0.3817  0.7922  0.4761
              Bcc     0.0192    10.230     3.650     3.413  0.1519 -0.5618  0.8132
 
              Baa    -0.0147    -7.870    -2.808    -2.625 -0.0953  0.9643  0.2471
     9 H(1)   Bbb    -0.0047    -2.530    -0.903    -0.844  0.9950  0.1001 -0.0066
              Bcc     0.0195    10.400     3.711     3.469  0.0311 -0.2452  0.9690
 
              Baa    -0.0155    -8.292    -2.959    -2.766  0.6943  0.4634  0.5506
    10 H(1)   Bbb    -0.0051    -2.725    -0.972    -0.909  0.7091 -0.5715 -0.4130
              Bcc     0.0206    11.017     3.931     3.675 -0.1233 -0.6772  0.7254
 

 ---------------------------------------------------------------------------------

 No NMR shielding tensors so no spin-rotation constants.
 Leave Link  601 at Sun May 22 09:08:53 2022, MaxMem=   939524096 cpu:         1.8
 (Enter /Local/ce_dana/g09/l701.exe)
 Compute integral second derivatives.
 ... and contract with generalized density number  0.
 Entering OneElI...
 Calculate overlap and kinetic energy integrals
    NBasis =  41  MinDer = 2  MaxDer = 2
 Requested accuracy = 0.1000D-14
 PrsmSu:  NPrtUS=  10 ThrOK=T IAlg=1 NPAlg=1 LenDen=           0.
 Prism:   IPart=     0 DynPar=F LinDyn=F Incr=           1.
 PRISM was handed    93943582 working-precision words and   276 shell-pairs
 PRISM was handed    93943582 working-precision words and   276 shell-pairs
 PRISM was handed    93943582 working-precision words and   276 shell-pairs
 PRISM was handed    93943582 working-precision words and   276 shell-pairs
 PRISM was handed    93943582 working-precision words and   276 shell-pairs
 PRISM was handed    93943582 working-precision words and   276 shell-pairs
 PRISM was handed    93943582 working-precision words and   276 shell-pairs
 PRISM was handed    93943582 working-precision words and   276 shell-pairs
 PRISM was handed    93943582 working-precision words and   276 shell-pairs
 PRISM was handed    93943582 working-precision words and   276 shell-pairs
 IPart=  0 NShTot=          35 NBatch=          15 AvBLen=         2.3
 IPart=  9 NShTot=          20 NBatch=           8 AvBLen=         2.5
 IPart=  4 NShTot=          28 NBatch=          13 AvBLen=         2.2
 IPart=  7 NShTot=          24 NBatch=           9 AvBLen=         2.7
 IPart=  8 NShTot=          24 NBatch=           9 AvBLen=         2.7
 IPart=  6 NShTot=          26 NBatch=          11 AvBLen=         2.4
 IPart=  2 NShTot=          30 NBatch=          14 AvBLen=         2.1
 IPart=  3 NShTot=          29 NBatch=          13 AvBLen=         2.2
 IPart=  1 NShTot=          32 NBatch=          15 AvBLen=         2.1
 IPart=  5 NShTot=          28 NBatch=          13 AvBLen=         2.2
 PrSmSu:  NxtVal=             11.
 Entering OneElI...
 Calculate potential energy integrals
    NBasis =  41  MinDer = 2  MaxDer = 2
 Requested accuracy = 0.1000D-14
 PrsmSu:  NPrtUS=  10 ThrOK=T IAlg=1 NPAlg=1 LenDen=           0.
 Prism:   IPart=     0 DynPar=F LinDyn=F Incr=           2.
 PRISM was handed    93943934 working-precision words and   275 shell-pairs
 PRISM was handed    93943934 working-precision words and   275 shell-pairs
 PRISM was handed    93943934 working-precision words and   275 shell-pairs
 PRISM was handed    93943934 working-precision words and   275 shell-pairs
 PRISM was handed    93943934 working-precision words and   275 shell-pairs
 PRISM was handed    93943934 working-precision words and   275 shell-pairs
 PRISM was handed    93943934 working-precision words and   275 shell-pairs
 PRISM was handed    93943934 working-precision words and   275 shell-pairs
 PRISM was handed    93943934 working-precision words and   275 shell-pairs
 PRISM was handed    93943934 working-precision words and   275 shell-pairs
 IPart=  7 NShTot=         230 NBatch=          23 AvBLen=        10.0
 IPart=  6 NShTot=         260 NBatch=          26 AvBLen=        10.0
 IPart=  5 NShTot=         270 NBatch=          27 AvBLen=        10.0
 IPart=  8 NShTot=         230 NBatch=          23 AvBLen=        10.0
 IPart=  4 NShTot=         280 NBatch=          28 AvBLen=        10.0
 IPart=  1 NShTot=         330 NBatch=          33 AvBLen=        10.0
 IPart=  3 NShTot=         280 NBatch=          28 AvBLen=        10.0
 IPart=  9 NShTot=         200 NBatch=          20 AvBLen=        10.0
 IPart=  2 NShTot=         320 NBatch=          32 AvBLen=        10.0
 IPart=  0 NShTot=         350 NBatch=          35 AvBLen=        10.0
 PrSmSu:  NxtVal=             21.
 Polarizability after L701:
                1             2             3 
      1  0.239250D+02
      2  0.833923D+00  0.291145D+02
      3  0.000000D+00  0.000000D+00  0.323447D+02
 Dipole Derivatives after L701:
                 1             2             3             4             5 
      1   0.129838D+00 -0.205888D-01 -0.167200D-02 -0.227124D+00  0.879924D-01
      2  -0.217044D-01  0.234349D-01 -0.146180D-01  0.141541D+00  0.139738D+00
      3   0.338805D-01 -0.108393D-01 -0.348054D-01  0.000000D+00  0.000000D+00
                 6             7             8             9            10 
      1   0.000000D+00  0.129838D+00 -0.205888D-01  0.167200D-02 -0.433620D-01
      2   0.000000D+00 -0.217044D-01  0.234349D-01  0.146180D-01 -0.120146D+00
      3   0.159496D+00 -0.338805D-01  0.108393D-01 -0.348054D-01 -0.107308D-01
                11            12            13            14            15 
      1  -0.115484D+00  0.210518D-01  0.813099D-01  0.263370D-01 -0.265756D-01
      2  -0.459773D-01  0.436711D-02  0.224149D-01 -0.395450D-02  0.891213D-01
      3  -0.240244D-01  0.617144D-01 -0.313339D-01  0.110173D+00 -0.110850D+00
                16            17            18            19            20 
      1  -0.110581D+00  0.957170D-01  0.113840D-01  0.112713D+00 -0.599557D-01
      2   0.103380D+00  0.138376D-01 -0.178569D-01 -0.109430D+00 -0.114419D+00
      3   0.456159D-01 -0.509923D-01  0.324776D-01  0.000000D+00  0.000000D+00
                21            22            23            24            25 
      1   0.000000D+00 -0.110581D+00  0.957170D-01 -0.113840D-01  0.813099D-01
      2   0.000000D+00  0.103380D+00  0.138376D-01  0.178569D-01  0.224149D-01
      3  -0.565689D-01 -0.456159D-01  0.509923D-01  0.324776D-01  0.313339D-01
                26            27            28            29            30 
      1   0.263370D-01  0.265756D-01 -0.433620D-01 -0.115484D+00 -0.210518D-01
      2  -0.395450D-02 -0.891213D-01 -0.120146D+00 -0.459773D-01 -0.436711D-02
      3  -0.110173D+00 -0.110850D+00  0.107308D-01  0.240244D-01  0.617144D-01
 Hessian after L701:
                1             2             3             4             5 
      1  0.837087D+01
      2  0.309038D-02  0.801396D+01
      3  0.366628D-01 -0.662553D+00  0.671414D+01
      4 -0.334494D+01 -0.203243D-01 -0.689686D-02  0.832605D+01
      5 -0.196683D-01 -0.261515D+01  0.133531D+01 -0.434722D+00  0.579065D+01
      6 -0.811023D-02  0.141506D+01 -0.757497D+00  0.000000D+00  0.000000D+00
      7 -0.917396D-01 -0.241888D-02  0.748309D-02 -0.334494D+01 -0.196683D-01
      8 -0.241888D-02 -0.519067D-01  0.607815D-01 -0.203243D-01 -0.261515D+01
      9 -0.748309D-02 -0.607815D-01 -0.534550D-01  0.689687D-02 -0.133531D+01
     10 -0.153516D+01  0.940832D+00  0.495381D-01  0.134864D+00 -0.165079D-01
     11  0.936799D+00 -0.149689D+01  0.539897D-01 -0.157536D-02 -0.525484D-01
     12  0.953837D-01  0.105090D+00 -0.247965D+01 -0.442847D-01 -0.162084D+00
     13 -0.235899D+01 -0.161519D+00  0.222926D+00  0.583287D-01 -0.110197D-01
     14 -0.161810D+00 -0.182300D+01 -0.830257D+00 -0.915670D-02  0.100916D+00
     15  0.227625D+00 -0.850606D+00 -0.121163D+01  0.103050D-01 -0.414771D-01
     16 -0.104839D+01 -0.766254D+00 -0.291540D+00  0.176323D+00  0.201709D-01
     17 -0.755856D+00 -0.196030D+01  0.165409D+00  0.733465D-04  0.470995D-02
     18 -0.325066D+00  0.188841D+00 -0.233917D+01  0.487554D-01 -0.143430D+00
     19  0.548636D-01  0.461806D-02 -0.177327D-01 -0.237519D+01  0.488772D+00
     20 -0.196038D-02 -0.118710D-01 -0.113622D+00  0.496688D+00 -0.666507D+00
     21 -0.226422D-01 -0.114587D+00 -0.241774D-01  0.000000D+00  0.000000D+00
     22 -0.756519D-02 -0.190836D-01  0.410441D-01  0.176323D+00  0.201709D-01
     23 -0.102523D-01 -0.219444D-01 -0.149015D-01  0.733498D-04  0.470995D-02
     24  0.322009D-01 -0.212009D-01  0.435116D-01 -0.487554D-01  0.143430D+00
     25 -0.236695D-01 -0.151985D-02 -0.749414D-02  0.583287D-01 -0.110197D-01
     26 -0.264568D-02 -0.212805D-01  0.306517D-01 -0.915671D-02  0.100916D+00
     27 -0.689979D-02  0.253101D-01  0.764463D-01 -0.103050D-01  0.414771D-01
     28 -0.152708D-01  0.225789D-01 -0.339912D-01  0.134864D+00 -0.165079D-01
     29  0.147217D-01 -0.116193D-01 -0.248057D-01 -0.157536D-02 -0.525484D-01
     30 -0.216706D-01 -0.245717D-01  0.314786D-01  0.442847D-01  0.162084D+00
                6             7             8             9            10 
      6  0.443905D+01
      7  0.811020D-02  0.837087D+01
      8 -0.141506D+01  0.309038D-02  0.801396D+01
      9 -0.757497D+00 -0.366628D-01  0.662553D+00  0.671414D+01
     10 -0.255085D-01 -0.152708D-01  0.225789D-01  0.339912D-01  0.154016D+01
     11 -0.111105D+00  0.147217D-01 -0.116193D-01  0.248057D-01 -0.888518D+00
     12 -0.112381D-01  0.216706D-01  0.245717D-01  0.314786D-01 -0.142547D+00
     13  0.138503D-01 -0.236695D-01 -0.151985D-02  0.749414D-02  0.433210D-01
     14 -0.571893D-01 -0.264568D-02 -0.212805D-01 -0.306517D-01 -0.310532D-01
     15 -0.999423D-01  0.689979D-02 -0.253101D-01  0.764463D-01  0.297255D-01
     16  0.383695D-01 -0.756519D-02 -0.190836D-01 -0.410441D-01 -0.157496D+00
     17 -0.111503D+00 -0.102523D-01 -0.219444D-01  0.149015D-01 -0.526090D-01
     18 -0.548891D-01 -0.322009D-01  0.212009D-01  0.435116D-01  0.307447D-01
     19  0.000000D+00  0.548636D-01  0.461808D-02  0.177327D-01  0.579353D-03
     20  0.000000D+00 -0.196037D-02 -0.118710D-01  0.113622D+00  0.264599D-01
     21 -0.259192D+01  0.226422D-01  0.114587D+00 -0.241774D-01  0.911951D-02
     22 -0.383694D-01 -0.104839D+01 -0.766254D+00  0.291540D+00  0.549553D-02
     23  0.111503D+00 -0.755856D+00 -0.196030D+01 -0.165409D+00 -0.150798D-02
     24 -0.548891D-01  0.325066D+00 -0.188841D+00 -0.233917D+01  0.446861D-02
     25 -0.138503D-01 -0.235899D+01 -0.161519D+00 -0.222926D+00 -0.142013D-02
     26  0.571893D-01 -0.161810D+00 -0.182300D+01  0.830257D+00  0.334799D-02
     27 -0.999423D-01 -0.227625D+00  0.850606D+00 -0.121163D+01  0.467268D-02
     28  0.255085D-01 -0.153516D+01  0.940832D+00 -0.495381D-01 -0.150691D-01
     29  0.111105D+00  0.936799D+00 -0.149689D+01 -0.539897D-01 -0.302331D-02
     30 -0.112381D-01 -0.953837D-01 -0.105090D+00 -0.247965D+01  0.579558D-02
               11            12            13            14            15 
     11  0.150627D+01
     12 -0.653184D-01  0.232714D+01
     13 -0.612222D-01  0.527088D-01  0.229686D+01
     14 -0.612386D-01  0.730735D-01  0.134016D+00  0.183624D+01
     15  0.618393D-01  0.236649D-01 -0.225629D+00  0.806847D+00  0.115700D+01
     16 -0.198526D-01  0.100176D-01 -0.132550D-01  0.725611D-01 -0.506332D-01
     17  0.910452D-01  0.783923D-02  0.992182D-01 -0.283424D-01  0.465210D-01
     18  0.790199D-02  0.724589D-01 -0.721322D-01  0.522005D-01  0.468125D-01
     19  0.180360D-01  0.794863D-02 -0.765195D-03 -0.234677D-02  0.227461D-02
     20  0.385901D-01  0.191328D-01  0.229678D-02 -0.470478D-02  0.766453D-02
     21  0.145302D-01 -0.487506D-02 -0.740578D-03 -0.511158D-02 -0.280445D-02
     22  0.419028D-02  0.418302D-02  0.384977D-03 -0.333343D-02  0.488464D-02
     23 -0.274828D-02 -0.302068D-03 -0.111443D-02  0.736722D-03 -0.304279D-02
     24  0.211481D-02  0.600880D-03  0.145849D-02 -0.210866D-02  0.231998D-02
     25  0.443595D-03  0.715273D-03 -0.795049D-03  0.420078D-03 -0.779129D-03
     26  0.235932D-02  0.298333D-02  0.420078D-03 -0.169374D-02  0.381868D-02
     27  0.625471D-02  0.409880D-02  0.779129D-03 -0.381868D-02  0.403401D-02
     28 -0.302331D-02 -0.579558D-02 -0.142013D-02  0.334799D-02 -0.467268D-02
     29 -0.132227D-01 -0.498649D-02  0.443595D-03  0.235932D-02 -0.625471D-02
     30  0.498649D-02  0.363264D-01 -0.715273D-03 -0.298333D-02  0.409880D-02
               16            17            18            19            20 
     16  0.106213D+01
     17  0.724720D+00  0.190498D+01
     18  0.353096D+00 -0.138499D+00  0.220010D+01
     19 -0.601291D-02 -0.421528D-02 -0.256511D-02  0.227786D+01
     20 -0.146623D-01  0.194633D-01  0.136172D-01 -0.520956D+00  0.583552D+00
     21 -0.390357D-02  0.101611D-01 -0.247282D-03  0.000000D+00  0.000000D+00
     22 -0.116061D-01  0.154358D-02  0.529515D-02 -0.601289D-02 -0.146623D-01
     23  0.154358D-02 -0.759703D-02 -0.182643D-02 -0.421529D-02  0.194633D-01
     24 -0.529515D-02  0.182643D-02  0.285019D-01  0.256511D-02 -0.136172D-01
     25  0.384977D-03 -0.111443D-02 -0.145849D-02 -0.765196D-03  0.229678D-02
     26 -0.333343D-02  0.736722D-03  0.210866D-02 -0.234677D-02 -0.470478D-02
     27 -0.488464D-02  0.304279D-02  0.231998D-02 -0.227461D-02 -0.766454D-02
     28  0.549553D-02 -0.150798D-02 -0.446861D-02  0.579362D-03  0.264599D-01
     29  0.419028D-02 -0.274828D-02 -0.211481D-02  0.180360D-01  0.385901D-01
     30 -0.418302D-02  0.302068D-03  0.600880D-03 -0.794864D-02 -0.191328D-01
               21            22            23            24            25 
     21  0.265613D+01
     22  0.390356D-02  0.106213D+01
     23 -0.101611D-01  0.724720D+00  0.190498D+01
     24 -0.247281D-03 -0.353096D+00  0.138499D+00  0.220010D+01
     25  0.740577D-03 -0.132550D-01  0.992182D-01  0.721322D-01  0.229686D+01
     26  0.511159D-02  0.725611D-01 -0.283424D-01 -0.522005D-01  0.134016D+00
     27 -0.280445D-02  0.506332D-01 -0.465210D-01  0.468125D-01  0.225629D+00
     28 -0.911951D-02 -0.157496D+00 -0.526090D-01 -0.307447D-01  0.433210D-01
     29 -0.145302D-01 -0.198526D-01  0.910452D-01 -0.790199D-02 -0.612222D-01
     30 -0.487506D-02 -0.100176D-01 -0.783923D-02  0.724589D-01 -0.527088D-01
               26            27            28            29            30 
     26  0.183624D+01
     27 -0.806847D+00  0.115700D+01
     28 -0.310532D-01 -0.297255D-01  0.154016D+01
     29 -0.612386D-01 -0.618393D-01 -0.888518D+00  0.150627D+01
     30 -0.730735D-01  0.236649D-01  0.142547D+00  0.653184D-01  0.232714D+01
 Leave Link  701 at Sun May 22 09:08:54 2022, MaxMem=   939524096 cpu:         3.8
 (Enter /Local/ce_dana/g09/l702.exe)
 L702 exits ... SP integral derivatives will be done elsewhere.
 Leave Link  702 at Sun May 22 09:08:54 2022, MaxMem=   939524096 cpu:         0.0
 (Enter /Local/ce_dana/g09/l703.exe)
 Compute integral second derivatives, UseDBF=F ICtDFT=           0.
 Integral derivatives from FoFJK, PRISM(SPDF).
 ICntrl=    100127.
 Calling FoFJK, ICntrl=    100127 FMM=F ISym2X=1 I1Cent= 0 IOpClX= 1 NMat=1 NMatS=1 NMatT=0.
 FoFJK:  IHMeth= 1 ICntrl=  100127 DoSepK=F KAlg= 0 I1Cent=   0 FoldK=F
 IRaf=         0 NMat=   1 IRICut=       1 DoRegI=T DoRafI=F ISym2E= 1.
 FoFCou: FMM=F IPFlag=           0 FMFlag=      100000 FMFlg1=         800
         NFxFlg=           0 DoJE=F BraDBF=F KetDBF=F FulRan=T
         wScrn=  0.000000 ICntrl=  100127 IOpCl=  1 I1Cent=           0 NGrid=           0
         NMat0=    1 NMatS0=      1 NMatT0=    0 NMatD0=    1 NMtDS0=    0 NMtDT0=    0
 Petite list used in FoFCou.
 FoFCou:  KetSym=F NOpSet=  2 NOpAb=2 NOp=  2.
 FoFCou:  CnvScl= 1.00D+00 Thresh= 1.00D-12 IAcrcy=      10.
 PrismS was handed   939500910 working-precision words and   275 shell-pairs
 FoFCou: LinMIO=F DoNuc=F BraDBF=F KetDBF=F HaveP=T PDBF=F HaveZ=T HaveW=F
         NIJTC =       3 NIJTAt=       0 NIJTCD=       0 NIJTT =       3
         IJTBeg=       1 IJTEnd=       3 KLTBeg=       1 KLTEnd=       3
         IPTBeg=       1 IPTEnd=       3 IPTBCv=       1 IPTECv=       3
         IZTBeg=       1 IZTEnd=       3 IZTBCv=       1 IZTECv=       3
         IWTBeg=       4 IWTEnd=       3 IWTBCv=       4 IWTECv=       3
         INTBeg=       1 INTEnd=       0 IFTBCv=       1 IFTECv=       3
 NCel replicated for PrismC:     1
 CoulSu:  IncDef=  1024 NBBP=          37950 NTPThr=   100 NPartT=   10 Incr=          37 LDynOK=F.
 CoulSu:  NPrtUS=  10 ThrOK=T IAlg=1 NPAlg=1 LenDen=           0 LWGrdD=           0 DoCopy=F.
 Enter PrismC: JobTyp=22 DoJE=F Cont=F.
 PrismC:  IPart=     0 DynPar=F LinDyn=F Incr=          37 UseFst=F UseS4=T IGathr=2.
 PrismC was handed    93943474 working-precision words and   275 shell-pairs
 Enter PrismC: JobTyp=22 DoJE=F Cont=F.
 Enter PrismC: JobTyp=22 DoJE=F Cont=F.
 Enter PrismC: JobTyp=22 DoJE=F Cont=F.
 Enter PrismC: JobTyp=22 DoJE=F Cont=F.
 PrismC was handed    93943474 working-precision words and   275 shell-pairs
 Enter PrismC: JobTyp=22 DoJE=F Cont=F.
 Enter PrismC: JobTyp=22 DoJE=F Cont=F.
 PrismC was handed    93943474 working-precision words and   275 shell-pairs
 PrismC was handed    93943474 working-precision words and   275 shell-pairs
 PrismC was handed    93943474 working-precision words and   275 shell-pairs
 Enter PrismC: JobTyp=22 DoJE=F Cont=F.
 PrismC was handed    93943474 working-precision words and   275 shell-pairs
 PrismC was handed    93943474 working-precision words and   275 shell-pairs
 PrismC was handed    93943474 working-precision words and   275 shell-pairs
 Enter PrismC: JobTyp=22 DoJE=F Cont=F.
 Enter PrismC: JobTyp=22 DoJE=F Cont=F.
 PrismC was handed    93943474 working-precision words and   275 shell-pairs
 PrismC was handed    93943474 working-precision words and   275 shell-pairs
 IPart=  3 NShTot=        1823 NShNF=        1823 NShFF=           0 NBatch=         117 AvBLen=        15.6
 IPart=  0 NShTot=        1795 NShNF=        1795 NShFF=           0 NBatch=         116 AvBLen=        15.5
 IPart=  4 NShTot=        1840 NShNF=        1840 NShFF=           0 NBatch=         121 AvBLen=        15.2
 IPart=  7 NShTot=        1779 NShNF=        1779 NShFF=           0 NBatch=         117 AvBLen=        15.2
 IPart=  9 NShTot=        1797 NShNF=        1797 NShFF=           0 NBatch=         116 AvBLen=        15.5
 IPart=  1 NShTot=        1838 NShNF=        1838 NShFF=           0 NBatch=         121 AvBLen=        15.2
 IPart=  5 NShTot=        1801 NShNF=        1801 NShFF=           0 NBatch=         120 AvBLen=        15.0
 IPart=  2 NShTot=        1836 NShNF=        1836 NShFF=           0 NBatch=         117 AvBLen=        15.7
 IPart=  8 NShTot=        1805 NShNF=        1805 NShFF=           0 NBatch=         115 AvBLen=        15.7
 IPart=  6 NShTot=        1796 NShNF=        1796 NShFF=           0 NBatch=         120 AvBLen=        15.0
 CoulSu:  NxtVal=            371.
 Polarizability after L703:
                1             2             3 
      1  0.239250D+02
      2  0.833923D+00  0.291145D+02
      3  0.000000D+00  0.000000D+00  0.323447D+02
 Dipole Derivatives after L703:
                 1             2             3             4             5 
      1   0.129838D+00 -0.205888D-01 -0.167200D-02 -0.227124D+00  0.879924D-01
      2  -0.217044D-01  0.234349D-01 -0.146180D-01  0.141541D+00  0.139738D+00
      3   0.338805D-01 -0.108393D-01 -0.348054D-01  0.000000D+00  0.000000D+00
                 6             7             8             9            10 
      1   0.000000D+00  0.129838D+00 -0.205888D-01  0.167200D-02 -0.433620D-01
      2   0.000000D+00 -0.217044D-01  0.234349D-01  0.146180D-01 -0.120146D+00
      3   0.159496D+00 -0.338805D-01  0.108393D-01 -0.348054D-01 -0.107308D-01
                11            12            13            14            15 
      1  -0.115484D+00  0.210518D-01  0.813099D-01  0.263370D-01 -0.265756D-01
      2  -0.459773D-01  0.436711D-02  0.224149D-01 -0.395450D-02  0.891213D-01
      3  -0.240244D-01  0.617144D-01 -0.313339D-01  0.110173D+00 -0.110850D+00
                16            17            18            19            20 
      1  -0.110581D+00  0.957170D-01  0.113840D-01  0.112713D+00 -0.599557D-01
      2   0.103380D+00  0.138376D-01 -0.178569D-01 -0.109430D+00 -0.114419D+00
      3   0.456159D-01 -0.509923D-01  0.324776D-01  0.000000D+00  0.000000D+00
                21            22            23            24            25 
      1   0.000000D+00 -0.110581D+00  0.957170D-01 -0.113840D-01  0.813099D-01
      2   0.000000D+00  0.103380D+00  0.138376D-01  0.178569D-01  0.224149D-01
      3  -0.565689D-01 -0.456159D-01  0.509923D-01  0.324776D-01  0.313339D-01
                26            27            28            29            30 
      1   0.263370D-01  0.265756D-01 -0.433620D-01 -0.115484D+00 -0.210518D-01
      2  -0.395450D-02 -0.891213D-01 -0.120146D+00 -0.459773D-01 -0.436711D-02
      3  -0.110173D+00 -0.110850D+00  0.107308D-01  0.240244D-01  0.617144D-01
 Hessian after L703:
                1             2             3             4             5 
      1  0.565430D+00
      2  0.185049D-01  0.590298D+00
      3  0.735944D-02 -0.677339D-01  0.547122D+00
      4 -0.527940D-01 -0.102781D-01 -0.216401D-02  0.129627D+00
      5 -0.620368D-02 -0.131049D+00 -0.466204D-01  0.112092D+00  0.638296D+00
      6  0.431769D-02 -0.494470D-01 -0.182319D+00  0.000000D+00  0.000000D+00
      7  0.821422D-03 -0.124239D-02  0.236646D-02 -0.527940D-01 -0.620368D-02
      8 -0.124239D-02  0.137475D-01 -0.187204D-01 -0.102781D-01 -0.131049D+00
      9 -0.236646D-02  0.187204D-01 -0.235665D-01  0.216402D-02  0.466204D-01
     10 -0.197399D+00 -0.137743D+00  0.881430D-03  0.326174D-02  0.143139D-02
     11 -0.138830D+00 -0.187145D+00  0.460413D-02 -0.113729D-01 -0.190903D-01
     12 -0.154403D-02  0.473644D-02 -0.590025D-01 -0.217493D-01 -0.289576D-01
     13 -0.647633D-01  0.253828D-01 -0.353421D-01 -0.956389D-03 -0.308516D-03
     14  0.249913D-01 -0.166246D+00  0.135349D+00 -0.271644D-02  0.148612D-01
     15 -0.354503D-01  0.132102D+00 -0.224491D+00 -0.226975D-02  0.230124D-01
     16 -0.256036D+00  0.102589D+00  0.265193D-01  0.490138D-02  0.109385D-02
     17  0.108500D+00 -0.109521D+00 -0.123410D-01  0.151399D-01 -0.125623D-01
     18  0.361174D-01 -0.153837D-01 -0.604330D-01  0.270446D-01 -0.205129D-01
     19  0.374209D-02  0.277114D-02  0.124416D-02 -0.384522D-01 -0.104118D+00
     20 -0.573458D-02 -0.915926D-02  0.409275D-02 -0.936370D-01 -0.342616D+00
     21 -0.104779D-01 -0.280393D-01  0.264010D-02  0.000000D+00  0.000000D+00
     22  0.339953D-03 -0.560228D-04 -0.546290D-03  0.490138D-02  0.109384D-02
     23 -0.408427D-03  0.397527D-03 -0.510176D-03  0.151399D-01 -0.125623D-01
     24  0.188882D-03 -0.555751D-03  0.183725D-02 -0.270446D-01  0.205129D-01
     25  0.623547D-03 -0.136741D-03 -0.536811D-03 -0.956391D-03 -0.308514D-03
     26  0.124644D-03 -0.219219D-02  0.277725D-02 -0.271645D-02  0.148612D-01
     27  0.410039D-03  0.551131D-02 -0.357696D-02  0.226974D-02 -0.230124D-01
     28  0.348569D-04  0.208454D-03  0.218405D-03  0.326174D-02  0.143139D-02
     29  0.297601D-03  0.869390D-03 -0.897529D-03 -0.113729D-01 -0.190903D-01
     30  0.144521D-02  0.891875D-04  0.178850D-02  0.217493D-01  0.289576D-01
                6             7             8             9            10 
      6  0.506792D+00
      7 -0.431772D-02  0.565430D+00
      8  0.494470D-01  0.185049D-01  0.590298D+00
      9 -0.182319D+00 -0.735944D-02  0.677339D-01  0.547122D+00
     10  0.690361D-03  0.348569D-04  0.208454D-03 -0.218405D-03  0.215905D+00
     11 -0.233262D-02  0.297601D-03  0.869390D-03  0.897529D-03  0.154146D+00
     12 -0.134648D-02 -0.144521D-02 -0.891875D-04  0.178850D-02 -0.306413D-02
     13  0.172096D-02  0.623547D-03 -0.136741D-03  0.536811D-03  0.573710D-02
     14 -0.202905D-01  0.124644D-03 -0.219219D-02 -0.277725D-02  0.563397D-02
     15 -0.270640D-01 -0.410039D-03 -0.551131D-02 -0.357696D-02  0.956979D-03
     16  0.279349D-02  0.339953D-03 -0.560228D-04  0.546290D-03 -0.274474D-01
     17 -0.862084D-02 -0.408427D-03  0.397527D-03  0.510176D-03 -0.251690D-01
     18 -0.104912D-01 -0.188882D-03  0.555751D-03  0.183725D-02  0.113901D-02
     19  0.000000D+00  0.374206D-02  0.277116D-02 -0.124416D-02 -0.327022D-03
     20  0.000000D+00 -0.573457D-02 -0.915927D-02 -0.409274D-02  0.108764D-02
     21 -0.643515D-01  0.104779D-01  0.280393D-01  0.264009D-02  0.423310D-03
     22 -0.279344D-02 -0.256036D+00  0.102589D+00 -0.265193D-01 -0.177974D-03
     23  0.862082D-02  0.108500D+00 -0.109521D+00  0.123410D-01 -0.886862D-04
     24 -0.104912D-01 -0.361174D-01  0.153837D-01 -0.604330D-01 -0.821598D-04
     25 -0.172098D-02 -0.647633D-01  0.253828D-01  0.353421D-01  0.191868D-03
     26  0.202905D-01  0.249913D-01 -0.166246D+00 -0.135349D+00  0.278623D-03
     27 -0.270640D-01  0.354503D-01 -0.132102D+00 -0.224491D+00 -0.987650D-04
     28 -0.690339D-03 -0.197399D+00 -0.137743D+00 -0.881430D-03  0.220072D-03
     29  0.233264D-02 -0.138830D+00 -0.187145D+00 -0.460413D-02  0.214410D-03
     30 -0.134648D-02  0.154403D-02 -0.473644D-02 -0.590025D-01 -0.627617D-03
               11            12            13            14            15 
     11  0.207589D+00
     12  0.836395D-03  0.627342D-01
     13 -0.175196D-01  0.237345D-01  0.642651D-01
     14 -0.168368D-01  0.203833D-01 -0.304385D-01  0.180346D+00
     15 -0.304229D-03  0.315355D-03  0.376960D-01 -0.146446D+00  0.249246D+00
     16  0.135346D-01  0.330044D-02 -0.550496D-02  0.245896D-02  0.186992D-04
     17  0.137355D-01  0.417603D-02  0.227178D-01 -0.117932D-01 -0.315992D-02
     18  0.232204D-03  0.154631D-03 -0.283112D-01  0.138591D-01  0.499678D-02
     19 -0.910106D-03 -0.346160D-03 -0.561158D-04 -0.319370D-03 -0.320529D-03
     20 -0.229607D-03 -0.203120D-02  0.239799D-04  0.126311D-02 -0.519099D-03
     21 -0.340428D-02 -0.451503D-02 -0.199281D-03  0.921510D-03  0.158688D-02
     22  0.111693D-03  0.148874D-03  0.131322D-03 -0.132097D-03 -0.246821D-03
     23  0.972156D-04  0.112751D-03 -0.167886D-03 -0.495145D-05  0.110083D-03
     24  0.576140D-04 -0.184096D-03  0.428674D-03 -0.368158D-04  0.625829D-04
     25  0.327762D-03  0.337438D-03  0.331804D-03  0.118917D-03 -0.730783D-04
     26  0.121598D-03  0.861828D-04  0.118917D-03  0.481505D-03  0.876114D-03
     27  0.160155D-03  0.496189D-03  0.730783D-04 -0.876114D-03 -0.157229D-02
     28  0.214410D-03  0.627617D-03  0.191868D-03  0.278623D-03  0.987650D-04
     29  0.888858D-03  0.746892D-03  0.327762D-03  0.121598D-03 -0.160155D-03
     30 -0.746892D-03 -0.440813D-03 -0.337438D-03 -0.861828D-04  0.496189D-03
               16            17            18            19            20 
     16  0.284631D+00
     17 -0.119777D+00  0.119686D+00
     18 -0.345089D-01  0.210989D-01  0.657572D-01
     19 -0.850153D-03 -0.585276D-03 -0.277885D-03  0.334346D-01
     20  0.338706D-03 -0.559917D-03 -0.518403D-03  0.102206D+00  0.359988D+00
     21  0.565130D-03 -0.750782D-03 -0.847008D-03  0.000000D+00  0.000000D+00
     22  0.129546D-04 -0.161713D-03 -0.667588D-03 -0.850129D-03  0.338698D-03
     23 -0.161713D-03  0.525172D-03  0.689832D-03 -0.585288D-03 -0.559909D-03
     24  0.667588D-03 -0.689832D-03 -0.853130D-03  0.277888D-03  0.518401D-03
     25  0.131322D-03 -0.167886D-03 -0.428674D-03 -0.561162D-04  0.239810D-04
     26 -0.132097D-03 -0.495145D-05  0.368158D-04 -0.319372D-03  0.126310D-02
     27  0.246821D-03 -0.110083D-03  0.625829D-04  0.320528D-03  0.519092D-03
     28 -0.177974D-03 -0.886862D-04  0.821598D-04 -0.327013D-03  0.108764D-02
     29  0.111693D-03  0.972156D-04 -0.576140D-04 -0.910111D-03 -0.229605D-03
     30 -0.148874D-03 -0.112751D-03 -0.184096D-03  0.346150D-03  0.203121D-02
               21            22            23            24            25 
     21  0.666216D-01
     22 -0.565131D-03  0.284631D+00
     23  0.750781D-03 -0.119777D+00  0.119686D+00
     24 -0.847007D-03  0.345089D-01 -0.210989D-01  0.657572D-01
     25  0.199281D-03 -0.550496D-02  0.227178D-01  0.283112D-01  0.642651D-01
     26 -0.921508D-03  0.245896D-02 -0.117932D-01 -0.138591D-01 -0.304385D-01
     27  0.158688D-02 -0.186992D-04  0.315992D-02  0.499678D-02 -0.376960D-01
     28 -0.423312D-03 -0.274474D-01 -0.251690D-01 -0.113901D-02  0.573710D-02
     29  0.340428D-02  0.135346D-01  0.137355D-01 -0.232204D-03 -0.175196D-01
     30 -0.451503D-02 -0.330044D-02 -0.417603D-02  0.154631D-03 -0.237345D-01
               26            27            28            29            30 
     26  0.180346D+00
     27  0.146446D+00  0.249246D+00
     28  0.563397D-02 -0.956979D-03  0.215905D+00
     29 -0.168368D-01  0.304229D-03  0.154146D+00  0.207589D+00
     30 -0.203833D-01  0.315355D-03  0.306413D-02 -0.836395D-03  0.627342D-01
 Leave Link  703 at Sun May 22 09:08:54 2022, MaxMem=   939524096 cpu:         1.0
 (Enter /Local/ce_dana/g09/l716.exe)
 FrcOut:
 IF    =    63 IFX   =    93 IFXYZ =   123
 IFFX  =   153 IFFFX =   618 IFLen =    30
 IFFLen=   465 IFFFLn=     0 IEDerv=   618
 LEDerv=  1493 IFroze=  2455 ICStrt=  6018
 Dipole        = 8.49087378D-02-3.70762809D-02 3.33066907D-16
 DipoleDeriv   = 1.29838185D-01-2.17044286D-02 3.38805065D-02
                -2.05888148D-02 2.34348910D-02-1.08393162D-02
                -1.67199792D-03-1.46180296D-02-3.48054209D-02
                -2.27124160D-01 1.41540690D-01-1.60111014D-07
                 8.79924366D-02 1.39737553D-01 2.64428518D-07
                 3.31510912D-07 9.84482674D-09 1.59495808D-01
                 1.29838185D-01-2.17044286D-02-3.38805065D-02
                -2.05888148D-02 2.34348910D-02 1.08393162D-02
                 1.67199792D-03 1.46180296D-02-3.48054209D-02
                -4.33619890D-02-1.20145966D-01-1.07308234D-02
                -1.15483588D-01-4.59772580D-02-2.40244190D-02
                 2.10517990D-02 4.36711088D-03 6.17144177D-02
                 8.13099010D-02 2.24149114D-02-3.13338570D-02
                 2.63369951D-02-3.95450098D-03 1.10172807D-01
                -2.65756306D-02 8.91212951D-02-1.10850083D-01
                -1.10580659D-01 1.03379946D-01 4.56159161D-02
                 9.57170381D-02 1.38375885D-02-5.09922684D-02
                 1.13840345D-02-1.78569097D-02 3.24775915D-02
                 1.12712750D-01-1.09429695D-01 7.82337758D-08
                -5.99557393D-02-1.14419003D-01-1.38236000D-07
                -1.72424184D-08-4.44135116D-09-5.65689473D-02
                -1.10580659D-01 1.03379946D-01-4.56159161D-02
                 9.57170381D-02 1.38375885D-02 5.09922684D-02
                -1.13840345D-02 1.78569097D-02 3.24775915D-02
                 8.13099010D-02 2.24149114D-02 3.13338570D-02
                 2.63369951D-02-3.95450098D-03-1.10172807D-01
                 2.65756306D-02-8.91212951D-02-1.10850083D-01
                -4.33619890D-02-1.20145966D-01 1.07308234D-02
                -1.15483588D-01-4.59772580D-02 2.40244190D-02
                -2.10517990D-02-4.36711088D-03 6.17144177D-02
 Polarizability= 2.39250458D+01 8.33922771D-01 2.91145018D+01
                 6.42041421D-18 2.94164284D-15 3.23447193D+01
 PolarDeriv    =-1.38777759D+00 4.31875320D+00 1.53782744D+00
                 2.09133895D+00-7.88134306D-01 4.87625988D-01
                 3.59209472D+00 1.20668575D+00 1.67692914D+00
                -1.14040061D+00 2.58527615D+00-3.90537297D+00
                 4.05745507D-01-1.14533880D+00 5.36325549D-01
                 1.29567441D-01-2.21890058D+00 1.82841269D+00
                -1.30854590D+00-4.87179094D-01-2.99852594D+00
                -3.42731176D-07 3.82027041D-07-1.42684079D+00
                -1.03566954D+00-2.14356066D+00-2.85467639D+00
                 5.25719574D-07-9.82523952D-07 2.57618478D+00
                 1.97504308D-06 1.67318656D-06 1.88619863D-06
                -1.83981605D-01 1.77329810D+00-4.73583621D-06
                -1.38777759D+00 4.31875320D+00 1.53782744D+00
                -2.09133895D+00 7.88134306D-01 4.87625988D-01
                 3.59209472D+00 1.20668575D+00 1.67692914D+00
                 1.14040061D+00-2.58527615D+00-3.90537297D+00
                -4.05745507D-01 1.14533880D+00-5.36325549D-01
                 1.29567441D-01-2.21890058D+00-1.82841269D+00
                -4.19885980D+00-3.14998204D+00-1.43432709D+00
                -9.23417452D-01-3.58195545D-01-8.47100383D-01
                -1.52106720D+00-2.66586919D+00-4.52967869D+00
                -2.44873254D-01-1.10552633D+00-7.45254989D-02
                -2.12999651D-01-4.33808224D-02-9.84224012D-02
                -2.01952328D+00-1.32222963D+00-2.65784791D-01
                -6.72707855D-01 7.69064829D-01-3.49257555D-01
                -2.47047178D+00 3.23443911D-01-5.86391426D-01
                -2.60438441D-01-6.96563998D-01 3.24633344D+00
                 3.50096102D-01-2.80075524D+00 2.56268231D+00
                -3.49990162D-01 3.06788519D-01-7.32324698D-01
                -8.52453730D-01 2.98375596D+00-7.13375473D+00
                 6.22128069D+00-2.80106942D+00 8.45237406D-01
                -1.82558016D+00 8.80820649D-01 1.36684273D+00
                -1.45744892D+00 2.43541296D+00-3.02246920D+00
                 7.91608097D-01-1.56545949D+00-1.89994665D-01
                -3.61997682D-01 4.60795743D-01-3.58950535D-01
                 2.55054563D+00-1.07382403D+00-1.92642788D+00
                 1.38467349D+00 2.21364433D+00 1.79956520D+00
                -3.52676899D-07 2.70341443D-07 5.84893581D-01
                 3.29388856D-01 1.58422950D+00 8.11244637D+00
                -1.36193292D-07-5.02207578D-09 6.38237658D-01
                -1.67339865D-07-1.86204323D-07-1.73473856D-07
                 5.67709286D-01 1.48909940D+00 6.95074159D-08
                 6.22128069D+00-2.80106942D+00 8.45237406D-01
                 1.82558016D+00-8.80820649D-01 1.36684273D+00
                -1.45744892D+00 2.43541296D+00-3.02246920D+00
                -7.91608097D-01 1.56545949D+00-1.89994665D-01
                 3.61997682D-01-4.60795743D-01 3.58950535D-01
                 2.55054563D+00-1.07382403D+00 1.92642788D+00
                -6.72707855D-01 7.69064829D-01-3.49257555D-01
                 2.47047178D+00-3.23443911D-01-5.86391426D-01
                -2.60438441D-01-6.96563998D-01 3.24633344D+00
                -3.50096102D-01 2.80075524D+00 2.56268231D+00
                 3.49990162D-01-3.06788519D-01 7.32324698D-01
                -8.52453730D-01 2.98375596D+00 7.13375473D+00
                -4.19885980D+00-3.14998204D+00-1.43432709D+00
                 9.23417452D-01 3.58195545D-01-8.47100383D-01
                -1.52106720D+00-2.66586919D+00-4.52967869D+00
                 2.44873254D-01 1.10552633D+00-7.45254989D-02
                 2.12999651D-01 4.33808224D-02 9.84224012D-02
                -2.01952328D+00-1.32222963D+00 2.65784791D-01
 HyperPolar    = 1.76534654D+01-4.33789012D+01-3.11237959D+00
                 2.07232417D+01 2.60912066D-13-1.18257627D-13
                 2.26303929D-13-6.49099805D+00 2.10074086D+01
                 9.09218519D-13
 VibFq2-Diag1:  N=     30 IV=          11 MDV=   939514357 NE2=    31317144
 Full mass-weighted force constant matrix:
 Low frequencies ---   -3.2951   -0.0022   -0.0012    0.0069    2.3009    2.3657
 Low frequencies ---  123.7161  147.3535  356.2644
 OrtVCM:  Ph=1 IPass= 1 DotMx1= 0.00D+00
 OrtVCM:  IS=    1 I=    1 IndO=    1 Dot= 1.00D+00 DotN= 1.00D+00 ElMax1= 5.28D-01 ElMax1N= 5.28D-01
 OrtVCM:  Ph=2 NNew=    0 IAdd=    2 IPass= 1 DotMx2= 0.00D+00
 OrtVCM:  IS=    1 I=    2 IndO=    2 Dot= 1.00D+00 DotN= 1.00D+00 ElMax1= 5.28D-01 ElMax1N= 5.28D-01
 OrtVCM:  Ph=2 NNew=    0 IAdd=    3 IPass= 1 DotMx2= 0.00D+00
 OrtVCM:  IS=    1 I=    3 IndO=    3 Dot= 1.00D+00 DotN= 1.00D+00 ElMax1= 5.28D-01 ElMax1N= 5.28D-01
 OrtVCM:  Ph=2 NNew=    0 IAdd=    4 IPass= 1 DotMx2= 1.11D-16
 OrtVCM:  IS=    1 I=    4 IndO=    4 Dot= 1.00D+00 DotN= 1.00D+00 ElMax1= 5.00D-01 ElMax1N= 5.00D-01
 OrtVCM:  Ph=2 NNew=    0 IAdd=    5 IPass= 1 DotMx2= 4.16D-17
 OrtVCM:  IS=    1 I=    5 IndO=    5 Dot= 1.00D+00 DotN= 1.00D+00 ElMax1= 5.77D-01 ElMax1N= 5.77D-01
 OrtVCM:  Ph=2 NNew=    0 IAdd=    6 IPass= 1 DotMx2= 3.82D-17
 OrtVCM:  IS=    1 I=    6 IndO=    6 Dot= 1.00D+00 DotN= 1.00D+00 ElMax1= 5.45D-01 ElMax1N= 5.45D-01
 OrtVCM:  Ph=1 IPass= 1 DotMx1= 5.77D-01
 OrtVCM:  Ph=1 IPass= 2 DotMx1= 2.06D-16
 OrtVCM:  IS=    1 I=    1 IndO=    7 Dot= 3.43D-01 DotN= 3.43D-01 ElMax1= 3.43D-01 ElMax1N= 3.43D-01
 OrtVCM:  Ph=2 NNew=    0 IAdd=    2 IPass= 1 DotMx2= 6.50D-03
 OrtVCM:  Ph=2 NNew=    0 IAdd=    2 IPass= 2 DotMx2= 6.07D-18
 OrtVCM:  IS=    1 I=    2 IndO=    8 Dot= 4.23D-01 DotN= 4.23D-01 ElMax1= 4.23D-01 ElMax1N= 4.23D-01
 OrtVCM:  Ph=2 NNew=    0 IAdd=    3 IPass= 1 DotMx2= 7.92D-02
 OrtVCM:  Ph=2 NNew=    0 IAdd=    3 IPass= 2 DotMx2= 1.56D-17
 OrtVCM:  IS=    1 I=    3 IndO=    9 Dot= 7.06D-01 DotN= 7.06D-01 ElMax1= 7.06D-01 ElMax1N= 7.06D-01
 OrtVCM:  Ph=2 NNew=    0 IAdd=    4 IPass= 1 DotMx2= 2.96D-01
 OrtVCM:  Ph=2 NNew=    0 IAdd=    4 IPass= 2 DotMx2= 1.47D-17
 OrtVCM:  IS=    1 I=    4 IndO=   10 Dot= 3.83D-01 DotN= 3.83D-01 ElMax1= 3.83D-01 ElMax1N= 3.83D-01
 OrtVCM:  Ph=2 NNew=    0 IAdd=    5 IPass= 1 DotMx2= 4.29D-01
 OrtVCM:  Ph=2 NNew=    0 IAdd=    5 IPass= 2 DotMx2= 2.78D-17
 OrtVCM:  IS=    1 I=    5 IndO=   11 Dot= 5.36D-01 DotN= 5.36D-01 ElMax1= 5.36D-01 ElMax1N= 5.36D-01
 OrtVCM:  Ph=2 NNew=    0 IAdd=    6 IPass= 1 DotMx2= 2.89D-01
 OrtVCM:  Ph=2 NNew=    0 IAdd=    6 IPass= 2 DotMx2= 8.33D-17
 OrtVCM:  IS=    1 I=    6 IndO=   12 Dot= 5.43D-01 DotN= 5.43D-01 ElMax1= 5.43D-01 ElMax1N= 5.43D-01
 OrtVCM:  Ph=2 NNew=    0 IAdd=    7 IPass= 1 DotMx2= 2.71D-01
 OrtVCM:  Ph=2 NNew=    0 IAdd=    7 IPass= 2 DotMx2= 2.78D-17
 OrtVCM:  IS=    1 I=    7 IndO=   13 Dot= 2.69D-01 DotN= 2.69D-01 ElMax1= 2.69D-01 ElMax1N= 2.69D-01
 OrtVCM:  Ph=2 NNew=    0 IAdd=    8 IPass= 1 DotMx2= 3.60D-01
 OrtVCM:  Ph=2 NNew=    0 IAdd=    8 IPass= 2 DotMx2= 1.05D-16
 OrtVCM:  IS=    1 I=    8 IndO=   14 Dot= 2.78D-01 DotN= 2.78D-01 ElMax1= 2.78D-01 ElMax1N= 2.78D-01
 OrtVCM:  Ph=2 NNew=    0 IAdd=    9 IPass= 1 DotMx2= 4.58D-01
 OrtVCM:  Ph=2 NNew=    0 IAdd=    9 IPass= 2 DotMx2= 5.55D-17
 OrtVCM:  IS=    1 I=    9 IndO=   15 Dot= 3.70D-01 DotN= 3.70D-01 ElMax1= 3.70D-01 ElMax1N= 3.70D-01
 OrtVCM:  Ph=2 NNew=    0 IAdd=   10 IPass= 1 DotMx2= 4.00D-01
 OrtVCM:  Ph=2 NNew=    0 IAdd=   10 IPass= 2 DotMx2= 1.25D-16
 OrtVCM:  IS=    1 I=   10 IndO=   16 Dot= 6.92D-01 DotN= 6.92D-01 ElMax1= 6.92D-01 ElMax1N= 6.92D-01
 OrtVCM:  Ph=2 NNew=    0 IAdd=   11 IPass= 1 DotMx2= 2.69D-01
 OrtVCM:  Ph=2 NNew=    0 IAdd=   11 IPass= 2 DotMx2= 1.11D-16
 OrtVCM:  IS=    1 I=   11 IndO=   17 Dot= 6.96D-01 DotN= 6.96D-01 ElMax1= 6.96D-01 ElMax1N= 6.96D-01
 OrtVCM:  Ph=2 NNew=    0 IAdd=   12 IPass= 1 DotMx2= 3.10D-01
 OrtVCM:  Ph=2 NNew=    0 IAdd=   12 IPass= 2 DotMx2= 9.71D-17
 OrtVCM:  IS=    1 I=   12 IndO=   18 Dot= 7.87D-01 DotN= 7.87D-01 ElMax1= 7.87D-01 ElMax1N= 7.87D-01
 OrtVCM:  Ph=2 NNew=    0 IAdd=   13 IPass= 1 DotMx2= 4.01D-01
 OrtVCM:  Ph=2 NNew=    0 IAdd=   13 IPass= 2 DotMx2= 3.05D-16
 OrtVCM:  IS=    1 I=   13 IndO=   19 Dot= 5.00D-01 DotN= 5.00D-01 ElMax1= 5.00D-01 ElMax1N= 5.00D-01
 OrtVCM:  Ph=2 NNew=    0 IAdd=   14 IPass= 1 DotMx2= 3.47D-01
 OrtVCM:  Ph=2 NNew=    0 IAdd=   14 IPass= 2 DotMx2= 1.53D-16
 OrtVCM:  IS=    1 I=   14 IndO=   20 Dot= 5.14D-01 DotN= 5.14D-01 ElMax1= 5.14D-01 ElMax1N= 5.14D-01
 OrtVCM:  Ph=2 NNew=    0 IAdd=   15 IPass= 1 DotMx2= 2.96D-01
 OrtVCM:  Ph=2 NNew=    0 IAdd=   15 IPass= 2 DotMx2= 3.47D-17
 OrtVCM:  IS=    1 I=   15 IndO=   21 Dot= 8.07D-01 DotN= 8.07D-01 ElMax1= 8.07D-01 ElMax1N= 8.07D-01
 OrtVCM:  Ph=2 NNew=    0 IAdd=   16 IPass= 1 DotMx2= 5.16D-01
 OrtVCM:  Ph=2 NNew=    0 IAdd=   16 IPass= 2 DotMx2= 2.08D-16
 OrtVCM:  IS=    1 I=   16 IndO=   22 Dot= 2.91D-01 DotN= 2.91D-01 ElMax1= 2.91D-01 ElMax1N= 2.91D-01
 OrtVCM:  Ph=2 NNew=    0 IAdd=   17 IPass= 1 DotMx2= 4.46D-01
 OrtVCM:  Ph=2 NNew=    0 IAdd=   17 IPass= 2 DotMx2= 1.53D-16
 OrtVCM:  IS=    1 I=   17 IndO=   23 Dot= 4.19D-01 DotN= 4.19D-01 ElMax1= 4.19D-01 ElMax1N= 4.19D-01
 OrtVCM:  Ph=2 NNew=    0 IAdd=   18 IPass= 1 DotMx2= 3.00D-01
 OrtVCM:  Ph=2 NNew=    0 IAdd=   18 IPass= 2 DotMx2= 1.67D-16
 OrtVCM:  IS=    1 I=   18 IndO=   24 Dot= 6.22D-01 DotN= 6.22D-01 ElMax1= 6.22D-01 ElMax1N= 6.22D-01
 OrtVCM:  Ph=2 NNew=    0 IAdd=   19 IPass= 1 DotMx2= 4.66D-01
 OrtVCM:  Ph=2 NNew=    0 IAdd=   19 IPass= 2 DotMx2= 1.18D-16
 OrtVCM:  IS=    1 I=   19 IndO=   25 Dot= 1.91D-01 DotN= 1.91D-01 ElMax1= 1.97D-01 ElMax1N= 1.97D-01
 OrtVCM:  Ph=2 NNew=    0 IAdd=   20 IPass= 1 DotMx2= 4.82D-01
 OrtVCM:  Ph=2 NNew=    0 IAdd=   20 IPass= 2 DotMx2= 9.71D-17
 OrtVCM:  IS=    1 I=   20 IndO=   26 Dot= 5.02D-01 DotN= 5.02D-01 ElMax1= 5.02D-01 ElMax1N= 5.02D-01
 OrtVCM:  Ph=2 NNew=    0 IAdd=   21 IPass= 1 DotMx2= 4.04D-01
 OrtVCM:  Ph=2 NNew=    0 IAdd=   21 IPass= 2 DotMx2= 1.51D-16
 OrtVCM:  IS=    1 I=   21 IndO=   27 Dot= 2.53D-01 DotN= 2.53D-01 ElMax1= 3.57D-01 ElMax1N= 3.57D-01
 OrtVCM:  Ph=2 NNew=    0 IAdd=   22 IPass= 1 DotMx2= 4.35D-01
 OrtVCM:  Ph=2 NNew=    0 IAdd=   22 IPass= 2 DotMx2= 5.55D-17
 OrtVCM:  IS=    1 I=   22 IndO=   28 Dot= 6.27D-01 DotN= 6.27D-01 ElMax1= 6.27D-01 ElMax1N= 6.27D-01
 OrtVCM:  Ph=2 NNew=    0 IAdd=   23 IPass= 1 DotMx2= 4.05D-01
 OrtVCM:  Ph=2 NNew=    0 IAdd=   23 IPass= 2 DotMx2= 1.11D-16
 OrtVCM:  IS=    1 I=   23 IndO=   29 Dot= 2.63D-01 DotN= 2.63D-01 ElMax1= 2.63D-01 ElMax1N= 2.63D-01
 OrtVCM:  Ph=2 NNew=    0 IAdd=   24 IPass= 1 DotMx2= 4.80D-01
 OrtVCM:  Ph=2 NNew=    0 IAdd=   24 IPass= 2 DotMx2= 1.04D-16
 OrtVCM:  IS=    1 I=   24 IndO=    0 Dot= 2.30D-31 DotN= 2.30D-31 ElMax1= 2.24D-16 ElMax1N= 2.24D-16
 SchOr2:  IPass= 1 Test2A= 1.00D-01 IOff=     0 NDo=    24 NNew=    23
 OrtVCM:  Ph=1 IPass= 1 DotMx1= 4.96D-01
 OrtVCM:  Ph=1 IPass= 2 DotMx1= 2.83D-16
 OrtVCM:  IS=    1 I=    1 IndO=   30 Dot= 5.98D-02 DotN= 5.98D-02 ElMax1= 1.39D-01 ElMax1N= 1.39D-01
 SchOr2:  IPass= 1 Test2A= 1.00D-01 IOff=    24 NDo=     1 NNew=     1
 VibFq2-Diag2:  N=     24 IV=          11 MDV=   939514357 NE2=    39146431
 Dipole derivatives wrt mode   1:  8.50022D-06 -7.69100D-06 -2.07691D-02
 Polarizability derivatives wrt mode          1
                 1             2             3 
      1   0.136145D-05  0.179176D-05 -0.602955D-01
      2   0.179176D-05 -0.110386D-05 -0.358112D-01
      3  -0.602955D-01 -0.358112D-01  0.119267D-05
 Vibrational polarizability contributions from mode   1       0.0000000       0.0000000       0.0007584
 IFr=  0 A012= 0.32D-11 0.89D-01 0.15D-01 Act= 0.10D+00 DepolP= 0.75D+00 DepolU= 0.86D+00
 Dipole derivatives wrt mode   2: -3.92860D-01  5.43420D-01 -1.14052D-06
 Polarizability derivatives wrt mode          2
                 1             2             3 
      1  -0.101307D+00 -0.138864D+00  0.000000D+00
      2  -0.138864D+00  0.985584D-01  0.000000D+00
      3   0.000000D+00  0.000000D+00 -0.111526D+00
 Vibrational polarizability contributions from mode   2       0.1912883       0.3660023       0.0000000
 IFr=  0 A012= 0.20D-01 0.64D+00 0.11D+00 Act= 0.76D+00 DepolP= 0.64D+00 DepolU= 0.78D+00
 Dipole derivatives wrt mode   3: -3.61949D+00  1.89499D+00 -3.47551D-06
 Polarizability derivatives wrt mode          3
                 1             2             3 
      1  -0.243743D+00 -0.282044D+00  0.000000D+00
      2  -0.282044D+00  0.991147D-01  0.000000D+00
      3   0.000000D+00  0.000000D+00  0.460940D-01
 Vibrational polarizability contributions from mode   3       2.7776862       0.7613794       0.0000000
 IFr=  0 A012= 0.15D-01 0.21D+01 0.35D+00 Act= 0.24D+01 DepolP= 0.72D+00 DepolU= 0.84D+00
 Dipole derivatives wrt mode   4: -3.13369D+00  1.27128D+00 -2.47531D-06
 Polarizability derivatives wrt mode          4
                 1             2             3 
      1  -0.260808D+00 -0.295309D+00  0.000000D+00
      2  -0.295309D+00  0.356984D-01  0.000000D+00
      3   0.000000D+00  0.000000D+00 -0.194803D+00
 Vibrational polarizability contributions from mode   4       1.4761814       0.2429444       0.0000000
 IFr=  0 A012= 0.26D+00 0.25D+01 0.42D+00 Act= 0.32D+01 DepolP= 0.45D+00 DepolU= 0.62D+00
 Dipole derivatives wrt mode   5: -9.28845D-02  1.24887D+00 -4.90036D-07
[...]
     11  0.447372D-02  0.249786D-03  0.715555D-03 -0.319662D-03  0.339434D-01
     12 -0.583857D-02 -0.910274D-03 -0.389154D-03  0.322624D-03 -0.646111D-02
     13 -0.199643D-01 -0.406204D-02 -0.327586D-02  0.425737D-02  0.404209D-02
     14 -0.603481D-02 -0.838502D-03  0.979900D-04  0.100520D-02  0.299607D-01
     15  0.103064D-01  0.267708D-02  0.961658D-03 -0.118155D-02 -0.126867D-02
     16  0.342152D-01  0.191876D-02 -0.205369D-04 -0.581825D-03  0.589348D-03
     17  0.955098D-02  0.525226D-03  0.479282D-04 -0.876312D-04  0.257011D-02
     18 -0.142222D-01 -0.515799D-04  0.208555D-03  0.608045D-03 -0.111001D-02
     19  0.206859D-01  0.509649D-02  0.247437D-01 -0.152085D-01 -0.480260D-02
     20  0.175096D+00 -0.442718D-02 -0.522951D-02  0.428031D-02 -0.955578D-03
     21 -0.130222D+00  0.365782D-02  0.102250D-01 -0.264410D-02  0.128925D-02
     22 -0.309857D-01 -0.657633D-01 -0.238182D-01 -0.476725D-01 -0.164617D-03
     23  0.174532D-01 -0.180924D-01 -0.927916D-01 -0.878015D-01  0.196740D-03
     24 -0.133260D-01 -0.401179D-01 -0.946182D-01 -0.267435D+00  0.000000D+00
     25  0.186967D-01 -0.232732D+00 -0.345607D-01  0.130879D+00  0.535925D-03
     26 -0.110055D-01 -0.366574D-01 -0.680799D-01  0.281218D-01  0.308481D-03
     27  0.102527D-01  0.133390D+00  0.281864D-01 -0.154688D+00  0.131401D-03
     28 -0.860561D-02 -0.634394D-01 -0.337376D-01  0.795038D-02 -0.425128D-03
     29  0.671364D-02 -0.355737D-01 -0.323359D+00  0.262888D-01  0.108656D-02
     30 -0.558779D-02  0.648801D-02  0.275424D-01 -0.567482D-01 -0.232459D-03
               11            12            13            14            15 
     11  0.358666D+00
     12 -0.316679D-01  0.610086D-01
     13 -0.981353D-03  0.365956D-02  0.234882D+00
     14 -0.124017D-01  0.233336D-01 -0.805025D-01  0.964150D-01
     15  0.946595D-03 -0.242470D-02  0.130554D+00 -0.649039D-01  0.162560D+00
     16 -0.114745D-02 -0.406155D-02  0.282615D-02 -0.136060D-01 -0.272281D-01
     17 -0.177984D-01 -0.378362D-01 -0.164492D-02  0.621246D-02  0.136475D-01
     18  0.837653D-03  0.365182D-02  0.993443D-03 -0.100827D-01 -0.213399D-01
     19 -0.122146D-02  0.307475D-02  0.154030D-02  0.253659D-03 -0.900473D-03
     20  0.131365D-03  0.578317D-03 -0.728606D-03  0.344293D-03 -0.321517D-03
     21 -0.121325D-02 -0.400426D-03  0.106004D-03 -0.801209D-03  0.909287D-03
     22 -0.167438D-04 -0.122544D-03  0.842174D-04  0.296988D-03  0.303527D-03
     23 -0.820488D-04 -0.225432D-03 -0.143436D-03 -0.875799D-04  0.485184D-04
     24 -0.363007D-04 -0.181889D-04 -0.221890D-03  0.143998D-03  0.192316D-03
     25  0.119448D-04 -0.200378D-03 -0.154175D-02 -0.235181D-03  0.735702D-03
     26  0.419366D-03 -0.412223D-04  0.733324D-03  0.474298D-03 -0.196706D-03
     27 -0.290350D-04 -0.145637D-03 -0.719680D-03 -0.821416D-05  0.308475D-03
     28 -0.823485D-03  0.159967D-03  0.455034D-03 -0.318574D-03 -0.148290D-03
     29  0.668563D-03 -0.408221D-03 -0.209724D-04  0.501255D-03  0.562395D-05
     30 -0.339392D-03  0.424683D-03  0.171564D-03 -0.797364D-04 -0.146635D-03
               16            17            18            19            20 
     16  0.624468D-01
     17 -0.767932D-02  0.107674D+00
     18 -0.219548D-01  0.111986D+00  0.299953D+00
     19 -0.902222D-03 -0.210056D-04  0.978767D-03  0.689648D-01
     20 -0.529828D-03 -0.791029D-03  0.238785D-03  0.210814D-01  0.255280D+00
     21  0.167291D-03 -0.598485D-03 -0.563827D-03 -0.214296D-01 -0.181475D+00
     22 -0.840204D-03  0.204874D-03  0.936839D-03 -0.792662D-03  0.534587D-03
     23  0.860052D-05  0.388443D-04 -0.325863D-03  0.573461D-05 -0.926049D-03
     24 -0.959186D-03 -0.962215D-04  0.486356D-03 -0.887470D-03  0.455171D-03
     25  0.377057D-04  0.114071D-03  0.253675D-03  0.159239D-02  0.410714D-03
     26 -0.325577D-03 -0.422574D-04  0.927212D-04 -0.578988D-03  0.306022D-03
     27 -0.280428D-03  0.117156D-03  0.193505D-03  0.780267D-03 -0.539490D-03
     28 -0.200643D-03 -0.172275D-03 -0.608465D-05 -0.409989D-02  0.201430D-02
     29  0.455531D-04 -0.440148D-04 -0.360867D-04  0.223688D-02 -0.664971D-03
     30  0.686686D-04 -0.244730D-03 -0.201970D-04 -0.275937D-02  0.125816D-02
               21            22            23            24            25 
     21  0.135799D+00
     22 -0.300217D-03  0.708476D-01
     23 -0.541764D-03  0.194436D-01  0.100917D+00
     24 -0.538333D-03  0.532695D-01  0.102482D+00  0.298309D+00
     25 -0.309527D-03  0.714198D-02  0.170552D-02 -0.400178D-02  0.258322D+00
     26 -0.741388D-03  0.132275D-01  0.245805D-02 -0.977085D-02  0.384721D-01
     27  0.895463D-03  0.291361D-01  0.671475D-02 -0.219014D-01 -0.144305D+00
     28 -0.145868D-02 -0.892307D-03 -0.760020D-02  0.135692D-02 -0.361201D-02
     29 -0.916012D-03 -0.304371D-02 -0.163012D-01  0.558760D-03 -0.117361D-02
     30 -0.306791D-03 -0.508393D-02 -0.375982D-01  0.363622D-02  0.209229D-02
               26            27            28            29            30 
     26  0.669760D-01
     27 -0.326334D-01  0.168560D+00
     28 -0.316138D-01  0.140174D-02  0.675744D-01
     29 -0.473646D-02  0.632460D-03  0.376006D-01  0.357757D+00
     30  0.242077D-01 -0.243584D-02 -0.140109D-02 -0.323277D-01  0.608980D-01
 Final forces over variables, Energy=-1.16986089D+02:
  5.98084142D-06-1.41887447D-06-5.16569377D-06-1.43840817D-07
 -7.89882908D-06-3.63131778D-06 6.29876508D-07 3.15711865D-06
  7.82318784D-06 6.67531515D-07 2.46022662D-06-1.18173543D-05
  3.82286460D-06 2.17898658D-06 7.29490480D-07-1.28574499D-06
  5.13983789D-06-2.11561555D-06-1.19248949D-06 2.07979819D-06
  2.09380176D-06 2.36002191D-06 2.21551321D-06 1.44740852D-07
 -7.86052768D-07-2.63669709D-06 1.41337252D-07-2.71082151D-06
 -9.57724913D-07 1.35881300D-07
 Leave Link  716 at Sun May 22 09:08:54 2022, MaxMem=   939524096 cpu:         0.1
 (Enter /Local/ce_dana/g09/l103.exe)

 GradGradGradGradGradGradGradGradGradGradGradGradGradGradGradGradGradGrad
 Berny optimization.
 Search for a local minimum.
 Step number   1 out of a maximum of    2
 All quantities printed in internal units (Hartrees-Bohrs-Radians)
 Second derivative matrix not updated -- analytic derivatives used.
 ITU=  0
     Eigenvalues ---    0.00061   0.00100   0.01023   0.01334   0.05348
     Eigenvalues ---    0.06669   0.06915   0.08342   0.11968   0.12442
     Eigenvalues ---    0.13071   0.13243   0.15971   0.18663   0.18869
     Eigenvalues ---    0.26413   0.41305   0.58476   0.73946   0.75587
     Eigenvalues ---    0.77424   0.83199   0.83380   1.01468
 Angle between quadratic step and forces=  81.18 degrees.
 ClnCor:  largest displacement from symmetrization is 1.42D-08 for atom    10.
 Linear search not attempted -- first point.
 ClnCor:  largest displacement from symmetrization is 3.94D-15 for atom     7.
 TrRot= -0.000001 -0.000005 -0.000007  0.000000  0.000001  0.000000
 Variable       Old X    -DE/DX   Delta X   Delta X   Delta X     New X
                                 (Linear)    (Quad)   (Total)
    X1        2.46922   0.00001   0.00000  -0.00006  -0.00006   2.46916
    Y1        0.28542   0.00000   0.00000  -0.00008  -0.00008   0.28534
    Z1        0.61851   0.00000   0.00000  -0.00010  -0.00011   0.61840
    X2       -0.06860  -0.00000   0.00000   0.00002   0.00002  -0.06859
    Y2       -0.29912  -0.00001   0.00000   0.00013   0.00013  -0.29899
    Z2        1.77405   0.00000   0.00000   0.00015   0.00015   1.77420
    X3       -2.41516  -0.00001   0.00000   0.00004   0.00004  -2.41513
    Y3        0.88252   0.00000   0.00000  -0.00009  -0.00009   0.88243
    Z3        0.67184   0.00000   0.00000  -0.00010  -0.00011   0.67174
    X4        2.71731  -0.00000   0.00000   0.00031   0.00031   2.71763
    Y4        2.31085   0.00000   0.00000  -0.00005  -0.00006   2.31079
    Z4        0.39610   0.00000   0.00000   0.00040   0.00039   0.39649
    X5        4.00300  -0.00001   0.00000  -0.00004  -0.00004   4.00295
    Y5       -0.42506   0.00000   0.00000  -0.00071  -0.00071  -0.42578
    Z5        1.77472  -0.00000   0.00000  -0.00055  -0.00056   1.77416
    X6        2.64885  -0.00000   0.00000  -0.00062  -0.00062   2.64823
    Y6       -0.56187  -0.00000   0.00000   0.00040   0.00040  -0.56147
    Z6       -1.25108  -0.00000   0.00000  -0.00038  -0.00038  -1.25146
    X7       -0.25753   0.00000   0.00000   0.00012   0.00012  -0.25741
    Y7       -1.94901   0.00001   0.00000   0.00087   0.00087  -1.94815
    Z7        2.94313   0.00000   0.00000   0.00117   0.00117   2.94430
    X8       -2.83377   0.00000   0.00000   0.00069   0.00069  -2.83308
    Y8        0.10837  -0.00000   0.00000   0.00024   0.00024   0.10861
    Z8       -1.19121  -0.00000   0.00000  -0.00039  -0.00040  -1.19161
    X9       -4.04968   0.00001   0.00000  -0.00014  -0.00014  -4.04982
    Y9        0.55936  -0.00000   0.00000  -0.00070  -0.00070   0.55866
    Z9        1.86265  -0.00000   0.00000  -0.00055  -0.00055   1.86210
   X10       -2.17282   0.00000   0.00000  -0.00031  -0.00031  -2.17313
   Y10        2.90866   0.00000   0.00000   0.00002   0.00002   2.90867
   Z10        0.44950   0.00000   0.00000   0.00041   0.00040   0.44990
         Item               Value     Threshold  Converged?
 Maximum Force            0.000012     0.000450     YES
 RMS     Force            0.000004     0.000300     YES
 Maximum Displacement     0.001167     0.001800     YES
 RMS     Displacement     0.000437     0.001200     YES
 Predicted change in Energy=-3.883729D-09
 Optimization completed.
    -- Stationary point found.
 GradGradGradGradGradGradGradGradGradGradGradGradGradGradGradGradGradGrad

 Leave Link  103 at Sun May 22 09:08:54 2022, MaxMem=   939524096 cpu:         0.0
 (Enter /Local/ce_dana/g09/l9999.exe)

 Test job not archived.
 1\1\GINC-TECH-WN168\Freq\UHF\3-21G\C3H7(2)\ALONGD\22-May-2022\0\\#P gu
 ess=read uhf/3-21g freq IOp(7/33=1) scf=(tight, direct) integral=(grid
 =ultrafine, Acc2E=12) IOp(2/9=2000) scf=xqc\\iC3H7\\0,2\C,1.306654,0.1
 51038,0.327302\C,-0.0363030313,-0.1582879962,0.9387870003\C,-1.2780499
 116,0.4670120357,0.3555249485\H,1.43794,1.222848,0.209608\H,2.118295,-
 0.224934,0.939142\H,1.40171,-0.297327,-0.662041\H,-0.1362804586,-1.031
 3729439,1.557437005\H,-1.4995660181,0.0573472387,-0.6303613313\H,-2.14
 29970266,0.2959990295,0.9856719815\H,-1.1498077587,1.5391941389,0.2378
 641849\\Version=ES64L-G09RevD.01\State=2-A'\HF=-116.9860891\S2=0.76460
 1\S2-1=0.\S2A=0.750171\RMSD=4.798e-09\RMSF=3.859e-06\ZeroPoint=0.09445
 32\Thermal=0.099455\Dipole=-0.006194,-0.0433764,-0.081635\DipoleDeriv=
 -0.0315417,0.0024991,0.0185776,0.0327876,0.0657891,0.0551762,0.0373544
 ,0.0520875,0.0842203,0.1569433,-0.018104,-0.031079,-0.0186846,0.027195
 3,-0.2299789,-0.0245821,-0.1768294,-0.1120294,-0.0347002,0.0235893,-0.
 002116,-0.0066751,0.0680823,0.0581411,-0.0211636,0.0590151,0.0850856,0
 .0582893,-0.0070134,0.0134275,-0.0494942,-0.1552041,0.0301764,0.015448
 2,0.0247682,0.0692899,-0.1007401,0.0557485,-0.0800559,0.0650673,0.0602
 213,0.047248,-0.0998627,0.0458196,0.0070241,0.0334806,-0.0029303,0.008
 5043,0.003402,0.0336842,-0.0894583,0.0563018,-0.0875119,-0.1314303,-0.
 0562139,0.001117,0.0200102,0.0016532,-0.0567783,0.1537454,0.0140073,0.
 1046399,0.054717,0.0310359,0.0015567,-0.0332985,-0.0049417,0.0341922,-
 0.0842537,-0.0792365,-0.0709884,-0.1294936,-0.1153503,-0.0108985,0.091
 686,-0.0201323,0.0790025,0.0272028,0.110541,0.0208454,0.0028531,0.0587
 969,-0.0455642,-0.0056559,-0.0029823,-0.1561849,0.0320008,-0.008808,0.
 0281537,0.0697631\Polar=32.2540981,-0.7060449,26.8094585,-0.394617,-2.
 6899451,26.3207104\PolarDeriv=-1.3560633,1.2596619,-0.3045895,-1.80729
 78,0.2100865,-1.2450365,1.7816609,-2.3752003,-5.1501234,0.5991229,1.48
 18536,2.3693329,-3.3980187,0.3501175,0.7095417,-2.9714958,2.3980251,3.
 3959119,-0.2142587,-0.8592345,0.7224365,1.4656501,-0.3581637,0.1642851
 ,-0.3824879,0.6630938,4.1442342,-0.3524128,-1.5528521,1.514663,2.84519
 82,-0.5148845,-1.4354321,0.0265495,0.5129536,1.1026177,2.2817874,0.989
 2412,-1.6175366,-1.7373589,0.6101383,1.9297593,1.980625,0.2850091,-5.6
 415644,0.2086973,1.450086,1.9894843,-3.2159427,0.6556414,0.6465862,3.6
 436031,1.5812831,3.216739,0.983733,2.5668827,0.5685237,0.1781754,-0.08
 23347,0.0895543,1.0121338,1.8356078,7.7001708,-0.3469471,-0.7953529,0.
 0335011,0.4409015,-0.1978947,-0.2650999,0.9639609,1.9122732,-0.9891773
 ,6.7153343,-1.6938829,0.4654521,2.7877228,-0.3065816,0.7687832,-1.3903
 674,2.5262681,-1.0298187,-0.2841707,1.2418387,-0.734479,2.3157725,-0.3
 256226,0.2399701,2.8316858,-1.3530171,2.710162,1.4115987,-1.4229261,0.
 0686417,-2.3543911,0.0622155,0.5979445,-0.9194956,0.9926496,-1.5542231
 ,0.3204502,-2.7488515,-1.5487279,-0.891404,0.3026516,-0.7173518,2.1894
 419,-2.1615942,-7.3041186,-0.4194963,-1.3870821,-0.3645173,0.8503802,0
 .2637894,-0.2050113,-0.8760953,-0.4093614,-5.8321289,0.2690268,3.10595
 18,-1.8113455,0.1566844,0.1512914,1.5064017,-0.3185339,-2.8006504,3.14
 24154,-2.4119084,-1.1644154,0.2378972,-2.4981783,-0.1375725,-1.0031218
 ,-0.911231,-0.8231359,-1.1318279,-0.3950451,-2.6147167,-1.3369374,-1.0
 903225,-0.2304114,-0.585962,-2.7269935,-1.5520869,-7.179206,-7.374366,
 -0.5663266,0.0014233,2.907937,-0.0881316,-0.9872432,-0.765333,-2.04981
 04,0.1284362,-0.1037725,1.2412109,-0.5239386,2.37268,-0.1962768,0.2118
 51,-3.1277187,-0.6284569,2.8594634,0.383643,2.2780806,0.2222662,0.2073
 615,-0.1734453,-0.109914,0.4705845,-0.6451189,8.3668476,0.0850511,-0.8
 091678,0.0484469,0.4644479,0.0053885,-0.3105038,-0.510498,2.0912704,-0
 .9548084\HyperPolar=-2.1067085,-6.9886397,6.579297,37.8218374,20.17729
 65,-2.4275671,3.1869862,-5.1841259,-36.0933898,-29.6368211\PG=CS [SG(C
 1H1),X(C2H6)]\NImag=0\\0.54029464,-0.02983935,0.60100474,0.05556548,-0
 .02295995,0.56155144,-0.18698518,-0.01499977,0.04731214,0.50497214,-0.
 01830185,-0.08521167,0.03686470,-0.01175829,0.43484155,0.04063016,0.03
 354049,-0.09396458,-0.03504384,-0.27130903,0.33490165,-0.02316417,0.01
 303844,-0.01640927,-0.17472536,0.04124966,-0.02950633,0.55521677,-0.00
 639086,0.00415739,-0.00392123,0.03785924,-0.09913681,0.04152096,0.0405
 2611,0.58357770,0.01567832,-0.00805601,0.01000924,-0.03519960,0.046284
 95,-0.09229924,-0.05921761,-0.00971624,0.56405634,-0.06233921,-0.03044
 208,-0.00134241,-0.00564472,-0.03534301,0.00987788,0.00165457,-0.00132
 537,-0.00088471,0.06655435,-0.02862953,-0.32462692,0.02734749,-0.00138
 512,-0.00569176,0.00447372,0.00024979,0.00071556,-0.00031966,0.0339434
 1,0.35866598,0.00038369,0.02825116,-0.05658017,0.00447788,0.01840503,-
 0.00583857,-0.00091027,-0.00038915,0.00032262,-0.00646111,-0.03166785,
 0.06100858,-0.21172362,0.07050383,-0.11883598,-0.02650271,0.01606049,-
 0.01996434,-0.00406204,-0.00327586,0.00425737,0.00404209,-0.00098135,0
 .00365956,0.23488234,0.07259206,-0.09459323,0.05742787,-0.00760269,0.0
 0303717,-0.00603481,-0.00083850,0.00009799,0.00100520,0.02996073,-0.01
 240170,0.02333358,-0.08050250,0.09641505,-0.12125232,0.05814053,-0.149
 18357,0.01652760,-0.00832826,0.01030639,0.00267708,0.00096166,-0.00118
 155,-0.00126867,0.00094660,-0.00242470,0.13055396,-0.06490393,0.162559
 94,-0.05674208,0.01282428,0.02061473,-0.00913364,0.01043027,0.03421519
 ,0.00191876,-0.00002054,-0.00058183,0.00058935,-0.00114745,-0.00406155
 ,0.00282615,-0.01360599,-0.02722812,0.06244682,0.00722666,-0.10050112,
 -0.09643793,-0.00112341,0.00520371,0.00955098,0.00052523,0.00004793,-0
 .00008763,0.00257011,-0.01779844,-0.03783619,-0.00164492,0.00621246,0.
 01364748,-0.00767932,0.10767389,0.01162558,-0.10135591,-0.26874667,0.0
 0833416,-0.00156270,-0.01422218,-0.00005158,0.00020856,0.00060805,-0.0
 0111001,0.00083765,0.00365182,0.00099344,-0.01008274,-0.02133995,-0.02
 195478,0.11198555,0.29995306,0.00006179,-0.02578178,0.01566579,-0.0666
 5840,-0.02071819,0.02068586,0.00509649,0.02474371,-0.01520854,-0.00480
 260,-0.00122146,0.00307475,0.00154030,0.00025366,-0.00090047,-0.000902
 22,-0.00002101,0.00097877,0.06896481,0.00320475,0.00008938,0.00042940,
 -0.02060460,-0.24853916,0.17509635,-0.00442718,-0.00522951,0.00428031,
 -0.00095558,0.00013137,0.00057832,-0.00072861,0.00034429,-0.00032152,-
 0.00052983,-0.00079103,0.00023878,0.02108143,0.25527966,-0.00113646,0.
 01136949,-0.00292824,0.01941410,0.16469312,-0.13022233,0.00365782,0.01
 022497,-0.00264410,0.00128925,-0.00121325,-0.00040043,0.00010600,-0.00
 080121,0.00090929,0.00016729,-0.00059849,-0.00056383,-0.02142958,-0.18
 147548,0.13579931,0.00170551,-0.00038481,0.00051895,-0.01132622,-0.006
 44404,-0.03098569,-0.06576327,-0.02381818,-0.04767249,-0.00016462,-0.0
 0001674,-0.00012254,0.00008422,0.00029699,0.00030353,-0.00084020,0.000
 20487,0.00093684,-0.00079266,0.00053459,-0.00030022,0.07084757,-0.0009
 3821,0.00027455,-0.00020593,0.00541412,0.00650013,0.01745319,-0.018092
 43,-0.09279164,-0.08780147,0.00019674,-0.00008205,-0.00022543,-0.00014
 344,-0.00008758,0.00004852,0.00000860,0.00003884,-0.00032586,0.0000057
 3,-0.00092605,-0.00054176,0.01944357,0.10091692,0.00007422,0.00019744,
 0.00059468,-0.00851322,0.00068404,-0.01332602,-0.04011789,-0.09461825,
 -0.26743495,0.00000084,-0.00003630,-0.00001819,-0.00022189,0.00014400,
 0.00019232,-0.00095919,-0.00009622,0.00048636,-0.00088747,0.00045517,-
 0.00053833,0.05326948,0.10248218,0.29830928,-0.00299233,0.00405292,-0.
 00384017,-0.02675129,-0.00879781,0.01869672,-0.23273229,-0.03456069,0.
 13087871,0.00053593,0.00001194,-0.00020038,-0.00154175,-0.00023518,0.0
 0073570,0.00003771,0.00011407,0.00025367,0.00159239,0.00041071,-0.0003
 0953,0.00714198,0.00170552,-0.00400178,0.25832167,0.00162122,-0.001114
 62,0.00196682,0.01481316,0.00333947,-0.01100548,-0.03665741,-0.0680798
 8,0.02812179,0.00030848,0.00041937,-0.00004122,0.00073332,0.00047430,-
 0.00019671,-0.00032558,-0.00004226,0.00009272,-0.00057899,0.00030602,-
 0.00074139,0.01322746,0.00245805,-0.00977085,0.03847213,0.06697602,-0.
 00232332,0.00149149,-0.00103866,-0.01721089,-0.00393204,0.01025267,0.1
 3339007,0.02818636,-0.15468826,0.00013140,-0.00002904,-0.00014564,-0.0
 0071968,-0.00000821,0.00030848,-0.00028043,0.00011716,0.00019350,0.000
 78027,-0.00053949,0.00089546,0.02913607,0.00671475,-0.02190137,-0.1443
 0525,-0.03263342,0.16855965,0.00188466,0.00102832,0.00075073,0.0027553
 6,0.03362276,-0.00860561,-0.06343944,-0.03373760,0.00795038,-0.0004251
 3,-0.00082348,0.00015997,0.00045503,-0.00031857,-0.00014829,-0.0002006
 4,-0.00017227,-0.00000608,-0.00409989,0.00201430,-0.00145868,-0.000892
 31,-0.00760020,0.00135692,-0.00361201,-0.03161382,0.00140174,0.0675743
 7,-0.00054491,0.00052153,-0.00051122,-0.00061264,-0.01434263,0.0067136
 4,-0.03557371,-0.32335870,0.02628876,0.00108656,0.00066856,-0.00040822
 ,-0.00002097,0.00050126,0.00000562,0.00004555,-0.00004401,-0.00003609,
 0.00223688,-0.00066497,-0.00091601,-0.00304371,-0.01630118,0.00055876,
 -0.00117361,-0.00473646,0.00063246,0.03760057,0.35775658,0.00075466,-0
 .00061870,0.00028656,-0.00009835,0.01820019,-0.00558779,0.00648801,0.0
 2754237,-0.05674817,-0.00023246,-0.00033939,0.00042468,0.00017156,-0.0
 0007974,-0.00014663,0.00006867,-0.00024473,-0.00002020,-0.00275937,0.0
 0125816,-0.00030679,-0.00508393,-0.03759818,0.00363622,0.00209229,0.02
 420773,-0.00243584,-0.00140109,-0.03232772,0.06089795\\-0.00000598,-0.
 00000246,-0.00000209,0.00000142,0.00001182,-0.00000236,0.00000517,-0.0
 0000382,-0.00000222,0.00000014,-0.00000218,-0.00000014,0.00000790,-0.0
 0000073,0.00000079,0.00000363,0.00000129,0.00000264,-0.00000063,-0.000
 00514,-0.00000014,-0.00000316,0.00000212,0.00000271,-0.00000782,0.0000
 0119,0.00000096,-0.00000067,-0.00000208,-0.00000014\\\@


 THE MOST BEAUTIFUL EXPERIENCE WE CAN HAVE IS THE MYSTERIOUS.
 IT IS THE FUNDAMENTAL EMOTION WHICH STANDS AT AT THE CRADLE 
 OF TRUE ART AND TRUE SCIENCE.

                                    -- ALBERT EINSTEIN
 Job cpu time:       0 days  0 hours  0 minutes 16.5 seconds.
 File lengths (MBytes):  RWF=      6 Int=      0 D2E=      0 Chk=      1 Scr=      1
 Normal termination of Gaussian 09 at Sun May 22 09:08:54 2022.
