 Entering Gaussian System, Link 0=/Local/ce_dana/g09/g09
 Initial command:
 /Local/ce_dana/g09/l1.exe "/storage/ce_dana/alongd/scratch/g09/Gau-9385.inp" -scrdir="/storage/ce_dana/alongd/scratch/g09/"
 Entering Link 1 = /Local/ce_dana/g09/l1.exe PID=      9386.
  
 Copyright (c) 1988,1990,1992,1993,1995,1998,2003,2009,2013,
            Gaussian, Inc.  All Rights Reserved.
  
 This is part of the Gaussian(R) 09 program.  It is based on
 the Gaussian(R) 03 system (copyright 2003, Gaussian, Inc.),
 the Gaussian(R) 98 system (copyright 1998, Gaussian, Inc.),
 the Gaussian(R) 94 system (copyright 1995, Gaussian, Inc.),
 the Gaussian 92(TM) system (copyright 1992, Gaussian, Inc.),
 the Gaussian 90(TM) system (copyright 1990, Gaussian, Inc.),
 the Gaussian 88(TM) system (copyright 1988, Gaussian, Inc.),
 the Gaussian 86(TM) system (copyright 1986, Carnegie Mellon
 University), and the Gaussian 82(TM) system (copyright 1983,
 Carnegie Mellon University). Gaussian is a federally registered
 trademark of Gaussian, Inc.
  
 This software contains proprietary and confidential information,
 including trade secrets, belonging to Gaussian, Inc.
  
 This software is provided under written license and may be
 used, copied, transmitted, or stored only in accord with that
 written license.
  
 The following legend is applicable only to US Government
 contracts under FAR:
  
                    RESTRICTED RIGHTS LEGEND
  
 Use, reproduction and disclosure by the US Government is
 subject to restrictions as set forth in subparagraphs (a)
 and (c) of the Commercial Computer Software - Restricted
 Rights clause in FAR 52.227-19.
  
 Gaussian, Inc.
 340 Quinnipiac St., Bldg. 40, Wallingford CT 06492
  
  
 ---------------------------------------------------------------
 Warning -- This program may not be used in any manner that
 competes with the business of Gaussian, Inc. or will provide
 assistance to any competitor of Gaussian, Inc.  The licensee
 of this program is prohibited from giving any competitor of
 Gaussian, Inc. access to this program.  By using this program,
 the user acknowledges that Gaussian, Inc. is engaged in the
 business of creating and licensing software in the field of
 computational chemistry and represents and warrants to the
 licensee that it is not a competitor of Gaussian, Inc. and that
 it will not use this program in any manner prohibited above.
 ---------------------------------------------------------------
  

 Cite this work as:
 Gaussian 09, Revision D.01,
 M. J. Frisch, G. W. Trucks, H. B. Schlegel, G. E. Scuseria, 
 M. A. Robb, J. R. Cheeseman, G. Scalmani, V. Barone, B. Mennucci, 
 G. A. Petersson, H. Nakatsuji, M. Caricato, X. Li, H. P. Hratchian, 
 A. F. Izmaylov, J. Bloino, G. Zheng, J. L. Sonnenberg, M. Hada, 
 M. Ehara, K. Toyota, R. Fukuda, J. Hasegawa, M. Ishida, T. Nakajima, 
 Y. Honda, O. Kitao, H. Nakai, T. Vreven, J. A. Montgomery, Jr., 
 J. E. Peralta, F. Ogliaro, M. Bearpark, J. J. Heyd, E. Brothers, 
 K. N. Kudin, V. N. Staroverov, T. Keith, R. Kobayashi, J. Normand, 
 K. Raghavachari, A. Rendell, J. C. Burant, S. S. Iyengar, J. Tomasi, 
 M. Cossi, N. Rega, J. M. Millam, M. Klene, J. E. Knox, J. B. Cross, 
 V. Bakken, C. Adamo, J. Jaramillo, R. Gomperts, R. E. Stratmann, 
 O. Yazyev, A. J. Austin, R. Cammi, C. Pomelli, J. W. Ochterski, 
 R. L. Martin, K. Morokuma, V. G. Zakrzewski, G. A. Voth, 
 P. Salvador, J. J. Dannenberg, S. Dapprich, A. D. Daniels, 
 O. Farkas, J. B. Foresman, J. V. Ortiz, J. Cioslowski, 
 and D. J. Fox, Gaussian, Inc., Wallingford CT, 2013.
 
 ******************************************
 Gaussian 09:  ES64L-G09RevD.01 24-Apr-2013
                22-May-2022 
 ******************************************
 %chk=check.chk
 %mem=7168mb
 %NProcShared=10
 Will use up to   10 processors via shared memory.
 ----------------------------------------------------------------------
 #P guess=read uhf/3-21g freq IOp(7/33=1) scf=(tight, direct) integral=
 (grid=ultrafine, Acc2E=12) IOp(2/9=2000) scf=xqc
 ----------------------------------------------------------------------
 1/10=4,30=1,38=1/1,3;
 2/9=2000,12=2,17=6,18=5,40=1/2;
 3/5=5,11=2,16=1,25=1,30=1,71=2,75=-5,116=2,140=1/1,2,3;
 4/5=1/1;
 5/5=2,8=3,13=1,32=2,38=6,87=12,98=1/2,8;
 8/6=4,10=90,11=11,87=12/1;
 10/13=10,15=4,87=12/2;
 11/6=3,8=1,9=11,15=111,16=1,87=12/1,2,10;
 10/6=1,87=12/2;
 6/7=2,8=2,9=2,10=2,18=1,28=1/1;
 7/8=1,10=1,25=1,33=1,87=12/1,2,3,16;
 1/10=4,30=1/3;
 99//99;
 Leave Link    1 at Sun May 22 09:08:51 2022, MaxMem=   939524096 cpu:         0.1
 (Enter /Local/ce_dana/g09/l101.exe)
 -----
 nC3H7
 -----
 Symbolic Z-matrix:
 Charge =  0 Multiplicity = 2
 C                     1.39626   0.27789  -0.20045 
 C                     0.18277  -0.34882   0.43899 
 C                    -0.84673   0.70956   0.89006 
 H                     2.34005  -0.23416  -0.20728 
 H                     1.28321   1.1402   -0.8318 
 H                    -0.29767  -1.03001  -0.26299 
 H                     0.48643  -0.94631   1.29231 
 H                    -1.17742   1.3013    0.04317 
 H                    -1.71608   0.23872   1.33501 
 H                    -0.40643   1.37827   1.62052 
 
 NAtoms=     10 NQM=       10 NQMF=       0 NMMI=      0 NMMIF=      0
                NMic=       0 NMicF=      0.
                    Isotopes and Nuclear Properties:
 (Nuclear quadrupole moments (NQMom) in fm**2, nuclear magnetic moments (NMagM)
  in nuclear magnetons)

  Atom         1           2           3           4           5           6           7           8           9          10
 IAtWgt=          12          12          12           1           1           1           1           1           1           1
 AtmWgt=  12.0000000  12.0000000  12.0000000   1.0078250   1.0078250   1.0078250   1.0078250   1.0078250   1.0078250   1.0078250
 NucSpn=           0           0           0           1           1           1           1           1           1           1
 AtZEff=   0.0000000   0.0000000   0.0000000   0.0000000   0.0000000   0.0000000   0.0000000   0.0000000   0.0000000   0.0000000
 NQMom=    0.0000000   0.0000000   0.0000000   0.0000000   0.0000000   0.0000000   0.0000000   0.0000000   0.0000000   0.0000000
 NMagM=    0.0000000   0.0000000   0.0000000   2.7928460   2.7928460   2.7928460   2.7928460   2.7928460   2.7928460   2.7928460
 AtZNuc=   6.0000000   6.0000000   6.0000000   1.0000000   1.0000000   1.0000000   1.0000000   1.0000000   1.0000000   1.0000000
 Leave Link  101 at Sun May 22 09:08:51 2022, MaxMem=   939524096 cpu:         0.1
 (Enter /Local/ce_dana/g09/l103.exe)

 GradGradGradGradGradGradGradGradGradGradGradGradGradGradGradGradGradGrad
 Berny optimization.
 Initialization pass.
 Trust Radius=3.00D-01 FncErr=1.00D-07 GrdErr=1.00D-07
 Number of steps in this run=      2 maximum allowed number of steps=      2.
 GradGradGradGradGradGradGradGradGradGradGradGradGradGradGradGradGradGrad

 Leave Link  103 at Sun May 22 09:08:51 2022, MaxMem=   939524096 cpu:         0.0
 (Enter /Local/ce_dana/g09/l202.exe)
                          Input orientation:                          
 ---------------------------------------------------------------------
 Center     Atomic      Atomic             Coordinates (Angstroms)
 Number     Number       Type             X           Y           Z
 ---------------------------------------------------------------------
      1          6           0        1.396256    0.277891   -0.200447
      2          6           0        0.182768   -0.348823    0.438987
      3          6           0       -0.846732    0.709562    0.890057
      4          1           0        2.340054   -0.234161   -0.207278
      5          1           0        1.283210    1.140203   -0.831797
      6          1           0       -0.297668   -1.030005   -0.262994
      7          1           0        0.486429   -0.946306    1.292311
      8          1           0       -1.177415    1.301297    0.043173
      9          1           0       -1.716082    0.238722    1.335014
     10          1           0       -0.406432    1.378271    1.620520
 ---------------------------------------------------------------------
                    Distance matrix (angstroms):
                    1          2          3          4          5
     1  C    0.000000
     2  C    1.508045   0.000000
     3  C    2.531113   1.543863   0.000000
     4  H    1.073778   2.254925   3.500052   0.000000
     5  H    1.074693   2.245677   2.772523   1.842775   0.000000
     6  H    2.141000   1.089773   2.158029   2.755730   2.744543
     7  H    2.134191   1.085061   2.163568   2.488341   3.082242
     8  H    2.780376   2.174779   1.084765   3.846160   2.616524
     9  H    3.470709   2.180299   1.084180   4.365149   3.808345
    10  H    2.788627   2.173944   1.083795   3.672052   2.987545
                    6          7          8          9         10
     6  H    0.000000
     7  H    1.743785   0.000000
     8  H    2.510510   3.062751   0.000000
     9  H    2.484994   2.501434   1.757294   0.000000
    10  H    3.059289   2.511689   1.757374   1.759338   0.000000
 Stoichiometry    C3H7(2)
 Framework group  C1[X(C3H7)]
 Deg. of freedom    24
 Full point group                 C1      NOp   1
 Largest Abelian subgroup         C1      NOp   1
 Largest concise Abelian subgroup C1      NOp   1
                         Standard orientation:                         
 ---------------------------------------------------------------------
 Center     Atomic      Atomic             Coordinates (Angstroms)
 Number     Number       Type             X           Y           Z
 ---------------------------------------------------------------------
      1          6           0        1.304292   -0.298355   -0.039425
      2          6           0        0.075467    0.569717    0.063719
      3          6           0       -1.226408   -0.252972   -0.044982
      4          1           0        2.239138    0.110101   -0.374427
      5          1           0        1.310595   -1.272855    0.413648
      6          1           0        0.075823    1.103645    1.013733
      7          1           0        0.094055    1.324109   -0.715964
      8          1           0       -1.270586   -0.997834    0.742383
      9          1           0       -2.097067    0.386911    0.044177
     10          1           0       -1.272069   -0.764416   -0.999420
 ---------------------------------------------------------------------
 Rotational constants (GHZ):     32.3259502      8.9433798      7.7596557
 Leave Link  202 at Sun May 22 09:08:51 2022, MaxMem=   939524096 cpu:         0.0
 (Enter /Local/ce_dana/g09/l301.exe)
 Standard basis: 3-21G (6D, 7F)
 Ernie: Thresh=  0.10000D-02 Tol=  0.10000D-05 Strict=F.
 
 
 
 < output shortened >
 
 
 
 Harmonic frequencies (cm**-1), IR intensities (KM/Mole), Raman scattering
 activities (A**4/AMU), depolarization ratios for plane and unpolarized
 incident light, reduced masses (AMU), force constants (mDyne/A),
 and normal coordinates:
                      1                      2                      3
                      A                      A                      A
 Frequencies --    123.8542               263.7707               400.4405
 Red. masses --      1.0388                 1.0930                 1.7221
 Frc consts  --      0.0094                 0.0448                 0.1627
 IR Inten    --      0.6513                 0.2830                 9.6823
 Raman Activ --      7.7681                 0.2697                 2.3716
 Depolar (P) --      0.7494                 0.7500                 0.5521
 Depolar (U) --      0.8568                 0.8571                 0.7115
  Atom  AN      X      Y      Z        X      Y      Z        X      Y      Z
     1   6     0.01   0.01  -0.01     0.00  -0.01   0.05     0.14   0.03  -0.05
     2   6    -0.00  -0.00  -0.04    -0.00   0.00  -0.07     0.00  -0.14  -0.01
     3   6     0.00  -0.00   0.04    -0.00  -0.00   0.01    -0.14   0.05   0.00
     4   1     0.16   0.20   0.66     0.05   0.00   0.19     0.10   0.41   0.30
     5   1    -0.21  -0.26  -0.57    -0.04   0.02   0.11     0.47   0.19   0.30
     6   1     0.02   0.07  -0.07     0.00   0.10  -0.12     0.03  -0.17   0.00
     7   1    -0.01  -0.04  -0.08     0.00  -0.07  -0.14    -0.01  -0.10   0.03
     8   1    -0.01   0.08   0.11     0.29  -0.33  -0.29    -0.33   0.09   0.03
     9   1     0.00   0.01  -0.04     0.00  -0.07   0.57     0.02   0.28  -0.00
    10   1     0.00  -0.10   0.09    -0.30   0.39  -0.19    -0.29   0.05   0.01
                      4                      5                      6
                      A                      A                      A
 Frequencies --    470.2337               832.4850               910.8458
 Red. masses --      1.4744                 1.1778                 2.7338
 Frc consts  --      0.1921                 0.4809                 1.3363
 IR Inten    --     40.8464                 2.4390                 0.1264
 Raman Activ --      3.2106                 0.6528                13.8888
 Depolar (P) --      0.6925                 0.5979                 0.2067
 Depolar (U) --      0.8183                 0.7483                 0.3426
  Atom  AN      X      Y      Z        X      Y      Z        X      Y      Z
     1   6     0.10   0.07   0.14     0.04   0.03   0.03     0.20  -0.07  -0.05
     2   6    -0.00  -0.06  -0.02     0.02   0.02  -0.09     0.04   0.21   0.06
     3   6    -0.07   0.01  -0.00    -0.04  -0.02  -0.02    -0.23  -0.09   0.01
     4   1    -0.09  -0.10  -0.60     0.14  -0.22   0.01     0.38  -0.38   0.06
     5   1     0.04  -0.28  -0.62    -0.23   0.03   0.04    -0.09  -0.03   0.08
     6   1    -0.09   0.07  -0.09    -0.11  -0.48   0.20     0.16   0.32  -0.02
     7   1     0.02  -0.14  -0.10     0.06   0.43   0.31    -0.05   0.06  -0.08
     8   1    -0.13  -0.00  -0.02     0.20   0.17   0.18    -0.17  -0.21  -0.11
     9   1     0.01   0.11   0.04    -0.01  -0.01   0.16    -0.41  -0.32  -0.13
    10   1    -0.16   0.05  -0.02    -0.32  -0.24   0.11     0.12   0.00  -0.06
                      7                      8                      9
                      A                      A                      A
 Frequencies --   1006.9725              1097.3257              1176.6900
 Red. masses --      1.2578                 2.8755                 1.3641
 Frc consts  --      0.7514                 2.0400                 1.1128
 IR Inten    --      1.9407                 0.9595                 2.3161
 Raman Activ --      0.7775                 7.0583                 2.8245
 Depolar (P) --      0.5245                 0.7113                 0.3543
 Depolar (U) --      0.6881                 0.8313                 0.5232
  Atom  AN      X      Y      Z        X      Y      Z        X      Y      Z
     1   6    -0.02   0.10  -0.02    -0.18   0.09   0.02    -0.01   0.04   0.05
     2   6     0.06  -0.04   0.00     0.30   0.01   0.02     0.00  -0.07  -0.11
     3   6     0.02  -0.07   0.03    -0.14  -0.11  -0.04    -0.04   0.06   0.08
     4   1     0.19  -0.34   0.04    -0.31   0.33  -0.02    -0.05   0.03  -0.03
     5   1    -0.50   0.16   0.10     0.01   0.08  -0.06    -0.08   0.01  -0.01
     6   1     0.07   0.00  -0.02     0.33   0.09  -0.01     0.53  -0.31   0.04
     7   1    -0.31  -0.06  -0.02     0.62  -0.04  -0.02    -0.12   0.15   0.11
     8   1    -0.44  -0.14  -0.07    -0.04  -0.06   0.03     0.01  -0.18  -0.16
     9   1     0.28   0.31  -0.08    -0.12  -0.09   0.05    -0.29  -0.26  -0.20
    10   1    -0.06   0.15  -0.09    -0.22  -0.19   0.01     0.49   0.19  -0.02
                     10                     11                     12
                      A                      A                      A
 Frequencies --   1287.0244              1421.2504              1495.1928
 Red. masses --      1.6645                 1.1631                 1.3366
 Frc consts  --      1.6245                 1.3842                 1.7606
 IR Inten    --      0.9874                 0.3084                 0.6133
 Raman Activ --      3.2490                12.9107                 2.4987
 Depolar (P) --      0.5512                 0.7482                 0.6845
 Depolar (U) --      0.7107                 0.8560                 0.8127
  Atom  AN      X      Y      Z        X      Y      Z        X      Y      Z
     1   6     0.02   0.10  -0.06     0.00  -0.01   0.03    -0.02  -0.03   0.01
     2   6     0.00  -0.15   0.09    -0.02   0.01   0.05     0.16  -0.01  -0.01
     3   6    -0.04   0.11  -0.05     0.01  -0.01  -0.10    -0.04   0.04  -0.01
     4   1     0.21  -0.28   0.02    -0.04   0.05  -0.02    -0.10   0.12   0.00
     5   1    -0.39   0.16   0.09     0.01  -0.02  -0.00     0.07  -0.04  -0.01
     6   1    -0.11   0.14  -0.07     0.73   0.08   0.01    -0.49  -0.03   0.01
     7   1     0.17  -0.34  -0.09    -0.49  -0.06  -0.03    -0.80   0.01  -0.01
     8   1     0.44   0.15   0.03     0.13   0.19   0.10     0.17   0.00  -0.03
     9   1    -0.29  -0.28   0.10     0.04   0.01   0.16    -0.10  -0.05   0.01
    10   1     0.10  -0.18   0.10    -0.25  -0.20   0.02     0.12  -0.06   0.04
                     13                     14                     15
                      A                      A                      A
 Frequencies --   1568.6415              1595.9661              1649.7949
 Red. masses --      1.1787                 1.1436                 1.0708
 Frc consts  --      1.7088                 1.7162                 1.7173
 IR Inten    --      3.2229                 1.9935                 2.8543
 Raman Activ --      3.4972                 5.4680                21.8065
 Depolar (P) --      0.7417                 0.7353                 0.7480
 Depolar (U) --      0.8517                 0.8475                 0.8558
  Atom  AN      X      Y      Z        X      Y      Z        X      Y      Z
     1   6     0.03  -0.02  -0.00    -0.08   0.06   0.00    -0.00   0.01   0.00
     2   6     0.01   0.00   0.00     0.01  -0.01  -0.00     0.00   0.07   0.01
     3   6     0.10   0.06   0.01     0.03   0.03   0.00     0.01  -0.00   0.00
     4   1    -0.11   0.22  -0.07     0.26  -0.57   0.17     0.01   0.00   0.00
     5   1    -0.25   0.01   0.06     0.65  -0.02  -0.14    -0.01   0.00  -0.01
     6   1    -0.05   0.02  -0.01     0.03  -0.01  -0.00    -0.01  -0.59   0.35
     7   1    -0.02   0.02   0.02    -0.05   0.01   0.01     0.01  -0.49  -0.50
     8   1    -0.47  -0.15  -0.20    -0.13  -0.08  -0.11    -0.03   0.07   0.06
     9   1    -0.30  -0.44  -0.06    -0.11  -0.15  -0.05    -0.05  -0.06  -0.01
    10   1    -0.47  -0.19   0.15    -0.18  -0.10   0.08    -0.03   0.08  -0.04
                     16                     17                     18
                      A                      A                      A
 Frequencies --   1671.8176              1674.9457              3147.8926
 Red. masses --      1.0415                 1.0508                 1.0702
 Frc consts  --      1.7150                 1.7368                 6.2483
 IR Inten    --      6.5599                 4.7403                31.7749
 Raman Activ --     23.4672                15.4898                95.0226
 Depolar (P) --      0.7496                 0.7472                 0.3119
 Depolar (U) --      0.8569                 0.8553                 0.4755
  Atom  AN      X      Y      Z        X      Y      Z        X      Y      Z
     1   6     0.00  -0.00  -0.00     0.01  -0.00   0.00     0.00  -0.00  -0.00
     2   6    -0.00   0.00   0.02    -0.02   0.03   0.00    -0.00  -0.05  -0.06
     3   6    -0.01  -0.00   0.05    -0.03   0.04  -0.00    -0.00   0.00   0.01
     4   1    -0.01   0.02  -0.01    -0.01   0.03  -0.01    -0.01  -0.01   0.00
     5   1    -0.04   0.00   0.01    -0.02  -0.00   0.00     0.00   0.01  -0.01
     6   1     0.04   0.02   0.01     0.04  -0.08   0.06    -0.00   0.46   0.86
     7   1    -0.03  -0.03  -0.01     0.05  -0.06  -0.07     0.00   0.10  -0.14
     8   1     0.49  -0.20  -0.14     0.05  -0.43  -0.42    -0.00   0.04  -0.04
     9   1     0.03   0.14  -0.69     0.21   0.30   0.14     0.06  -0.05  -0.00
    10   1    -0.44   0.08   0.00     0.18  -0.57   0.31    -0.00  -0.02  -0.04
                     19                     20                     21
                      A                      A                      A
 Frequencies --   3195.9359              3215.7422              3254.9953
 Red. masses --      1.0333                 1.0881                 1.1002
 Frc consts  --      6.2181                 6.6295                 6.8681
 IR Inten    --     25.0398                12.0835                45.8541
 Raman Activ --    101.0664               107.1801                49.6324
 Depolar (P) --      0.0187                 0.5652                 0.5898
 Depolar (U) --      0.0368                 0.7222                 0.7420
  Atom  AN      X      Y      Z        X      Y      Z        X      Y      Z
     1   6    -0.00   0.00  -0.00     0.00   0.00  -0.00    -0.00   0.00  -0.00
     2   6     0.00   0.00   0.00    -0.00  -0.05   0.06     0.00  -0.01   0.02
     3   6    -0.04  -0.03   0.00    -0.01   0.01  -0.02     0.04  -0.07   0.04
     4   1     0.01   0.01  -0.00    -0.04  -0.02   0.01    -0.00   0.00  -0.00
     5   1    -0.00  -0.02   0.01     0.00  -0.02   0.01    -0.00  -0.04   0.02
     6   1    -0.00  -0.02  -0.04     0.00  -0.08  -0.10    -0.00  -0.02  -0.02
     7   1    -0.00  -0.01   0.01     0.01   0.65  -0.68     0.01   0.18  -0.19
     8   1     0.01   0.43  -0.46    -0.01  -0.15   0.17     0.03   0.45  -0.49
     9   1     0.44  -0.34  -0.05     0.10  -0.08  -0.02    -0.55   0.41   0.07
    10   1     0.01   0.24   0.48     0.00   0.08   0.13     0.01  -0.05  -0.05
                     22                     23                     24
                      A                      A                      A
 Frequencies --   3261.1293              3283.3885              3387.9541
 Red. masses --      1.1020                 1.0498                 1.1185
 Frc consts  --      6.9052                 6.6682                 7.5644
 IR Inten    --     39.6410                17.8540                21.2332
 Raman Activ --     49.2055                93.4971                50.6650
 Depolar (P) --      0.7481                 0.1127                 0.7102
 Depolar (U) --      0.8559                 0.2026                 0.8306
  Atom  AN      X      Y      Z        X      Y      Z        X      Y      Z
     1   6    -0.00  -0.00   0.00    -0.05   0.04  -0.01    -0.05  -0.07   0.04
     2   6     0.00   0.00  -0.02     0.00  -0.00  -0.00    -0.00  -0.00   0.00
     3   6     0.03  -0.04  -0.08    -0.00   0.00  -0.00     0.00  -0.00   0.00
     4   1     0.01   0.00  -0.00     0.58   0.27  -0.22     0.64   0.27  -0.23
     5   1    -0.00   0.00  -0.00    -0.01  -0.67   0.31    -0.01   0.61  -0.28
     6   1     0.00   0.06   0.09    -0.00   0.01   0.02    -0.00  -0.00  -0.00
     7   1    -0.00  -0.09   0.09    -0.00   0.00  -0.00    -0.00   0.04  -0.04
     8   1    -0.00  -0.22   0.21    -0.00  -0.02   0.02     0.00   0.01  -0.01
     9   1    -0.35   0.26   0.02     0.01  -0.01  -0.00    -0.00   0.00   0.00
    10   1     0.03   0.39   0.73    -0.00  -0.01  -0.01     0.00  -0.00  -0.00

 -------------------
 - Thermochemistry -
 -------------------
 Temperature   298.150 Kelvin.  Pressure   1.00000 Atm.
 Atom     1 has atomic number  6 and mass  12.00000
 Atom     2 has atomic number  6 and mass  12.00000
 Atom     3 has atomic number  6 and mass  12.00000
 Atom     4 has atomic number  1 and mass   1.00783
 Atom     5 has atomic number  1 and mass   1.00783
 Atom     6 has atomic number  1 and mass   1.00783
 Atom     7 has atomic number  1 and mass   1.00783
 Atom     8 has atomic number  1 and mass   1.00783
 Atom     9 has atomic number  1 and mass   1.00783
 Atom    10 has atomic number  1 and mass   1.00783
 Molecular mass:    43.05478 amu.
 Principal axes and moments of inertia in atomic units:
                           1         2         3
     Eigenvalues --    55.82949 201.79633 232.58006
           X            0.99999   0.00523  -0.00126
           Y           -0.00527   0.99914  -0.04115
           Z            0.00104   0.04115   0.99915
 This molecule is an asymmetric top.
 Rotational symmetry number  1.
 Rotational temperatures (Kelvin)      1.55140     0.42921     0.37240
 Rotational constants (GHZ):          32.32595     8.94338     7.75966
 Zero-point vibrational energy     247592.8 (Joules/Mol)
                                   59.17611 (Kcal/Mol)
 Warning -- explicit consideration of   4 degrees of freedom as
           vibrations may cause significant error
 Vibrational temperatures:    178.20   379.51   576.14   676.56  1197.76
          (Kelvin)           1310.50  1448.81  1578.80  1692.99  1851.74
                             2044.86  2151.25  2256.92  2296.24  2373.68
                             2405.37  2409.87  4529.11  4598.23  4626.73
                             4683.21  4692.03  4724.06  4874.50
 
 Zero-point correction=                           0.094303 (Hartree/Particle)
 Thermal correction to Energy=                    0.099088
 Thermal correction to Enthalpy=                  0.100032
 Thermal correction to Gibbs Free Energy=         0.067699
 Sum of electronic and zero-point Energies=           -116.888186
 Sum of electronic and thermal Energies=              -116.883401
 Sum of electronic and thermal Enthalpies=            -116.882457
 Sum of electronic and thermal Free Energies=         -116.914791
 
                     E (Thermal)             CV                S
                      KCal/Mol        Cal/Mol-Kelvin    Cal/Mol-Kelvin
 Total                   62.179             14.938             68.052
 Electronic               0.000              0.000              1.377
 Translational            0.889              2.981             37.206
 Rotational               0.889              2.981             22.487
 Vibrational             60.401              8.977              6.981
 Vibration     1          0.610              1.929              3.039
 Vibration     2          0.670              1.739              1.637
 Vibration     3          0.766              1.469              0.961
 Vibration     4          0.827              1.316              0.737
                       Q            Log10(Q)             Ln(Q)
 Total Bot       0.725956D-31        -31.139090        -71.700403
 Total V=0       0.172682D+13         12.237247         28.177302
 Vib (Bot)       0.178391D-42        -42.748628        -98.432353
 Vib (Bot)    1  0.164849D+01          0.217086          0.499859
 Vib (Bot)    2  0.734992D+00         -0.133717         -0.307895
 Vib (Bot)    3  0.444957D+00         -0.351682         -0.809777
 Vib (Bot)    4  0.358632D+00         -0.445351         -1.025457
 Vib (V=0)       0.424335D+01          0.627708          1.445352
 Vib (V=0)    1  0.222265D+01          0.346871          0.798700
 Vib (V=0)    2  0.138894D+01          0.142683          0.328541
 Vib (V=0)    3  0.116932D+01          0.067933          0.156421
 Vib (V=0)    4  0.111532D+01          0.047399          0.109140
 Electronic      0.200000D+01          0.301030          0.693147
 Translational   0.111042D+08          7.045487         16.222834
 Rotational      0.183240D+05          4.263021          9.815969
 
                                                                nC3H7
                                                             IR Spectrum
 
     3  333 333                                                      111 11 1  1    1   1  1   1                                     
     3  222 211                                                      666 55 4  4    2   1  0   0  9  8             4 4     2    1    
     8  865 194                                                      775 96 9  2    8   7  9   0  1  3             7 0     6    2    
     8  315 668                                                      520 69 5  1    7   7  7   7  1  2             0 0     4    4    
 
     X  XXX XXX                                                      XXX XX X  X    X   X  X   X  X  X             X X     X    X    
     X  XXX XXX                                                      XX                                            X X               
     X  XXX XXX                                                       X                                            X X               
     X  XXX XXX                                                                                                    X X               
     X  XXX XXX                                                                                                    X                 
     X  XXX  XX                                                                                                    X                 
     X  XXX  XX                                                                                                    X                 
     X  XXX  XX                                                                                                    X                 
     X   XX  XX                                                                                                    X                 
         XX  XX                                                                                                    X                 
         XX  XX                                                                                                    X                 
         XX   X                                                                                                    X                 
         XX   X                                                                                                    X                 
         XX   X                                                                                                    X                 
         XX                                                                                                        X                 
         XX                                                                                                        X                 
         XX                                                                                                        X                 
          X                                                                                                        X                 
          X                                                                                                                          
          X                                                                                                                          
 
 
                                                                nC3H7
                                                            Raman Spectrum
 
     3  333 333                                                      111 11 1  1    1   1  1   1                                     
     3  222 211                                                      666 55 4  4    2   1  0   0  9  8             4 4     2    1    
     8  865 194                                                      775 96 9  2    8   7  9   0  1  3             7 0     6    2    
     8  315 668                                                      520 69 5  1    7   7  7   7  1  2             0 0     4    4    
 
     X  XXX XXX                                                      XXX XX X  X    X   X  X   X  X  X             X X     X    X    
     X  XXX XXX                                                      XXX       X                  X                                  
     X  XXX XXX                                                      XXX                          X                                  
     X  XXX XXX                                                       XX                                                             
     X  XXX XXX                                                                                                                      
     X  XXX XXX                                                                                                                      
     X  XXX XXX                                                                                                                      
     X  XXX XXX                                                                                                                      
     X  XXX XXX                                                                                                                      
        X   XXX                                                                                                                      
        X   XXX                                                                                                                      
        X   XXX                                                                                                                      
        X   XXX                                                                                                                      
        X   XXX                                                                                                                      
        X   XXX                                                                                                                      
        X   XXX                                                                                                                      
        X   XXX                                                                                                                      
            XXX                                                                                                                      
            XX                                                                                                                       
            X                                                                                                                        
 
 Forces in standard orientation:
 -------------------------------------------------------------------
 Center     Atomic                   Forces (Hartrees/Bohr)
 Number     Number              X              Y              Z
 -------------------------------------------------------------------
      1        6          -0.000033021    0.000013305   -0.000000204
      2        6          -0.000020781   -0.000059423    0.000003195
      3        6           0.000045815    0.000037739    0.000009227
      4        1           0.000004833    0.000003027   -0.000002187
      5        1           0.000000805   -0.000000207    0.000000859
      6        1          -0.000002820   -0.000001755   -0.000005852
      7        1          -0.000001301    0.000008537   -0.000000774
      8        1           0.000003576    0.000000521    0.000003065
      9        1          -0.000001560    0.000002190   -0.000003448
     10        1           0.000004455   -0.000003935   -0.000003882
 -------------------------------------------------------------------
 ***** Axes restored to original set *****
 Rotating derivatives, DoTrsp=F IDiff=-2 LEDeriv=   1492 LFDPrp=       0 LDFDPr=       0.
 -------------------------------------------------------------------
 Center     Atomic                   Forces (Hartrees/Bohr)
 Number     Number              X              Y              Z
 -------------------------------------------------------------------
      1        6           0.000030351    0.000006636   -0.000017385
      2        6           0.000014512   -0.000060792    0.000008176
      3        6          -0.000032978    0.000046680    0.000018489
      4        1          -0.000005004    0.000003453   -0.000000581
      5        1          -0.000000340    0.000000100    0.000001141
      6        1          -0.000000326   -0.000003241   -0.000005888
      7        1           0.000001568    0.000007875   -0.000003270
      8        1          -0.000001725    0.000001706    0.000004071
      9        1           0.000000009    0.000001227   -0.000004197
     10        1          -0.000006068   -0.000003643   -0.000000556
 -------------------------------------------------------------------
 Cartesian Forces:  Max     0.000060792 RMS     0.000017417
 Z-matrix is all fixed cartesians, so copy forces.
 Force constants in Cartesian coordinates: 
                1             2             3             4             5 
      1  0.579121D+00
      2 -0.123817D+00  0.486679D+00
      3 -0.689788D-01 -0.250065D+00  0.250071D+00
      4 -0.167595D+00 -0.339394D-01  0.469802D-01  0.499889D+00
      5 -0.318819D-01 -0.108156D+00  0.443591D-01  0.471606D-02  0.553352D+00
      6  0.441038D-01  0.457349D-01 -0.855691D-01  0.573464D-01 -0.387835D-01
      7 -0.318544D-01  0.222840D-01  0.933880D-02 -0.121841D+00  0.391148D-01
      8 -0.115426D-01  0.126039D-01  0.284564D-02  0.389222D-01 -0.135215D+00
      9  0.144885D-01 -0.119951D-01 -0.403771D-02  0.137120D-01 -0.151818D-01
     10 -0.299182D+00  0.136426D+00  0.106644D-01 -0.131765D-01  0.168678D-01
     11  0.142109D+00 -0.123791D+00  0.258438D-01 -0.154634D-01  0.114645D-01
     12  0.149785D-01  0.228349D-01 -0.272503D-01  0.107053D-01 -0.741242D-02
     13 -0.674866D-01  0.379091D-01 -0.114813D-01  0.672823D-02 -0.218083D-01
     14  0.336036D-01 -0.243406D+00  0.167450D+00  0.637690D-02 -0.701758D-02
     15 -0.109518D-01  0.174051D+00 -0.136089D+00 -0.405578D-02  0.771224D-02
     16 -0.203057D-01 -0.207577D-01 -0.118030D-01 -0.105368D+00 -0.741197D-01
     17 -0.122233D-01 -0.952900D-02 -0.462195D-02 -0.683745D-01 -0.155416D+00
     18  0.875743D-02  0.111033D-01  0.120913D-01 -0.722411D-01 -0.100380D+00
     19  0.698841D-02 -0.232871D-01  0.268409D-01 -0.795270D-01  0.445290D-01
     20  0.269762D-02 -0.122728D-01  0.132287D-01  0.437040D-01 -0.137590D+00
     21 -0.329330D-02  0.103575D-01 -0.109509D-01 -0.621367D-01  0.118553D+00
     22  0.114460D-02  0.483475D-03 -0.151101D-02 -0.974427D-02  0.156459D-01
     23 -0.168539D-02  0.753467D-03  0.928938D-04  0.947068D-02 -0.165864D-01
     24 -0.423225D-03 -0.266539D-03  0.768694D-03  0.592213D-02 -0.863096D-02
     25 -0.262552D-02  0.480298D-02  0.410316D-03 -0.196030D-01 -0.123822D-01
     26  0.382451D-02 -0.407354D-02 -0.377263D-03  0.253388D-01  0.126766D-01
     27  0.173569D-02 -0.204066D-02  0.540394D-03  0.795561D-02  0.584211D-02
     28  0.179580D-02 -0.103904D-03 -0.460565D-03  0.102381D-01  0.193184D-01
     29 -0.108459D-02  0.119233D-02  0.124378D-02 -0.107513D-01 -0.175115D-01
     30 -0.416854D-03  0.285563D-03  0.425765D-03 -0.418810D-02 -0.607734D-02
                6             7             8             9            10 
      6  0.592081D+00
      7  0.172690D-01  0.579700D+00
      8 -0.138545D-01  0.708312D-01  0.573276D+00
      9 -0.102064D+00  0.260097D-01 -0.289975D-01  0.628726D+00
     10 -0.253187D-02 -0.282005D-02 -0.411422D-02  0.160389D-02  0.313823D+00
     11  0.375027D-03 -0.176218D-02 -0.186638D-02  0.103451D-02 -0.147998D+00
     12  0.190122D-02  0.282580D-02  0.155338D-02 -0.102652D-02 -0.121593D-01
     13  0.176099D-01  0.272914D-02 -0.662198D-03 -0.406755D-04  0.125196D-02
     14  0.681059D-02  0.532294D-03  0.110597D-02 -0.799473D-03 -0.122802D-02
     15 -0.462976D-02 -0.919140D-03  0.648669D-03  0.299258D-03  0.181543D-02
     16 -0.835339D-01  0.108792D-01  0.205782D-01  0.201216D-01 -0.786333D-03
     17 -0.107769D+00 -0.106935D-01 -0.187078D-01 -0.199408D-01 -0.769852D-03
     18 -0.167215D+00 -0.506443D-02 -0.748819D-02 -0.770239D-02 -0.234149D-03
     19 -0.606361D-01 -0.977521D-02  0.154377D-01 -0.212168D-01  0.132684D-02
     20  0.117938D+00  0.859498D-02 -0.155041D-01  0.216516D-01 -0.348979D-03
     21 -0.233247D+00  0.503759D-02 -0.887837D-02  0.115654D-01  0.556616D-03
     22 -0.214253D-01 -0.833924D-01  0.428092D-01 -0.647776D-01  0.199828D-03
     23  0.227766D-01  0.435658D-01 -0.138226D+00  0.116918D+00 -0.485126D-04
     24  0.107220D-01 -0.663158D-01  0.118599D+00 -0.232352D+00 -0.222164D-03
     25  0.105627D-01 -0.235714D+00 -0.986560D-01  0.903870D-01 -0.839586D-03
     26 -0.139386D-01 -0.101014D+00 -0.114941D+00  0.515079D-01  0.113245D-02
     27 -0.499668D-02  0.903293D-01  0.501406D-01 -0.106109D+00  0.472104D-03
     28  0.212354D-01 -0.107911D+00 -0.736035D-01 -0.802877D-01  0.202705D-03
     29 -0.192889D-01 -0.714537D-01 -0.162525D+00 -0.114198D+00  0.815362D-04
     30 -0.698195D-02 -0.785108D-01 -0.114569D+00 -0.187299D+00  0.350187D-04
               11            12            13            14            15 
     11  0.120595D+00
     12 -0.240632D-01  0.229881D-01
     13  0.225994D-01 -0.175007D-01  0.616416D-01
     14 -0.759610D-02  0.880563D-02 -0.359191D-01  0.256309D+00
     15 -0.224703D-02  0.321591D-02  0.105306D-01 -0.181407D+00  0.138328D+00
     16  0.236341D-03  0.730198D-03 -0.347618D-03 -0.431578D-03  0.496288D-03
     17 -0.658287D-03 -0.592177D-04 -0.280684D-03 -0.323717D-03  0.599305D-03
     18 -0.540438D-03 -0.214664D-03 -0.577277D-03 -0.370722D-03 -0.407732D-03
     19  0.110025D-02 -0.370368D-03 -0.421667D-02 -0.206850D-02  0.230267D-02
     20  0.866357D-03 -0.813828D-03 -0.249868D-02  0.328400D-04  0.164178D-02
     21 -0.533804D-03  0.418181D-03  0.224620D-02 -0.350096D-03 -0.535959D-03
     22 -0.373882D-03  0.166170D-03 -0.492794D-03 -0.698251D-03  0.670761D-03
     23  0.185149D-03 -0.167939D-03  0.475583D-03  0.734291D-03 -0.375621D-03
     24 -0.201049D-03  0.177548D-03 -0.495891D-03  0.348116D-04  0.190023D-03
     25 -0.551711D-03  0.741315D-03  0.197991D-03 -0.277919D-04 -0.154804D-04
     26  0.805364D-03 -0.655211D-03 -0.326329D-04  0.847282D-04 -0.382677D-03
     27  0.210295D-03 -0.150535D-03 -0.385998D-03 -0.229429D-03  0.139206D-03
     28  0.104006D-03 -0.116913D-03 -0.527045D-05 -0.139496D-03  0.126355D-03
     29 -0.407894D-05 -0.221333D-04  0.217518D-03  0.763464D-04 -0.239892D-03
     30  0.121857D-03 -0.589444D-04  0.951087D-04  0.561828D-04 -0.509710D-03
               16            17            18            19            20 
     16  0.122115D+00
     17  0.792224D-01  0.171716D+00
     18  0.817818D-01  0.118322D+00  0.184627D+00
     19 -0.518643D-02  0.981271D-02 -0.148539D-01  0.919149D-01
     20 -0.682499D-02  0.142964D-01 -0.199506D-01 -0.474554D-01  0.151730D+00
     21 -0.868061D-02  0.136429D-01 -0.223958D-01  0.655187D-01 -0.131486D+00
     22  0.109691D-02 -0.952945D-03  0.290210D-03 -0.288468D-02  0.361901D-02
     23 -0.110704D-02  0.294169D-03  0.223266D-03  0.363298D-02 -0.302249D-02
     24 -0.515531D-03  0.904897D-03  0.103724D-02  0.245379D-02 -0.227761D-02
     25  0.137159D-02 -0.395269D-04  0.121055D-03  0.101926D-03 -0.245588D-03
     26 -0.120245D-02  0.139736D-02  0.377386D-03 -0.853078D-03  0.131118D-02
     27 -0.271013D-03  0.947747D-04 -0.477884D-03 -0.418993D-03 -0.152509D-03
     28 -0.346918D-02  0.429927D-02  0.202035D-02  0.125794D-02 -0.124196D-02
     29  0.440648D-02 -0.306860D-02 -0.129608D-02 -0.848528D-03  0.152254D-03
     30  0.167415D-02 -0.117289D-02  0.658399D-03  0.380084D-03  0.220461D-03
               21            22            23            24            25 
     21  0.253405D+00
     22  0.223470D-02  0.883301D-01
     23 -0.263494D-02 -0.526419D-01  0.150740D+00
     24  0.331493D-03  0.713634D-01 -0.130793D+00  0.253121D+00
     25 -0.102627D-02  0.112900D-01  0.543385D-02 -0.471439D-02  0.258753D+00
     26  0.574689D-03 -0.173957D-01 -0.100031D-01  0.774953D-02  0.108746D+00
     27  0.551934D-03  0.261528D-01  0.138731D-01 -0.127600D-01 -0.103052D+00
     28 -0.456936D-03 -0.554732D-02 -0.709609D-02 -0.705238D-02 -0.129321D-01
     29  0.755037D-03  0.950496D-02  0.151313D-01  0.148811D-01 -0.708031D-02
     30  0.857908D-03 -0.131642D-01 -0.199128D-01 -0.212358D-01  0.658578D-02
               26            27            28            29            30 
     26  0.123750D+00
     27 -0.559450D-01  0.110328D+00
     28 -0.185446D-01 -0.225175D-01  0.116370D+00
     29 -0.110070D-01 -0.117933D-01  0.770079D-01  0.177564D+00
     30  0.110892D-01  0.129345D-01  0.875098D-01  0.129958D+00  0.201209D+00
 Final forces over variables, Energy=-1.16982489D+02:
  3.03514013D-05 1.45117326D-05-3.29784725D-05-5.00398871D-06
 -3.40112085D-07-3.25518520D-07 1.56849157D-06-1.72463972D-06
  8.68863512D-09-6.06758265D-06 6.63572259D-06-6.07920877D-05
  4.66799174D-05 3.45315560D-06 9.95736515D-08-3.24136084D-06
  7.87535546D-06 1.70615426D-06 1.22654224D-06-3.64297270D-06
 -1.73846533D-05 8.17572992D-06 1.84889273D-05-5.80534345D-07
  1.14120923D-06-5.88802969D-06-3.27011621D-06 4.07063937D-06
 -4.19681990D-06-5.56352372D-07
 Leave Link  716 at Sun May 22 09:08:54 2022, MaxMem=   939524096 cpu:         0.1
 (Enter /Local/ce_dana/g09/l103.exe)

 GradGradGradGradGradGradGradGradGradGradGradGradGradGradGradGradGradGrad
 Berny optimization.
 Search for a local minimum.
 Step number   1 out of a maximum of    2
 All quantities printed in internal units (Hartrees-Bohrs-Radians)
 Second derivative matrix not updated -- analytic derivatives used.
 ITU=  0
     Eigenvalues ---    0.00062   0.00300   0.01083   0.01986   0.03770
     Eigenvalues ---    0.05244   0.06936   0.08160   0.09661   0.10327
     Eigenvalues ---    0.12583   0.13606   0.16309   0.18198   0.19899
     Eigenvalues ---    0.26465   0.41025   0.58615   0.73993   0.76219
     Eigenvalues ---    0.82347   0.86889   0.88141   0.99654
 Angle between quadratic step and forces=  80.04 degrees.
 Linear search not attempted -- first point.
 TrRot= -0.000004 -0.000006 -0.000003 -0.000001  0.000010 -0.000001
 Variable       Old X    -DE/DX   Delta X   Delta X   Delta X     New X
                                 (Linear)    (Quad)   (Total)
    X1        2.63854   0.00003   0.00000   0.00002   0.00002   2.63856
    Y1        0.52514   0.00001   0.00000  -0.00005  -0.00006   0.52508
    Z1       -0.37879  -0.00002   0.00000  -0.00023  -0.00025  -0.37904
    X2        0.34538   0.00001   0.00000   0.00010   0.00011   0.34549
    Y2       -0.65918  -0.00006   0.00000  -0.00009  -0.00009  -0.65927
    Z2        0.82957   0.00001   0.00000   0.00014   0.00013   0.82970
    X3       -1.60009  -0.00003   0.00000  -0.00010  -0.00008  -1.60017
    Y3        1.34088   0.00005   0.00000   0.00009   0.00009   1.34097
    Z3        1.68196   0.00002   0.00000   0.00005   0.00006   1.68203
    X4        4.42206  -0.00001   0.00000   0.00004   0.00003   4.42209
    Y4       -0.44250   0.00000   0.00000   0.00001  -0.00001  -0.44251
    Z4       -0.39170  -0.00000   0.00000  -0.00036  -0.00041  -0.39211
    X5        2.42492  -0.00000   0.00000  -0.00015  -0.00017   2.42475
    Y5        2.15467   0.00000   0.00000  -0.00006  -0.00007   2.15461
    Z5       -1.57187   0.00000   0.00000  -0.00019  -0.00022  -1.57209
    X6       -0.56251  -0.00000   0.00000   0.00010   0.00009  -0.56242
    Y6       -1.94643  -0.00000   0.00000  -0.00029  -0.00029  -1.94672
    Z6       -0.49699  -0.00001   0.00000   0.00033   0.00033  -0.49666
    X7        0.91922   0.00000   0.00000   0.00028   0.00029   0.91951
    Y7       -1.78826   0.00001   0.00000   0.00026   0.00025  -1.78800
    Z7        2.44211  -0.00000   0.00000   0.00029   0.00028   2.44239
    X8       -2.22499  -0.00000   0.00000   0.00056   0.00056  -2.22443
    Y8        2.45909   0.00000   0.00000   0.00056   0.00056   2.45966
    Z8        0.08159   0.00000   0.00000   0.00014   0.00015   0.08174
    X9       -3.24293   0.00000   0.00000  -0.00046  -0.00044  -3.24337
    Y9        0.45112   0.00000   0.00000   0.00001   0.00001   0.45113
    Z9        2.52281  -0.00000   0.00000  -0.00078  -0.00075   2.52206
   X10       -0.76805  -0.00001   0.00000  -0.00044  -0.00041  -0.76845
   Y10        2.60455  -0.00000   0.00000  -0.00039  -0.00040   2.60416
   Z10        3.06234  -0.00000   0.00000   0.00068   0.00068   3.06302
         Item               Value     Threshold  Converged?
 Maximum Force            0.000061     0.000450     YES
 RMS     Force            0.000017     0.000300     YES
 Maximum Displacement     0.000750     0.001800     YES
 RMS     Displacement     0.000316     0.001200     YES
 Predicted change in Energy=-1.430632D-08
 Optimization completed.
    -- Stationary point found.
 GradGradGradGradGradGradGradGradGradGradGradGradGradGradGradGradGradGrad

 Leave Link  103 at Sun May 22 09:08:54 2022, MaxMem=   939524096 cpu:         0.1
 (Enter /Local/ce_dana/g09/l9999.exe)

 Test job not archived.
 1\1\GINC-TECH-WN051\Freq\UHF\3-21G\C3H7(2)\ALONGD\22-May-2022\0\\#P gu
 ess=read uhf/3-21g freq IOp(7/33=1) scf=(tight, direct) integral=(grid
 =ultrafine, Acc2E=12) IOp(2/9=2000) scf=xqc\\nC3H7\\0,2\C,1.396256,0.2
 77891,-0.200447\C,0.182768,-0.348823,0.438987\C,-0.846732,0.709562,0.8
 90057\H,2.340054,-0.234161,-0.207278\H,1.28321,1.140203,-0.831797\H,-0
 .297668,-1.030005,-0.262994\H,0.486429,-0.946306,1.292311\H,-1.177415,
 1.301297,0.043173\H,-1.716082,0.238722,1.335014\H,-0.406432,1.378271,1
 .62052\\Version=ES64L-G09RevD.01\State=2-A\HF=-116.9824891\S2=0.763253
 \S2-1=0.\S2A=0.750129\RMSD=5.666e-09\RMSF=1.742e-05\ZeroPoint=0.094303
 1\Thermal=0.0990879\Dipole=-0.0446893,-0.0541472,-0.0232563\DipoleDeri
 v=0.0637799,-0.0933276,-0.0497238,-0.0845166,-0.0202559,-0.2176698,-0.
 06789,-0.2136246,-0.1779043,0.0592854,0.0467009,0.036618,0.0356729,0.0
 746696,0.0415785,0.0196837,0.0307611,0.16043,0.0429256,0.0454646,0.025
 652,0.0218203,0.0531821,-0.0127355,0.0280978,-0.0255997,0.0921413,-0.1
 136761,0.060364,0.0555234,0.0756189,0.031524,0.0549636,0.0599955,0.047
 9987,0.0893132,0.0043766,0.0368714,0.0117786,0.005163,-0.0218008,0.117
 2959,0.0353319,0.1243976,0.0351249,-0.022305,-0.0770065,-0.0426843,-0.
 0561858,-0.0529825,-0.0920335,-0.0383182,-0.1090825,-0.0377684,0.01282
 91,0.045496,-0.0300185,0.0437295,-0.0265897,0.0929183,-0.0266976,0.115
 1249,-0.0766381,0.0424177,0.0418949,-0.0316119,0.0591277,-0.0172413,0.
 0795376,-0.0653612,0.1085714,-0.078719,-0.1168557,-0.0508436,0.0964446
 ,-0.0768217,0.0162738,0.0392455,0.097462,0.0261019,0.0297423,0.0272225
 ,-0.0556141,-0.071978,-0.0236082,-0.0367792,-0.1031006,-0.0423039,-0.1
 046488,-0.0357219\Polar=31.338868,-1.0692855,27.8945799,-2.3251761,-2.
 3063729,25.7505545\PolarDeriv=-1.5662017,2.2850084,-0.2613155,-0.05547
 85,-0.8846331,1.026352,3.0821543,-0.6739993,-0.667074,-0.5908657,1.838
 0608,-1.1317804,0.5124567,-0.3262524,2.1502101,0.7246673,-1.4875319,1.
 1152779,1.8059577,-0.8108436,1.7275133,0.2780098,3.7261315,-0.425921,-
 2.912106,2.9745957,1.5963669,3.521687,-0.9137891,2.4857501,0.3731486,3
 .0169327,-0.6395808,0.349441,3.8634165,-2.0052982,1.1108531,2.1683675,
 -1.6790188,-0.9441729,-3.5138468,-0.1485262,4.0565427,-1.1192726,-0.62
 6821,-3.8695912,0.0256069,-2.1886798,-0.5022414,-3.4435017,0.2291452,0
 .7361074,-3.2505112,0.6615329,7.9013376,-2.2603593,0.8045198,-0.718786
 2,-0.0539727,0.3580003,-2.2894306,2.4441484,-2.0052533,0.3735993,-0.43
 26106,-0.1620549,-0.1623812,0.2512529,-0.441234,1.8544947,-0.6042224,-
 0.4566019,0.2043695,1.0402251,-0.1074164,-1.0902045,0.1486391,-0.37770
 91,0.4112384,0.4665672,4.8703507,-0.4444241,-2.5872765,1.2213654,-0.73
 46584,-0.0131381,-1.5873487,0.3749166,2.6672273,-3.5630672,-3.1545332,
 -2.0785439,-1.3685763,-1.6698969,-1.0207509,-0.397527,-0.5368744,-2.24
 0411,-5.0714473,-0.8651958,-2.2352861,-1.2301907,-1.0012555,-1.1269859
 ,-1.5406938,-1.2425596,-3.0952899,-3.5635658,1.6790846,-1.3452093,0.37
 94784,1.7416503,-1.0351393,0.5137756,-0.0166424,0.6239624,-4.0063541,-
 0.7686156,2.7470354,-1.39198,0.5088067,-0.8902812,1.5766007,0.7995487,
 -3.1038975,5.3579382,-2.5244887,1.436482,-0.2839446,-1.9434221,0.94982
 01,-0.2969002,0.1538722,-1.3652215,3.6880667,1.0421926,-2.2270606,0.90
 27083,-0.870863,1.1799974,-1.120059,-1.396694,2.4272296,-4.5890523,-7.
 1880358,-1.6564832,-0.1258546,2.4479468,0.7348096,-0.8535893,-1.537906
 6,-2.0371278,-2.1676105,0.9320019,1.1206167,-0.0326948,1.4089138,0.739
 4895,0.165753,-2.8835492,-0.4611499,2.5592814,1.7316569,1.2213562,0.91
 46148,1.9543542,0.9489425,0.6020449,-0.4108476,0.9267584,4.3897758,0.6
 692115,2.6647032,1.5275569,0.4680737,0.6124868,1.2072073,0.6836272,3.0
 447294,4.4835549\HyperPolar=7.0698305,-24.4551317,-2.1192718,8.9952063
 ,5.5122933,3.7373664,-9.215455,-7.6362714,8.2890911,4.365926\PG=C01 [X
 (C3H7)]\NImag=0\\0.57912098,-0.12381726,0.48667871,-0.06897880,-0.2500
 6459,0.25007073,-0.16759524,-0.03393940,0.04698023,0.49988860,-0.03188
 186,-0.10815606,0.04435907,0.00471606,0.55335160,0.04410377,0.04573493
 ,-0.08556913,0.05734641,-0.03878354,0.59208079,-0.03185444,0.02228397,
 0.00933880,-0.12184140,0.03911478,0.01726903,0.57969984,-0.01154258,0.
 01260391,0.00284564,0.03892216,-0.13521509,-0.01385451,0.07083125,0.57
 327624,0.01448854,-0.01199506,-0.00403771,0.01371203,-0.01518179,-0.10
 206409,0.02600968,-0.02899747,0.62872624,-0.29918228,0.13642586,0.0106
 6441,-0.01317647,0.01686784,-0.00253187,-0.00282005,-0.00411422,0.0016
 0389,0.31382339,0.14210926,-0.12379110,0.02584384,-0.01546342,0.011464
 49,0.00037503,-0.00176218,-0.00186638,0.00103451,-0.14799811,0.1205945
 8,0.01497851,0.02283495,-0.02725034,0.01070528,-0.00741242,0.00190122,
 0.00282580,0.00155338,-0.00102652,-0.01215928,-0.02406320,0.02298815,-
 0.06748658,0.03790907,-0.01148128,0.00672823,-0.02180828,0.01760988,0.
 00272914,-0.00066220,-0.00004068,0.00125196,0.02259945,-0.01750071,0.0
 6164161,0.03360358,-0.24340594,0.16744989,0.00637690,-0.00701758,0.006
 81059,0.00053229,0.00110597,-0.00079947,-0.00122802,-0.00759610,0.0088
 0563,-0.03591914,0.25630915,-0.01095175,0.17405061,-0.13608880,-0.0040
 5578,0.00771224,-0.00462976,-0.00091914,0.00064867,0.00029926,0.001815
 43,-0.00224703,0.00321591,0.01053065,-0.18140738,0.13832757,-0.0203057
 4,-0.02075766,-0.01180302,-0.10536756,-0.07411971,-0.08353388,0.010879
 19,0.02057824,0.02012161,-0.00078633,0.00023634,0.00073020,-0.00034762
 ,-0.00043158,0.00049629,0.12211517,-0.01222328,-0.00952900,-0.00462195
 ,-0.06837451,-0.15541628,-0.10776932,-0.01069354,-0.01870777,-0.019940
 84,-0.00076985,-0.00065829,-0.00005922,-0.00028068,-0.00032372,0.00059
 931,0.07922237,0.17171573,0.00875743,0.01110332,0.01209129,-0.07224111
 ,-0.10038023,-0.16721507,-0.00506443,-0.00748819,-0.00770239,-0.000234
 15,-0.00054044,-0.00021466,-0.00057728,-0.00037072,-0.00040773,0.08178
 181,0.11832230,0.18462661,0.00698841,-0.02328713,0.02684093,-0.0795270
 0,0.04452905,-0.06063612,-0.00977521,0.01543766,-0.02121681,0.00132684
 ,0.00110025,-0.00037037,-0.00421667,-0.00206850,0.00230267,-0.00518643
 ,0.00981271,-0.01485389,0.09191487,0.00269762,-0.01227278,0.01322869,0
 .04370401,-0.13758977,0.11793777,0.00859498,-0.01550407,0.02165165,-0.
 00034898,0.00086636,-0.00081383,-0.00249868,0.00003284,0.00164178,-0.0
 0682499,0.01429639,-0.01995061,-0.04745541,0.15173008,-0.00329330,0.01
 035748,-0.01095088,-0.06213670,0.11855287,-0.23324731,0.00503759,-0.00
 887837,0.01156544,0.00055662,-0.00053380,0.00041818,0.00224620,-0.0003
 5010,-0.00053596,-0.00868061,0.01364294,-0.02239579,0.06551871,-0.1314
 8580,0.25340499,0.00114460,0.00048347,-0.00151101,-0.00974427,0.015645
 94,-0.02142528,-0.08339236,0.04280924,-0.06477764,0.00019983,-0.000373
 88,0.00016617,-0.00049279,-0.00069825,0.00067076,0.00109691,-0.0009529
 4,0.00029021,-0.00288468,0.00361901,0.00223470,0.08833014,-0.00168539,
 0.00075347,0.00009289,0.00947068,-0.01658644,0.02277657,0.04356581,-0.
 13822635,0.11691839,-0.00004851,0.00018515,-0.00016794,0.00047558,0.00
 073429,-0.00037562,-0.00110704,0.00029417,0.00022327,0.00363298,-0.003
 02249,-0.00263494,-0.05264186,0.15073995,-0.00042323,-0.00026654,0.000
 76869,0.00592213,-0.00863096,0.01072199,-0.06631577,0.11859879,-0.2323
 5171,-0.00022216,-0.00020105,0.00017755,-0.00049589,0.00003481,0.00019
 002,-0.00051553,0.00090490,0.00103724,0.00245379,-0.00227761,0.0003314
 9,0.07136343,-0.13079294,0.25312052,-0.00262552,0.00480298,0.00041032,
 -0.01960303,-0.01238220,0.01056268,-0.23571408,-0.09865604,0.09038703,
 -0.00083959,-0.00055171,0.00074131,0.00019799,-0.00002779,-0.00001548,
 0.00137159,-0.00003953,0.00012105,0.00010193,-0.00024559,-0.00102627,0
 .01128996,0.00543385,-0.00471439,0.25875283,0.00382451,-0.00407354,-0.
 00037726,0.02533880,0.01267661,-0.01393859,-0.10101362,-0.11494119,0.0
 5150793,0.00113245,0.00080536,-0.00065521,-0.00003263,0.00008473,-0.00
 038268,-0.00120245,0.00139736,0.00037739,-0.00085308,0.00131118,0.0005
 7469,-0.01739569,-0.01000308,0.00774953,0.10874634,0.12374957,0.001735
 69,-0.00204066,0.00054039,0.00795561,0.00584211,-0.00499668,0.09032926
 ,0.05014059,-0.10610930,0.00047210,0.00021030,-0.00015054,-0.00038600,
 -0.00022943,0.00013921,-0.00027101,0.00009477,-0.00047788,-0.00041899,
 -0.00015251,0.00055193,0.02615284,0.01387315,-0.01275995,-0.10305204,-
 0.05594502,0.11032829,0.00179580,-0.00010390,-0.00046056,0.01023813,0.
 01931838,0.02123538,-0.10791063,-0.07360352,-0.08028766,0.00020271,0.0
 0010401,-0.00011691,-0.00000527,-0.00013950,0.00012635,-0.00346918,0.0
 0429927,0.00202035,0.00125794,-0.00124196,-0.00045694,-0.00554732,-0.0
 0709609,-0.00705238,-0.01293209,-0.01854463,-0.02251745,0.11636991,-0.
 00108459,0.00119233,0.00124378,-0.01075129,-0.01751149,-0.01928892,-0.
 07145372,-0.16252528,-0.11419785,0.00008154,-0.00000408,-0.00002213,0.
 00021752,0.00007635,-0.00023989,0.00440648,-0.00306860,-0.00129608,-0.
 00084853,0.00015225,0.00075504,0.00950496,0.01513134,0.01488107,-0.007
 08031,-0.01100701,-0.01179330,0.07700794,0.17756420,-0.00041685,0.0002
 8556,0.00042577,-0.00418810,-0.00607734,-0.00698195,-0.07851082,-0.114
 56852,-0.18729922,0.00003502,0.00012186,-0.00005894,0.00009511,0.00005
 618,-0.00050971,0.00167415,-0.00117289,0.00065840,0.00038008,0.0002204
 6,0.00085791,-0.01316418,-0.01991282,-0.02123585,0.00658578,0.01108923
 ,0.01293454,0.08750981,0.12995828,0.20120906\\-0.00003035,-0.00000664,
 0.00001738,-0.00001451,0.00006079,-0.00000818,0.00003298,-0.00004668,-
 0.00001849,0.00000500,-0.00000345,0.00000058,0.00000034,-0.00000010,-0
 .00000114,0.00000033,0.00000324,0.00000589,-0.00000157,-0.00000788,0.0
 0000327,0.00000172,-0.00000171,-0.00000407,0.,-0.00000123,0.00000420,0
 .00000607,0.00000364,0.00000056\\\@


 THE MOST BEAUTIFUL EXPERIENCE WE CAN HAVE IS THE MYSTERIOUS.
 IT IS THE FUNDAMENTAL EMOTION WHICH STANDS AT AT THE CRADLE 
 OF TRUE ART AND TRUE SCIENCE.

                                    -- ALBERT EINSTEIN
 Job cpu time:       0 days  0 hours  0 minutes 18.9 seconds.
 File lengths (MBytes):  RWF=      8 Int=      0 D2E=      0 Chk=      1 Scr=      1
 Normal termination of Gaussian 09 at Sun May 22 09:08:54 2022.
