
    -----------------------------------------------------------------------
          Psi4: An Open-Source Ab Initio Electronic Structure Package
                               Psi4 1.3.2 release

                         Git: Rev {HEAD} ecbda83 


    R. M. Parrish, L. A. Burns, D. G. A. Smith, A. C. Simmonett,
    A. E. DePrince III, E. G. Hohenstein, U. Bozkaya, A. Yu. Sokolov,
    R. Di Remigio, R. M. Richard, J. F. Gonthier, A. M. James,
    H. R. McAlexander, A. Kumar, M. Saitow, X. Wang, B. P. Pritchard,
    P. Verma, H. F. Schaefer III, K. Patkowski, R. A. King, E. F. Valeev,
    F. A. Evangelista, J. M. Turney, T. D. Crawford, and C. D. Sherrill,
    J. Chem. Theory Comput. 13(7) pp 3185--3197 (2017).
    (doi: 10.1021/acs.jctc.7b00174)


                         Additional Contributions by
    P. Kraus, H. Kruse, M. H. Lechner, M. C. Schieber, R. A. Shaw,
    A. Alenaizan, R. Galvelis, Z. L. Glick, S. Lehtola, and J. P. Misiewicz

    -----------------------------------------------------------------------


    Psi4 started on: Sunday, 24 July 2022 02:38PM

    Process ID: 986368
    Host:       meron
    PSIDATADIR: /home/kfir4444/psi4conda/envs/arc_env/share/psi4
    Memory:     500.0 MiB
    Threads:    1
    
  ==> Input File <==

--------------------------------------------------------------------------

memory 14 GB
molecule vinoxy {
0 2
C      -1.20450227    0.23525250   -0.22164710
C       0.19120169    0.38085985   -0.00400640
O       0.94190362   -0.57248973    0.20973038
H      -1.83514853    1.09494923   -0.40669062
H      -1.64304441   -0.75203649   -0.20182158
H       0.59469536    1.40697048   -0.03324346
}
set {
scf_type df
dft_spherical_points 590
dft_radial_points 99
dft_basis_tolerance 1e-11
}


set basis def2-tzvp
set reference uhf
frequency(name = 'b3lyp', return_wfn='on')

--------------------------------------------------------------------------

  Memory set to  13.039 GiB by Python driver.
gradient() will perform analytic gradient computation.

*** tstart() called on meron
*** at Sun Jul 24 14:38:23 2022

   => Loading Basis Set <=

    Name: DEF2-TZVP
    Role: ORBITAL
    Keyword: BASIS
    atoms 1-2 entry C          line   123 file /home/kfir4444/psi4conda/envs/arc_env/share/psi4/basis/def2-tzvp.gbs 
    atoms 3   entry O          line   189 file /home/kfir4444/psi4conda/envs/arc_env/share/psi4/basis/def2-tzvp.gbs 
    atoms 4-6 entry H          line    15 file /home/kfir4444/psi4conda/envs/arc_env/share/psi4/basis/def2-tzvp.gbs 


         ---------------------------------------------------------
                                   SCF
               by Justin Turney, Rob Parrish, Andy Simmonett
                          and Daniel G. A. Smith
                              UKS Reference
                        1 Threads,  13351 MiB Core
         ---------------------------------------------------------

  ==> Geometry <==

    Molecular point group: c1
    Full point group: C1

    Geometry (in Angstrom), charge = 0, multiplicity = 2:

       Center              X                  Y                   Z               Mass       
    ------------   -----------------  -----------------  -----------------  -----------------
         C           -1.204502269541     0.235252500914    -0.221647102383    12.000000000000
         C            0.191201690459     0.380859850914    -0.004006402383    12.000000000000
         O            0.941903620459    -0.572489729086     0.209730377617    15.994914619570
         H           -1.835148529541     1.094949230914    -0.406690622383     1.007825032230
         H           -1.643044409541    -0.752036489086    -0.201821582383     1.007825032230
         H            0.594695360459     1.406970480914    -0.033243462383     1.007825032230

  Running in c1 symmetry.

  Rotational constants: A =      2.25722  B =      0.38344  C =      0.32776 [cm^-1]
  Rotational constants: A =  67669.67462  B =  11495.17102  C =   9826.00896 [MHz]
  Nuclear repulsion =   63.714234771379978

  Charge       = 0
  Multiplicity = 2
  Electrons    = 23
  Nalpha       = 12
  Nbeta        = 11

  ==> Algorithm <==

  SCF Algorithm Type is DF.
  DIIS enabled.
  MOM disabled.
  Fractional occupation disabled.
  Guess Type is SAD.
  Energy threshold   = 1.00e-08
  Density threshold  = 1.00e-08
  Integral threshold = 0.00e+00

  ==> Primary Basis <==

  Basis Set: DEF2-TZVP
    Blend: DEF2-TZVP
    Number of shells: 45
    Number of basis function: 111
    Number of Cartesian functions: 126
    Spherical Harmonics?: true
    Max angular momentum: 3

  ==> DFT Potential <==

   => Composite Functional: B3LYP <= 

    B3LYP Hyb-GGA Exchange-Correlation Functional

    P. J. Stephens, F. J. Devlin, C. F. Chabalowski, and M. J. Frisch, J. Phys. Chem. 98, 11623 (1994)

    Deriv               =              1
    GGA                 =           TRUE
    Meta                =          FALSE

    Exchange Hybrid     =           TRUE
    MP2 Hybrid          =          FALSE

   => Exchange Functionals <=

    0.0800   Slater exchange
    0.7200         Becke 88

   => Exact (HF) Exchange <=

    0.2000               HF 

   => Correlation Functionals <=

    0.1900   Vosko, Wilk & Nusair (VWN5_RPA)
    0.8100   Lee, Yang & Parr

   => Molecular Quadrature <=

    Radial Scheme          =       TREUTLER
    Pruning Scheme         =           FLAT
    Nuclear Scheme         =       TREUTLER

    BS radius alpha        =              1
    Pruning alpha          =              1
    Radial Points          =             99
    Spherical Points       =            590
    Total Points           =         343849
    Total Blocks           =           2544
    Max Points             =            256
    Max Functions          =            109

   => Loading Basis Set <=

    Name: (DEF2-TZVP AUX)
    Role: JKFIT
    Keyword: DF_BASIS_SCF
    atoms 1-2 entry C          line   203 file /home/kfir4444/psi4conda/envs/arc_env/share/psi4/basis/def2-tzvp-jkfit.gbs 
    atoms 3   entry O          line   323 file /home/kfir4444/psi4conda/envs/arc_env/share/psi4/basis/def2-tzvp-jkfit.gbs 
    atoms 4-6 entry H          line    23 file /home/kfir4444/psi4conda/envs/arc_env/share/psi4/basis/def2-tzvp-jkfit.gbs 

  ==> Pre-Iterations <==

   -------------------------------------------------------
    Irrep   Nso     Nmo     Nalpha   Nbeta   Ndocc  Nsocc
   -------------------------------------------------------
     A        111     111       0       0       0       0
   -------------------------------------------------------
    Total     111     111      12      11      11       1
   -------------------------------------------------------

  ==> Integral Setup <==

  DFHelper Memory: AOs need 0.029 GiB; user supplied 8.884 GiB. Using in-core AOs.

  ==> MemDFJK: Density-Fitted J/K Matrices <==

    J tasked:                   Yes
    K tasked:                   Yes
    wK tasked:                   No
    OpenMP threads:               1
    Memory [MiB]:              9097
    Algorithm:                 Core
    Schwarz Cutoff:           1E-12
    Mask sparsity (%):       0.2922
    Fitting Condition:        1E-10

   => Auxiliary Basis Set <=

  Basis Set: (DEF2-TZVP AUX)
    Blend: DEF2-TZVP-JKFIT
    Number of shells: 93
    Number of basis function: 281
    Number of Cartesian functions: 331
    Spherical Harmonics?: true
    Max angular momentum: 4

  Cached 100.0% of DFT collocation blocks in 0.895 [GiB].

  Minimum eigenvalue in the overlap matrix is 3.5254203103E-04.
  Using Symmetric Orthogonalization.

  SCF Guess: Superposition of Atomic Densities via on-the-fly atomic UHF.

  ==> Iterations <==

                           Total Energy        Delta E     RMS |[F,P]|

   @DF-UKS iter SAD:  -152.61965380064834   -1.52620e+02   0.00000e+00 
   @DF-UKS iter   1:  -153.03813277151309   -4.18479e-01   5.94132e-03 DIIS
   @DF-UKS iter   2:  -152.90802164005041    1.30111e-01   7.88031e-03 DIIS
   @DF-UKS iter   3:  -153.20702077787698   -2.98999e-01   2.49453e-03 DIIS
   @DF-UKS iter   4:  -153.23806804593244   -3.10473e-02   4.07068e-04 DIIS
   @DF-UKS iter   5:  -153.23906550555512   -9.97460e-04   8.85178e-05 DIIS
   @DF-UKS iter   6:  -153.23914198089622   -7.64753e-05   3.73302e-05 DIIS
   @DF-UKS iter   7:  -153.23916106312154   -1.90822e-05   2.29341e-05 DIIS
   @DF-UKS iter   8:  -153.23916749556750   -6.43245e-06   7.08985e-06 DIIS
   @DF-UKS iter   9:  -153.23916832961069   -8.34043e-07   2.03939e-06 DIIS
   @DF-UKS iter  10:  -153.23916845351803   -1.23907e-07   6.32642e-07 DIIS
   @DF-UKS iter  11:  -153.23916846217256   -8.65452e-09   1.03820e-07 DIIS
   @DF-UKS iter  12:  -153.23916846232831   -1.55751e-10   3.09490e-08 DIIS
   @DF-UKS iter  13:  -153.23916846233936   -1.10560e-11   9.54549e-09 DIIS
  Energy and wave function converged.


  ==> Post-Iterations <==

   @Spin Contamination Metric:   1.769196529E-02
   @S^2 Expected:                7.500000000E-01
   @S^2 Observed:                7.676919653E-01
   @S   Expected:                5.000000000E-01
   @S   Observed:                5.000000000E-01

    Orbital Energies [Eh]
    ---------------------

    Alpha Occupied:                                                       

       1A    -19.139001     2A    -10.260167     3A    -10.224772  
       4A     -1.055413     5A     -0.772637     6A     -0.591901  
       7A     -0.507284     8A     -0.462559     9A     -0.425761  
      10A     -0.423437    11A     -0.279974    12A     -0.279442  

    Alpha Virtual:                                                        

      13A     -0.009192    14A      0.055103    15A      0.070093  
      16A      0.105355    17A      0.124569    18A      0.169243  
      19A      0.190665    20A      0.192178    21A      0.264644  
      22A      0.285037    23A      0.300846    24A      0.360799  
      25A      0.391828    26A      0.407329    27A      0.436356  
      28A      0.466977    29A      0.475981    30A      0.493735  
      31A      0.577580    32A      0.610214    33A      0.618914  
      34A      0.657532    35A      0.733259    36A      0.843151  
      37A      0.855734    38A      0.881545    39A      0.949035  
      40A      1.047463    41A      1.087391    42A      1.117149  
      43A      1.217191    44A      1.321224    45A      1.351200  
      46A      1.430616    47A      1.466052    48A      1.497461  
      49A      1.569041    50A      1.591495    51A      1.622420  
      52A      1.708829    53A      1.758345    54A      1.775762  
      55A      1.801570    56A      1.903224    57A      1.906965  
      58A      2.047460    59A      2.142004    60A      2.187473  
      61A      2.257269    62A      2.285941    63A      2.362009  
      64A      2.450397    65A      2.466717    66A      2.517376  
      67A      2.563388    68A      2.638367    69A      2.701839  
      70A      2.733781    71A      2.756162    72A      2.768134  
      73A      2.945332    74A      2.958939    75A      2.986716  
      76A      3.040614    77A      3.049174    78A      3.094331  
      79A      3.147305    80A      3.154213    81A      3.258756  
      82A      3.267917    83A      3.317444    84A      3.399531  
      85A      3.400267    86A      3.491377    87A      3.682085  
      88A      3.774756    89A      3.903201    90A      4.060497  
      91A      4.091086    92A      4.129896    93A      4.282273  
      94A      4.489274    95A      4.561207    96A      4.674534  
      97A      5.155620    98A      5.169321    99A      5.503997  
     100A      5.616149   101A      5.999987   102A      6.240269  
     103A      6.300730   104A      6.332130   105A      6.390100  
     106A      6.748893   107A      6.914573   108A      6.997867  
     109A     22.053927   110A     22.744247   111A     43.674121  

    Beta Occupied:                                                        

       1A    -19.129530     2A    -10.262352     3A    -10.213695  
       4A     -1.038262     5A     -0.745271     6A     -0.584548  
       7A     -0.500755     8A     -0.453898     9A     -0.417225  
      10A     -0.386017    11A     -0.270371  

    Beta Virtual:                                                         

      12A     -0.147083    13A      0.020730    14A      0.058050  
      15A      0.073034    16A      0.106822    17A      0.125894  
      18A      0.169506    19A      0.200989    20A      0.205112  
      21A      0.281229    22A      0.293289    23A      0.302145  
      24A      0.363369    25A      0.395808    26A      0.416116  
      27A      0.441230    28A      0.471244    29A      0.496478  
      30A      0.496572    31A      0.595574    32A      0.613404  
      33A      0.623088    34A      0.676980    35A      0.741661  
      36A      0.852596    37A      0.862727    38A      0.886299  
      39A      0.956226    40A      1.063354    41A      1.089517  
      42A      1.129355    43A      1.221229    44A      1.329977  
      45A      1.372489    46A      1.454515    47A      1.473591  
      48A      1.504714    49A      1.577526    50A      1.597014  
      51A      1.635567    52A      1.713191    53A      1.770750  
      54A      1.793536    55A      1.806125    56A      1.911068  
      57A      1.917109    58A      2.052898    59A      2.151695  
      60A      2.193139    61A      2.270234    62A      2.294698  
      63A      2.367134    64A      2.469124    65A      2.472820  
      66A      2.532032    67A      2.567385    68A      2.669363  
      69A      2.708204    70A      2.749531    71A      2.772872  
      72A      2.777178    73A      2.949649    74A      2.975958  
      75A      3.017967    76A      3.045071    77A      3.062901  
      78A      3.103870    79A      3.160687    80A      3.176881  
      81A      3.274612    82A      3.296992    83A      3.320397  
      84A      3.410409    85A      3.415638    86A      3.498661  
      87A      3.692965    88A      3.785677    89A      3.907792  
      90A      4.069951    91A      4.113681    92A      4.131850  
      93A      4.291484    94A      4.496419    95A      4.572035  
      96A      4.684061    97A      5.180349    98A      5.193363  
      99A      5.519936   100A      5.631912   101A      6.022618  
     102A      6.248214   103A      6.333949   104A      6.339336  
     105A      6.422804   106A      6.776937   107A      6.918483  
     108A      7.009878   109A     22.066128   110A     22.743019  
     111A     43.683807  

    Final Occupation by Irrep:
              A 
    DOCC [    11 ]
    SOCC [     1 ]

  @DF-UKS Final Energy:  -153.23916846233936

   => Energetics <=

    Nuclear Repulsion Energy =             63.7142347713799779
    One-Electron Energy =                -333.5501402064272725
    Two-Electron Energy =                 133.1920721408887971
    DFT Exchange-Correlation Energy =     -16.5953351681808670
    Empirical Dispersion Energy =           0.0000000000000000
    VV10 Nonlocal Energy =                  0.0000000000000000
    Total Energy =                       -153.2391684623393360

  UHF NO Occupations:
  HONO-2 :   10  A 1.9992290
  HONO-1 :   11  A 1.9923587
  HONO-0 :   12  A 1.0000000
  LUNO+0 :   13  A 0.0076413
  LUNO+1 :   14  A 0.0007710
  LUNO+2 :   15  A 0.0001682
  LUNO+3 :   16  A 0.0001301


Computation Completed


Properties will be evaluated at   0.000000,   0.000000,   0.000000 [a0]

Properties computed using the SCF density matrix

  Nuclear Dipole Moment: [e a0]
     X:    -2.6987      Y:     1.6377      Z:    -0.6006

  Electronic Dipole Moment: [e a0]
     X:     1.7777      Y:    -0.9549      Z:     0.3840

  Dipole Moment: [e a0]
     X:    -0.9209      Y:     0.6828      Z:    -0.2166     Total:     1.1667

  Dipole Moment: [D]
     X:    -2.3407      Y:     1.7356      Z:    -0.5505     Total:     2.9655


*** tstop() called on meron at Sun Jul 24 14:38:39 2022
Module time:
	user time   =      15.18 seconds =       0.25 minutes
	system time =       0.29 seconds =       0.00 minutes
	total time  =         16 seconds =       0.27 minutes
Total time:
	user time   =      15.18 seconds =       0.25 minutes
	system time =       0.29 seconds =       0.00 minutes
	total time  =         16 seconds =       0.27 minutes

*** tstart() called on meron
*** at Sun Jul 24 14:38:39 2022


         ------------------------------------------------------------
                                   SCF GRAD                          
                          Rob Parrish, Justin Turney,                
                       Andy Simmonett, and Alex Sokolov              
         ------------------------------------------------------------

  ==> Geometry <==

    Molecular point group: c1
    Full point group: C1

    Geometry (in Angstrom), charge = 0, multiplicity = 2:

       Center              X                  Y                   Z               Mass       
    ------------   -----------------  -----------------  -----------------  -----------------
         C           -1.204502269541     0.235252500914    -0.221647102383    12.000000000000
         C            0.191201690459     0.380859850914    -0.004006402383    12.000000000000
         O            0.941903620459    -0.572489729086     0.209730377617    15.994914619570
         H           -1.835148529541     1.094949230914    -0.406690622383     1.007825032230
         H           -1.643044409541    -0.752036489086    -0.201821582383     1.007825032230
         H            0.594695360459     1.406970480914    -0.033243462383     1.007825032230

  Nuclear repulsion =   63.714234771379978

  ==> Basis Set <==

  Basis Set: DEF2-TZVP
    Blend: DEF2-TZVP
    Number of shells: 45
    Number of basis function: 111
    Number of Cartesian functions: 126
    Spherical Harmonics?: true
    Max angular momentum: 3

  ==> DFJKGrad: Density-Fitted SCF Gradients <==

    Gradient:                    1
    J tasked:                  Yes
    K tasked:                  Yes
    wK tasked:                  No
    OpenMP threads:              1
    Integrals threads:           1
    Memory [MiB]:            10013
    Schwarz Cutoff:          0E+00
    Fitting Condition:       1E-10

   => Auxiliary Basis Set <=

  Basis Set: (DEF2-TZVP AUX)
    Blend: DEF2-TZVP-JKFIT
    Number of shells: 93
    Number of basis function: 281
    Number of Cartesian functions: 331
    Spherical Harmonics?: true
    Max angular momentum: 4

  ==> DFT Potential <==

   => Composite Functional: B3LYP <= 

    B3LYP Hyb-GGA Exchange-Correlation Functional

    P. J. Stephens, F. J. Devlin, C. F. Chabalowski, and M. J. Frisch, J. Phys. Chem. 98, 11623 (1994)

    Deriv               =              1
    GGA                 =           TRUE
    Meta                =          FALSE

    Exchange Hybrid     =           TRUE
    MP2 Hybrid          =          FALSE

   => Exchange Functionals <=

    0.0800   Slater exchange
    0.7200         Becke 88

   => Exact (HF) Exchange <=

    0.2000               HF 

   => Correlation Functionals <=

    0.1900   Vosko, Wilk & Nusair (VWN5_RPA)
    0.8100   Lee, Yang & Parr

   => Molecular Quadrature <=

    Radial Scheme          =       TREUTLER
    Pruning Scheme         =           FLAT
    Nuclear Scheme         =       TREUTLER

    BS radius alpha        =              1
    Pruning alpha          =              1
    Radial Points          =             99
    Spherical Points       =            590
    Total Points           =         343849
    Total Blocks           =           2544
    Max Points             =            256
    Max Functions          =            109


  -Total Gradient:
     Atom            X                  Y                   Z
    ------   -----------------  -----------------  -----------------
       1       -0.000481679070    -0.000831634317    -0.000000440902
       2        0.000440425952     0.000676862569     0.000004361978
       3       -0.000058741937     0.000030900116    -0.000010882550
       4       -0.000005116925    -0.000019066212     0.000000884255
       5        0.000574310678     0.001022159466    -0.000000495120
       6       -0.000468899362    -0.000874497201     0.000006178179


*** tstop() called on meron at Sun Jul 24 14:38:41 2022
Module time:
	user time   =       2.74 seconds =       0.05 minutes
	system time =       0.01 seconds =       0.00 minutes
	total time  =          2 seconds =       0.03 minutes
Total time:
	user time   =      17.92 seconds =       0.30 minutes
	system time =       0.30 seconds =       0.01 minutes
	total time  =         18 seconds =       0.30 minutes

  Based on options and gradient (rms=4.68E-04), recommend projecting translations and projecting rotations.
hessian() will perform frequency computation by finite difference of analytic gradients.

         ----------------------------------------------------------
                                   FINDIF
                     R. A. King and Jonathon Misiewicz
         ---------------------------------------------------------

  Using finite-differences of gradients to determine vibrational frequencies and 
  normal modes.  Resulting frequencies are only valid at stationary points.
    Generating geometries for use with 3-point formula.
    Displacement size will be 5.00e-03.
    Number of atoms is 6.
    Number of irreps is 1.
    Number of SALCs is 12.
    Translations projected? 1. Rotations projected? 1.
    Index of SALCs per irrep:
     1 :  0  1  2  3  4  5  6  7  8  9  10  11 
    Number of SALCs per irrep:
     Irrep 1: 12
    Number of geometries (including reference) is 25.
    Number of displacements per irrep:
      Irrep 1: 24

  //>>>>>>>>>>>>>>>>>>>>>>>>>>>>>>>>>>>//
  //    Loading displacement 1 of 25   //
  //<<<<<<<<<<<<<<<<<<<<<<<<<<<<<<<<<<<//
gradient() will perform analytic gradient computation.

*** tstart() called on meron
*** at Sun Jul 24 14:38:42 2022

   => Loading Basis Set <=

    Name: DEF2-TZVP
    Role: ORBITAL
    Keyword: BASIS
    atoms 1-2 entry C          line   123 file /home/kfir4444/psi4conda/envs/arc_env/share/psi4/basis/def2-tzvp.gbs 
    atoms 3   entry O          line   189 file /home/kfir4444/psi4conda/envs/arc_env/share/psi4/basis/def2-tzvp.gbs 
    atoms 4-6 entry H          line    15 file /home/kfir4444/psi4conda/envs/arc_env/share/psi4/basis/def2-tzvp.gbs 


         ---------------------------------------------------------
                                   SCF
               by Justin Turney, Rob Parrish, Andy Simmonett
                          and Daniel G. A. Smith
                              UKS Reference
                        1 Threads,  13351 MiB Core
         ---------------------------------------------------------

  ==> Geometry <==

    Molecular point group: c1
    Full point group: C1

    Geometry (in Angstrom), charge = 0, multiplicity = 2:

       Center              X                  Y                   Z               Mass       
    ------------   -----------------  -----------------  -----------------  -----------------
         C           -1.204502269541     0.235252500914    -0.221647102383    12.000000000000
         C            0.191201690459     0.380859850914    -0.004006402383    12.000000000000
         O            0.941903620459    -0.572489729086     0.209730377617    15.994914619570
         H           -1.835148529541     1.094949230914    -0.406690622383     1.007825032230
         H           -1.643044409541    -0.752036489086    -0.201821582383     1.007825032230
         H            0.594695360459     1.406970480914    -0.033243462383     1.007825032230

  Running in c1 symmetry.

  Rotational constants: A =      2.25722  B =      0.38344  C =      0.32776 [cm^-1]
  Rotational constants: A =  67669.67462  B =  11495.17102  C =   9826.00896 [MHz]
  Nuclear repulsion =   63.714234771379978

  Charge       = 0
  Multiplicity = 2
  Electrons    = 23
  Nalpha       = 12
  Nbeta        = 11

  ==> Algorithm <==

  SCF Algorithm Type is DF.
  DIIS enabled.
  MOM disabled.
  Fractional occupation disabled.
  Guess Type is SAD.
  Energy threshold   = 1.00e-08
  Density threshold  = 1.00e-08
  Integral threshold = 0.00e+00

  ==> Primary Basis <==

  Basis Set: DEF2-TZVP
    Blend: DEF2-TZVP
    Number of shells: 45
    Number of basis function: 111
    Number of Cartesian functions: 126
    Spherical Harmonics?: true
    Max angular momentum: 3

  ==> DFT Potential <==

   => Composite Functional: B3LYP <= 

    B3LYP Hyb-GGA Exchange-Correlation Functional

    P. J. Stephens, F. J. Devlin, C. F. Chabalowski, and M. J. Frisch, J. Phys. Chem. 98, 11623 (1994)

    Deriv               =              1
    GGA                 =           TRUE
    Meta                =          FALSE

    Exchange Hybrid     =           TRUE
    MP2 Hybrid          =          FALSE

   => Exchange Functionals <=

    0.0800   Slater exchange
    0.7200         Becke 88

   => Exact (HF) Exchange <=

    0.2000               HF 

   => Correlation Functionals <=

    0.1900   Vosko, Wilk & Nusair (VWN5_RPA)
    0.8100   Lee, Yang & Parr

   => Molecular Quadrature <=

    Radial Scheme          =       TREUTLER
    Pruning Scheme         =           FLAT
    Nuclear Scheme         =       TREUTLER

    BS radius alpha        =              1
    Pruning alpha          =              1
    Radial Points          =             99
    Spherical Points       =            590
    Total Points           =         343849
    Total Blocks           =           2544
    Max Points             =            256
    Max Functions          =            109

   => Loading Basis Set <=

    Name: (DEF2-TZVP AUX)
    Role: JKFIT
    Keyword: DF_BASIS_SCF
    atoms 1-2 entry C          line   203 file /home/kfir4444/psi4conda/envs/arc_env/share/psi4/basis/def2-tzvp-jkfit.gbs 
    atoms 3   entry O          line   323 file /home/kfir4444/psi4conda/envs/arc_env/share/psi4/basis/def2-tzvp-jkfit.gbs 
    atoms 4-6 entry H          line    23 file /home/kfir4444/psi4conda/envs/arc_env/share/psi4/basis/def2-tzvp-jkfit.gbs 

  ==> Pre-Iterations <==

   -------------------------------------------------------
    Irrep   Nso     Nmo     Nalpha   Nbeta   Ndocc  Nsocc
   -------------------------------------------------------
     A        111     111       0       0       0       0
   -------------------------------------------------------
    Total     111     111      12      11      11       1
   -------------------------------------------------------

  ==> Integral Setup <==

  DFHelper Memory: AOs need 0.029 GiB; user supplied 8.884 GiB. Using in-core AOs.

  ==> MemDFJK: Density-Fitted J/K Matrices <==

    J tasked:                   Yes
    K tasked:                   Yes
    wK tasked:                   No
    OpenMP threads:               1
    Memory [MiB]:              9097
    Algorithm:                 Core
    Schwarz Cutoff:           1E-12
    Mask sparsity (%):       0.2922
    Fitting Condition:        1E-10

   => Auxiliary Basis Set <=

  Basis Set: (DEF2-TZVP AUX)
    Blend: DEF2-TZVP-JKFIT
    Number of shells: 93
    Number of basis function: 281
    Number of Cartesian functions: 331
    Spherical Harmonics?: true
    Max angular momentum: 4

  Cached 100.0% of DFT collocation blocks in 0.895 [GiB].

  Minimum eigenvalue in the overlap matrix is 3.5254203103E-04.
  Using Symmetric Orthogonalization.

  SCF Guess: Superposition of Atomic Densities via on-the-fly atomic UHF.

  ==> Iterations <==

                           Total Energy        Delta E     RMS |[F,P]|

   @DF-UKS iter SAD:  -152.61965380073752   -1.52620e+02   0.00000e+00 
   @DF-UKS iter   1:  -153.03813277160677   -4.18479e-01   5.94132e-03 DIIS
   @DF-UKS iter   2:  -152.90802164017094    1.30111e-01   7.88031e-03 DIIS
   @DF-UKS iter   3:  -153.20702077797498   -2.98999e-01   2.49453e-03 DIIS
   @DF-UKS iter   4:  -153.23806804602702   -3.10473e-02   4.07068e-04 DIIS
   @DF-UKS iter   5:  -153.23906550564982   -9.97460e-04   8.85178e-05 DIIS
   @DF-UKS iter   6:  -153.23914198099115   -7.64753e-05   3.73302e-05 DIIS
   @DF-UKS iter   7:  -153.23916106321639   -1.90822e-05   2.29341e-05 DIIS
   @DF-UKS iter   8:  -153.23916749566214   -6.43245e-06   7.08985e-06 DIIS
   @DF-UKS iter   9:  -153.23916832970536   -8.34043e-07   2.03939e-06 DIIS
   @DF-UKS iter  10:  -153.23916845361290   -1.23908e-07   6.32642e-07 DIIS
   @DF-UKS iter  11:  -153.23916846226757   -8.65467e-09   1.03820e-07 DIIS
   @DF-UKS iter  12:  -153.23916846242275   -1.55183e-10   3.09490e-08 DIIS
   @DF-UKS iter  13:  -153.23916846243435   -1.15961e-11   9.54549e-09 DIIS
  Energy and wave function converged.


  ==> Post-Iterations <==

   @Spin Contamination Metric:   1.769196529E-02
   @S^2 Expected:                7.500000000E-01
   @S^2 Observed:                7.676919653E-01
   @S   Expected:                5.000000000E-01
   @S   Observed:                5.000000000E-01

    Orbital Energies [Eh]
    ---------------------

    Alpha Occupied:                                                       

       1A    -19.139001     2A    -10.260167     3A    -10.224772  
       4A     -1.055413     5A     -0.772637     6A     -0.591901  
       7A     -0.507284     8A     -0.462559     9A     -0.425761  
      10A     -0.423437    11A     -0.279974    12A     -0.279442  

    Alpha Virtual:                                                        

      13A     -0.009192    14A      0.055103    15A      0.070093  
      16A      0.105355    17A      0.124569    18A      0.169243  
      19A      0.190665    20A      0.192178    21A      0.264644  
      22A      0.285037    23A      0.300846    24A      0.360799  
      25A      0.391828    26A      0.407329    27A      0.436356  
      28A      0.466977    29A      0.475981    30A      0.493735  
      31A      0.577580    32A      0.610214    33A      0.618914  
      34A      0.657532    35A      0.733259    36A      0.843151  
      37A      0.855734    38A      0.881545    39A      0.949035  
      40A      1.047463    41A      1.087391    42A      1.117149  
      43A      1.217191    44A      1.321224    45A      1.351200  
      46A      1.430616    47A      1.466052    48A      1.497461  
      49A      1.569041    50A      1.591495    51A      1.622420  
      52A      1.708829    53A      1.758345    54A      1.775762  
      55A      1.801570    56A      1.903224    57A      1.906965  
      58A      2.047460    59A      2.142004    60A      2.187473  
      61A      2.257269    62A      2.285941    63A      2.362009  
      64A      2.450397    65A      2.466717    66A      2.517376  
      67A      2.563388    68A      2.638367    69A      2.701839  
      70A      2.733781    71A      2.756162    72A      2.768134  
      73A      2.945332    74A      2.958939    75A      2.986716  
      76A      3.040614    77A      3.049174    78A      3.094331  
      79A      3.147305    80A      3.154213    81A      3.258756  
      82A      3.267917    83A      3.317444    84A      3.399531  
      85A      3.400267    86A      3.491377    87A      3.682085  
      88A      3.774756    89A      3.903201    90A      4.060497  
      91A      4.091086    92A      4.129896    93A      4.282273  
      94A      4.489274    95A      4.561207    96A      4.674534  
      97A      5.155620    98A      5.169321    99A      5.503997  
     100A      5.616149   101A      5.999987   102A      6.240269  
     103A      6.300730   104A      6.332130   105A      6.390100  
     106A      6.748893   107A      6.914573   108A      6.997867  
     109A     22.053927   110A     22.744247   111A     43.674121  

    Beta Occupied:                                                        

       1A    -19.129530     2A    -10.262352     3A    -10.213695  
       4A     -1.038262     5A     -0.745271     6A     -0.584548  
       7A     -0.500755     8A     -0.453898     9A     -0.417225  
      10A     -0.386017    11A     -0.270371  

    Beta Virtual:                                                         

      12A     -0.147083    13A      0.020730    14A      0.058050  
      15A      0.073034    16A      0.106822    17A      0.125894  
      18A      0.169506    19A      0.200989    20A      0.205112  
      21A      0.281229    22A      0.293289    23A      0.302145  
      24A      0.363369    25A      0.395808    26A      0.416116  
      27A      0.441230    28A      0.471244    29A      0.496478  
      30A      0.496572    31A      0.595574    32A      0.613404  
      33A      0.623088    34A      0.676980    35A      0.741661  
      36A      0.852596    37A      0.862727    38A      0.886299  
      39A      0.956226    40A      1.063354    41A      1.089517  
      42A      1.129355    43A      1.221229    44A      1.329977  
      45A      1.372489    46A      1.454515    47A      1.473591  
      48A      1.504714    49A      1.577526    50A      1.597014  
      51A      1.635567    52A      1.713191    53A      1.770750  
      54A      1.793536    55A      1.806125    56A      1.911068  
      57A      1.917109    58A      2.052898    59A      2.151695  
      60A      2.193139    61A      2.270234    62A      2.294698  
      63A      2.367134    64A      2.469124    65A      2.472820  
      66A      2.532032    67A      2.567385    68A      2.669363  
      69A      2.708204    70A      2.749531    71A      2.772872  
      72A      2.777178    73A      2.949649    74A      2.975958  
      75A      3.017967    76A      3.045071    77A      3.062901  
      78A      3.103870    79A      3.160687    80A      3.176881  
      81A      3.274612    82A      3.296992    83A      3.320397  
      84A      3.410409    85A      3.415638    86A      3.498661  
      87A      3.692965    88A      3.785677    89A      3.907792  
      90A      4.069951    91A      4.113681    92A      4.131850  
      93A      4.291484    94A      4.496419    95A      4.572035  
      96A      4.684061    97A      5.180349    98A      5.193363  
      99A      5.519936   100A      5.631912   101A      6.022618  
     102A      6.248214   103A      6.333949   104A      6.339336  
     105A      6.422804   106A      6.776937   107A      6.918483  
     108A      7.009878   109A     22.066128   110A     22.743019  
     111A     43.683807  

    Final Occupation by Irrep:
              A 
    DOCC [    11 ]
    SOCC [     1 ]

  @DF-UKS Final Energy:  -153.23916846243435

   => Energetics <=

    Nuclear Repulsion Energy =             63.7142347713799779
    One-Electron Energy =                -333.5501402064778631
    Two-Electron Energy =                 133.1920721408484951
    DFT Exchange-Correlation Energy =     -16.5953351681850165
    Empirical Dispersion Energy =           0.0000000000000000
    VV10 Nonlocal Energy =                  0.0000000000000000
    Total Energy =                       -153.2391684624343782

  UHF NO Occupations:
  HONO-2 :   10  A 1.9992290
  HONO-1 :   11  A 1.9923587
  HONO-0 :   12  A 1.0000000
  LUNO+0 :   13  A 0.0076413
  LUNO+1 :   14  A 0.0007710
  LUNO+2 :   15  A 0.0001682
  LUNO+3 :   16  A 0.0001301


Computation Completed


Properties will be evaluated at   0.000000,   0.000000,   0.000000 [a0]

Properties computed using the SCF density matrix

  Nuclear Dipole Moment: [e a0]
     X:    -2.6987      Y:     1.6377      Z:    -0.6006

  Electronic Dipole Moment: [e a0]
     X:     1.7777      Y:    -0.9549      Z:     0.3840

  Dipole Moment: [e a0]
     X:    -0.9209      Y:     0.6828      Z:    -0.2166     Total:     1.1667

  Dipole Moment: [D]
     X:    -2.3407      Y:     1.7356      Z:    -0.5505     Total:     2.9655


*** tstop() called on meron at Sun Jul 24 14:38:57 2022
Module time:
	user time   =      15.01 seconds =       0.25 minutes
	system time =       0.22 seconds =       0.00 minutes
	total time  =         15 seconds =       0.25 minutes
Total time:
	user time   =      33.26 seconds =       0.55 minutes
	system time =       0.57 seconds =       0.01 minutes
	total time  =         34 seconds =       0.57 minutes

*** tstart() called on meron
*** at Sun Jul 24 14:38:57 2022


         ------------------------------------------------------------
                                   SCF GRAD                          
                          Rob Parrish, Justin Turney,                
                       Andy Simmonett, and Alex Sokolov              
         ------------------------------------------------------------

  ==> Geometry <==

    Molecular point group: c1
    Full point group: C1

    Geometry (in Angstrom), charge = 0, multiplicity = 2:

       Center              X                  Y                   Z               Mass       
    ------------   -----------------  -----------------  -----------------  -----------------
         C           -1.204502269541     0.235252500914    -0.221647102383    12.000000000000
         C            0.191201690459     0.380859850914    -0.004006402383    12.000000000000
         O            0.941903620459    -0.572489729086     0.209730377617    15.994914619570
         H           -1.835148529541     1.094949230914    -0.406690622383     1.007825032230
         H           -1.643044409541    -0.752036489086    -0.201821582383     1.007825032230
         H            0.594695360459     1.406970480914    -0.033243462383     1.007825032230

  Nuclear repulsion =   63.714234771379978

  ==> Basis Set <==

  Basis Set: DEF2-TZVP
    Blend: DEF2-TZVP
    Number of shells: 45
    Number of basis function: 111
    Number of Cartesian functions: 126
    Spherical Harmonics?: true
    Max angular momentum: 3

  ==> DFJKGrad: Density-Fitted SCF Gradients <==

    Gradient:                    1
    J tasked:                  Yes
    K tasked:                  Yes
    wK tasked:                  No
    OpenMP threads:              1
    Integrals threads:           1
    Memory [MiB]:            10013
    Schwarz Cutoff:          0E+00
    Fitting Condition:       1E-10

   => Auxiliary Basis Set <=

  Basis Set: (DEF2-TZVP AUX)
    Blend: DEF2-TZVP-JKFIT
    Number of shells: 93
    Number of basis function: 281
    Number of Cartesian functions: 331
    Spherical Harmonics?: true
    Max angular momentum: 4

  ==> DFT Potential <==

   => Composite Functional: B3LYP <= 

    B3LYP Hyb-GGA Exchange-Correlation Functional

    P. J. Stephens, F. J. Devlin, C. F. Chabalowski, and M. J. Frisch, J. Phys. Chem. 98, 11623 (1994)

    Deriv               =              1
    GGA                 =           TRUE
    Meta                =          FALSE

    Exchange Hybrid     =           TRUE
    MP2 Hybrid          =          FALSE

   => Exchange Functionals <=

    0.0800   Slater exchange
    0.7200         Becke 88

   => Exact (HF) Exchange <=

    0.2000               HF 

   => Correlation Functionals <=

    0.1900   Vosko, Wilk & Nusair (VWN5_RPA)
    0.8100   Lee, Yang & Parr

   => Molecular Quadrature <=

    Radial Scheme          =       TREUTLER
    Pruning Scheme         =           FLAT
    Nuclear Scheme         =       TREUTLER

    BS radius alpha        =              1
    Pruning alpha          =              1
    Radial Points          =             99
    Spherical Points       =            590
    Total Points           =         343849
    Total Blocks           =           2544
    Max Points             =            256
    Max Functions          =            109


  -Total Gradient:
     Atom            X                  Y                   Z
    ------   -----------------  -----------------  -----------------
       1       -0.000481676862    -0.000831632938    -0.000000440640
       2        0.000440439668     0.000676845847     0.000004365835
       3       -0.000058762914     0.000030923556    -0.000010888271
       4       -0.000005110670    -0.000019076101     0.000000886218
       5        0.000574314778     0.001022172061    -0.000000495618
       6       -0.000468904665    -0.000874508005     0.000006178317


*** tstop() called on meron at Sun Jul 24 14:39:00 2022
Module time:
	user time   =       2.76 seconds =       0.05 minutes
	system time =       0.01 seconds =       0.00 minutes
	total time  =          3 seconds =       0.05 minutes
Total time:
	user time   =      36.02 seconds =       0.60 minutes
	system time =       0.58 seconds =       0.01 minutes
	total time  =         37 seconds =       0.62 minutes

  //>>>>>>>>>>>>>>>>>>>>>>>>>>>>>>>>>>>//
  //    Loading displacement 2 of 25   //
  //<<<<<<<<<<<<<<<<<<<<<<<<<<<<<<<<<<<//
gradient() will perform analytic gradient computation.

*** tstart() called on meron
*** at Sun Jul 24 14:39:00 2022

   => Loading Basis Set <=

    Name: DEF2-TZVP
    Role: ORBITAL
    Keyword: BASIS
    atoms 1-2 entry C          line   123 file /home/kfir4444/psi4conda/envs/arc_env/share/psi4/basis/def2-tzvp.gbs 
    atoms 3   entry O          line   189 file /home/kfir4444/psi4conda/envs/arc_env/share/psi4/basis/def2-tzvp.gbs 
    atoms 4-6 entry H          line    15 file /home/kfir4444/psi4conda/envs/arc_env/share/psi4/basis/def2-tzvp.gbs 


         ---------------------------------------------------------
                                   SCF
               by Justin Turney, Rob Parrish, Andy Simmonett
                          and Daniel G. A. Smith
                              UKS Reference
                        1 Threads,  13351 MiB Core
         ---------------------------------------------------------

  ==> Geometry <==

    Molecular point group: c1
    Full point group: C1

    Geometry (in Angstrom), charge = 0, multiplicity = 2:

       Center              X                  Y                   Z               Mass       
    ------------   -----------------  -----------------  -----------------  -----------------
         C           -1.205138489029     0.235311648787    -0.221719962806    12.000000000000
         C            0.191474163371     0.380851740095    -0.003981196150    12.000000000000
         O            0.942120709960    -0.572537169308     0.209774681001    15.994914619570
         H           -1.834818353098     1.095041597470    -0.406777607627     1.007825032230
         H           -1.642807542607    -0.751959085079    -0.201955966064     1.007825032230
         H            0.595014017312     1.406945931652    -0.033157810015     1.007825032230

  Running in c1 symmetry.

  Rotational constants: A =      2.25680  B =      0.38322  C =      0.32759 [cm^-1]
  Rotational constants: A =  67657.02146  B =  11488.60726  C =   9820.94606 [MHz]
  Nuclear repulsion =   63.703730829174937

  Charge       = 0
  Multiplicity = 2
  Electrons    = 23
  Nalpha       = 12
  Nbeta        = 11

  ==> Algorithm <==

  SCF Algorithm Type is DF.
  DIIS enabled.
  MOM disabled.
  Fractional occupation disabled.
  Guess Type is SAD.
  Energy threshold   = 1.00e-08
  Density threshold  = 1.00e-08
  Integral threshold = 0.00e+00

  ==> Primary Basis <==

  Basis Set: DEF2-TZVP
    Blend: DEF2-TZVP
    Number of shells: 45
    Number of basis function: 111
    Number of Cartesian functions: 126
    Spherical Harmonics?: true
    Max angular momentum: 3

  ==> DFT Potential <==

   => Composite Functional: B3LYP <= 

    B3LYP Hyb-GGA Exchange-Correlation Functional

    P. J. Stephens, F. J. Devlin, C. F. Chabalowski, and M. J. Frisch, J. Phys. Chem. 98, 11623 (1994)

    Deriv               =              1
    GGA                 =           TRUE
    Meta                =          FALSE

    Exchange Hybrid     =           TRUE
    MP2 Hybrid          =          FALSE

   => Exchange Functionals <=

    0.0800   Slater exchange
    0.7200         Becke 88

   => Exact (HF) Exchange <=

    0.2000               HF 

   => Correlation Functionals <=

    0.1900   Vosko, Wilk & Nusair (VWN5_RPA)
    0.8100   Lee, Yang & Parr

   => Molecular Quadrature <=

    Radial Scheme          =       TREUTLER
    Pruning Scheme         =           FLAT
    Nuclear Scheme         =       TREUTLER

    BS radius alpha        =              1
    Pruning alpha          =              1
    Radial Points          =             99
    Spherical Points       =            590
    Total Points           =         343849
    Total Blocks           =           2546
    Max Points             =            256
    Max Functions          =            109

   => Loading Basis Set <=

    Name: (DEF2-TZVP AUX)
    Role: JKFIT
    Keyword: DF_BASIS_SCF
    atoms 1-2 entry C          line   203 file /home/kfir4444/psi4conda/envs/arc_env/share/psi4/basis/def2-tzvp-jkfit.gbs 
    atoms 3   entry O          line   323 file /home/kfir4444/psi4conda/envs/arc_env/share/psi4/basis/def2-tzvp-jkfit.gbs 
    atoms 4-6 entry H          line    23 file /home/kfir4444/psi4conda/envs/arc_env/share/psi4/basis/def2-tzvp-jkfit.gbs 

  ==> Pre-Iterations <==

   -------------------------------------------------------
    Irrep   Nso     Nmo     Nalpha   Nbeta   Ndocc  Nsocc
   -------------------------------------------------------
     A        111     111       0       0       0       0
   -------------------------------------------------------
    Total     111     111      12      11      11       1
   -------------------------------------------------------

  ==> Integral Setup <==

  DFHelper Memory: AOs need 0.029 GiB; user supplied 8.884 GiB. Using in-core AOs.

  ==> MemDFJK: Density-Fitted J/K Matrices <==

    J tasked:                   Yes
    K tasked:                   Yes
    wK tasked:                   No
    OpenMP threads:               1
    Memory [MiB]:              9097
    Algorithm:                 Core
    Schwarz Cutoff:           1E-12
    Mask sparsity (%):       0.2922
    Fitting Condition:        1E-10

   => Auxiliary Basis Set <=

  Basis Set: (DEF2-TZVP AUX)
    Blend: DEF2-TZVP-JKFIT
    Number of shells: 93
    Number of basis function: 281
    Number of Cartesian functions: 331
    Spherical Harmonics?: true
    Max angular momentum: 4

  Cached 100.0% of DFT collocation blocks in 0.895 [GiB].

  Minimum eigenvalue in the overlap matrix is 3.5469813547E-04.
  Using Symmetric Orthogonalization.

  SCF Guess: Superposition of Atomic Densities via on-the-fly atomic UHF.

  ==> Iterations <==

                           Total Energy        Delta E     RMS |[F,P]|

   @DF-UKS iter SAD:  -152.61895249851858   -1.52619e+02   0.00000e+00 
   @DF-UKS iter   1:  -153.03827322952412   -4.19321e-01   5.94014e-03 DIIS
   @DF-UKS iter   2:  -152.90799088894929    1.30282e-01   7.88251e-03 DIIS
   @DF-UKS iter   3:  -153.20694893388890   -2.98958e-01   2.49719e-03 DIIS
   @DF-UKS iter   4:  -153.23807061401359   -3.11217e-02   4.05992e-04 DIIS
   @DF-UKS iter   5:  -153.23906391938706   -9.93305e-04   8.84117e-05 DIIS
   @DF-UKS iter   6:  -153.23914033382698   -7.64144e-05   3.71932e-05 DIIS
   @DF-UKS iter   7:  -153.23915941120651   -1.90774e-05   2.28567e-05 DIIS
   @DF-UKS iter   8:  -153.23916580054777   -6.38934e-06   7.11591e-06 DIIS
   @DF-UKS iter   9:  -153.23916663827575   -8.37728e-07   2.04221e-06 DIIS
   @DF-UKS iter  10:  -153.23916676278628   -1.24511e-07   6.33164e-07 DIIS
   @DF-UKS iter  11:  -153.23916677144527   -8.65899e-09   1.03905e-07 DIIS
   @DF-UKS iter  12:  -153.23916677160037   -1.55097e-10   3.09600e-08 DIIS
   @DF-UKS iter  13:  -153.23916677161199   -1.16245e-11   9.54508e-09 DIIS
  Energy and wave function converged.


  ==> Post-Iterations <==

   @Spin Contamination Metric:   1.766713411E-02
   @S^2 Expected:                7.500000000E-01
   @S^2 Observed:                7.676671341E-01
   @S   Expected:                5.000000000E-01
   @S   Observed:                5.000000000E-01

    Orbital Energies [Eh]
    ---------------------

    Alpha Occupied:                                                       

       1A    -19.138994     2A    -10.260273     3A    -10.224755  
       4A     -1.055371     5A     -0.772519     6A     -0.591928  
       7A     -0.507264     8A     -0.462512     9A     -0.425669  
      10A     -0.423597    11A     -0.279948    12A     -0.279397  

    Alpha Virtual:                                                        

      13A     -0.009301    14A      0.055153    15A      0.070140  
      16A      0.105368    17A      0.124567    18A      0.169152  
      19A      0.190706    20A      0.192197    21A      0.264599  
      22A      0.284929    23A      0.300851    24A      0.360804  
      25A      0.391949    26A      0.407248    27A      0.436389  
      28A      0.466662    29A      0.476010    30A      0.493680  
      31A      0.577532    32A      0.610277    33A      0.618880  
      34A      0.657342    35A      0.733287    36A      0.843016  
      37A      0.855755    38A      0.881668    39A      0.948643  
      40A      1.047354    41A      1.087230    42A      1.116922  
      43A      1.216984    44A      1.321034    45A      1.351184  
      46A      1.430587    47A      1.465901    48A      1.497296  
      49A      1.569152    50A      1.591609    51A      1.622304  
      52A      1.708744    53A      1.758342    54A      1.775880  
      55A      1.801445    56A      1.903128    57A      1.906965  
      58A      2.047522    59A      2.142153    60A      2.187365  
      61A      2.257254    62A      2.285874    63A      2.362450  
      64A      2.450245    65A      2.467314    66A      2.517342  
      67A      2.563161    68A      2.638370    69A      2.701904  
      70A      2.733466    71A      2.756344    72A      2.768063  
      73A      2.945253    74A      2.959575    75A      2.986670  
      76A      3.040864    77A      3.049324    78A      3.093949  
      79A      3.146825    80A      3.154148    81A      3.258847  
      82A      3.267211    83A      3.317324    84A      3.399459  
      85A      3.399870    86A      3.491441    87A      3.681411  
      88A      3.774623    89A      3.902542    90A      4.059650  
      91A      4.089634    92A      4.129705    93A      4.281875  
      94A      4.489132    95A      4.561769    96A      4.673911  
      97A      5.155629    98A      5.169274    99A      5.503836  
     100A      5.615906   101A      5.999905   102A      6.240130  
     103A      6.300719   104A      6.331750   105A      6.390066  
     106A      6.748900   107A      6.914418   108A      6.997795  
     109A     22.054323   110A     22.742618   111A     43.673916  

    Beta Occupied:                                                        

       1A    -19.129544     2A    -10.262457     3A    -10.213670  
       4A     -1.038262     5A     -0.745137     6A     -0.584581  
       7A     -0.500728     8A     -0.453871     9A     -0.417383  
      10A     -0.386001    11A     -0.270360  

    Beta Virtual:                                                         

      12A     -0.147033    13A      0.020617    14A      0.058092  
      15A      0.073087    16A      0.106836    17A      0.125889  
      18A      0.169415    19A      0.201019    20A      0.205163  
      21A      0.281198    22A      0.293215    23A      0.302142  
      24A      0.363380    25A      0.395981    26A      0.415962  
      27A      0.441298    28A      0.470927    29A      0.496430  
      30A      0.496562    31A      0.595531    32A      0.613465  
      33A      0.623049    34A      0.676812    35A      0.741675  
      36A      0.852460    37A      0.862754    38A      0.886404  
      39A      0.955841    40A      1.063257    41A      1.089341  
      42A      1.129168    43A      1.221023    44A      1.329797  
      45A      1.372505    46A      1.454471    47A      1.473444  
      48A      1.504536    49A      1.577675    50A      1.597087  
      51A      1.635471    52A      1.713106    53A      1.770779  
      54A      1.793628    55A      1.806009    56A      1.910945  
      57A      1.917084    58A      2.052952    59A      2.151840  
      60A      2.193030    61A      2.270249    62A      2.294606  
      63A      2.367595    64A      2.469693    65A      2.472672  
      66A      2.532043    67A      2.567162    68A      2.669303  
      69A      2.708178    70A      2.749376    71A      2.772767  
      72A      2.777402    73A      2.949564    74A      2.976473  
      75A      3.017961    76A      3.045311    77A      3.063056  
      78A      3.103491    79A      3.160258    80A      3.176908  
      81A      3.274686    82A      3.296340    83A      3.320273  
      84A      3.410302    85A      3.415271    86A      3.498737  
      87A      3.692267    88A      3.785550    89A      3.907126  
      90A      4.069099    91A      4.112233    92A      4.131654  
      93A      4.291072    94A      4.496291    95A      4.572603  
      96A      4.683438    97A      5.180300    98A      5.193262  
      99A      5.519739   100A      5.631629   101A      6.022484  
     102A      6.248064   103A      6.333864   104A      6.338909  
     105A      6.422724   106A      6.776881   107A      6.918319  
     108A      7.009777   109A     22.066540   110A     22.741384  
     111A     43.683580  

    Final Occupation by Irrep:
              A 
    DOCC [    11 ]
    SOCC [     1 ]

  @DF-UKS Final Energy:  -153.23916677161199

   => Energetics <=

    Nuclear Repulsion Energy =             63.7037308291749369
    One-Electron Energy =                -333.5292412662182642
    Two-Electron Energy =                 133.1815772982541546
    DFT Exchange-Correlation Energy =     -16.5952336328228220
    Empirical Dispersion Energy =           0.0000000000000000
    VV10 Nonlocal Energy =                  0.0000000000000000
    Total Energy =                       -153.2391667716119628

  UHF NO Occupations:
  HONO-2 :   10  A 1.9992277
  HONO-1 :   11  A 1.9923721
  HONO-0 :   12  A 1.0000000
  LUNO+0 :   13  A 0.0076279
  LUNO+1 :   14  A 0.0007723
  LUNO+2 :   15  A 0.0001680
  LUNO+3 :   16  A 0.0001305


Computation Completed


Properties will be evaluated at   0.000000,   0.000000,   0.000000 [a0]

Properties computed using the SCF density matrix

  Nuclear Dipole Moment: [e a0]
     X:    -2.6978      Y:     1.6378      Z:    -0.6007

  Electronic Dipole Moment: [e a0]
     X:     1.7772      Y:    -0.9547      Z:     0.3841

  Dipole Moment: [e a0]
     X:    -0.9207      Y:     0.6832      Z:    -0.2167     Total:     1.1667

  Dipole Moment: [D]
     X:    -2.3401      Y:     1.7364      Z:    -0.5507     Total:     2.9655


*** tstop() called on meron at Sun Jul 24 14:39:15 2022
Module time:
	user time   =      14.96 seconds =       0.25 minutes
	system time =       0.07 seconds =       0.00 minutes
	total time  =         15 seconds =       0.25 minutes
Total time:
	user time   =      50.98 seconds =       0.85 minutes
	system time =       0.65 seconds =       0.01 minutes
	total time  =         52 seconds =       0.87 minutes

*** tstart() called on meron
*** at Sun Jul 24 14:39:15 2022


         ------------------------------------------------------------
                                   SCF GRAD                          
                          Rob Parrish, Justin Turney,                
                       Andy Simmonett, and Alex Sokolov              
         ------------------------------------------------------------

  ==> Geometry <==

    Molecular point group: c1
    Full point group: C1

    Geometry (in Angstrom), charge = 0, multiplicity = 2:

       Center              X                  Y                   Z               Mass       
    ------------   -----------------  -----------------  -----------------  -----------------
         C           -1.205138489029     0.235311648787    -0.221719962806    12.000000000000
         C            0.191474163371     0.380851740095    -0.003981196150    12.000000000000
         O            0.942120709960    -0.572537169308     0.209774681001    15.994914619570
         H           -1.834818353098     1.095041597470    -0.406777607627     1.007825032230
         H           -1.642807542607    -0.751959085079    -0.201955966064     1.007825032230
         H            0.595014017312     1.406945931652    -0.033157810015     1.007825032230

  Nuclear repulsion =   63.703730829174937

  ==> Basis Set <==

  Basis Set: DEF2-TZVP
    Blend: DEF2-TZVP
    Number of shells: 45
    Number of basis function: 111
    Number of Cartesian functions: 126
    Spherical Harmonics?: true
    Max angular momentum: 3

  ==> DFJKGrad: Density-Fitted SCF Gradients <==

    Gradient:                    1
    J tasked:                  Yes
    K tasked:                  Yes
    wK tasked:                  No
    OpenMP threads:              1
    Integrals threads:           1
    Memory [MiB]:            10013
    Schwarz Cutoff:          0E+00
    Fitting Condition:       1E-10

   => Auxiliary Basis Set <=

  Basis Set: (DEF2-TZVP AUX)
    Blend: DEF2-TZVP-JKFIT
    Number of shells: 93
    Number of basis function: 281
    Number of Cartesian functions: 331
    Spherical Harmonics?: true
    Max angular momentum: 4

  ==> DFT Potential <==

   => Composite Functional: B3LYP <= 

    B3LYP Hyb-GGA Exchange-Correlation Functional

    P. J. Stephens, F. J. Devlin, C. F. Chabalowski, and M. J. Frisch, J. Phys. Chem. 98, 11623 (1994)

    Deriv               =              1
    GGA                 =           TRUE
    Meta                =          FALSE

    Exchange Hybrid     =           TRUE
    MP2 Hybrid          =          FALSE

   => Exchange Functionals <=

    0.0800   Slater exchange
    0.7200         Becke 88

   => Exact (HF) Exchange <=

    0.2000               HF 

   => Correlation Functionals <=

    0.1900   Vosko, Wilk & Nusair (VWN5_RPA)
    0.8100   Lee, Yang & Parr

   => Molecular Quadrature <=

    Radial Scheme          =       TREUTLER
    Pruning Scheme         =           FLAT
    Nuclear Scheme         =       TREUTLER

    BS radius alpha        =              1
    Pruning alpha          =              1
    Radial Points          =             99
    Spherical Points       =            590
    Total Points           =         343849
    Total Blocks           =           2546
    Max Points             =            256
    Max Functions          =            109


  -Total Gradient:
     Atom            X                  Y                   Z
    ------   -----------------  -----------------  -----------------
       1       -0.001470862137    -0.000829563535    -0.000142047825
       2        0.000823563140     0.000856488181     0.000032783185
       3        0.000085422968    -0.000109947082     0.000031241905
       4        0.000261996570    -0.000249774537     0.000060523928
       5        0.000752765638     0.001211725180     0.000004166010
       6       -0.000452561878    -0.000874208354     0.000012941339


*** tstop() called on meron at Sun Jul 24 14:39:18 2022
Module time:
	user time   =       2.72 seconds =       0.05 minutes
	system time =       0.01 seconds =       0.00 minutes
	total time  =          3 seconds =       0.05 minutes
Total time:
	user time   =      53.70 seconds =       0.89 minutes
	system time =       0.66 seconds =       0.01 minutes
	total time  =         55 seconds =       0.92 minutes

  //>>>>>>>>>>>>>>>>>>>>>>>>>>>>>>>>>>>//
  //    Loading displacement 3 of 25   //
  //<<<<<<<<<<<<<<<<<<<<<<<<<<<<<<<<<<<//
gradient() will perform analytic gradient computation.

*** tstart() called on meron
*** at Sun Jul 24 14:39:18 2022

   => Loading Basis Set <=

    Name: DEF2-TZVP
    Role: ORBITAL
    Keyword: BASIS
    atoms 1-2 entry C          line   123 file /home/kfir4444/psi4conda/envs/arc_env/share/psi4/basis/def2-tzvp.gbs 
    atoms 3   entry O          line   189 file /home/kfir4444/psi4conda/envs/arc_env/share/psi4/basis/def2-tzvp.gbs 
    atoms 4-6 entry H          line    15 file /home/kfir4444/psi4conda/envs/arc_env/share/psi4/basis/def2-tzvp.gbs 


         ---------------------------------------------------------
                                   SCF
               by Justin Turney, Rob Parrish, Andy Simmonett
                          and Daniel G. A. Smith
                              UKS Reference
                        1 Threads,  13351 MiB Core
         ---------------------------------------------------------

  ==> Geometry <==

    Molecular point group: c1
    Full point group: C1

    Geometry (in Angstrom), charge = 0, multiplicity = 2:

       Center              X                  Y                   Z               Mass       
    ------------   -----------------  -----------------  -----------------  -----------------
         C           -1.203866050054     0.235193353041    -0.221574241960    12.000000000000
         C            0.190929217547     0.380867961734    -0.004031608615    12.000000000000
         O            0.941686530957    -0.572442288863     0.209686074234    15.994914619570
         H           -1.835478705985     1.094856864359    -0.406603637139     1.007825032230
         H           -1.643281276475    -0.752113893092    -0.201687198702     1.007825032230
         H            0.594376703606     1.406995030176    -0.033329114750     1.007825032230

  Running in c1 symmetry.

  Rotational constants: A =      2.25764  B =      0.38366  C =      0.32793 [cm^-1]
  Rotational constants: A =  67682.33295  B =  11501.73857  C =   9831.07444 [MHz]
  Nuclear repulsion =   63.724751147421060

  Charge       = 0
  Multiplicity = 2
  Electrons    = 23
  Nalpha       = 12
  Nbeta        = 11

  ==> Algorithm <==

  SCF Algorithm Type is DF.
  DIIS enabled.
  MOM disabled.
  Fractional occupation disabled.
  Guess Type is SAD.
  Energy threshold   = 1.00e-08
  Density threshold  = 1.00e-08
  Integral threshold = 0.00e+00

  ==> Primary Basis <==

  Basis Set: DEF2-TZVP
    Blend: DEF2-TZVP
    Number of shells: 45
    Number of basis function: 111
    Number of Cartesian functions: 126
    Spherical Harmonics?: true
    Max angular momentum: 3

  ==> DFT Potential <==

   => Composite Functional: B3LYP <= 

    B3LYP Hyb-GGA Exchange-Correlation Functional

    P. J. Stephens, F. J. Devlin, C. F. Chabalowski, and M. J. Frisch, J. Phys. Chem. 98, 11623 (1994)

    Deriv               =              1
    GGA                 =           TRUE
    Meta                =          FALSE

    Exchange Hybrid     =           TRUE
    MP2 Hybrid          =          FALSE

   => Exchange Functionals <=

    0.0800   Slater exchange
    0.7200         Becke 88

   => Exact (HF) Exchange <=

    0.2000               HF 

   => Correlation Functionals <=

    0.1900   Vosko, Wilk & Nusair (VWN5_RPA)
    0.8100   Lee, Yang & Parr

   => Molecular Quadrature <=

    Radial Scheme          =       TREUTLER
    Pruning Scheme         =           FLAT
    Nuclear Scheme         =       TREUTLER

    BS radius alpha        =              1
    Pruning alpha          =              1
    Radial Points          =             99
    Spherical Points       =            590
    Total Points           =         343849
    Total Blocks           =           2549
    Max Points             =            256
    Max Functions          =            109

   => Loading Basis Set <=

    Name: (DEF2-TZVP AUX)
    Role: JKFIT
    Keyword: DF_BASIS_SCF
    atoms 1-2 entry C          line   203 file /home/kfir4444/psi4conda/envs/arc_env/share/psi4/basis/def2-tzvp-jkfit.gbs 
    atoms 3   entry O          line   323 file /home/kfir4444/psi4conda/envs/arc_env/share/psi4/basis/def2-tzvp-jkfit.gbs 
    atoms 4-6 entry H          line    23 file /home/kfir4444/psi4conda/envs/arc_env/share/psi4/basis/def2-tzvp-jkfit.gbs 

  ==> Pre-Iterations <==

   -------------------------------------------------------
    Irrep   Nso     Nmo     Nalpha   Nbeta   Ndocc  Nsocc
   -------------------------------------------------------
     A        111     111       0       0       0       0
   -------------------------------------------------------
    Total     111     111      12      11      11       1
   -------------------------------------------------------

  ==> Integral Setup <==

  DFHelper Memory: AOs need 0.029 GiB; user supplied 8.884 GiB. Using in-core AOs.

  ==> MemDFJK: Density-Fitted J/K Matrices <==

    J tasked:                   Yes
    K tasked:                   Yes
    wK tasked:                   No
    OpenMP threads:               1
    Memory [MiB]:              9097
    Algorithm:                 Core
    Schwarz Cutoff:           1E-12
    Mask sparsity (%):       0.2922
    Fitting Condition:        1E-10

   => Auxiliary Basis Set <=

  Basis Set: (DEF2-TZVP AUX)
    Blend: DEF2-TZVP-JKFIT
    Number of shells: 93
    Number of basis function: 281
    Number of Cartesian functions: 331
    Spherical Harmonics?: true
    Max angular momentum: 4

  Cached 100.0% of DFT collocation blocks in 0.895 [GiB].

  Minimum eigenvalue in the overlap matrix is 3.5039846562E-04.
  Using Symmetric Orthogonalization.

  SCF Guess: Superposition of Atomic Densities via on-the-fly atomic UHF.

  ==> Iterations <==

                           Total Energy        Delta E     RMS |[F,P]|

   @DF-UKS iter SAD:  -152.62035511879628   -1.52620e+02   0.00000e+00 
   @DF-UKS iter   1:  -153.03798949990858   -4.17634e-01   5.94252e-03 DIIS
   @DF-UKS iter   2:  -152.90804972392746    1.29940e-01   7.87810e-03 DIIS
   @DF-UKS iter   3:  -153.20709149519686   -2.99042e-01   2.49184e-03 DIIS
   @DF-UKS iter   4:  -153.23806371458230   -3.09722e-02   4.08154e-04 DIIS
   @DF-UKS iter   5:  -153.23906537671462   -1.00166e-03   8.86232e-05 DIIS
   @DF-UKS iter   6:  -153.23914191174831   -7.65350e-05   3.74660e-05 DIIS
   @DF-UKS iter   7:  -153.23916100009319   -1.90883e-05   2.30075e-05 DIIS
   @DF-UKS iter   8:  -153.23916747379110   -6.47370e-06   7.06440e-06 DIIS
   @DF-UKS iter   9:  -153.23916830412006   -8.30329e-07   2.03653e-06 DIIS
   @DF-UKS iter  10:  -153.23916842742219   -1.23302e-07   6.32117e-07 DIIS
   @DF-UKS iter  11:  -153.23916843607171   -8.64952e-09   1.03736e-07 DIIS
   @DF-UKS iter  12:  -153.23916843622754   -1.55836e-10   3.09396e-08 DIIS
   @DF-UKS iter  13:  -153.23916843623894   -1.13971e-11   9.54788e-09 DIIS
  Energy and wave function converged.


  ==> Post-Iterations <==

   @Spin Contamination Metric:   1.771663706E-02
   @S^2 Expected:                7.500000000E-01
   @S^2 Observed:                7.677166371E-01
   @S   Expected:                5.000000000E-01
   @S   Observed:                5.000000000E-01

    Orbital Energies [Eh]
    ---------------------

    Alpha Occupied:                                                       

       1A    -19.139008     2A    -10.260061     3A    -10.224789  
       4A     -1.055455     5A     -0.772755     6A     -0.591874  
       7A     -0.507303     8A     -0.462607     9A     -0.425852  
      10A     -0.423276    11A     -0.279999    12A     -0.279487  

    Alpha Virtual:                                                        

      13A     -0.009082    14A      0.055052    15A      0.070046  
      16A      0.105341    17A      0.124572    18A      0.169334  
      19A      0.190623    20A      0.192160    21A      0.264689  
      22A      0.285144    23A      0.300842    24A      0.360795  
      25A      0.391705    26A      0.407410    27A      0.436324  
      28A      0.467295    29A      0.475952    30A      0.493791  
      31A      0.577628    32A      0.610153    33A      0.618949  
      34A      0.657722    35A      0.733232    36A      0.843287  
      37A      0.855714    38A      0.881422    39A      0.949427  
      40A      1.047571    41A      1.087552    42A      1.117376  
      43A      1.217399    44A      1.321414    45A      1.351215  
      46A      1.430646    47A      1.466202    48A      1.497627  
      49A      1.568929    50A      1.591382    51A      1.622536  
      52A      1.708913    53A      1.758346    54A      1.775647  
      55A      1.801694    56A      1.903322    57A      1.906966  
      58A      2.047397    59A      2.141856    60A      2.187580  
      61A      2.257284    62A      2.286007    63A      2.361568  
      64A      2.450551    65A      2.466120    66A      2.517413  
      67A      2.563615    68A      2.638364    69A      2.701774  
      70A      2.734094    71A      2.755978    72A      2.768209  
      73A      2.945410    74A      2.958301    75A      2.986764  
      76A      3.040363    77A      3.049023    78A      3.094709  
      79A      3.147785    80A      3.154280    81A      3.258666  
      82A      3.268624    83A      3.317562    84A      3.399603  
      85A      3.400666    86A      3.491315    87A      3.682761  
      88A      3.774888    89A      3.903861    90A      4.061339  
      91A      4.092539    92A      4.130091    93A      4.282675  
      94A      4.489420    95A      4.560643    96A      4.675161  
      97A      5.155611    98A      5.169369    99A      5.504158  
     100A      5.616392   101A      6.000069   102A      6.240408  
     103A      6.300741   104A      6.332509   105A      6.390135  
     106A      6.748886   107A      6.914727   108A      6.997939  
     109A     22.053527   110A     22.745881   111A     43.674325  

    Beta Occupied:                                                        

       1A    -19.129515     2A    -10.262247     3A    -10.213720  
       4A     -1.038263     5A     -0.745405     6A     -0.584514  
       7A     -0.500782     8A     -0.453925     9A     -0.417066  
      10A     -0.386033    11A     -0.270381  

    Beta Virtual:                                                         

      12A     -0.147132    13A      0.020844    14A      0.058008  
      15A      0.072981    16A      0.106808    17A      0.125900  
      18A      0.169598    19A      0.200960    20A      0.205061  
      21A      0.281261    22A      0.293362    23A      0.302147  
      24A      0.363357    25A      0.395634    26A      0.416269  
      27A      0.441161    28A      0.471564    29A      0.496460  
      30A      0.496651    31A      0.595617    32A      0.613345  
      33A      0.623127    34A      0.677149    35A      0.741648  
      36A      0.852732    37A      0.862700    38A      0.886195  
      39A      0.956609    40A      1.063452    41A      1.089692  
      42A      1.129543    43A      1.221436    44A      1.330156  
      45A      1.372472    46A      1.454559    47A      1.473738  
      48A      1.504892    49A      1.577374    50A      1.596942  
      51A      1.635662    52A      1.713275    53A      1.770720  
      54A      1.793446    55A      1.806240    56A      1.911191  
      57A      1.917134    58A      2.052843    59A      2.151551  
      60A      2.193248    61A      2.270219    62A      2.294789  
      63A      2.366672    64A      2.468556    65A      2.472968  
      66A      2.532024    67A      2.567608    68A      2.669423  
      69A      2.708228    70A      2.749684    71A      2.772981  
      72A      2.776954    73A      2.949733    74A      2.975439  
      75A      3.017975    76A      3.044829    77A      3.062744  
      78A      3.104247    79A      3.161116    80A      3.176856  
      81A      3.274540    82A      3.297645    83A      3.320519  
      84A      3.410517    85A      3.416006    86A      3.498588  
      87A      3.693664    88A      3.785802    89A      3.908458  
      90A      4.070796    91A      4.115130    92A      4.132051  
      93A      4.291899    94A      4.496550    95A      4.571466  
      96A      4.684686    97A      5.180397    98A      5.193464  
      99A      5.520132   100A      5.632196   101A      6.022753  
     102A      6.248363   103A      6.334034   104A      6.339764  
     105A      6.422884   106A      6.776994   107A      6.918646  
     108A      7.009978   109A     22.065712   110A     22.744659  
     111A     43.684034  

    Final Occupation by Irrep:
              A 
    DOCC [    11 ]
    SOCC [     1 ]

  @DF-UKS Final Energy:  -153.23916843623894

   => Energetics <=

    Nuclear Repulsion Energy =             63.7247511474210597
    One-Electron Energy =                -333.5710597149834484
    Two-Electron Energy =                 133.2025773636105157
    DFT Exchange-Correlation Energy =     -16.5954372322870611
    Empirical Dispersion Energy =           0.0000000000000000
    VV10 Nonlocal Energy =                  0.0000000000000000
    Total Energy =                       -153.2391684362389412

  UHF NO Occupations:
  HONO-2 :   10  A 1.9992303
  HONO-1 :   11  A 1.9923455
  HONO-0 :   12  A 1.0000000
  LUNO+0 :   13  A 0.0076545
  LUNO+1 :   14  A 0.0007697
  LUNO+2 :   15  A 0.0001684
  LUNO+3 :   16  A 0.0001297


Computation Completed


Properties will be evaluated at   0.000000,   0.000000,   0.000000 [a0]

Properties computed using the SCF density matrix

  Nuclear Dipole Moment: [e a0]
     X:    -2.6995      Y:     1.6376      Z:    -0.6005

  Electronic Dipole Moment: [e a0]
     X:     1.7783      Y:    -0.9551      Z:     0.3840

  Dipole Moment: [e a0]
     X:    -0.9212      Y:     0.6825      Z:    -0.2165     Total:     1.1667

  Dipole Moment: [D]
     X:    -2.3414      Y:     1.7348      Z:    -0.5503     Total:     2.9655


*** tstop() called on meron at Sun Jul 24 14:39:33 2022
Module time:
	user time   =      14.96 seconds =       0.25 minutes
	system time =       0.05 seconds =       0.00 minutes
	total time  =         15 seconds =       0.25 minutes
Total time:
	user time   =      68.66 seconds =       1.14 minutes
	system time =       0.71 seconds =       0.01 minutes
	total time  =         70 seconds =       1.17 minutes

*** tstart() called on meron
*** at Sun Jul 24 14:39:33 2022


         ------------------------------------------------------------
                                   SCF GRAD                          
                          Rob Parrish, Justin Turney,                
                       Andy Simmonett, and Alex Sokolov              
         ------------------------------------------------------------

  ==> Geometry <==

    Molecular point group: c1
    Full point group: C1

    Geometry (in Angstrom), charge = 0, multiplicity = 2:

       Center              X                  Y                   Z               Mass       
    ------------   -----------------  -----------------  -----------------  -----------------
         C           -1.203866050054     0.235193353041    -0.221574241960    12.000000000000
         C            0.190929217547     0.380867961734    -0.004031608615    12.000000000000
         O            0.941686530957    -0.572442288863     0.209686074234    15.994914619570
         H           -1.835478705985     1.094856864359    -0.406603637139     1.007825032230
         H           -1.643281276475    -0.752113893092    -0.201687198702     1.007825032230
         H            0.594376703606     1.406995030176    -0.033329114750     1.007825032230

  Nuclear repulsion =   63.724751147421060

  ==> Basis Set <==

  Basis Set: DEF2-TZVP
    Blend: DEF2-TZVP
    Number of shells: 45
    Number of basis function: 111
    Number of Cartesian functions: 126
    Spherical Harmonics?: true
    Max angular momentum: 3

  ==> DFJKGrad: Density-Fitted SCF Gradients <==

    Gradient:                    1
    J tasked:                  Yes
    K tasked:                  Yes
    wK tasked:                  No
    OpenMP threads:              1
    Integrals threads:           1
    Memory [MiB]:            10013
    Schwarz Cutoff:          0E+00
    Fitting Condition:       1E-10

   => Auxiliary Basis Set <=

  Basis Set: (DEF2-TZVP AUX)
    Blend: DEF2-TZVP-JKFIT
    Number of shells: 93
    Number of basis function: 281
    Number of Cartesian functions: 331
    Spherical Harmonics?: true
    Max angular momentum: 4

  ==> DFT Potential <==

   => Composite Functional: B3LYP <= 

    B3LYP Hyb-GGA Exchange-Correlation Functional

    P. J. Stephens, F. J. Devlin, C. F. Chabalowski, and M. J. Frisch, J. Phys. Chem. 98, 11623 (1994)

    Deriv               =              1
    GGA                 =           TRUE
    Meta                =          FALSE

    Exchange Hybrid     =           TRUE
    MP2 Hybrid          =          FALSE

   => Exchange Functionals <=

    0.0800   Slater exchange
    0.7200         Becke 88

   => Exact (HF) Exchange <=

    0.2000               HF 

   => Correlation Functionals <=

    0.1900   Vosko, Wilk & Nusair (VWN5_RPA)
    0.8100   Lee, Yang & Parr

   => Molecular Quadrature <=

    Radial Scheme          =       TREUTLER
    Pruning Scheme         =           FLAT
    Nuclear Scheme         =       TREUTLER

    BS radius alpha        =              1
    Pruning alpha          =              1
    Radial Points          =             99
    Spherical Points       =            590
    Total Points           =         343849
    Total Blocks           =           2549
    Max Points             =            256
    Max Functions          =            109


  -Total Gradient:
     Atom            X                  Y                   Z
    ------   -----------------  -----------------  -----------------
       1        0.000510594604    -0.000832781636     0.000141361113
       2        0.000054648323     0.000496548268    -0.000024465865
       3       -0.000203307071     0.000172097642    -0.000053100935
       4       -0.000272067074     0.000210717467    -0.000058502843
       5        0.000395698811     0.000832980118    -0.000005097446
       6       -0.000485293261    -0.000874833016    -0.000000590834


*** tstop() called on meron at Sun Jul 24 14:39:35 2022
Module time:
	user time   =       2.72 seconds =       0.05 minutes
	system time =       0.01 seconds =       0.00 minutes
	total time  =          2 seconds =       0.03 minutes
Total time:
	user time   =      71.38 seconds =       1.19 minutes
	system time =       0.72 seconds =       0.01 minutes
	total time  =         72 seconds =       1.20 minutes

  //>>>>>>>>>>>>>>>>>>>>>>>>>>>>>>>>>>>//
  //    Loading displacement 4 of 25   //
  //<<<<<<<<<<<<<<<<<<<<<<<<<<<<<<<<<<<//
gradient() will perform analytic gradient computation.

*** tstart() called on meron
*** at Sun Jul 24 14:39:35 2022

   => Loading Basis Set <=

    Name: DEF2-TZVP
    Role: ORBITAL
    Keyword: BASIS
    atoms 1-2 entry C          line   123 file /home/kfir4444/psi4conda/envs/arc_env/share/psi4/basis/def2-tzvp.gbs 
    atoms 3   entry O          line   189 file /home/kfir4444/psi4conda/envs/arc_env/share/psi4/basis/def2-tzvp.gbs 
    atoms 4-6 entry H          line    15 file /home/kfir4444/psi4conda/envs/arc_env/share/psi4/basis/def2-tzvp.gbs 


         ---------------------------------------------------------
                                   SCF
               by Justin Turney, Rob Parrish, Andy Simmonett
                          and Daniel G. A. Smith
                              UKS Reference
                        1 Threads,  13351 MiB Core
         ---------------------------------------------------------

  ==> Geometry <==

    Molecular point group: c1
    Full point group: C1

    Geometry (in Angstrom), charge = 0, multiplicity = 2:

       Center              X                  Y                   Z               Mass       
    ------------   -----------------  -----------------  -----------------  -----------------
         C           -1.204502269541     0.234791565313    -0.221628767869    12.000000000000
         C            0.191374209166     0.381142943280    -0.003990835583    12.000000000000
         O            0.941727803018    -0.572491482106     0.209698874326    15.994914619570
         H           -1.834716695129     1.095993500265    -0.406630147028     1.007825032230
         H           -1.643288808483    -0.751071746510    -0.201843977557     1.007825032230
[...]
      30A      0.496617    31A      0.595547    32A      0.613768  
      33A      0.623217    34A      0.677013    35A      0.742027  
      36A      0.852589    37A      0.862799    38A      0.886282  
      39A      0.956014    40A      1.063387    41A      1.089544  
      42A      1.129374    43A      1.221261    44A      1.329815  
      45A      1.372601    46A      1.454764    47A      1.473185  
      48A      1.504795    49A      1.577399    50A      1.597100  
      51A      1.635775    52A      1.713627    53A      1.771662  
      54A      1.793565    55A      1.806200    56A      1.911466  
      57A      1.917412    58A      2.052963    59A      2.152909  
      60A      2.193073    61A      2.270800    62A      2.295067  
      63A      2.368157    64A      2.469686    65A      2.472819  
      66A      2.532424    67A      2.568348    68A      2.669481  
      69A      2.708358    70A      2.749689    71A      2.774594  
      72A      2.776778    73A      2.949776    74A      2.976784  
      75A      3.017695    76A      3.045591    77A      3.062994  
      78A      3.104080    79A      3.160834    80A      3.178396  
      81A      3.275232    82A      3.297082    83A      3.320275  
      84A      3.411100    85A      3.415970    86A      3.500132  
      87A      3.693041    88A      3.786230    89A      3.908486  
      90A      4.070448    91A      4.113717    92A      4.132921  
      93A      4.292073    94A      4.499341    95A      4.571961  
      96A      4.685495    97A      5.180410    98A      5.193424  
      99A      5.520104   100A      5.632423   101A      6.022651  
     102A      6.248339   103A      6.333961   104A      6.339845  
     105A      6.422920   106A      6.776985   107A      6.918662  
     108A      7.009921   109A     22.068510   110A     22.746178  
     111A     43.684127  

    Final Occupation by Irrep:
              A 
    DOCC [    11 ]
    SOCC [     1 ]

  @DF-UKS Final Energy:  -153.23915748900959

   => Energetics <=

    Nuclear Repulsion Energy =             63.7282602936475584
    One-Electron Energy =                -333.5769139584527920
    Two-Electron Energy =                 133.2058547006457729
    DFT Exchange-Correlation Energy =     -16.5963585248501282
    Empirical Dispersion Energy =           0.0000000000000000
    VV10 Nonlocal Energy =                  0.0000000000000000
    Total Energy =                       -153.2391574890095853

  UHF NO Occupations:
  HONO-2 :   10  A 1.9992301
  HONO-1 :   11  A 1.9923572
  HONO-0 :   12  A 1.0000000
  LUNO+0 :   13  A 0.0076428
  LUNO+1 :   14  A 0.0007699
  LUNO+2 :   15  A 0.0001676
  LUNO+3 :   16  A 0.0001300


Computation Completed


Properties will be evaluated at   0.000000,   0.000000,   0.000000 [a0]

Properties computed using the SCF density matrix

  Nuclear Dipole Moment: [e a0]
     X:    -2.6987      Y:     1.6377      Z:    -0.6006

  Electronic Dipole Moment: [e a0]
     X:     1.7779      Y:    -0.9541      Z:     0.3840

  Dipole Moment: [e a0]
     X:    -0.9207      Y:     0.6836      Z:    -0.2166     Total:     1.1670

  Dipole Moment: [D]
     X:    -2.3403      Y:     1.7375      Z:    -0.5506     Total:     2.9663


*** tstop() called on meron at Sun Jul 24 14:46:06 2022
Module time:
	user time   =      15.19 seconds =       0.25 minutes
	system time =       0.07 seconds =       0.00 minutes
	total time  =         16 seconds =       0.27 minutes
Total time:
	user time   =     459.82 seconds =       7.66 minutes
	system time =       2.45 seconds =       0.04 minutes
	total time  =        463 seconds =       7.72 minutes

*** tstart() called on meron
*** at Sun Jul 24 14:46:06 2022


         ------------------------------------------------------------
                                   SCF GRAD                          
                          Rob Parrish, Justin Turney,                
                       Andy Simmonett, and Alex Sokolov              
         ------------------------------------------------------------

  ==> Geometry <==

    Molecular point group: c1
    Full point group: C1

    Geometry (in Angstrom), charge = 0, multiplicity = 2:

       Center              X                  Y                   Z               Mass       
    ------------   -----------------  -----------------  -----------------  -----------------
         C           -1.204502269541     0.235252500914    -0.221647102383    12.000000000000
         C            0.191201690459     0.380859850914    -0.004006402383    12.000000000000
         O            0.941903620459    -0.572489729086     0.209730377617    15.994914619570
         H           -1.835148529541     1.094949230914    -0.406690622383     1.007825032230
         H           -1.641705196185    -0.750744394710    -0.201720693945     1.007825032230
         H            0.593356147102     1.405678386539    -0.033344350821     1.007825032230

  Nuclear repulsion =   63.728260293647558

  ==> Basis Set <==

  Basis Set: DEF2-TZVP
    Blend: DEF2-TZVP
    Number of shells: 45
    Number of basis function: 111
    Number of Cartesian functions: 126
    Spherical Harmonics?: true
    Max angular momentum: 3

  ==> DFJKGrad: Density-Fitted SCF Gradients <==

    Gradient:                    1
    J tasked:                  Yes
    K tasked:                  Yes
    wK tasked:                  No
    OpenMP threads:              1
    Integrals threads:           1
    Memory [MiB]:            10013
    Schwarz Cutoff:          0E+00
    Fitting Condition:       1E-10

   => Auxiliary Basis Set <=

  Basis Set: (DEF2-TZVP AUX)
    Blend: DEF2-TZVP-JKFIT
    Number of shells: 93
    Number of basis function: 281
    Number of Cartesian functions: 331
    Spherical Harmonics?: true
    Max angular momentum: 4

  ==> DFT Potential <==

   => Composite Functional: B3LYP <= 

    B3LYP Hyb-GGA Exchange-Correlation Functional

    P. J. Stephens, F. J. Devlin, C. F. Chabalowski, and M. J. Frisch, J. Phys. Chem. 98, 11623 (1994)

    Deriv               =              1
    GGA                 =           TRUE
    Meta                =          FALSE

    Exchange Hybrid     =           TRUE
    MP2 Hybrid          =          FALSE

   => Exchange Functionals <=

    0.0800   Slater exchange
    0.7200         Becke 88

   => Exact (HF) Exchange <=

    0.2000               HF 

   => Correlation Functionals <=

    0.1900   Vosko, Wilk & Nusair (VWN5_RPA)
    0.8100   Lee, Yang & Parr

   => Molecular Quadrature <=

    Radial Scheme          =       TREUTLER
    Pruning Scheme         =           FLAT
    Nuclear Scheme         =       TREUTLER

    BS radius alpha        =              1
    Pruning alpha          =              1
    Radial Points          =             99
    Spherical Points       =            590
    Total Points           =         343849
    Total Blocks           =           2547
    Max Points             =            256
    Max Functions          =            109


  -Total Gradient:
     Atom            X                  Y                   Z
    ------   -----------------  -----------------  -----------------
       1       -0.000986445039    -0.001756982907     0.000002610435
       2        0.000931113460     0.001359663412     0.000021727912
       3       -0.000122262078     0.000085346824    -0.000026510544
       4       -0.000002398400    -0.000008374981     0.000000332806
       5        0.001135460149     0.002087308862    -0.000007297603
       6       -0.000955203591    -0.001762229741     0.000008736385


*** tstop() called on meron at Sun Jul 24 14:46:09 2022
Module time:
	user time   =       2.82 seconds =       0.05 minutes
	system time =       0.01 seconds =       0.00 minutes
	total time  =          3 seconds =       0.05 minutes
Total time:
	user time   =     462.64 seconds =       7.71 minutes
	system time =       2.46 seconds =       0.04 minutes
	total time  =        466 seconds =       7.77 minutes

         ----------------------------------------------------------
                                   FINDIF
                     R. A. King and Jonathon Misiewicz
         ---------------------------------------------------------

  Computing second-derivative from gradients using projected, 
  symmetry-adapted, cartesian coordinates.

  25 gradients passed in, including the reference geometry.
  Generating complete list of displacements from unique ones.


-------------------------------------------------------------


  ==> Harmonic Vibrational Analysis <==

  non-mass-weighted Hessian:       Symmetric? True   Hermitian? True   Lin Dep Dim?  6 (0)
  projection of translations (True) and rotations (True) removed 6 degrees of freedom (6)
  total projector:                 Symmetric? True   Hermitian? True   Lin Dep Dim?  6 (6)
  mass-weighted Hessian:           Symmetric? True   Hermitian? True   Lin Dep Dim?  6 (0)
  pre-proj  low-frequency mode:    0.0000i [cm^-1]
  pre-proj  low-frequency mode:    0.0000i [cm^-1]
  pre-proj  low-frequency mode:    0.0000  [cm^-1]
  pre-proj  low-frequency mode:    0.0000  [cm^-1]
  pre-proj  low-frequency mode:    0.0000  [cm^-1]
  pre-proj  low-frequency mode:    0.0000  [cm^-1]
  pre-proj  all modes:['0.0000i' '0.0000i' '0.0000' '0.0000' '0.0000' '0.0000' '443.2069'
 '505.8835' '756.6704' '976.2501' '978.9482' '1159.8839' '1397.7428'
 '1474.5510' '1549.6391' '2954.9212' '3152.1470' '3266.3025']
  projected mass-weighted Hessian: Symmetric? True   Hermitian? True   Lin Dep Dim?  6 (6)
  post-proj low-frequency mode:    0.0000i [cm^-1] (TR)
  post-proj low-frequency mode:    0.0000i [cm^-1] (TR)
  post-proj low-frequency mode:    0.0000i [cm^-1] (TR)
  post-proj low-frequency mode:    0.0000  [cm^-1] (TR)
  post-proj low-frequency mode:    0.0000  [cm^-1] (TR)
  post-proj low-frequency mode:    0.0000  [cm^-1] (TR)
  post-proj  all modes:['0.0000i' '0.0000i' '0.0000i' '0.0000' '0.0000' '0.0000' '443.2069'
 '505.8835' '756.6704' '976.2501' '978.9482' '1159.8839' '1397.7428'
 '1474.5510' '1549.6391' '2954.9212' '3152.1470' '3266.3025']

  Vibration                       7                   8                   9           
  Freq [cm^-1]                 443.2069            505.8835            756.6704       
  Irrep                           A                   A                   A           
  Reduced mass [u]              1.2012              2.3600              1.2021        
  Force const [mDyne/A]         0.1390              0.3558              0.4055        
  Turning point v=0 [a0]        0.4756              0.3176              0.3638        
  RMS dev v=0 [a0 u^1/2]        0.3685              0.3450              0.2821        
  Char temp [K]                637.6760            727.8537           1088.6803       
  ----------------------------------------------------------------------------------
      1   C                0.00 -0.00 -0.00   -0.14  0.07 -0.03    0.02 -0.01 -0.13   
      2   C                0.02 -0.01 -0.10   -0.07 -0.18  0.01    0.00 -0.00 -0.01   
      3   O               -0.01  0.01  0.07    0.20  0.05  0.03   -0.00  0.00  0.01   
      4   H               -0.14  0.08  0.83    0.29  0.40  0.01   -0.08  0.05  0.48   
      5   H                0.08 -0.05 -0.49   -0.68  0.31 -0.14   -0.13  0.07  0.76   
      6   H                0.02 -0.01 -0.14   -0.23 -0.11 -0.03   -0.06  0.03  0.37   

  Vibration                       10                  11                  12          
  Freq [cm^-1]                 976.2501            978.9482           1159.8839       
  Irrep                           A                   A                   A           
  Reduced mass [u]              1.6291              1.7975              2.6637        
  Force const [mDyne/A]         0.9148              1.0149              2.1114        
  Turning point v=0 [a0]        0.2751              0.2616              0.1974        
  RMS dev v=0 [a0 u^1/2]        0.2483              0.2480              0.2278        
  Char temp [K]               1404.6066           1408.4885           1668.8147       
  ----------------------------------------------------------------------------------
      1   C               -0.02  0.01  0.10    0.19 -0.12  0.04   -0.17 -0.16 -0.01   
      2   C                0.03 -0.02 -0.20   -0.07  0.02 -0.01    0.27  0.13  0.03   
      3   O               -0.01  0.00  0.05   -0.09  0.04 -0.02   -0.06  0.01 -0.01   
      4   H                0.05 -0.03 -0.28    0.76  0.31  0.10    0.05  0.03  0.01   
      5   H                0.02 -0.01 -0.11   -0.36  0.13 -0.07   -0.80  0.11 -0.14   
      6   H               -0.15  0.09  0.91   -0.29  0.11 -0.06    0.39  0.11  0.06   

  Vibration                       13                  14                  15          
  Freq [cm^-1]                1397.7428           1474.5510           1549.6391       
  Irrep                           A                   A                   A           
  Reduced mass [u]              1.2737              1.2955              5.1535        
  Force const [mDyne/A]         1.4662              1.6596              7.2914        
  Turning point v=0 [a0]        0.2601              0.2511              0.1228        
  RMS dev v=0 [a0 u^1/2]        0.2075              0.2021              0.1971        
  Char temp [K]               2011.0408           2121.5506           2229.5856       
  ----------------------------------------------------------------------------------
      1   C               -0.03 -0.03 -0.00   -0.14 -0.01 -0.02   -0.04 -0.07  0.00   
      2   C               -0.03 -0.08  0.00    0.07  0.03  0.01   -0.30  0.38 -0.08   
      3   O               -0.03  0.10 -0.02    0.01 -0.03  0.00    0.20 -0.23  0.05   
      4   H                0.28  0.20  0.03    0.47  0.45  0.04    0.28  0.17  0.03   
      5   H                0.24 -0.14  0.05    0.54 -0.31  0.12   -0.14 -0.02 -0.02   
      6   H                0.77 -0.40  0.17   -0.31  0.20 -0.07    0.71 -0.10  0.13   

  Vibration                       16                  17                  18          
  Freq [cm^-1]                2954.9212           3152.1470           3266.3025       
  Irrep                           A                   A                   A           
  Reduced mass [u]              1.0838              1.0523              1.1193        
  Force const [mDyne/A]         5.5758              6.1601              7.0357        
  Turning point v=0 [a0]        0.1939              0.1905              0.1815        
  RMS dev v=0 [a0 u^1/2]        0.1427              0.1382              0.1358        
  Char temp [K]               4251.4738           4535.2377           4699.4821       
  ----------------------------------------------------------------------------------
      1   C                0.00  0.00 -0.00    0.06 -0.00  0.01    0.01 -0.10  0.01   
      2   C               -0.04 -0.07  0.00   -0.00 -0.00 -0.00   -0.00 -0.00  0.00   
      3   O                0.00 -0.00  0.00   -0.00  0.00 -0.00   -0.00  0.00 -0.00   
      4   H                0.02 -0.04  0.01   -0.44  0.60 -0.13   -0.38  0.51 -0.11   
      5   H               -0.00 -0.00 -0.00   -0.26 -0.59  0.01    0.31  0.69 -0.01   
      6   H                0.39  0.92 -0.02    0.01  0.02  0.00    0.01  0.03 -0.00   

  ==> Thermochemistry Components <==

  Entropy, S
    Electronic S            1.377 [cal/(mol K)]        5.763 [J/(mol K)]       0.00219507 [mEh/K] (multiplicity = 2)
    Translational S        37.204 [cal/(mol K)]      155.660 [J/(mol K)]       0.05928764 [mEh/K] (mol. weight = 43.0184 [u], P = 101325.00 [Pa])
    Rotational S           21.269 [cal/(mol K)]       88.990 [J/(mol K)]       0.03389446 [mEh/K] (symmetry no. = 1)
    Vibrational S           2.000 [cal/(mol K)]        8.368 [J/(mol K)]       0.00318735 [mEh/K]
  Total S                  61.850 [cal/(mol K)]      258.781 [J/(mol K)]       0.09856452 [mEh/K]
  Correction S              0.000 [cal/(mol K)]        0.000 [J/(mol K)]       0.00000000 [mEh/K]

  Constant volume heat capacity, Cv
    Electronic Cv           0.000 [cal/(mol K)]        0.000 [J/(mol K)]       0.00000000 [mEh/K]
    Translational Cv        2.981 [cal/(mol K)]       12.472 [J/(mol K)]       0.00475022 [mEh/K]
    Rotational Cv           2.981 [cal/(mol K)]       12.472 [J/(mol K)]       0.00475022 [mEh/K]
    Vibrational Cv          4.627 [cal/(mol K)]       19.359 [J/(mol K)]       0.00737334 [mEh/K]
  Total Cv                 10.588 [cal/(mol K)]       44.302 [J/(mol K)]       0.01687377 [mEh/K]
  Correction Cv             0.000 [cal/(mol K)]        0.000 [J/(mol K)]       0.00000000 [mEh/K]

  Constant pressure heat capacity, Cp
    Electronic Cp           0.000 [cal/(mol K)]        0.000 [J/(mol K)]       0.00000000 [mEh/K]
    Translational Cp        4.968 [cal/(mol K)]       20.786 [J/(mol K)]       0.00791703 [mEh/K]
    Rotational Cp           2.981 [cal/(mol K)]       12.472 [J/(mol K)]       0.00475022 [mEh/K]
    Vibrational Cp          4.627 [cal/(mol K)]       19.359 [J/(mol K)]       0.00737334 [mEh/K]
  Total Cp                 12.576 [cal/(mol K)]       52.617 [J/(mol K)]       0.02004058 [mEh/K]
  Correction Cp             0.000 [cal/(mol K)]        0.000 [J/(mol K)]       0.00000000 [mEh/K]

  ==> Thermochemistry Energy Analysis <==

  Raw electronic energy, E0
  Total E0, Electronic energy at well bottom at 0 [K]                 -153.23916846 [Eh]

  Zero-point energy, ZPE_vib = Sum_i nu_i / 2
    Electronic ZPE          0.000 [kcal/mol]        0.000 [kJ/mol]       0.00000000 [Eh]
    Translational ZPE       0.000 [kcal/mol]        0.000 [kJ/mol]       0.00000000 [Eh]
    Rotational ZPE          0.000 [kcal/mol]        0.000 [kJ/mol]       0.00000000 [Eh]
    Vibrational ZPE        26.613 [kcal/mol]      111.349 [kJ/mol]       0.04241070 [Eh]        9308.073 [cm^-1]
  Correction ZPE           26.613 [kcal/mol]      111.349 [kJ/mol]       0.04241070 [Eh]        9308.073 [cm^-1]
  Total ZPE, Electronic energy at 0 [K]                               -153.19675776 [Eh]

  Thermal Energy, E (includes ZPE)
    Electronic E            0.000 [kcal/mol]        0.000 [kJ/mol]       0.00000000 [Eh]
    Translational E         0.889 [kcal/mol]        3.718 [kJ/mol]       0.00141628 [Eh]
    Rotational E            0.889 [kcal/mol]        3.718 [kJ/mol]       0.00141628 [Eh]
    Vibrational E          27.051 [kcal/mol]      113.183 [kJ/mol]       0.04310898 [Eh]
  Correction E             28.829 [kcal/mol]      120.619 [kJ/mol]       0.04594153 [Eh]
  Total E, Electronic energy at  298.15 [K]                           -153.19322693 [Eh]

  Enthalpy, H_trans = E_trans + k_B * T
    Electronic H            0.000 [kcal/mol]        0.000 [kJ/mol]       0.00000000 [Eh]
    Translational H         1.481 [kcal/mol]        6.197 [kJ/mol]       0.00236046 [Eh]
    Rotational H            0.889 [kcal/mol]        3.718 [kJ/mol]       0.00141628 [Eh]
    Vibrational H          27.051 [kcal/mol]      113.183 [kJ/mol]       0.04310898 [Eh]
  Correction H             29.421 [kcal/mol]      123.098 [kJ/mol]       0.04688571 [Eh]
  Total H, Enthalpy at  298.15 [K]                                    -153.19228275 [Eh]

  Gibbs free energy, G = H - T * S
    Electronic G           -0.411 [kcal/mol]       -1.718 [kJ/mol]      -0.00065446 [Eh]
    Translational G        -9.611 [kcal/mol]      -40.213 [kJ/mol]      -0.01531615 [Eh]
    Rotational G           -5.453 [kcal/mol]      -22.814 [kJ/mol]      -0.00868936 [Eh]
    Vibrational G          26.455 [kcal/mol]      110.688 [kJ/mol]       0.04215867 [Eh]
  Correction G             10.981 [kcal/mol]       45.943 [kJ/mol]       0.01749870 [Eh]
  Total G, Free enthalpy at  298.15 [K]                               -153.22166976 [Eh]

    Psi4 stopped on: Sunday, 24 July 2022 02:46PM
    Psi4 wall time for execution: 0:07:45.43

*** Psi4 exiting successfully. Buy a developer a beer!
