 Entering Gaussian System, Link 0=g16
 Initial command:
 /usr/local/g16/l1.exe "/gtmp/668675.zeus-master/Gau-3619441.inp" -scrdir="/gtmp/668675.zeus-master/"
 Entering Link 1 = /usr/local/g16/l1.exe PID=   3619442.
  
 Copyright (c) 1988-2019, Gaussian, Inc.  All Rights Reserved.
  
 This is part of the Gaussian(R) 16 program.  It is based on
 the Gaussian(R) 09 system (copyright 2009, Gaussian, Inc.),
 the Gaussian(R) 03 system (copyright 2003, Gaussian, Inc.),
 the Gaussian(R) 98 system (copyright 1998, Gaussian, Inc.),
 the Gaussian(R) 94 system (copyright 1995, Gaussian, Inc.),
 the Gaussian 92(TM) system (copyright 1992, Gaussian, Inc.),
 the Gaussian 90(TM) system (copyright 1990, Gaussian, Inc.),
 the Gaussian 88(TM) system (copyright 1988, Gaussian, Inc.),
 the Gaussian 86(TM) system (copyright 1986, Carnegie Mellon
 University), and the Gaussian 82(TM) system (copyright 1983,
 Carnegie Mellon University). Gaussian is a federally registered
 trademark of Gaussian, Inc.
  
 This software contains proprietary and confidential information,
 including trade secrets, belonging to Gaussian, Inc.
  
 This software is provided under written license and may be
 used, copied, transmitted, or stored only in accord with that
 written license.
  
 The following legend is applicable only to US Government
 contracts under FAR:
  
                    RESTRICTED RIGHTS LEGEND
  
 Use, reproduction and disclosure by the US Government is
 subject to restrictions as set forth in subparagraphs (a)
 and (c) of the Commercial Computer Software - Restricted
 Rights clause in FAR 52.227-19.
  
 Gaussian, Inc.
 340 Quinnipiac St., Bldg. 40, Wallingford CT 06492
  
  
 ---------------------------------------------------------------
 Warning -- This program may not be used in any manner that
 competes with the business of Gaussian, Inc. or will provide
 assistance to any competitor of Gaussian, Inc.  The licensee
 of this program is prohibited from giving any competitor of
 Gaussian, Inc. access to this program.  By using this program,
 the user acknowledges that Gaussian, Inc. is engaged in the
 business of creating and licensing software in the field of
 computational chemistry and represents and warrants to the
 licensee that it is not a competitor of Gaussian, Inc. and that
 it will not use this program in any manner prohibited above.
 ---------------------------------------------------------------
  

 Cite this work as:
 Gaussian 16, Revision C.01,
 M. J. Frisch, G. W. Trucks, H. B. Schlegel, G. E. Scuseria, 
 M. A. Robb, J. R. Cheeseman, G. Scalmani, V. Barone, 
 G. A. Petersson, H. Nakatsuji, X. Li, M. Caricato, A. V. Marenich, 
 J. Bloino, B. G. Janesko, R. Gomperts, B. Mennucci, H. P. Hratchian, 
 J. V. Ortiz, A. F. Izmaylov, J. L. Sonnenberg, D. Williams-Young, 
 F. Ding, F. Lipparini, F. Egidi, J. Goings, B. Peng, A. Petrone, 
 T. Henderson, D. Ranasinghe, V. G. Zakrzewski, J. Gao, N. Rega, 
 G. Zheng, W. Liang, M. Hada, M. Ehara, K. Toyota, R. Fukuda, 
 J. Hasegawa, M. Ishida, T. Nakajima, Y. Honda, O. Kitao, H. Nakai, 
 T. Vreven, K. Throssell, J. A. Montgomery, Jr., J. E. Peralta, 
 F. Ogliaro, M. J. Bearpark, J. J. Heyd, E. N. Brothers, K. N. Kudin, 
 V. N. Staroverov, T. A. Keith, R. Kobayashi, J. Normand, 
 K. Raghavachari, A. P. Rendell, J. C. Burant, S. S. Iyengar, 
 J. Tomasi, M. Cossi, J. M. Millam, M. Klene, C. Adamo, R. Cammi, 
 J. W. Ochterski, R. L. Martin, K. Morokuma, O. Farkas, 
 J. B. Foresman, and D. J. Fox, Gaussian, Inc., Wallingford CT, 2019.
 
 ******************************************
 Gaussian 16:  EM64L-G16RevC.01  3-Jul-2019
                 7-Oct-2024 
 ******************************************
 %chk=check.chk
 %mem=25600mb
 %NProcShared=16
 Will use up to   16 processors via shared memory.
 ----------------------------------------------------------------------
 #P guess=read ub3lyp/6-31g(2df,p) freq IOp(7/33=1) integral=(grid=ultr
 afine, Acc2E=12) IOp(2/9=2000) scf=(direct,tight)
 ----------------------------------------------------------------------
 1/10=4,30=1,38=1/1,3;
 2/9=2000,12=2,17=6,18=5,40=1/2;
 3/5=1,6=6,7=104,11=2,25=1,27=12,30=1,71=2,74=-5,75=-5,116=2,140=1/1,2,3;
 4/5=1/1;
 5/5=2,32=2,38=6,87=12,98=1/2;
 8/6=4,10=90,11=11,87=12/1;
 11/6=1,8=1,9=11,15=111,16=1,87=12/1,2,10;
 10/6=1,87=12/2;
 6/7=2,8=2,9=2,10=2,28=1,87=12/1;
 7/8=1,10=1,25=1,33=1,87=12/1,2,3,16;
 1/10=4,30=1/3;
 99//99;
 Leave Link    1 at Mon Oct  7 08:21:24 2024, MaxMem=  3355443200 cpu:               1.1 elap:               0.1
 (Enter /usr/local/g16/l101.exe)
 ---
 TS0
 ---
 Symbolic Z-matrix:
 Charge =  0 Multiplicity = 2
 C                    -0.02439  -1.21695  -0.43374 
 H                    -0.16826  -0.06231  -0.0265 
 H                     0.89656  -1.23669  -1.0123 
 H                     0.00707  -1.86065   0.44257 
 H                    -0.90981  -1.38139  -1.0456 
 O                    -0.13643   1.11229   0.49672 
 H                     0.70257   1.04309   0.97995 
 
 ITRead=  0  0  0  0  0  0  0
 MicOpt= -1 -1 -1 -1 -1 -1 -1
 NAtoms=      7 NQM=        7 NQMF=       0 NMMI=      0 NMMIF=      0
                NMic=       0 NMicF=      0.
                    Isotopes and Nuclear Properties:
 (Nuclear quadrupole moments (NQMom) in fm**2, nuclear magnetic moments (NMagM)
  in nuclear magnetons)

  Atom         1           2           3           4           5           6           7
 IAtWgt=          12           1           1           1           1          16           1
 AtmWgt=  12.0000000   1.0078250   1.0078250   1.0078250   1.0078250  15.9949146   1.0078250
 NucSpn=           0           1           1           1           1           0           1
 AtZEff=  -0.0000000  -0.0000000  -0.0000000  -0.0000000  -0.0000000  -0.0000000  -0.0000000
 NQMom=    0.0000000   0.0000000   0.0000000   0.0000000   0.0000000   0.0000000   0.0000000
 NMagM=    0.0000000   2.7928460   2.7928460   2.7928460   2.7928460   0.0000000   2.7928460
 AtZNuc=   6.0000000   1.0000000   1.0000000   1.0000000   1.0000000   8.0000000   1.0000000
 Leave Link  101 at Mon Oct  7 08:21:24 2024, MaxMem=  3355443200 cpu:               0.4 elap:               0.0
 (Enter /usr/local/g16/l103.exe)

 GradGradGradGradGradGradGradGradGradGradGradGradGradGradGradGradGradGrad
 Berny optimization.
 Initialization pass.
 Trust Radius=3.00D-01 FncErr=1.00D-07 GrdErr=1.00D-07 EigMax=2.50D+02 EigMin=1.00D-04
 Number of steps in this run=      2 maximum allowed number of steps=      2.
 GradGradGradGradGradGradGradGradGradGradGradGradGradGradGradGradGradGrad

 Leave Link  103 at Mon Oct  7 08:21:24 2024, MaxMem=  3355443200 cpu:               0.1 elap:               0.0
 (Enter /usr/local/g16/l202.exe)
                          Input orientation:                          
 ---------------------------------------------------------------------
 Center     Atomic      Atomic             Coordinates (Angstroms)
 Number     Number       Type             X           Y           Z
 ---------------------------------------------------------------------
      1          6           0       -0.024385   -1.216954   -0.433739
      2          1           0       -0.168255   -0.062314   -0.026495
      3          1           0        0.896560   -1.236690   -1.012298
      4          1           0        0.007074   -1.860654    0.442571
      5          1           0       -0.909812   -1.381389   -1.045600
      6          8           0       -0.136430    1.112294    0.496718
      7          1           0        0.702574    1.043088    0.979945
 ---------------------------------------------------------------------
                    Distance matrix (angstroms):
                    1          2          3          4          5
     1  C    0.000000
     2  H    1.232777   0.000000
     3  H    1.087777   1.866761   0.000000
     4  H    1.087777   1.866759   1.815808   0.000000
     5  H    1.088758   1.824401   1.812464   1.812465   0.000000
     6  O    2.510717   1.286261   2.976898   2.976902   3.032379
     7  H    2.763107   1.730080   3.033818   3.033844   3.546930
                    6          7
     6  O    0.000000
     7  H    0.970683   0.000000
 Stoichiometry    CH5O(2)
 Framework group  C1[X(CH5O)]
 Deg. of freedom    15
 Full point group                 C1      NOp   1
 Largest Abelian subgroup         C1      NOp   1
 Largest concise Abelian subgroup C1      NOp   1
                         Standard orientation:                         
 ---------------------------------------------------------------------
 Center     Atomic      Atomic             Coordinates (Angstroms)
 Number     Number       Type             X           Y           Z
 ---------------------------------------------------------------------
      1          6           0       -1.212192   -0.010161    0.000000
      2          1           0        0.010122    0.150115    0.000001
      3          1           0       -1.460491   -0.555461   -0.907884
      4          1           0       -1.460499   -0.555391    0.907924
      5          1           0       -1.600535    1.006984   -0.000041
      6          8           0        1.295714    0.108618   -0.000000
      7          1           0        1.418838   -0.854225    0.000000
 ---------------------------------------------------------------------
 Rotational constants (GHZ):         120.0628239           9.2224356           9.0756444
 Leave Link  202 at Mon Oct  7 08:21:24 2024, MaxMem=  3355443200 cpu:               0.0 elap:               0.0
 (Enter /usr/local/g16/l301.exe)
 Standard basis: 6-31G(2df,p) (6D, 7F)
 Ernie: Thresh=  0.10000D-02 Tol=  0.10000D-05 Strict=F.
 There are    87 symmetry adapted cartesian basis functions of A   symmetry.
 There are    81 symmetry adapted basis functions of A   symmetry.
    81 basis functions,   123 primitive gaussians,    87 cartesian basis functions
    10 alpha electrons        9 beta electrons
       nuclear repulsion energy        37.0244544505 Hartrees.
 IExCor=  402 DFT=T Ex+Corr=B3LYP ExCW=0 ScaHFX=  0.200000
 ScaDFX=  0.800000  0.720000  1.000000  0.810000 ScalE2=  1.000000  1.000000
 IRadAn=      5 IRanWt=     -1 IRanGd=            0 ICorTp=0 IEmpDi=  4
 NAtoms=    7 NActive=    7 NUniq=    7 SFac= 1.00D+00 NAtFMM=   60 NAOKFM=F Big=F
 Integral buffers will be    131072 words long.
 Raffenetti 2 integral format.
 Two-electron integral symmetry is turned on.
 Leave Link  301 at Mon Oct  7 08:21:24 2024, MaxMem=  3355443200 cpu:               0.2 elap:               0.0
 (Enter /usr/local/g16/l302.exe)
 NPDir=0 NMtPBC=     1 NCelOv=     1 NCel=       1 NClECP=     1 NCelD=      1
         NCelK=      1 NCelE2=     1 NClLst=     1 CellRange=     0.0.
 One-electron integrals computed using PRISM.
 One-electron integral symmetry used in STVInt
 NBasis=    81 RedAO= T EigKep=  1.64D-03  NBF=    81
 NBsUse=    81 1.00D-06 EigRej= -1.00D+00 NBFU=    81
 Precomputing XC quadrature grid using
 IXCGrd= 4 IRadAn=           5 IRanWt=          -1 IRanGd=           0 AccXCQ= 1.00D-12.
 Generated NRdTot=       0 NPtTot=           0 NUsed=           0 NTot=          32
 NSgBfM=    87    87    87    87    87 MxSgAt=     7 MxSgA2=     7.
 Leave Link  302 at Mon Oct  7 08:21:24 2024, MaxMem=  3355443200 cpu:               1.1 elap:               0.1
 (Enter /usr/local/g16/l303.exe)
 DipDrv:  MaxL=1.
 Leave Link  303 at Mon Oct  7 08:21:24 2024, MaxMem=  3355443200 cpu:               0.1 elap:               0.0
 (Enter /usr/local/g16/l401.exe)
 Initial guess from the checkpoint file:  "check.chk"
 B after Tr=    -0.000000   -0.000000    0.000000
         Rot=   -0.000000    0.000000   -0.000000    1.000000 Ang= 180.00 deg.
 Guess basis will be translated and rotated to current coordinates.
 JPrj=2 DoOrth=T DoCkMO=T.
 Initial guess <Sx>= 0.0000 <Sy>= 0.0000 <Sz>= 0.5000 <S**2>= 0.7884 S= 0.5190
 Leave Link  401 at Mon Oct  7 08:21:24 2024, MaxMem=  3355443200 cpu:               1.2 elap:               0.1
 (Enter /usr/local/g16/l502.exe)
 Keep R1 and R2 ints in memory in canonical form, NReq=25593994.
 FoFCou: FMM=F IPFlag=           0 FMFlag=           0 FMFlg1=           0
         NFxFlg=           0 DoJE=F BraDBF=F KetDBF=F FulRan=T
         wScrn=  0.000000 ICntrl=       600 IOpCl=  0 I1Cent=           0 NGrid=           0
         NMat0=    1 NMatS0=   3321 NMatT0=    0 NMatD0=    1 NMtDS0=    0 NMtDT0=    0
 Symmetry not used in FoFCou.
 Two-electron integral symmetry not used.
 UHF open shell SCF:
 Using DIIS extrapolation, IDIIS=  1040.
 NGot=  3355443200 LenX=  3344393134 LenY=  3344385124
 Requested convergence on RMS density matrix=1.00D-08 within 128 cycles.
 Requested convergence on MAX density matrix=1.00D-06.
 Requested convergence on             energy=1.00D-06.
 No special actions if energy rises.

 Cycle   1  Pass 1  IDiag  1:
 E= -116.234687669818    
 DIIS: error= 2.81D-02 at cycle   1 NSaved=   1.
 NSaved= 1 IEnMin= 1 EnMin= -116.234687669818     IErMin= 1 ErrMin= 2.81D-02
 ErrMax= 2.81D-02  0.00D+00 EMaxC= 1.00D-01 BMatC= 1.15D-01 BMatP= 1.15D-01
 IDIUse=3 WtCom= 7.19D-01 WtEn= 2.81D-01
 Coeff-Com:  0.100D+01
 Coeff-En:   0.100D+01
 Coeff:      0.100D+01
 Gap=     4.321 Goal=   None    Shift=    0.000
 Gap=     4.264 Goal=   None    Shift=    0.000
 GapD=    4.264 DampG=2.000 DampE=0.500 DampFc=1.0000 IDamp=-1.
 RMSDP=2.53D-03 MaxDP=5.85D-02              OVMax= 8.83D-02

 Cycle   2  Pass 1  IDiag  1:
 E= -116.250364843841     Delta-E=       -0.015677174022 Rises=F Damp=F
 DIIS: error= 7.73D-03 at cycle   2 NSaved=   2.
 NSaved= 2 IEnMin= 2 EnMin= -116.250364843841     IErMin= 2 ErrMin= 7.73D-03
 ErrMax= 7.73D-03  0.00D+00 EMaxC= 1.00D-01 BMatC= 1.42D-02 BMatP= 1.15D-01
 IDIUse=3 WtCom= 9.23D-01 WtEn= 7.73D-02
 Coeff-Com:  0.133D+00 0.867D+00
 Coeff-En:   0.000D+00 0.100D+01
 Coeff:      0.123D+00 0.877D+00
 Gap=     0.360 Goal=   None    Shift=    0.000
 Gap=     0.153 Goal=   None    Shift=    0.000
 RMSDP=1.14D-03 MaxDP=3.30D-02 DE=-1.57D-02 OVMax= 2.97D-02

 Cycle   3  Pass 1  IDiag  1:
 E= -116.250438315256     Delta-E=       -0.000073471416 Rises=F Damp=F
 DIIS: error= 8.41D-03 at cycle   3 NSaved=   3.
 NSaved= 3 IEnMin= 3 EnMin= -116.250438315256     IErMin= 2 ErrMin= 7.73D-03
 ErrMax= 8.41D-03  0.00D+00 EMaxC= 1.00D-01 BMatC= 1.52D-02 BMatP= 1.42D-02
 IDIUse=3 WtCom= 9.16D-01 WtEn= 8.41D-02
 Coeff-Com: -0.138D-01 0.513D+00 0.501D+00
 Coeff-En:   0.000D+00 0.494D+00 0.506D+00
 Coeff:     -0.126D-01 0.511D+00 0.501D+00
 Gap=     0.364 Goal=   None    Shift=    0.000
 Gap=     0.160 Goal=   None    Shift=    0.000
 RMSDP=5.87D-04 MaxDP=1.50D-02 DE=-7.35D-05 OVMax= 3.27D-02

 Cycle   4  Pass 1  IDiag  1:
 E= -116.253205854714     Delta-E=       -0.002767539458 Rises=F Damp=F
 DIIS: error= 1.60D-03 at cycle   4 NSaved=   4.
 NSaved= 4 IEnMin= 4 EnMin= -116.253205854714     IErMin= 4 ErrMin= 1.60D-03
 ErrMax= 1.60D-03  0.00D+00 EMaxC= 1.00D-01 BMatC= 7.50D-04 BMatP= 1.42D-02
 IDIUse=3 WtCom= 9.84D-01 WtEn= 1.60D-02
 Coeff-Com: -0.120D-01 0.198D+00 0.263D+00 0.551D+00
 Coeff-En:   0.000D+00 0.000D+00 0.000D+00 0.100D+01
 Coeff:     -0.118D-01 0.195D+00 0.258D+00 0.558D+00
 Gap=     0.365 Goal=   None    Shift=    0.000
 Gap=     0.156 Goal=   None    Shift=    0.000
 RMSDP=1.80D-04 MaxDP=3.93D-03 DE=-2.77D-03 OVMax= 7.37D-03

 Cycle   5  Pass 1  IDiag  1:
 E= -116.253368894154     Delta-E=       -0.000163039440 Rises=F Damp=F
 DIIS: error= 6.26D-04 at cycle   5 NSaved=   5.
 NSaved= 5 IEnMin= 5 EnMin= -116.253368894154     IErMin= 5 ErrMin= 6.26D-04
 ErrMax= 6.26D-04  0.00D+00 EMaxC= 1.00D-01 BMatC= 6.85D-05 BMatP= 7.50D-04
 IDIUse=3 WtCom= 9.94D-01 WtEn= 6.26D-03
 Coeff-Com: -0.128D-03-0.948D-01-0.590D-01 0.206D+00 0.948D+00
 Coeff-En:   0.000D+00 0.000D+00 0.000D+00 0.000D+00 0.100D+01
 Coeff:     -0.127D-03-0.943D-01-0.587D-01 0.204D+00 0.949D+00
 Gap=     0.363 Goal=   None    Shift=    0.000
 Gap=     0.156 Goal=   None    Shift=    0.000
 RMSDP=7.09D-05 MaxDP=2.15D-03 DE=-1.63D-04 OVMax= 4.13D-03

 Cycle   6  Pass 1  IDiag  1:
 E= -116.253394946263     Delta-E=       -0.000026052109 Rises=F Damp=F
 DIIS: error= 1.11D-04 at cycle   6 NSaved=   6.
 NSaved= 6 IEnMin= 6 EnMin= -116.253394946263     IErMin= 6 ErrMin= 1.11D-04
 ErrMax= 1.11D-04  0.00D+00 EMaxC= 1.00D-01 BMatC= 3.40D-06 BMatP= 6.85D-05
 IDIUse=3 WtCom= 9.99D-01 WtEn= 1.11D-03
 Coeff-Com:  0.548D-03-0.389D-01-0.316D-01 0.167D-01 0.278D+00 0.775D+00
 Coeff-En:   0.000D+00 0.000D+00 0.000D+00 0.000D+00 0.000D+00 0.100D+01
 Coeff:      0.547D-03-0.388D-01-0.316D-01 0.166D-01 0.278D+00 0.776D+00
 Gap=     0.363 Goal=   None    Shift=    0.000
 Gap=     0.155 Goal=   None    Shift=    0.000
 RMSDP=1.32D-05 MaxDP=3.28D-04 DE=-2.61D-05 OVMax= 4.18D-04

 Cycle   7  Pass 1  IDiag  1:
 E= -116.253395941336     Delta-E=       -0.000000995074 Rises=F Damp=F
 DIIS: error= 2.74D-05 at cycle   7 NSaved=   7.
 NSaved= 7 IEnMin= 7 EnMin= -116.253395941336     IErMin= 7 ErrMin= 2.74D-05
 ErrMax= 2.74D-05  0.00D+00 EMaxC= 1.00D-01 BMatC= 9.40D-08 BMatP= 3.40D-06
 IDIUse=1 WtCom= 1.00D+00 WtEn= 0.00D+00
 Coeff-Com:  0.486D-04 0.466D-02 0.288D-02-0.134D-01-0.455D-01 0.317D-01
 Coeff-Com:  0.102D+01
 Coeff:      0.486D-04 0.466D-02 0.288D-02-0.134D-01-0.455D-01 0.317D-01
 Coeff:      0.102D+01
 Gap=     0.363 Goal=   None    Shift=    0.000
 Gap=     0.155 Goal=   None    Shift=    0.000
 RMSDP=3.26D-06 MaxDP=8.19D-05 DE=-9.95D-07 OVMax= 1.13D-04

 Cycle   8  Pass 1  IDiag  1:
 E= -116.253395983673     Delta-E=       -0.000000042336 Rises=F Damp=F
 DIIS: error= 7.47D-06 at cycle   8 NSaved=   8.
 NSaved= 8 IEnMin= 8 EnMin= -116.253395983673     IErMin= 8 ErrMin= 7.47D-06
 ErrMax= 7.47D-06  0.00D+00 EMaxC= 1.00D-01 BMatC= 1.04D-08 BMatP= 9.40D-08
 IDIUse=1 WtCom= 1.00D+00 WtEn= 0.00D+00
 Coeff-Com: -0.235D-04 0.312D-02 0.250D-02-0.385D-02-0.241D-01-0.411D-01
 Coeff-Com:  0.138D+00 0.925D+00
 Coeff:     -0.235D-04 0.312D-02 0.250D-02-0.385D-02-0.241D-01-0.411D-01
 Coeff:      0.138D+00 0.925D+00
 Gap=     0.363 Goal=   None    Shift=    0.000
 Gap=     0.155 Goal=   None    Shift=    0.000
 RMSDP=8.55D-07 MaxDP=2.64D-05 DE=-4.23D-08 OVMax= 3.20D-05

 Cycle   9  Pass 1  IDiag  1:
 E= -116.253395987849     Delta-E=       -0.000000004177 Rises=F Damp=F
 DIIS: error= 2.22D-06 at cycle   9 NSaved=   9.
 NSaved= 9 IEnMin= 9 EnMin= -116.253395987849     IErMin= 9 ErrMin= 2.22D-06
 ErrMax= 2.22D-06  0.00D+00 EMaxC= 1.00D-01 BMatC= 8.95D-10 BMatP= 1.04D-08
 IDIUse=1 WtCom= 1.00D+00 WtEn= 0.00D+00
 Coeff-Com: -0.919D-05-0.199D-03-0.539D-04 0.109D-02 0.260D-02-0.780D-02
 Coeff-Com: -0.105D+00 0.106D+00 0.100D+01
 Coeff:     -0.919D-05-0.199D-03-0.539D-04 0.109D-02 0.260D-02-0.780D-02
 Coeff:     -0.105D+00 0.106D+00 0.100D+01
 Gap=     0.363 Goal=   None    Shift=    0.000
 Gap=     0.155 Goal=   None    Shift=    0.000
 RMSDP=3.30D-07 MaxDP=1.04D-05 DE=-4.18D-09 OVMax= 1.10D-05

 Cycle  10  Pass 1  IDiag  1:
 E= -116.253395988255     Delta-E=       -0.000000000405 Rises=F Damp=F
 DIIS: error= 6.02D-07 at cycle  10 NSaved=  10.
 NSaved=10 IEnMin=10 EnMin= -116.253395988255     IErMin=10 ErrMin= 6.02D-07
 ErrMax= 6.02D-07  0.00D+00 EMaxC= 1.00D-01 BMatC= 4.98D-11 BMatP= 8.95D-10
 IDIUse=1 WtCom= 1.00D+00 WtEn= 0.00D+00
 Coeff-Com: -0.536D-06-0.130D-03-0.112D-03 0.355D-03 0.106D-02 0.386D-03
 Coeff-Com: -0.131D-01-0.311D-01 0.785D-01 0.964D+00
 Coeff:     -0.536D-06-0.130D-03-0.112D-03 0.355D-03 0.106D-02 0.386D-03
 Coeff:     -0.131D-01-0.311D-01 0.785D-01 0.964D+00
 Gap=     0.363 Goal=   None    Shift=    0.000
 Gap=     0.155 Goal=   None    Shift=    0.000
 RMSDP=6.00D-08 MaxDP=1.93D-06 DE=-4.05D-10 OVMax= 2.38D-06

 Cycle  11  Pass 1  IDiag  1:
 E= -116.253395988273     Delta-E=       -0.000000000018 Rises=F Damp=F
 DIIS: error= 1.45D-07 at cycle  11 NSaved=  11.
 NSaved=11 IEnMin=11 EnMin= -116.253395988273     IErMin=11 ErrMin= 1.45D-07
 ErrMax= 1.45D-07  0.00D+00 EMaxC= 1.00D-01 BMatC= 2.61D-12 BMatP= 4.98D-11
 IDIUse=1 WtCom= 1.00D+00 WtEn= 0.00D+00
 Coeff-Com:  0.538D-06-0.110D-04-0.167D-04 0.112D-05 0.225D-04 0.565D-03
 Coeff-Com:  0.426D-02-0.115D-01-0.517D-01 0.152D+00 0.907D+00
 Coeff:      0.538D-06-0.110D-04-0.167D-04 0.112D-05 0.225D-04 0.565D-03
 Coeff:      0.426D-02-0.115D-01-0.517D-01 0.152D+00 0.907D+00
 Gap=     0.363 Goal=   None    Shift=    0.000
 Gap=     0.155 Goal=   None    Shift=    0.000
 RMSDP=1.43D-08 MaxDP=3.63D-07 DE=-1.82D-11 OVMax= 5.76D-07

 Cycle  12  Pass 1  IDiag  1:
 E= -116.253395988273     Delta-E=       -0.000000000000 Rises=F Damp=F
 DIIS: error= 3.09D-08 at cycle  12 NSaved=  12.
 NSaved=12 IEnMin=12 EnMin= -116.253395988273     IErMin=12 ErrMin= 3.09D-08
 ErrMax= 3.09D-08  0.00D+00 EMaxC= 1.00D-01 BMatC= 1.34D-13 BMatP= 2.61D-12
 IDIUse=1 WtCom= 1.00D+00 WtEn= 0.00D+00
 Coeff-Com:  0.919D-07 0.816D-05 0.726D-05-0.278D-04-0.704D-04 0.496D-04
 Coeff-Com:  0.932D-03 0.161D-02-0.647D-02-0.622D-01 0.300D-01 0.104D+01
 Coeff:      0.919D-07 0.816D-05 0.726D-05-0.278D-04-0.704D-04 0.496D-04
 Coeff:      0.932D-03 0.161D-02-0.647D-02-0.622D-01 0.300D-01 0.104D+01
 Gap=     0.363 Goal=   None    Shift=    0.000
 Gap=     0.155 Goal=   None    Shift=    0.000
 RMSDP=3.93D-09 MaxDP=8.58D-08 DE=-3.41D-13 OVMax= 1.94D-07

 SCF Done:  E(UB3LYP) =  -116.253395988     A.U. after   12 cycles
            NFock= 12  Conv=0.39D-08     -V/T= 2.0065
 <Sx>= 0.0000 <Sy>= 0.0000 <Sz>= 0.5000 <S**2>= 0.7568 S= 0.5034
 <L.S>= 0.000000000000E+00
 KE= 1.155028585648D+02 PE=-3.466246339230D+02 EE= 7.784392491935D+01
 Annihilation of the first spin contaminant:
 S**2 before annihilation     0.7568,   after     0.7500
 Leave Link  502 at Mon Oct  7 08:21:26 2024, MaxMem=  3355443200 cpu:              29.2 elap:               1.9
 (Enter /usr/local/g16/l801.exe)
 DoSCS=F DFT=T ScalE2(SS,OS)=  1.000000  1.000000
 Range of M.O.s used for correlation:     1    81
 NBasis=    81 NAE=    10 NBE=     9 NFC=     0 NFV=     0
 NROrb=     81 NOA=    10 NOB=     9 NVA=    71 NVB=    72

 **** Warning!!: The largest alpha MO coefficient is  0.17202058D+02


 **** Warning!!: The largest beta MO coefficient is  0.17188222D+02

 Leave Link  801 at Mon Oct  7 08:21:26 2024, MaxMem=  3355443200 cpu:               0.1 elap:               0.0
 (Enter /usr/local/g16/l1101.exe)
 Using compressed storage, NAtomX=     7.
 Will process      8 centers per pass.
 Leave Link 1101 at Mon Oct  7 08:21:27 2024, MaxMem=  3355443200 cpu:               3.2 elap:               0.2
 (Enter /usr/local/g16/l1102.exe)
 Symmetrizing basis deriv contribution to polar:
 IMax=3 JMax=2 DiffMx= 0.00D+00
 Leave Link 1102 at Mon Oct  7 08:21:27 2024, MaxMem=  3355443200 cpu:               0.1 elap:               0.0
 (Enter /usr/local/g16/l1110.exe)
 Forming Gx(P) for the SCF density, NAtomX=     7.
 Integral derivatives from FoFJK, PRISM(SPDF).
 Do as many integral derivatives as possible in FoFJK.
 G2DrvN: MDV=    3355442343.
 G2DrvN: will do     8 centers at a time, making    1 passes.
 Calling FoFCou, ICntrl=  3107 FMM=F I1Cent=   0 AccDes= 1.00D-12.
 FoFJK:  IHMeth= 1 ICntrl=    3107 DoSepK=F KAlg= 0 I1Cent=           0 FoldK=F
 IRaf=         0 NMat=       1 IRICut=       1 DoRegI=T DoRafI=F ISym2E= 0 IDoP0=0 IntGTp=1.
 FoFCou: FMM=F IPFlag=           0 FMFlag=      100000 FMFlg1=           0
         NFxFlg=           0 DoJE=F BraDBF=F KetDBF=F FulRan=T
         wScrn=  0.000000 ICntrl=      3107 IOpCl=  1 I1Cent=           0 NGrid=           0
         NMat0=    1 NMatS0=      1 NMatT0=    0 NMatD0=    1 NMtDS0=    0 NMtDT0=    0
 Symmetry not used in FoFCou.
 End of G2Drv F.D. properties file   721 does not exist.
 End of G2Drv F.D. properties file   722 does not exist.
 End of G2Drv F.D. properties file   788 does not exist.
 Leave Link 1110 at Mon Oct  7 08:21:29 2024, MaxMem=  3355443200 cpu:              42.1 elap:               2.7
 (Enter /usr/local/g16/l1002.exe)
 Minotr:  UHF open shell wavefunction.
          IDoAtm=1111111
          Direct CPHF calculation.
          Differentiating once with respect to electric field.
                with respect to dipole field.
          Differentiating once with respect to nuclear coordinates.
          Requested convergence is 1.0D-08 RMS, and 1.0D-07 maximum.
          Secondary convergence is 1.0D-12 RMS, and 1.0D-12 maximum.
          NewPWx=T KeepS1=F KeepF1=F KeepIn=T MapXYZ=F SortEE=F KeepMc=T.
         2073 words used for storage of precomputed grid.
 Keep R1 and R2 ints in memory in canonical form, NReq=25544543.
 FoFCou: FMM=F IPFlag=           0 FMFlag=           0 FMFlg1=           0
         NFxFlg=           0 DoJE=F BraDBF=F KetDBF=F FulRan=T
         wScrn=  0.000000 ICntrl=       600 IOpCl=  0 I1Cent=           0 NGrid=           0
         NMat0=    1 NMatS0=   3321 NMatT0=    0 NMatD0=    1 NMtDS0=    0 NMtDT0=    0
 Symmetry not used in FoFCou.
 Two-electron integral symmetry not used.
          MDV=    3355443200 using IRadAn=       1.
          Solving linear equations simultaneously, MaxMat=       0.
          There are    24 degrees of freedom in the 1st order CPHF.  IDoFFX=6 NUNeed=     3.
     21 vectors produced by pass  0 Test12= 5.66D-15 4.17D-09 XBig12= 6.95D+01 6.82D+00.
 AX will form    21 AO Fock derivatives at one time.
     21 vectors produced by pass  1 Test12= 5.66D-15 4.17D-09 XBig12= 7.47D+00 6.21D-01.
     21 vectors produced by pass  2 Test12= 5.66D-15 4.17D-09 XBig12= 1.64D-01 8.53D-02.
     21 vectors produced by pass  3 Test12= 5.66D-15 4.17D-09 XBig12= 1.30D-03 1.11D-02.
     21 vectors produced by pass  4 Test12= 5.66D-15 4.17D-09 XBig12= 1.45D-05 7.70D-04.
     20 vectors produced by pass  5 Test12= 5.66D-15 4.17D-09 XBig12= 3.85D-08 3.91D-05.
      8 vectors produced by pass  6 Test12= 5.66D-15 4.17D-09 XBig12= 5.68D-11 1.20D-06.
      3 vectors produced by pass  7 Test12= 5.66D-15 4.17D-09 XBig12= 1.07D-13 5.53D-08.
 InvSVY:  IOpt=1 It=  1 EMax= 1.78D-15
 Solved reduced A of dimension   136 with    24 vectors.
 FullF1:  Do perturbations      1 to       3.
 Isotropic polarizability for W=    0.000000       24.37 Bohr**3.
 End of Minotr F.D. properties file   721 does not exist.
 End of Minotr F.D. properties file   722 does not exist.
 End of Minotr F.D. properties file   788 does not exist.
 Leave Link 1002 at Mon Oct  7 08:21:34 2024, MaxMem=  3355443200 cpu:              74.1 elap:               4.7
 (Enter /usr/local/g16/l601.exe)
 Copying SCF densities to generalized density rwf, IOpCl= 1 IROHF=0.

 **********************************************************************

            Population analysis using the SCF Density.

 **********************************************************************

 Orbital symmetries:
 Alpha Orbitals:
       Occupied  (A) (A) (A) (A) (A) (A) (A) (A) (A) (A)
       Virtual   (A) (A) (A) (A) (A) (A) (A) (A) (A) (A) (A) (A)
                 (A) (A) (A) (A) (A) (A) (A) (A) (A) (A) (A) (A)
                 (A) (A) (A) (A) (A) (A) (A) (A) (A) (A) (A) (A)
                 (A) (A) (A) (A) (A) (A) (A) (A) (A) (A) (A) (A)
                 (A) (A) (A) (A) (A) (A) (A) (A) (A) (A) (A) (A)
                 (A) (A) (A) (A) (A) (A) (A) (A) (A) (A) (A)
 Beta  Orbitals:
       Occupied  (A) (A) (A) (A) (A) (A) (A) (A) (A)
       Virtual   (A) (A) (A) (A) (A) (A) (A) (A) (A) (A) (A) (A)
                 (A) (A) (A) (A) (A) (A) (A) (A) (A) (A) (A) (A)
                 (A) (A) (A) (A) (A) (A) (A) (A) (A) (A) (A) (A)
                 (A) (A) (A) (A) (A) (A) (A) (A) (A) (A) (A) (A)
                 (A) (A) (A) (A) (A) (A) (A) (A) (A) (A) (A) (A)
                 (A) (A) (A) (A) (A) (A) (A) (A) (A) (A) (A) (A)
 The electronic state is 2-A.
 Alpha  occ. eigenvalues --  -19.15311 -10.19726  -0.98107  -0.71265  -0.48380
 Alpha  occ. eigenvalues --   -0.42159  -0.41769  -0.41003  -0.29719  -0.27628
 Alpha virt. eigenvalues --    0.08701   0.12523   0.16315   0.16363   0.28512
 Alpha virt. eigenvalues --    0.46677   0.48022   0.52710   0.60407   0.67553
 Alpha virt. eigenvalues --    0.69843   0.70934   0.74047   0.74126   0.82102
 Alpha virt. eigenvalues --    0.87794   0.89322   0.94185   0.95107   1.00243
 Alpha virt. eigenvalues --    1.01440   1.02296   1.28714   1.44605   1.66443
 Alpha virt. eigenvalues --    1.66685   1.80648   1.92377   1.99733   2.02743
 Alpha virt. eigenvalues --    2.09612   2.33284   2.36286   2.43521   2.51863
 Alpha virt. eigenvalues --    2.61444   2.74551   2.83021   2.83095   2.90008
 Alpha virt. eigenvalues --    2.94031   2.97668   3.10528   3.21030   3.58880
 Alpha virt. eigenvalues --    3.60368   3.79234   3.81766   3.84452   3.93561
 Alpha virt. eigenvalues --    4.10437   4.12104   4.12725   4.25386   4.25826
 Alpha virt. eigenvalues --    4.29450   4.58121   4.69931   4.69939   4.73076
 Alpha virt. eigenvalues --    5.00598   5.09478   5.17045   5.27973   5.34872
 Alpha virt. eigenvalues --    5.46556   5.77585   5.94145   6.65332  11.16173
 Alpha virt. eigenvalues --   12.86364
  Beta  occ. eigenvalues --  -19.13623 -10.18990  -0.93672  -0.69144  -0.45173
  Beta  occ. eigenvalues --   -0.41255  -0.41022  -0.37022  -0.28076
  Beta virt. eigenvalues --   -0.12539   0.09294   0.13140   0.16755   0.16833
  Beta virt. eigenvalues --    0.30559   0.47210   0.48367   0.55260   0.61451
  Beta virt. eigenvalues --    0.68321   0.70764   0.72375   0.75080   0.75091
  Beta virt. eigenvalues --    0.83029   0.88453   0.92388   0.95020   0.96889
  Beta virt. eigenvalues --    1.01305   1.02842   1.04531   1.29909   1.46847
  Beta virt. eigenvalues --    1.67216   1.67395   1.81287   1.92306   2.00496
  Beta virt. eigenvalues --    2.03507   2.10912   2.33717   2.36681   2.43804
  Beta virt. eigenvalues --    2.51711   2.62312   2.75931   2.83411   2.83460
  Beta virt. eigenvalues --    2.90560   2.94142   2.98101   3.11020   3.21966
  Beta virt. eigenvalues --    3.60666   3.62255   3.79637   3.83010   3.85732
  Beta virt. eigenvalues --    3.97071   4.13366   4.15791   4.17188   4.28413
  Beta virt. eigenvalues --    4.29346   4.33256   4.60155   4.71138   4.71244
  Beta virt. eigenvalues --    4.76970   5.03634   5.12551   5.20942   5.30221
  Beta virt. eigenvalues --    5.37232   5.47195   5.79659   5.98506   6.68272
  Beta virt. eigenvalues --   11.17639  12.88534
          Condensed to atoms (all electrons):
               1          2          3          4          5          6
     1  C    5.282402   0.214197   0.379507   0.379507   0.376951  -0.047741
     2  H    0.214197   0.356885  -0.012721  -0.012721  -0.009381   0.131799
     3  H    0.379507  -0.012721   0.538023  -0.027986  -0.026134  -0.000283
     4  H    0.379507  -0.012721  -0.027986   0.538022  -0.026134  -0.000283
     5  H    0.376951  -0.009381  -0.026134  -0.026134   0.525295   0.000328
     6  O   -0.047741   0.131799  -0.000283  -0.000283   0.000328   8.155312
     7  H    0.017582  -0.035397  -0.000467  -0.000467  -0.000035   0.269244
               7
     1  C    0.017582
     2  H   -0.035397
     3  H   -0.000467
     4  H   -0.000467
     5  H   -0.000035
     6  O    0.269244
     7  H    0.465324
          Atomic-Atomic Spin Densities.
               1          2          3          4          5          6
     1  C    0.561353   0.020137  -0.010279  -0.010279  -0.014750  -0.081179
     2  H    0.020137  -0.073050   0.001907   0.001907   0.001492  -0.022268
     3  H   -0.010279   0.001907  -0.007127   0.002231   0.002930   0.002282
     4  H   -0.010279   0.001907   0.002231  -0.007127   0.002930   0.002282
     5  H   -0.014750   0.001492   0.002930   0.002930   0.001264   0.002525
     6  O   -0.081179  -0.022268   0.002282   0.002282   0.002525   0.728724
     7  H    0.004818   0.002706  -0.000222  -0.000222  -0.000134  -0.002912
               7
     1  C    0.004818
     2  H    0.002706
     3  H   -0.000222
     4  H   -0.000222
     5  H   -0.000134
     6  O   -0.002912
     7  H   -0.015838
 Mulliken charges and spin densities:
               1          2
     1  C   -0.602407   0.469820
     2  H    0.367339  -0.067169
     3  H    0.150061  -0.008278
     4  H    0.150061  -0.008278
     5  H    0.159108  -0.003744
     6  O   -0.508376   0.629453
     7  H    0.284214  -0.011804
 Sum of Mulliken charges =  -0.00000   1.00000
 Mulliken charges and spin densities with hydrogens summed into heavy atoms:
               1          2
     1  C    0.224162   0.382351
     6  O   -0.224162   0.617649
 APT charges:
               1
     1  C    0.235286
     2  H   -0.180948
     3  H   -0.022896
     4  H   -0.022895
     5  H   -0.015490
     6  O   -0.229638
     7  H    0.236581
 Sum of APT charges =  -0.00000
 APT charges with hydrogens summed into heavy atoms:
               1
     1  C   -0.006943
     6  O    0.006943
 Electronic spatial extent (au):  <R**2>=            156.2728
 Charge=             -0.0000 electrons
 Dipole moment (field-independent basis, Debye):
    X=             -1.2036    Y=             -1.3829    Z=              0.0000  Tot=              1.8333
 Quadrupole moment (field-independent basis, Debye-Ang):
   XX=            -14.2385   YY=            -12.4745   ZZ=            -14.3330
   XY=             -2.3656   XZ=              0.0000   YZ=             -0.0000
 Traceless Quadrupole moment (field-independent basis, Debye-Ang):
   XX=             -0.5565   YY=              1.2075   ZZ=             -0.6510
   XY=             -2.3656   XZ=              0.0000   YZ=             -0.0000
 Octapole moment (field-independent basis, Debye-Ang**2):
  XXX=              6.2159  YYY=             -0.6992  ZZZ=              0.0001  XYY=              2.8385
  XXY=             -3.0348  XXZ=             -0.0000  XZZ=              0.4438  YZZ=             -0.8504
  YYZ=             -0.0001  XYZ=              0.0000
 Hexadecapole moment (field-independent basis, Debye-Ang**3):
 XXXX=           -149.8336 YYYY=            -19.9515 ZZZZ=            -19.1096 XXXY=             -5.9374
 XXXZ=             -0.0000 YYYX=             -3.4921 YYYZ=              0.0000 ZZZX=             -0.0001
 ZZZY=             -0.0000 XXYY=            -24.5718 XXZZ=            -28.1456 YYZZ=             -6.6404
 XXYZ=             -0.0000 YYXZ=              0.0001 ZZXY=              0.8752
 N-N= 3.702445445050D+01 E-N=-3.466246335514D+02  KE= 1.155028585648D+02
  Exact polarizability:      37.209      -1.183      19.282       0.000       0.000      16.611
 Approx polarizability:      47.187      -0.079      25.675      -0.000       0.000      20.920
                          Isotropic Fermi Contact Couplings
        Atom                 a.u.       MegaHertz       Gauss      10(-4) cm-1
     1  C(13)              0.12212     137.28778      48.98770      45.79428
     2  H(1)              -0.01863     -83.28677     -29.71879     -27.78147
     3  H(1)              -0.00316     -14.11867      -5.03789      -4.70948
     4  H(1)              -0.00316     -14.11824      -5.03774      -4.70934
     5  H(1)              -0.00118      -5.29167      -1.88820      -1.76511
     6  O(17)              0.08340     -50.55555     -18.03948     -16.86352
     7  H(1)              -0.00882     -39.42788     -14.06885     -13.15172
 --------------------------------------------------------
       Center         ----  Spin Dipole Couplings  ----
                      3XX-RR        3YY-RR        3ZZ-RR
 --------------------------------------------------------
     1   Atom        0.537263     -0.266959     -0.270304
     2   Atom        0.248368     -0.122332     -0.126035
     3   Atom        0.002249     -0.016965      0.014716
     4   Atom        0.002249     -0.016969      0.014721
     5   Atom        0.004373      0.031021     -0.035394
     6   Atom        2.459281     -1.190167     -1.269114
     7   Atom       -0.018579      0.107907     -0.089328
 --------------------------------------------------------
                        XY            XZ            YZ
 --------------------------------------------------------
     1   Atom        0.059085      0.000000      0.000000
     2   Atom        0.009707     -0.000000      0.000000
     3   Atom        0.008347      0.009674      0.030076
     4   Atom        0.008346     -0.009675     -0.030073
     5   Atom       -0.014469      0.000001     -0.000003
     6   Atom        0.433164     -0.000001     -0.000000
     7   Atom       -0.024788     -0.000000     -0.000000
 --------------------------------------------------------


 ---------------------------------------------------------------------------------
              Anisotropic Spin Dipole Couplings in Principal Axis System
 ---------------------------------------------------------------------------------

       Atom             a.u.   MegaHertz   Gauss  10(-4) cm-1        Axes

              Baa    -0.2713   -36.403   -12.989   -12.143 -0.0729  0.9973 -0.0001
     1 C(13)  Bbb    -0.2703   -36.272   -12.943   -12.099 -0.0000  0.0001  1.0000
              Bcc     0.5416    72.675    25.932    24.242  0.9973  0.0729  0.0000
 
              Baa    -0.1260   -67.247   -23.995   -22.431  0.0000 -0.0000  1.0000
     2 H(1)   Bbb    -0.1226   -65.406   -23.339   -21.817 -0.0262  0.9997  0.0000
              Bcc     0.2486   132.653    47.334    44.248  0.9997  0.0262 -0.0000
 
              Baa    -0.0352   -18.807    -6.711    -6.273 -0.0609  0.8603 -0.5061
     3 H(1)   Bbb    -0.0021    -1.143    -0.408    -0.381  0.9392 -0.1222 -0.3209
              Bcc     0.0374    19.950     7.119     6.655  0.3379  0.4949  0.8006
 
              Baa    -0.0352   -18.807    -6.711    -6.273 -0.0610  0.8604  0.5060
     4 H(1)   Bbb    -0.0021    -1.143    -0.408    -0.381  0.9392 -0.1222  0.3209
              Bcc     0.0374    19.950     7.119     6.655 -0.3379 -0.4948  0.8006
 
              Baa    -0.0354   -18.885    -6.738    -6.299 -0.0000  0.0000  1.0000
     5 H(1)   Bbb    -0.0020    -1.052    -0.376    -0.351  0.9158  0.4016 -0.0000
              Bcc     0.0374    19.937     7.114     6.650 -0.4016  0.9158 -0.0000
 
              Baa    -1.2691    91.832    32.768    30.632  0.0000  0.0000  1.0000
     6 O(17)  Bbb    -1.2409    89.789    32.039    29.950 -0.1163  0.9932 -0.0000
              Bcc     2.5100  -181.621   -64.807   -60.582  0.9932  0.1163 -0.0000
 
              Baa    -0.0893   -47.661   -17.007   -15.898  0.0000  0.0000  1.0000
     7 H(1)   Bbb    -0.0233   -12.412    -4.429    -4.140  0.9826  0.1857 -0.0000
              Bcc     0.1126    60.073    21.436    20.038 -0.1857  0.9826 -0.0000
 

 ---------------------------------------------------------------------------------

 No NMR shielding tensors so no spin-rotation constants.
 Leave Link  601 at Mon Oct  7 08:21:34 2024, MaxMem=  3355443200 cpu:               2.0 elap:               0.1
 (Enter /usr/local/g16/l701.exe)
 SCFChk:  SCF convergence  3.93D-09 required  1.00D-08
 ... and contract with generalized density number  0.
 Compute integral second derivatives.
 Entering OneElI...
 Calculate overlap and kinetic energy integrals
    NBasis =  87  MinDer = 2  MaxDer = 2
 Requested accuracy = 0.1000D-14
 PrmmSu-InSpLW:  IPartL=    0 NPrtUS=   16 NPrtUL=    1 DoSpLW=F IThBeg=    0 IThEnd=   15 NThAct=   16.
 PrSmSu:  IncTry=   512 NBBP=            378 NTPThr=   100 NPartT=   16 Incr=           1 LDynOK=F GPUOK=F.
 PrsmSu:  NPrtUS=  16 ThrOK=T IAlg=2 LenDen=           0 ISkipM=0 DoSpLW=F IThBeg=    0 IThEnd=   15.
 Prism:   IPart=     0 DynPar=F LinDyn=F Incr=           1.
 PRISM was handed   209700217 working-precision words and   378 shell-pairs
 PRISM was handed   209700217 working-precision words and   378 shell-pairs
 PRISM was handed   209700217 working-precision words and   378 shell-pairs
 PRISM was handed   209700217 working-precision words and   378 shell-pairs
 PRISM was handed   209700217 working-precision words and   378 shell-pairs
 PRISM was handed   209700217 working-precision words and   378 shell-pairs
 PRISM was handed   209700217 working-precision words and   378 shell-pairs
 PRISM was handed   209700217 working-precision words and   378 shell-pairs
 PRISM was handed   209700217 working-precision words and   378 shell-pairs
 PRISM was handed   209700217 working-precision words and   378 shell-pairs
 PRISM was handed   209700217 working-precision words and   378 shell-pairs
 PRISM was handed   209700217 working-precision words and   378 shell-pairs
 PRISM was handed   209700217 working-precision words and   378 shell-pairs
 PRISM was handed   209700217 working-precision words and   378 shell-pairs
 PRISM was handed   209700217 working-precision words and   378 shell-pairs
 PRISM was handed   209700217 working-precision words and   378 shell-pairs
 IPart=  9 NShTot=          18 NBatch=          18 AvBLen=         1.0
 IPart= 11 NShTot=          10 NBatch=          10 AvBLen=         1.0
 IPart=  7 NShTot=          25 NBatch=          22 AvBLen=         1.1
 IPart= 13 NShTot=          10 NBatch=          10 AvBLen=         1.0
 IPart=  3 NShTot=          38 NBatch=          31 AvBLen=         1.2
 IPart=  5 NShTot=          28 NBatch=          25 AvBLen=         1.1
 IPart=  1 NShTot=          47 NBatch=          40 AvBLen=         1.2
 IPart= 15 NShTot=           7 NBatch=           7 AvBLen=         1.0
 IPart=  0 NShTot=          50 NBatch=          43 AvBLen=         1.2
 IPart=  2 NShTot=          41 NBatch=          34 AvBLen=         1.2
 IPart=  4 NShTot=          28 NBatch=          25 AvBLen=         1.1
 IPart= 12 NShTot=          10 NBatch=          10 AvBLen=         1.0
 IPart=  8 NShTot=          21 NBatch=          18 AvBLen=         1.2
 IPart= 14 NShTot=           9 NBatch=           9 AvBLen=         1.0
 IPart= 10 NShTot=          10 NBatch=          10 AvBLen=         1.0
 IPart=  6 NShTot=          26 NBatch=          23 AvBLen=         1.1
 PrSmSu:  NxtVal=             17.
 Entering OneElI...
 Calculate potential energy integrals
    NBasis =  87  MinDer = 2  MaxDer = 2
 Requested accuracy = 0.1000D-14
 PrmmSu-InSpLW:  IPartL=    0 NPrtUS=   16 NPrtUL=    1 DoSpLW=F IThBeg=    0 IThEnd=   15 NThAct=   16.
 PrSmSu:  IncTry=   512 NBBP=           2639 NTPThr=   100 NPartT=   16 Incr=           1 LDynOK=F GPUOK=F.
 PrsmSu:  NPrtUS=  16 ThrOK=T IAlg=2 LenDen=           0 ISkipM=0 DoSpLW=F IThBeg=    0 IThEnd=   15.
 Prism:   IPart=     0 DynPar=F LinDyn=F Incr=           1.
 PRISM was handed   209701260 working-precision words and   377 shell-pairs
 PRISM was handed   209701260 working-precision words and   377 shell-pairs
 PRISM was handed   209701260 working-precision words and   377 shell-pairs
 PRISM was handed   209701260 working-precision words and   377 shell-pairs
 PRISM was handed   209701260 working-precision words and   377 shell-pairs
 PRISM was handed   209701260 working-precision words and   377 shell-pairs
 PRISM was handed   209701260 working-precision words and   377 shell-pairs
 PRISM was handed   209701260 working-precision words and   377 shell-pairs
 PRISM was handed   209701260 working-precision words and   377 shell-pairs
 PRISM was handed   209701260 working-precision words and   377 shell-pairs
 PRISM was handed   209701260 working-precision words and   377 shell-pairs
 PRISM was handed   209701260 working-precision words and   377 shell-pairs
 PRISM was handed   209701260 working-precision words and   377 shell-pairs
 PRISM was handed   209701260 working-precision words and   377 shell-pairs
 PRISM was handed   209701260 working-precision words and   377 shell-pairs
 PRISM was handed   209701260 working-precision words and   377 shell-pairs
 IPart=  9 NShTot=         126 NBatch=          18 AvBLen=         7.0
 IPart= 13 NShTot=          70 NBatch=          10 AvBLen=         7.0
 IPart= 11 NShTot=          70 NBatch=          10 AvBLen=         7.0
 IPart= 15 NShTot=          49 NBatch=           7 AvBLen=         7.0
 IPart=  7 NShTot=         161 NBatch=          23 AvBLen=         7.0
 IPart=  3 NShTot=         266 NBatch=          38 AvBLen=         7.0
 IPart=  2 NShTot=         301 NBatch=          43 AvBLen=         7.0
 IPart=  4 NShTot=         210 NBatch=          30 AvBLen=         7.0
 IPart=  1 NShTot=         322 NBatch=          46 AvBLen=         7.0
 IPart=  5 NShTot=         189 NBatch=          27 AvBLen=         7.0
 IPart=  0 NShTot=         350 NBatch=          50 AvBLen=         7.0
 IPart= 12 NShTot=          70 NBatch=          10 AvBLen=         7.0
 IPart= 14 NShTot=          63 NBatch=           9 AvBLen=         7.0
 IPart=  8 NShTot=         133 NBatch=          19 AvBLen=         7.0
 IPart= 10 NShTot=          77 NBatch=          11 AvBLen=         7.0
 IPart=  6 NShTot=         182 NBatch=          26 AvBLen=         7.0
 PrSmSu:  NxtVal=             17.
 Polarizability after L701:
                1             2             3 
      1  0.372092D+02
      2 -0.118341D+01  0.192823D+02
      3  0.104583D-05  0.000000D+00  0.166107D+02
 Dipole Derivatives after L701:
                 1             2             3             4             5 
      1   0.674043D+00  0.745929D-01  0.000000D+00 -0.796529D+00  0.223099D-01
      2  -0.210791D-01  0.973753D-02  0.000000D+00  0.183205D-01  0.125607D+00
      3   0.000000D+00  0.106375D-05  0.220764D-01  0.000000D+00  0.000000D+00
                 6             7             8             9            10 
      1   0.000000D+00 -0.571905D-01 -0.112932D-01 -0.334071D-02 -0.571912D-01
      2   0.000000D+00 -0.161166D-01  0.234018D-01 -0.580469D-01 -0.161146D-01
      3   0.128079D+00 -0.403951D-01 -0.608793D-01 -0.348979D-01  0.403983D-01
                11            12            13            14            15 
      1  -0.112928D-01  0.334059D-02 -0.638161D-01 -0.832099D-02  0.000000D+00
      2   0.234114D-01  0.580418D-01  0.672016D-01 -0.468476D-01  0.468668D-05
      3   0.608742D-01 -0.349057D-01 -0.264552D-05  0.447895D-05  0.641924D-01
                16            17            18            19            20 
      1  -0.464503D-01  0.267985D-01  0.000000D+00  0.347134D+00 -0.927944D-01
      2  -0.377977D-01 -0.202877D+00  0.000000D+00  0.558581D-02  0.675663D-01
      3   0.000000D+00  0.000000D+00 -0.439586D+00  0.000000D+00  0.000000D+00
                21 
      1   0.000000D+00
      2   0.000000D+00
      3   0.295042D+00
 Hessian after L701:
                1             2             3             4             5 
      1  0.525389D+01
      2  0.308178D-01  0.631452D+01
      3  0.000000D+00 -0.127904D-05  0.632207D+01
      4  0.330839D+00  0.242041D+00  0.000000D+00 -0.105282D+01
      5  0.258363D+00 -0.151107D+01  0.000000D+00 -0.375985D+00  0.268023D+01
      6  0.000000D+00  0.000000D+00 -0.154289D+01  0.000000D+00  0.000000D+00
      7 -0.217951D+01  0.218248D+00  0.366926D+00 -0.190268D-01 -0.256299D-01
      8  0.179950D+00 -0.182390D+01  0.760126D+00 -0.770870D-02  0.966910D-02
      9  0.300911D+00  0.756127D+00 -0.998145D+00 -0.627548D-02 -0.727964D-02
     10 -0.217950D+01  0.218226D+00 -0.366952D+00 -0.190269D-01 -0.256267D-01
     11  0.179933D+00 -0.182401D+01 -0.760060D+00 -0.770777D-02  0.967015D-02
     12 -0.300934D+00 -0.756062D+00 -0.998036D+00  0.627504D-02  0.727916D-02
     13 -0.203675D+01 -0.605877D+00  0.248933D-04 -0.128812D-01  0.253662D-01
     14 -0.533100D+00 -0.668827D+00 -0.646341D-04 -0.148551D-01  0.120806D-01
     15  0.219540D-04 -0.645772D-04 -0.225060D+01  0.000000D+00  0.000000D+00
     16  0.632376D+00 -0.207782D-01 -0.100663D-05  0.831256D+00  0.384981D-01
     17  0.444814D-01 -0.473402D+00  0.000000D+00  0.554018D-01 -0.120100D+01
     18  0.000000D+00  0.000000D+00 -0.456771D+00  0.000000D+00  0.000000D+00
     19  0.178648D+00 -0.826776D-01  0.000000D+00 -0.583376D-01  0.105014D+00
     20 -0.160446D+00 -0.133181D-01  0.000000D+00  0.108814D+00  0.415444D-03
     21  0.000000D+00  0.000000D+00 -0.756379D-01  0.000000D+00  0.000000D+00
                6             7             8             9            10 
      6  0.264356D+01
      7 -0.351698D-01  0.202953D+01
      8 -0.807307D-02 -0.236676D+00  0.181722D+01
      9  0.995656D-02 -0.394635D+00 -0.731143D+00  0.103436D+01
     10  0.351708D-01  0.456459D-01  0.706425D-02 -0.113965D-02  0.202953D+01
     11  0.807267D-02  0.706445D-02  0.537371D-01 -0.145915D-01 -0.236652D+00
     12  0.995602D-02  0.114008D-02  0.145824D-01 -0.643930D-01  0.394661D+00
     13 -0.105146D-05  0.427709D-01 -0.444845D-03  0.754160D-02  0.427712D-01
     14  0.000000D+00  0.578021D-02 -0.302146D-01 -0.293812D-01  0.577888D-02
     15  0.810055D-02  0.136171D-01 -0.596742D-01  0.219189D-01 -0.136174D-01
     16  0.000000D+00  0.756036D-01  0.551649D-01  0.864043D-01  0.756032D-01
     17  0.000000D+00  0.407924D-01 -0.195993D-01  0.375721D-01  0.407888D-01
     18 -0.120214D+01  0.467822D-01  0.233564D-01 -0.304960D-02 -0.467841D-01
     19  0.000000D+00  0.498054D-02  0.265042D-02  0.719301D-02  0.498042D-02
     20  0.000000D+00 -0.957898D-02 -0.691112D-02 -0.113036D-01 -0.957899D-02
     21  0.734544D-01  0.133867D-02  0.826438D-03 -0.647799D-03 -0.133869D-02
               11            12            13            14            15 
     11  0.181733D+01
     12  0.731081D+00  0.103425D+01
     13 -0.445914D-03 -0.754143D-02  0.186353D+01
     14 -0.302079D-01  0.293855D-01  0.631289D+00  0.719428D+00
     15  0.596784D-01  0.219119D-01 -0.264641D-04  0.622325D-04  0.224023D+01
     16  0.551582D-01 -0.864076D-01  0.964798D-01 -0.867977D-01  0.404402D-05
     17 -0.196037D-01 -0.375706D-01 -0.381103D-01 -0.145666D-01 -0.124994D-05
     18 -0.233545D-01 -0.304621D-02  0.240404D-05 -0.170211D-05 -0.391547D-01
     19  0.264982D-02 -0.719319D-02  0.407516D-02 -0.809490D-02  0.000000D+00
     20 -0.691021D-02  0.113040D-01 -0.117772D-01  0.123070D-01  0.000000D+00
     21 -0.826335D-03 -0.647626D-03  0.000000D+00  0.000000D+00 -0.241593D-02
               16            17            18            19            20 
     16  0.169086D+01
     17  0.386448D+00  0.177897D+01
     18  0.000000D+00  0.000000D+00  0.524393D+01
     19 -0.340218D+01 -0.529802D+00  0.000000D+00  0.326783D+01
     20 -0.427693D+00 -0.507906D-01  0.000000D+00  0.510260D+00  0.652076D-01
     21  0.000000D+00  0.000000D+00 -0.353977D+01  0.000000D+00  0.000000D+00
               21 
     21  0.354567D+01
 Leave Link  701 at Mon Oct  7 08:21:35 2024, MaxMem=  3355443200 cpu:               5.5 elap:               0.4
 (Enter /usr/local/g16/l702.exe)
 L702 exits ... SP integral derivatives will be done elsewhere.
 Leave Link  702 at Mon Oct  7 08:21:35 2024, MaxMem=  3355443200 cpu:               0.1 elap:               0.0
 (Enter /usr/local/g16/l703.exe)
 Integral derivatives from FoFJK, PRISM(SPDF).
 Compute integral second derivatives, UseDBF=F ICtDFT=           0.
 ICntrl=    100127.
 Calling FoFJK, ICntrl=    100127 FMM=F ISym2X=0 I1Cent= 0 IOpClX= 1 NMat=1 NMatS=1 NMatT=0.
 FoFJK:  IHMeth= 1 ICntrl=  100127 DoSepK=F KAlg= 0 I1Cent=           0 FoldK=F
 IRaf=         0 NMat=       1 IRICut=       1 DoRegI=T DoRafI=F ISym2E= 0 IDoP0=0 IntGTp=1.
 FoFCou: FMM=F IPFlag=           0 FMFlag=      100000 FMFlg1=         800
         NFxFlg=           0 DoJE=F BraDBF=F KetDBF=F FulRan=T
         wScrn=  0.000000 ICntrl=    100127 IOpCl=  1 I1Cent=           0 NGrid=           0
         NMat0=    1 NMatS0=      1 NMatT0=    0 NMatD0=    1 NMtDS0=    0 NMtDT0=    0
 Symmetry not used in FoFCou.
 FoFCou:  KetSym=F NOpSet=  1 NOpAb=1 NOp=  1.
 FoFCou:  CnvScl= 1.00D+00 Thresh= 1.00D-12 IAcrcy=      10.
 PrismS was handed  3355389183 working-precision words and   378 shell-pairs
 FoFCou: LinMIO=F DoNuc=F BraDBF=F KetDBF=F HaveP=T PDBF=F HaveZ=T HaveW=F
         NIJTC =      15 NIJTAt=       0 NIJTCD=       0 NIJTT =      15
         IJTBeg=       1 IJTEnd=      15 KLTBeg=       1 KLTEnd=      15
         IPTBeg=       1 IPTEnd=      15 IPTBCv=       1 IPTECv=      15
         IZTBeg=       1 IZTEnd=      15 IZTBCv=       1 IZTECv=      15
         IWTBeg=      16 IWTEnd=      15 IWTBCv=      16 IWTECv=      15
         INTBeg=       1 INTEnd=       0 IFTBCv=       1 IFTECv=      15
 NCel replicated for PrismC:     1
 CoulSu-InSpLW:  IPartL=    0 NPrtUS=   16 NPrtUL=    1 DoSpLW=F IThBeg=    0 IThEnd=   15 NThAct=   16.
 CoulSu:  IncTry=  1024 NBBP=          71631 NTPThr=   100 NPartT=   16 Incr=          44 LDynOK=F GPUOK=F.
 CoulSu:  NPrtUS=  16 ThrOK=T IAlg=2 LenDen=           0 LWGrdD=           0 DoCopy=F ISkipM=0
          DoSpLW=F IThBeg=    0 IThEnd=   15.
 Enter PrismC:  IPart=  0 JobTyp=22 DoJE=F Cont=F.
 PrismC:  IPart=     0 DynPar=F LinDyn=F Incr=          44 UseFst=F UseS4=T ISplat=2.
 PrismC was handed   209701350 working-precision words and   378 shell-pairs
 Enter PrismC:  IPart=  2 JobTyp=22 DoJE=F Cont=F.
 PrismC:  IPart=     2 DynPar=F LinDyn=F Incr=          44 UseFst=F UseS4=T ISplat=2.
 PrismC was handed   209701350 working-precision words and   378 shell-pairs
 Enter PrismC:  IPart=  1 JobTyp=22 DoJE=F Cont=F.
 PrismC:  IPart=     1 DynPar=F LinDyn=F Incr=          44 UseFst=F UseS4=T ISplat=2.
 PrismC was handed   209701350 working-precision words and   378 shell-pairs
 Enter PrismC:  IPart=  5 JobTyp=22 DoJE=F Cont=F.
 Enter PrismC:  IPart=  3 JobTyp=22 DoJE=F Cont=F.
 PrismC:  IPart=     5 DynPar=F LinDyn=F Incr=          44 UseFst=F UseS4=T ISplat=2.
 PrismC was handed   209701350 working-precision words and   378 shell-pairs
 PrismC:  IPart=     3 DynPar=F LinDyn=F Incr=          44 UseFst=F UseS4=T ISplat=2.
 PrismC was handed   209701350 working-precision words and   378 shell-pairs
 Enter PrismC:  IPart=  9 JobTyp=22 DoJE=F Cont=F.
 Enter PrismC:  IPart= 10 JobTyp=22 DoJE=F Cont=F.
 PrismC:  IPart=     9 DynPar=F LinDyn=F Incr=          44 UseFst=F UseS4=T ISplat=2.
 Enter PrismC:  IPart=  8 JobTyp=22 DoJE=F Cont=F.
 PrismC was handed   209701350 working-precision words and   378 shell-pairs
 PrismC:  IPart=    10 DynPar=F LinDyn=F Incr=          44 UseFst=F UseS4=T ISplat=2.
 PrismC:  IPart=     8 DynPar=F LinDyn=F Incr=          44 UseFst=F UseS4=T ISplat=2.
 PrismC was handed   209701350 working-precision words and   378 shell-pairs
 PrismC was handed   209701350 working-precision words and   378 shell-pairs
 Enter PrismC:  IPart= 13 JobTyp=22 DoJE=F Cont=F.
 Enter PrismC:  IPart= 11 JobTyp=22 DoJE=F Cont=F.
 PrismC:  IPart=    13 DynPar=F LinDyn=F Incr=          44 UseFst=F UseS4=T ISplat=2.
 PrismC was handed   209701350 working-precision words and   378 shell-pairs
 Enter PrismC:  IPart= 14 JobTyp=22 DoJE=F Cont=F.
 Enter PrismC:  IPart= 12 JobTyp=22 DoJE=F Cont=F.
 PrismC:  IPart=    11 DynPar=F LinDyn=F Incr=          44 UseFst=F UseS4=T ISplat=2.
 Enter PrismC:  IPart=  4 JobTyp=22 DoJE=F Cont=F.
 PrismC:  IPart=    14 DynPar=F LinDyn=F Incr=          44 UseFst=F UseS4=T ISplat=2.
 PrismC:  IPart=    12 DynPar=F LinDyn=F Incr=          44 UseFst=F UseS4=T ISplat=2.
 PrismC was handed   209701350 working-precision words and   378 shell-pairs
 Enter PrismC:  IPart= 15 JobTyp=22 DoJE=F Cont=F.
 PrismC:  IPart=     4 DynPar=F LinDyn=F Incr=          44 UseFst=F UseS4=T ISplat=2.
 PrismC:  IPart=    15 DynPar=F LinDyn=F Incr=          44 UseFst=F UseS4=T ISplat=2.
 Enter PrismC:  IPart=  6 JobTyp=22 DoJE=F Cont=F.
 PrismC was handed   209701350 working-precision words and   378 shell-pairs
 PrismC was handed   209701350 working-precision words and   378 shell-pairs
 Enter PrismC:  IPart=  7 JobTyp=22 DoJE=F Cont=F.
 PrismC was handed   209701350 working-precision words and   378 shell-pairs
 PrismC:  IPart=     6 DynPar=F LinDyn=F Incr=          44 UseFst=F UseS4=T ISplat=2.
 PrismC was handed   209701350 working-precision words and   378 shell-pairs
 PrismC:  IPart=     7 DynPar=F LinDyn=F Incr=          44 UseFst=F UseS4=T ISplat=2.
 PrismC was handed   209701350 working-precision words and   378 shell-pairs
 PrismC was handed   209701350 working-precision words and   378 shell-pairs
 IPart= 11 NShTot=        3993 NShNF=        3993 NShFF=           0 MinMC=       7
           NShCPU=        3993 NBCPU=         780 AvBCPU=         5.1
           NShGPU=           0 NBGPU=           0 AvBGPU=         0.0
 IPart=  9 NShTot=        4063 NShNF=        4063 NShFF=           0 MinMC=       7
           NShCPU=        4063 NBCPU=         838 AvBCPU=         4.8
           NShGPU=           0 NBGPU=           0 AvBGPU=         0.0
 IPart= 13 NShTot=        3934 NShNF=        3934 NShFF=           0 MinMC=       7
           NShCPU=        3934 NBCPU=         757 AvBCPU=         5.2
           NShGPU=           0 NBGPU=           0 AvBGPU=         0.0
 IPart= 15 NShTot=        3544 NShNF=        3544 NShFF=           0 MinMC=       7
           NShCPU=        3544 NBCPU=         696 AvBCPU=         5.1
           NShGPU=           0 NBGPU=           0 AvBGPU=         0.0
 IPart=  7 NShTot=        4290 NShNF=        4290 NShFF=           0 MinMC=       7
           NShCPU=        4290 NBCPU=         889 AvBCPU=         4.8
           NShGPU=           0 NBGPU=           0 AvBGPU=         0.0
 IPart=  4 NShTot=        4450 NShNF=        4450 NShFF=           0 MinMC=       7
           NShCPU=        4450 NBCPU=         939 AvBCPU=         4.7
           NShGPU=           0 NBGPU=           0 AvBGPU=         0.0
 IPart=  3 NShTot=        4573 NShNF=        4573 NShFF=           0 MinMC=       7
           NShCPU=        4573 NBCPU=         984 AvBCPU=         4.6
           NShGPU=           0 NBGPU=           0 AvBGPU=         0.0
 IPart=  5 NShTot=        4368 NShNF=        4368 NShFF=           0 MinMC=       7
           NShCPU=        4368 NBCPU=         926 AvBCPU=         4.7
           NShGPU=           0 NBGPU=           0 AvBGPU=         0.0
 IPart=  1 NShTot=        4605 NShNF=        4605 NShFF=           0 MinMC=       7
           NShCPU=        4605 NBCPU=        1011 AvBCPU=         4.6
           NShGPU=           0 NBGPU=           0 AvBGPU=         0.0
 IPart=  2 NShTot=        4703 NShNF=        4703 NShFF=           0 MinMC=       7
           NShCPU=        4703 NBCPU=        1013 AvBCPU=         4.6
           NShGPU=           0 NBGPU=           0 AvBGPU=         0.0
 IPart=  0 NShTot=        4844 NShNF=        4844 NShFF=           0 MinMC=       7
           NShCPU=        4844 NBCPU=        1080 AvBCPU=         4.5
           NShGPU=           0 NBGPU=           0 AvBGPU=         0.0
 IPart= 10 NShTot=        4113 NShNF=        4113 NShFF=           0 MinMC=       7
           NShCPU=        4113 NBCPU=         788 AvBCPU=         5.2
           NShGPU=           0 NBGPU=           0 AvBGPU=         0.0
 IPart=  8 NShTot=        4236 NShNF=        4236 NShFF=           0 MinMC=       7
           NShCPU=        4236 NBCPU=         855 AvBCPU=         5.0
           NShGPU=           0 NBGPU=           0 AvBGPU=         0.0
 IPart= 14 NShTot=        4014 NShNF=        4014 NShFF=           0 MinMC=       7
           NShCPU=        4014 NBCPU=         761 AvBCPU=         5.3
           NShGPU=           0 NBGPU=           0 AvBGPU=         0.0
 IPart= 12 NShTot=        4000 NShNF=        4000 NShFF=           0 MinMC=       7
           NShCPU=        4000 NBCPU=         760 AvBCPU=         5.3
           NShGPU=           0 NBGPU=           0 AvBGPU=         0.0
 IPart=  6 NShTot=        4407 NShNF=        4407 NShFF=           0 MinMC=       7
           NShCPU=        4407 NBCPU=         910 AvBCPU=         4.8
           NShGPU=           0 NBGPU=           0 AvBGPU=         0.0
 CoulSu:  NxtVal=            705 LenVP=      209701351 MinMC=       7.
 ReadGW:  IGet=0 IStart=           1 Next=           1 LGW=           0.
 Remaining memory in FofDFT     3199.98 Mw
 CkSvGd:  ISavGI=        -1 IRadAn=       5 IRASav=       5 ISavGd=        -1.
 CalDSu-InSpLW:  IPartL=    0 NPrtUS=   16 NPrtUL=    1 DoSpLW=F IThBeg=    0 IThEnd=   15 NThAct=   16.
 CalDSu:  NPrtUS=  16 ThrOK=T IAlg=1 DoDPD=T LenP=        3828 LenD1P=             0 GPUOK=F
          ISkipM=0 DoSpLW=F IThBeg=    0 IThEnd=   15.
 IPart=  0 IRanGd=          0 ScrnBf=T ScrnGd=T RCrit=4.00D+00 DoMicB=T.
 IPart= 12         9494 of        10184 points in       9 batches and       35 microbatches, Max-NSigAt=       7 Max-NSgAt2=       7
 IPart=  3         8337 of         8948 points in       8 batches and       56 microbatches, Max-NSigAt=       7 Max-NSgAt2=       7
 IPart= 11         9194 of         9630 points in       8 batches and       53 microbatches, Max-NSigAt=       7 Max-NSgAt2=       7
 IPart=  4         8695 of         9642 points in      10 batches and       67 microbatches, Max-NSigAt=       7 Max-NSgAt2=       7
 IPart=  7         8023 of         8260 points in       7 batches and       27 microbatches, Max-NSigAt=       7 Max-NSgAt2=       7
 IPart=  0        11146 of        12108 points in      11 batches and       60 microbatches, Max-NSigAt=       7 Max-NSgAt2=       7
 IPart=  5         9395 of        10030 points in       9 batches and       68 microbatches, Max-NSigAt=       7 Max-NSgAt2=       7
 IPart=  2         8750 of         9250 points in       9 batches and       64 microbatches, Max-NSigAt=       7 Max-NSgAt2=       7
 IPart= 10         8148 of         8976 points in       9 batches and       85 microbatches, Max-NSigAt=       7 Max-NSgAt2=       7
 IPart=  1         8765 of         9040 points in       7 batches and       26 microbatches, Max-NSigAt=       7 Max-NSgAt2=       7
 IPart= 14         8962 of         9770 points in       9 batches and       56 microbatches, Max-NSigAt=       7 Max-NSgAt2=       7
 IPart=  8         7966 of         8702 points in      10 batches and       78 microbatches, Max-NSigAt=       7 Max-NSgAt2=       7
 IPart= 15         9175 of        10156 points in      10 batches and       82 microbatches, Max-NSigAt=       7 Max-NSgAt2=       7
 IPart=  6         8156 of         8660 points in       8 batches and       43 microbatches, Max-NSigAt=       7 Max-NSgAt2=       7
 IPart=  9         9226 of         9714 points in       8 batches and       48 microbatches, Max-NSigAt=       7 Max-NSgAt2=       7
 IPart= 13         9959 of        10522 points in       8 batches and       27 microbatches, Max-NSigAt=       7 Max-NSgAt2=       7
 Polarizability after L703:
                1             2             3 
      1  0.372092D+02
      2 -0.118341D+01  0.192823D+02
      3  0.104583D-05  0.000000D+00  0.166107D+02
 Dipole Derivatives after L703:
                 1             2             3             4             5 
      1   0.674043D+00  0.745929D-01  0.000000D+00 -0.796529D+00  0.223099D-01
      2  -0.210791D-01  0.973753D-02  0.000000D+00  0.183205D-01  0.125607D+00
      3   0.000000D+00  0.106375D-05  0.220764D-01  0.000000D+00  0.000000D+00
                 6             7             8             9            10 
      1   0.000000D+00 -0.571905D-01 -0.112932D-01 -0.334071D-02 -0.571912D-01
      2   0.000000D+00 -0.161166D-01  0.234018D-01 -0.580469D-01 -0.161146D-01
      3   0.128079D+00 -0.403951D-01 -0.608793D-01 -0.348979D-01  0.403983D-01
                11            12            13            14            15 
      1  -0.112928D-01  0.334059D-02 -0.638161D-01 -0.832099D-02  0.000000D+00
      2   0.234114D-01  0.580418D-01  0.672016D-01 -0.468476D-01  0.468668D-05
      3   0.608742D-01 -0.349057D-01 -0.264552D-05  0.447895D-05  0.641924D-01
                16            17            18            19            20 
      1  -0.464503D-01  0.267985D-01  0.000000D+00  0.347134D+00 -0.927944D-01
      2  -0.377977D-01 -0.202877D+00  0.000000D+00  0.558581D-02  0.675663D-01
      3   0.000000D+00  0.000000D+00 -0.439586D+00  0.000000D+00  0.000000D+00
                21 
      1   0.000000D+00
      2   0.000000D+00
      3   0.295042D+00
 Hessian after L703:
                1             2             3             4             5 
      1  0.258787D+00
      2 -0.236049D-01  0.563714D+00
      3  0.000000D+00  0.000000D+00  0.567163D+00
      4  0.103284D-01  0.386281D-02  0.000000D+00 -0.297021D-01
      5 -0.140291D-01 -0.308756D-01  0.000000D+00 -0.685961D-03  0.580052D-01
      6  0.000000D+00  0.000000D+00 -0.247882D-01  0.000000D+00  0.000000D+00
      7 -0.448960D-01 -0.354508D-01 -0.619476D-01 -0.142663D-01 -0.961229D-02
      8 -0.309670D-01 -0.120476D+00 -0.119347D+00  0.148238D-03 -0.189083D-02
      9 -0.541364D-01 -0.119055D+00 -0.247040D+00  0.226882D-02 -0.282155D-03
     10 -0.448968D-01 -0.354473D-01  0.619524D-01 -0.142665D-01 -0.961101D-02
     11 -0.309640D-01 -0.120458D+00  0.119338D+00  0.148038D-03 -0.189062D-02
     12  0.541408D-01  0.119045D+00 -0.247058D+00 -0.226898D-02  0.282178D-03
     13 -0.661855D-01  0.105578D+00 -0.424214D-05 -0.197574D-01  0.188585D-01
     14  0.958405D-01 -0.294082D+00  0.100444D-04 -0.435581D-02 -0.132399D-04
     15 -0.377729D-05  0.101186D-04 -0.485867D-01  0.000000D+00  0.000000D+00
     16 -0.112223D+00 -0.173370D-01  0.000000D+00  0.711460D-01 -0.402755D-02
     17 -0.146643D-02 -0.399941D-03  0.000000D+00  0.103759D-01 -0.202733D-01
     18  0.000000D+00  0.000000D+00  0.722516D-03  0.000000D+00  0.000000D+00
     19 -0.913708D-03  0.239894D-02  0.000000D+00 -0.348208D-02  0.191075D-01
     20  0.519103D-02  0.257855D-02  0.000000D+00 -0.949326D-02 -0.306168D-02
     21  0.000000D+00  0.000000D+00 -0.412940D-03  0.000000D+00  0.000000D+00
                6             7             8             9            10 
      6  0.287573D-01
      7 -0.158382D-01  0.478183D-01
      8 -0.216610D-02  0.351127D-01  0.123003D+00
      9 -0.856636D-03  0.601412D-01  0.130481D+00  0.261574D+00
     10  0.158389D-01  0.327094D-02  0.444325D-02 -0.721595D-02  0.478192D-01
     11  0.216623D-02  0.444393D-02  0.966536D-02 -0.141178D-01  0.351094D-01
     12 -0.856676D-03  0.721578D-02  0.141157D-01 -0.167189D-01 -0.601460D-01
     13  0.000000D+00  0.430678D-02 -0.870175D-02 -0.149416D-03  0.430691D-02
     14  0.000000D+00  0.625635D-02 -0.106266D-01  0.227009D-02  0.625556D-02
     15  0.467661D-03  0.106369D-01 -0.236821D-01  0.233348D-02 -0.106373D-01
     16  0.000000D+00  0.337382D-02 -0.783648D-04 -0.475751D-03  0.337391D-02
     17  0.000000D+00 -0.187193D-03  0.169007D-03  0.572285D-03 -0.187149D-03
     18 -0.427635D-02  0.443073D-03  0.540608D-03  0.890394D-03 -0.443123D-03
     19  0.000000D+00  0.392419D-03  0.429764D-04 -0.432479D-03  0.392398D-03
     20  0.000000D+00 -0.562695D-03  0.156464D-03  0.131026D-03 -0.562713D-03
     21  0.155289D-02 -0.651146D-03  0.580530D-04 -0.182495D-03  0.651173D-03
               11            12            13            14            15 
     11  0.122983D+00
     12 -0.130471D+00  0.261594D+00
     13 -0.870196D-02  0.150109D-03  0.712091D-01
     14 -0.106249D-01 -0.226906D-02 -0.106064D+00  0.314222D+00
     15  0.236830D-01  0.233176D-02  0.426012D-05 -0.110475D-04  0.439722D-01
     16 -0.783730D-04  0.475844D-03  0.635141D-02  0.295317D-02  0.000000D+00
     17  0.168919D-03 -0.572234D-03  0.453402D-03  0.157527D-02  0.000000D+00
     18 -0.540540D-03  0.890476D-03  0.000000D+00  0.000000D+00 -0.138309D-03
     19  0.430323D-04  0.432432D-03 -0.231302D-03 -0.885851D-03  0.000000D+00
     20  0.156439D-03 -0.131039D-03 -0.142252D-02 -0.449516D-03  0.000000D+00
     21 -0.581056D-04 -0.182510D-03  0.000000D+00  0.000000D+00 -0.380070D-03
               16            17            18            19            20 
     16  0.607132D-01
     17 -0.511945D-01  0.514380D+00
     18  0.000000D+00  0.000000D+00  0.241909D-02
     19 -0.327353D-01  0.422059D-01  0.000000D+00  0.365775D-01
     20  0.697626D-01 -0.495620D+00  0.000000D+00 -0.629125D-01  0.496240D+00
     21  0.000000D+00  0.000000D+00 -0.507814D-03  0.000000D+00  0.000000D+00
               21 
     21  0.112937D-03
 Leave Link  703 at Mon Oct  7 08:21:39 2024, MaxMem=  3355443200 cpu:              61.3 elap:               3.9
 (Enter /usr/local/g16/l716.exe)
 FrcOut:
 IF    =        49 IFX   =        70 IFXYZ =        91
 IFFX  =       112 IFFFX =       343 IFLen =        21
 IFFLen=       231 IFFFLn=         0 IEDerv=       343
 LEDerv=      1061 IFroze=      1676 ICStrt=     15046
 Dipole        =-4.73544135D-01-5.44064733D-01 1.12208289D-07
 DipoleDeriv   = 6.74043304D-01-2.10791341D-02-5.58906048D-07
                 7.45929442D-02 9.73753487D-03 1.06375099D-06
                 4.70044541D-07 9.53814759D-07 2.20763581D-02
                -7.96528893D-01 1.83205410D-02 1.20549088D-07
                 2.23098890D-02 1.25607212D-01-3.54568953D-07
                 3.65123461D-07-4.16280161D-07 1.28078538D-01
                -5.71904710D-02-1.61165501D-02-4.03951457D-02
                -1.12931538D-02 2.34018220D-02-6.08793208D-02
                -3.34070706D-03-5.80469245D-02-3.48979365D-02
                -5.71911880D-02-1.61146463D-02 4.03982730D-02
                -1.12928306D-02 2.34113823D-02 6.08741734D-02
                 3.34059353D-03 5.80417686D-02-3.49057013D-02
                -6.38161314D-02 6.72016402D-02-2.64552350D-06
                -8.32099304D-03-4.68476438D-02 4.47895089D-06
                -1.34302142D-07 4.68668358D-06 6.41923906D-02
                -4.64502540D-02-3.77976653D-02 4.15492219D-08
                 2.67985350D-02-2.02876655D-01-2.80548912D-08
                -5.15648722D-07-1.97598894D-08-4.39585796D-01
                 3.47133633D-01 5.58581468D-03-8.49854282D-08
                -9.27943907D-02 6.75663484D-02-1.26141555D-08
                -7.16825961D-08-4.85596040D-08 2.95042147D-01
 Polarizability= 3.72091892D+01-1.18340967D+00 1.92823270D+01
                 1.04582977D-06 5.08499560D-07 1.66107171D+01
 Quadrupole    =-4.13765491D-01 8.97750549D-01-4.83985058D-01
                -1.75877805D+00 2.69552351D-07-1.74410468D-06
 VibFq2-Diag1:  N=     21 IV=           8 MDV=  3355426134 NE2=   159782196
 Full mass-weighted force constant matrix:
 Low frequencies ----1102.1382 -108.1465  -29.6922  -23.9117  -19.7316   -0.0012
 Low frequencies ---   -0.0011   -0.0010  267.0558
 OrtVCM:  Ph=1 IPass= 1 DotMx1= 0.00D+00
 OrtVCM:  IS=    1 I=    1 IndO=    1 Dot= 1.00D+00 DotN= 1.00D+00 ElMax1= 6.96D-01 ElMax1N= 6.96D-01
 OrtVCM:  Ph=2 NNew=    0 IAdd=    2 IPass= 1 DotMx2= 0.00D+00
 OrtVCM:  IS=    1 I=    2 IndO=    2 Dot= 1.00D+00 DotN= 1.00D+00 ElMax1= 6.96D-01 ElMax1N= 6.96D-01
 OrtVCM:  Ph=2 NNew=    0 IAdd=    3 IPass= 1 DotMx2= 0.00D+00
 OrtVCM:  IS=    1 I=    3 IndO=    3 Dot= 1.00D+00 DotN= 1.00D+00 ElMax1= 6.96D-01 ElMax1N= 6.96D-01
 OrtVCM:  Ph=2 NNew=    0 IAdd=    4 IPass= 1 DotMx2= 2.70D-17
 OrtVCM:  IS=    1 I=    4 IndO=    4 Dot= 1.00D+00 DotN= 1.00D+00 ElMax1= 4.99D-01 ElMax1N= 4.99D-01
 OrtVCM:  Ph=2 NNew=    0 IAdd=    5 IPass= 1 DotMx2= 1.33D-16
 OrtVCM:  IS=    1 I=    5 IndO=    5 Dot= 1.00D+00 DotN= 1.00D+00 ElMax1= 6.51D-01 ElMax1N= 6.51D-01
 OrtVCM:  Ph=2 NNew=    0 IAdd=    6 IPass= 1 DotMx2= 1.13D-16
 OrtVCM:  IS=    1 I=    6 IndO=    6 Dot= 1.00D+00 DotN= 1.00D+00 ElMax1= 6.45D-01 ElMax1N= 6.45D-01
 OrtVCM:  Ph=1 IPass= 1 DotMx1= 6.11D-01
 OrtVCM:  Ph=1 IPass= 2 DotMx1= 1.03D-16
 OrtVCM:  IS=    1 I=    1 IndO=    7 Dot= 6.36D-01 DotN= 6.36D-01 ElMax1= 6.36D-01 ElMax1N= 6.36D-01
 OrtVCM:  Ph=2 NNew=    0 IAdd=    2 IPass= 1 DotMx2= 1.21D-02
 OrtVCM:  Ph=2 NNew=    0 IAdd=    2 IPass= 2 DotMx2= 1.22D-18
 OrtVCM:  IS=    1 I=    2 IndO=    8 Dot= 2.70D-01 DotN= 2.70D-01 ElMax1= 2.70D-01 ElMax1N= 2.70D-01
 OrtVCM:  Ph=2 NNew=    0 IAdd=    3 IPass= 1 DotMx2= 4.77D-08
 OrtVCM:  Ph=2 NNew=    0 IAdd=    3 IPass= 2 DotMx2= 1.49D-18
 OrtVCM:  IS=    1 I=    3 IndO=    9 Dot= 2.64D-01 DotN= 2.64D-01 ElMax1= 2.64D-01 ElMax1N= 2.64D-01
 OrtVCM:  Ph=2 NNew=    0 IAdd=    4 IPass= 1 DotMx2= 1.32D-01
 OrtVCM:  Ph=2 NNew=    0 IAdd=    4 IPass= 2 DotMx2= 8.05D-18
 OrtVCM:  IS=    1 I=    4 IndO=   10 Dot= 9.52D-01 DotN= 9.52D-01 ElMax1= 9.52D-01 ElMax1N= 9.52D-01
 OrtVCM:  Ph=2 NNew=    0 IAdd=    5 IPass= 1 DotMx2= 2.16D-01
 OrtVCM:  Ph=2 NNew=    0 IAdd=    5 IPass= 2 DotMx2= 2.48D-17
 OrtVCM:  IS=    1 I=    5 IndO=   11 Dot= 9.23D-01 DotN= 9.23D-01 ElMax1= 9.23D-01 ElMax1N= 9.23D-01
 OrtVCM:  Ph=2 NNew=    0 IAdd=    6 IPass= 1 DotMx2= 2.17D-01
 OrtVCM:  Ph=2 NNew=    0 IAdd=    6 IPass= 2 DotMx2= 3.49D-17
 OrtVCM:  IS=    1 I=    6 IndO=   12 Dot= 9.18D-01 DotN= 9.18D-01 ElMax1= 9.18D-01 ElMax1N= 9.18D-01
 OrtVCM:  Ph=2 NNew=    0 IAdd=    7 IPass= 1 DotMx2= 1.46D-01
 OrtVCM:  Ph=2 NNew=    0 IAdd=    7 IPass= 2 DotMx2= 3.23D-17
 OrtVCM:  IS=    1 I=    7 IndO=   13 Dot= 8.96D-01 DotN= 8.96D-01 ElMax1= 8.96D-01 ElMax1N= 8.96D-01
 OrtVCM:  Ph=2 NNew=    0 IAdd=    8 IPass= 1 DotMx2= 4.47D-01
 OrtVCM:  Ph=2 NNew=    0 IAdd=    8 IPass= 2 DotMx2= 7.79D-17
 OrtVCM:  IS=    1 I=    8 IndO=   14 Dot= 5.05D-01 DotN= 5.05D-01 ElMax1= 5.05D-01 ElMax1N= 5.05D-01
 OrtVCM:  Ph=2 NNew=    0 IAdd=    9 IPass= 1 DotMx2= 4.63D-01
 OrtVCM:  Ph=2 NNew=    0 IAdd=    9 IPass= 2 DotMx2= 2.04D-17
 OrtVCM:  IS=    1 I=    9 IndO=   15 Dot= 5.88D-01 DotN= 5.88D-01 ElMax1= 5.88D-01 ElMax1N= 5.88D-01
 OrtVCM:  Ph=2 NNew=    0 IAdd=   10 IPass= 1 DotMx2= 1.46D-01
 OrtVCM:  Ph=2 NNew=    0 IAdd=   10 IPass= 2 DotMx2= 5.75D-17
 OrtVCM:  IS=    1 I=   10 IndO=   16 Dot= 8.69D-01 DotN= 8.69D-01 ElMax1= 8.69D-01 ElMax1N= 8.69D-01
 OrtVCM:  Ph=2 NNew=    0 IAdd=   11 IPass= 1 DotMx2= 4.47D-01
 OrtVCM:  Ph=2 NNew=    0 IAdd=   11 IPass= 2 DotMx2= 4.13D-17
 OrtVCM:  IS=    1 I=   11 IndO=   17 Dot= 4.65D-01 DotN= 4.65D-01 ElMax1= 4.65D-01 ElMax1N= 4.65D-01
 OrtVCM:  Ph=2 NNew=    0 IAdd=   12 IPass= 1 DotMx2= 5.37D-01
 OrtVCM:  Ph=2 NNew=    0 IAdd=   12 IPass= 2 DotMx2= 2.81D-16
 OrtVCM:  IS=    1 I=   12 IndO=   18 Dot= 2.03D-01 DotN= 2.03D-01 ElMax1= 3.34D-01 ElMax1N= 3.34D-01
 OrtVCM:  Ph=2 NNew=    0 IAdd=   13 IPass= 1 DotMx2= 1.65D-01
 OrtVCM:  Ph=2 NNew=    0 IAdd=   13 IPass= 2 DotMx2= 9.66D-17
 OrtVCM:  IS=    1 I=   13 IndO=   19 Dot= 8.60D-01 DotN= 8.60D-01 ElMax1= 8.60D-01 ElMax1N= 8.60D-01
 OrtVCM:  Ph=2 NNew=    0 IAdd=   14 IPass= 1 DotMx2= 5.39D-01
 OrtVCM:  Ph=2 NNew=    0 IAdd=   14 IPass= 2 DotMx2= 1.03D-16
 OrtVCM:  IS=    1 I=   14 IndO=   20 Dot= 9.46D-02 DotN= 9.46D-02 ElMax1= 2.81D-01 ElMax1N= 2.81D-01
 OrtVCM:  Ph=2 NNew=    0 IAdd=   15 IPass= 1 DotMx2= 4.66D-01
 OrtVCM:  Ph=2 NNew=    0 IAdd=   15 IPass= 2 DotMx2= 1.02D-16
 OrtVCM:  IS=    1 I=   15 IndO=    0 Dot= 3.43D-33 DotN= 3.43D-33 ElMax1= 4.68D-17 ElMax1N= 4.68D-17
 SchOr2:  IPass= 1 Test2A= 1.00D-01 IOff=     0 NDo=    15 NNew=    14
 OrtVCM:  Ph=1 IPass= 1 DotMx1= 6.96D-01
 OrtVCM:  Ph=1 IPass= 2 DotMx1= 7.41D-17
 OrtVCM:  IS=    1 I=    1 IndO=    0 Dot= 9.54D-04 DotN= 9.54D-04 ElMax1= 2.97D-02 ElMax1N= 2.97D-02
 SchOr2:  IPass= 1 Test2A= 1.00D-01 IOff=    15 NDo=     1 NNew=     0
 OrtVCM:  Ph=1 IPass= 1 DotMx1= 6.96D-01
 OrtVCM:  Ph=1 IPass= 2 DotMx1= 1.43D-16
 OrtVCM:  IS=    1 I=    1 IndO=   21 Dot= 5.83D-02 DotN= 5.83D-02 ElMax1= 2.32D-01 ElMax1N= 2.32D-01
 SchOr2:  IPass= 1 Test2A= 1.00D-01 IOff=    16 NDo=     1 NNew=     1
 VibFq2-Diag2:  N=     15 IV=           8 MDV=  3355426134 NE2=   223695075
 ******    2 imaginary frequencies (negative Signs) ****** 
 Dipole derivative wrt mode   1: -2.27495D+01  9.31292D-01  1.25257D-06
 Vibrational polarizability contributions from mode   1      11.4658344       0.0192147       0.0000000
 Dipole derivative wrt mode   2:  5.12636D-06  7.87250D-08  7.96460D+00
 Vibrational polarizability contributions from mode   2       0.0000000       0.0000000     466.8942969
 Dipole derivative wrt mode   3:  4.68551D-05  6.65385D-07  3.43587D+00
 Vibrational polarizability contributions from mode   3       0.0000000       0.0000000       4.4581111
 Dipole derivative wrt mode   4: -2.91044D+00  5.12682D-01  4.47694D-05
 Vibrational polarizability contributions from mode   4       1.7314087       0.0537253       0.0000000
 Dipole derivative wrt mode   5:  7.87265D+00  2.71674D-01 -1.85341D-05
 Vibrational polarizability contributions from mode   5       3.3534919       0.0039935       0.0000000
 Dipole derivative wrt mode   6:  1.23027D+01 -8.67659D-01  1.75907D-05
 Vibrational polarizability contributions from mode   6       5.1941570       0.0258353       0.0000000
 Dipole derivative wrt mode   7: -4.97741D-05 -3.73955D-05  4.71540D+00
 Vibrational polarizability contributions from mode   7       0.0000000       0.0000000       0.4706447
 Dipole derivative wrt mode   8:  2.12926D+00 -7.80209D-02 -1.83884D-05
 Vibrational polarizability contributions from mode   8       0.0781356       0.0001049       0.0000000
 Dipole derivative wrt mode   9:  4.02287D+00  4.45970D+00  1.01479D-05
 Vibrational polarizability contributions from mode   9       0.2255167       0.2771524       0.0000000
 Dipole derivative wrt mode  10: -6.69734D-05 -8.99239D-06  1.44966D+00
 Vibrational polarizability contributions from mode  10       0.0000000       0.0000000       0.0272229
 Dipole derivative wrt mode  11:  2.95565D+00  1.12757D+00  2.11280D-05
 Vibrational polarizability contributions from mode  11       0.1085398       0.0157969       0.0000000
 Dipole derivative wrt mode  12:  1.51805D+00  1.43683D-01  5.28086D-05
 Vibrational polarizability contributions from mode  12       0.0065325       0.0000585       0.0000000
 Dipole derivative wrt mode  13: -3.51709D-01 -2.75865D+00 -7.81216D-04
 Vibrational polarizability contributions from mode  13       0.0003239       0.0199244       0.0000000
 Dipole derivative wrt mode  14:  1.12425D-04  6.63998D-04 -3.05777D+00
 Vibrational polarizability contributions from mode  14       0.0000000       0.0000000       0.0243929
 Dipole derivative wrt mode  15: -3.81485D+00  2.32167D+00 -3.27343D-07
 Vibrational polarizability contributions from mode  15       0.0278448       0.0103131       0.0000000
 Diagonal vibrational polarizability:
       22.1917854       0.4261189     471.8746685
 NorSel:  MapVib=      1      2      3      4      5      6      7      8      9     10
 NorSel:  MapVib=     11     12     13     14     15
 Harmonic frequencies (cm**-1), IR intensities (KM/Mole), Raman scattering
 activities (A**4/AMU), depolarization ratios for plane and unpolarized
 incident light, reduced masses (AMU), force constants (mDyne/A),
 and normal coordinates:
                      1                      2                      3
                      A                      A                      A
 Frequencies --  -1102.1380               -60.4674               266.9491
 Red. masses --      1.1301                 1.0379                 1.0750
 Frc consts  --      0.8088                 0.0022                 0.0451
 IR Inten    --    518.4079                63.4348                11.8052
  Atom  AN      X      Y      Z        X      Y      Z        X      Y      Z
     1   6    -0.00  -0.01  -0.00    -0.00  -0.00  -0.01     0.00  -0.00   0.04
     2   1     0.95  -0.02  -0.00    -0.00  -0.00  -0.16     0.00  -0.00   0.63
     3   1     0.14  -0.00  -0.03    -0.12   0.22  -0.11     0.50   0.07  -0.14
     4   1     0.14  -0.00   0.03     0.12  -0.22  -0.11    -0.50  -0.07  -0.14
     5   1     0.22   0.07  -0.00    -0.00   0.00   0.31     0.00   0.00  -0.12
     6   8    -0.09  -0.00   0.00     0.00   0.00  -0.04    -0.00   0.00  -0.06
     7   1     0.03   0.03   0.00     0.00   0.00   0.85     0.00   0.00   0.18
                      4                      5                      6
                      A                      A                      A
 Frequencies --    362.8485               705.2431               885.5425
 Red. masses --      1.1124                 2.8240                 1.2553
 Frc consts  --      0.0863                 0.8276                 0.5800
 IR Inten    --      8.7335                62.0524               152.1092
  Atom  AN      X      Y      Z        X      Y      Z        X      Y      Z
     1   6     0.07   0.03   0.00     0.31  -0.05  -0.00     0.06   0.07  -0.00
     2   1    -0.00   0.48   0.00    -0.44  -0.17  -0.00    -0.13  -0.15   0.00
     3   1     0.35  -0.11   0.01    -0.12   0.12   0.02     0.20  -0.05   0.03
[...]
                                                                                                       X     X                       
                                                                                                       X     X                       
                                                                                                       X                             
                                                                                                       X                             
                                                                                                       X                             
                                                                                                       X                             
                                                                                                       X                             
                                                                                                       X                             
                                                                                                       X                             
                                                                                                       X                             
                                                                                                       X                             
                                                                                                       X                             
                                                                                                       X                             
                                                                                                       X                             
 
 Forces in standard orientation:
 -------------------------------------------------------------------
 Center     Atomic                   Forces (Hartrees/Bohr)
 Number     Number              X              Y              Z
 -------------------------------------------------------------------
      1        6          -0.000959212   -0.000477374    0.000000309
      2        1          -0.000004596    0.000501426   -0.000000000
      3        1           0.000289455    0.000485448    0.000705238
      4        1           0.000289576    0.000485546   -0.000705567
      5        1           0.000577925   -0.000834965    0.000000013
      6        8          -0.000140072   -0.000196766    0.000000005
      7        1          -0.000053077    0.000036686    0.000000002
 -------------------------------------------------------------------
 Cartesian Forces:  Max     0.000959212 RMS     0.000443327
 ***** Axes restored to original set *****
 Rotating derivatives, DoTrsp=F IDiff=-2 LEDeriv=   1060 LFDPrp=       0 LDFDPr=       0.
 -------------------------------------------------------------------
 Center     Atomic                   Forces (Hartrees/Bohr)
 Number     Number              X              Y              Z
 -------------------------------------------------------------------
      1        6          -0.000419279    0.000972837    0.000160521
      2        1           0.000437135   -0.000090791    0.000228296
      3        1           0.000769643   -0.000115885   -0.000459375
      4        1           0.000078684   -0.000600812    0.000671019
      5        1          -0.000725972   -0.000373342   -0.000603941
      6        8          -0.000172015    0.000166124   -0.000033918
      7        1           0.000031804    0.000041868    0.000037397
 -------------------------------------------------------------------
 Cartesian Forces:  Max     0.000972837 RMS     0.000443327
 Z-matrix is all fixed cartesians, so copy forces.
 Force constants in Cartesian coordinates: 
                1             2             3             4             5 
      1  0.564399D+00
      2  0.204740D-01  0.297922D+00
      3  0.709109D-02 -0.102955D+00  0.527343D+00
      4 -0.294448D-01  0.121436D-01  0.236158D-02  0.509829D-01
      5 -0.219230D-02  0.293028D-02  0.105475D-01 -0.409935D-02 -0.198888D-01
      6 -0.378668D-02  0.193113D-01 -0.188209D-01  0.118290D-01 -0.233690D-01
      7 -0.253036D+00  0.293048D-02  0.127712D+00 -0.273877D-02 -0.156343D-02
      8  0.101662D-01 -0.308416D-01 -0.401829D-03  0.151753D-01 -0.943970D-02
      9  0.130464D+00  0.421081D-02 -0.128535D+00  0.565508D-02 -0.209906D-02
     10 -0.490377D-01  0.368975D-02 -0.747279D-02 -0.602568D-03  0.176349D-02
     11  0.363861D-02 -0.135273D+00  0.149508D+00  0.664293D-03 -0.183364D-01
     12 -0.714312D-02  0.140503D+00 -0.228102D+00  0.142799D-03 -0.895648D-02
     13 -0.234576D+00 -0.363052D-01 -0.129282D+00  0.144793D-03  0.362316D-02
     14 -0.441072D-01 -0.371833D-01 -0.220759D-01 -0.149767D-01 -0.141323D-01
     15 -0.132628D+00 -0.173057D-01 -0.137096D+00 -0.662064D-02 -0.404647D-02
     16 -0.187416D-03  0.172420D-02  0.183140D-03 -0.164154D-01 -0.590983D-02
     17  0.144404D-01 -0.981481D-01 -0.335752D-01  0.563083D-02  0.600637D-01
     18  0.563689D-02 -0.413489D-01 -0.135650D-01 -0.500605D-02  0.239808D-01
     19  0.188321D-02 -0.465681D-02 -0.593469D-03 -0.192615D-02  0.837827D-02
     20 -0.241963D-02  0.593711D-03 -0.104746D-02 -0.145379D-01 -0.119674D-02
     21  0.365894D-03 -0.241509D-02 -0.122502D-02 -0.836173D-02  0.394263D-02
                6             7             8             9            10 
      6  0.259664D-01
      7  0.602699D-03  0.268096D+00
      8 -0.130977D-01 -0.466728D-02  0.329885D-01
      9 -0.483525D-02 -0.140243D+00 -0.989597D-03  0.131311D+00
     10 -0.151230D-02  0.336036D-02 -0.167864D-01  0.204675D-01  0.448154D-01
     11  0.116040D-01  0.811773D-03  0.268926D-02 -0.280249D-02 -0.456022D-02
     12  0.192519D-02 -0.276632D-02  0.968337D-02 -0.983225D-02  0.773774D-02
     13  0.135646D-02 -0.166505D-01 -0.479057D-02 -0.161294D-01  0.160376D-02
     14 -0.154180D-01  0.188293D-02  0.119084D-02  0.102640D-02  0.163339D-01
     15 -0.531553D-02  0.149251D-01  0.319109D-02  0.114733D-01 -0.191638D-01
     16 -0.995551D-02  0.816530D-03  0.182695D-03 -0.587482D-03 -0.133847D-03
     17  0.310361D-01  0.498097D-03  0.285706D-02  0.737162D-03 -0.149286D-03
     18  0.294809D-02 -0.421631D-03  0.159162D-02  0.759625D-03 -0.100201D-03
     19  0.146637D-02  0.152554D-03  0.720125D-03  0.372929D-03 -0.538973D-05
     20 -0.100667D-01  0.107429D-03  0.555662D-03 -0.832261D-04 -0.291244D-03
     21 -0.186799D-02  0.190484D-03  0.230557D-04 -0.341827D-03  0.438431D-04
               11            12            13            14            15 
     11  0.143012D+00
     12 -0.153545D+00  0.244569D+00
     13 -0.961656D-03  0.161081D-02  0.248743D+00
     14  0.503139D-02  0.107789D-01  0.403836D-01  0.397450D-01
     15 -0.604018D-02 -0.106214D-01  0.142514D+00  0.228770D-01  0.140915D+00
     16  0.340527D-03  0.140469D-03  0.117419D-02 -0.668816D-03  0.515636D-03
     17  0.298141D-02  0.121640D-02 -0.267165D-02  0.600736D-02  0.100232D-02
     18  0.468401D-03  0.158574D-02 -0.343388D-03  0.222688D-02  0.606824D-03
     19  0.666816D-04  0.277630D-03 -0.439670D-03  0.115230D-02  0.457741D-03
     20 -0.104717D-03  0.320737D-03  0.722250D-03 -0.659042D-03  0.321929D-03
     21  0.807900D-03  0.476433D-03  0.273344D-03  0.584745D-03  0.378245D-04
               16            17            18            19            20 
     16  0.391240D+00
     17 -0.436750D-01  0.522742D-01
     18  0.218966D+00 -0.531827D-02  0.133999D+00
     19 -0.376494D+00  0.259266D-01 -0.218732D+00  0.376829D+00
     20  0.480062D-01 -0.260356D-01  0.183994D-01 -0.315871D-01  0.268467D-01
     21 -0.209263D+00  0.490147D-02 -0.126334D+00  0.216751D+00 -0.784472D-02
               21 
     21  0.129255D+00
 Final forces over variables, Energy=-1.16253396D+02:
 -4.19278814D-04 4.37135003D-04 7.69642726D-04 7.86837383D-05
 -7.25971689D-04-1.72015456D-04 3.18044918D-05 9.72836994D-04
 -9.07906957D-05-1.15884800D-04-6.00812171D-04-3.73341666D-04
  1.66124470D-04 4.18678680D-05 1.60521347D-04 2.28296131D-04
 -4.59375090D-04 6.71019153D-04-6.03940912D-04-3.39177546D-05
  3.73971249D-05
 Leave Link  716 at Mon Oct  7 08:21:39 2024, MaxMem=  3355443200 cpu:               0.2 elap:               0.0
 (Enter /usr/local/g16/l103.exe)

 GradGradGradGradGradGradGradGradGradGradGradGradGradGradGradGradGradGrad
 Berny optimization.
 Search for a local minimum.
 Step number   1 out of a maximum of    2
 All quantities printed in internal units (Hartrees-Bohrs-Radians)
 Second derivative matrix not updated -- analytic derivatives used.
 ITU=  0
     Eigenvalues ---   -0.08202  -0.00016   0.00419   0.00580   0.03592
     Eigenvalues ---    0.05846   0.06944   0.09026   0.10478   0.10753
     Eigenvalues ---    0.21524   0.46648   0.75836   0.76112   0.83930
 Eigenvalue     1 is  -8.20D-02 should be greater than     0.000000 Eigenvector:
                          Y2        Y6        Z2        Y5        Z6
   1                    0.78856  -0.37209   0.35193   0.19858  -0.15619
                          Y3        Y4        Z4        Y1        X5
   1                    0.12917   0.10085   0.08754  -0.07343  -0.05755
 Eigenvalue     2 is  -1.56D-04 should be greater than     0.000000 Eigenvector:
                          Z7        X7        Y7        Z3        Z5
   1                    0.64165  -0.39226  -0.27519  -0.24238   0.23480
                          X4        Z2        Z6        Y4        X5
   1                    0.22967  -0.20912  -0.15998   0.15274  -0.14355
 Angle between quadratic step and forces=  73.91 degrees.
 Linear search not attempted -- first point.
 B after Tr=    -0.000893    0.000297   -0.000416
         Rot=    1.000000    0.000081    0.000057   -0.000133 Ang=   0.02 deg.
 Variable       Old X    -DE/DX   Delta X   Delta X   Delta X     New X
                                 (Linear)    (Quad)   (Total)
    X1       -0.04608  -0.00042   0.00000   0.00006  -0.00013  -0.04621
    Y1       -2.29971   0.00097   0.00000  -0.00171  -0.00156  -2.30127
    Z1       -0.81965   0.00016   0.00000  -0.00070  -0.00075  -0.82040
    X2       -0.31796   0.00044   0.00000   0.01722   0.01637  -0.30159
    Y2       -0.11776  -0.00009   0.00000  -0.00494  -0.00473  -0.12249
    Z2       -0.05007   0.00023   0.00000   0.00842   0.00799  -0.04208
    X3        1.69425   0.00077   0.00000  -0.00020  -0.00025   1.69400
    Y3       -2.33701  -0.00012   0.00000  -0.01052  -0.01008  -2.34709
    Z3       -1.91297  -0.00046   0.00000  -0.00599  -0.00583  -1.91880
    X4        0.01337   0.00008   0.00000  -0.00127  -0.00132   0.01205
    Y4       -3.51613  -0.00060   0.00000  -0.01127  -0.01084  -3.52697
    Z4        0.83634   0.00067   0.00000  -0.00425  -0.00410   0.83224
    X5       -1.71930  -0.00073   0.00000  -0.00507  -0.00505  -1.72435
    Y5       -2.61045  -0.00037   0.00000   0.00658   0.00610  -2.60434
    Z5       -1.97590  -0.00060   0.00000  -0.00029  -0.00048  -1.97637
    X6       -0.25782  -0.00017   0.00000  -0.00240  -0.00396  -0.26178
    Y6        2.10193   0.00017   0.00000   0.00250   0.00288   2.10481
    Z6        0.93866  -0.00003   0.00000  -0.00039  -0.00118   0.93748
    X7        1.32767   0.00003   0.00000  -0.00402  -0.00565   1.32202
    Y7        1.97115   0.00004   0.00000   0.01729   0.01823   1.98938
    Z7        1.85183   0.00004   0.00000   0.00494   0.00435   1.85618
         Item               Value     Threshold  Converged?
 Maximum Force            0.000973     0.000450     NO 
 RMS     Force            0.000443     0.000300     NO 
 Maximum Displacement     0.018234     0.001800     NO 
 RMS     Displacement     0.007239     0.001200     NO 
 Predicted change in Energy=-9.821567D-06
 GradGradGradGradGradGradGradGradGradGradGradGradGradGradGradGradGradGrad

 Leave Link  103 at Mon Oct  7 08:21:39 2024, MaxMem=  3355443200 cpu:               0.9 elap:               0.1
 (Enter /usr/local/g16/l9999.exe)

 ----------------------------------------------------------------------

 Electric dipole moment (input orientation):
 (Debye = 10**-18 statcoulomb cm , SI units = C m)
                  (au)            (Debye)         (10**-30 SI)
   Tot        0.721284D+00      0.183332D+01      0.611530D+01
   x          0.475927D+00      0.120969D+01      0.403508D+01
   y         -0.538657D+00     -0.136913D+01     -0.456693D+01
   z          0.599323D-01      0.152333D+00      0.508127D+00

 Dipole polarizability, Alpha (input orientation).
 (esu units = cm**3 , SI units = C**2 m**2 J**-1)
 Alpha(0;0):
               (au)            (10**-24 esu)      (10**-40 SI)
   iso        0.243674D+02      0.361088D+01      0.401764D+01
   aniso      0.195091D+02      0.289095D+01      0.321662D+01
   xx         0.186346D+02      0.276136D+01      0.307242D+01
   yx         0.444202D+00      0.658240D-01      0.732391D-01
   yy         0.337206D+02      0.499688D+01      0.555978D+01
   zx         0.142774D+01      0.211569D+00      0.235402D+00
   zy         0.760954D+01      0.112762D+01      0.125464D+01
   zz         0.207471D+02      0.307440D+01      0.342073D+01

 ----------------------------------------------------------------------

 Dipole orientation:
     6         -0.53300832         -1.74860247          1.61892023
     1         -0.21068219         -0.23916939         -0.12601728
     1          1.21218699         -1.79140036          2.70425836
     1         -2.14355590         -1.07490712          2.70416865
     1         -0.91206655         -3.52407347          0.65086268
     8          0.18276130          1.60328374         -1.66185041
     1          0.46887748          2.94313995         -0.44214911

 Electric dipole moment (dipole orientation):
 (Debye = 10**-18 statcoulomb cm , SI units = C m)
                  (au)            (Debye)         (10**-30 SI)
   Tot        0.721284D+00      0.183332D+01      0.611530D+01
   x          0.000000D+00      0.000000D+00      0.000000D+00
   y          0.000000D+00      0.000000D+00      0.000000D+00
   z          0.721284D+00      0.183332D+01      0.611530D+01

 Dipole polarizability, Alpha (dipole orientation).
 (esu units = cm**3 , SI units = C**2 m**2 J**-1)
 Alpha(0;0):
               (au)            (10**-24 esu)      (10**-40 SI)
   iso        0.243674D+02      0.361088D+01      0.401764D+01
   aniso      0.195091D+02      0.289095D+01      0.321662D+01
   xx         0.172232D+02      0.255221D+01      0.283972D+01
   yx         0.286810D+01      0.425009D+00      0.472886D+00
   yy         0.300418D+02      0.445173D+01      0.495322D+01
   zx        -0.181988D+01     -0.269679D+00     -0.300058D+00
   zy        -0.852237D+01     -0.126288D+01     -0.140515D+01
   zz         0.258373D+02      0.382869D+01      0.425999D+01

 ----------------------------------------------------------------------

 Test job not archived.
 1\1\GINC-N131\Freq\UB3LYP\6-31G(2df,p)\C1H5O1(2)\ALON\07-Oct-2024\0\\#
 P guess=read ub3lyp/6-31g(2df,p) freq IOp(7/33=1) integral=(grid=ultra
 fine, Acc2E=12) IOp(2/9=2000) scf=(direct,tight)\\TS0\\0,2\C,-0.024385
 ,-1.216954,-0.433739\H,-0.168255,-0.062314,-0.026495\H,0.89656,-1.2366
 9,-1.012298\H,0.007074,-1.860654,0.442571\H,-0.909812,-1.381389,-1.045
 6\O,-0.13643,1.112294,0.496718\H,0.702574,1.043088,0.979945\\Version=E
 M64L-G16RevC.01\State=2-A\HF=-116.253396\S2=0.756767\S2-1=0.\S2A=0.750
 02\RMSD=3.933e-09\RMSF=4.433e-04\ZeroPoint=0.0504609\Thermal=0.0543271
 \ETot=-116.1990689\HTot=-116.1981247\GTot=-116.2276309\Dipole=0.475927
 3,-0.5386574,0.0599323\DipoleDeriv=0.0128644,-0.0597935,-0.0312765,0.0
 168635,0.58253,0.2506727,0.0015997,0.2038112,0.1104628,0.1263092,-0.01
 4614,-0.0073488,-0.0114175,-0.6471545,-0.339457,-0.0059779,-0.3414109,
 -0.0219978,-0.0415259,-0.0118883,0.0572617,0.0098252,-0.034874,-0.0547
 529,0.0633356,-0.0248205,0.0077133,0.0601916,0.0108925,-0.0035993,-0.0
 030943,-0.0780102,0.040394,-0.0063594,0.0057343,-0.0508669,-0.0200286,
 0.0253733,-0.0406097,-0.0351374,-0.0378283,-0.0652365,-0.0665614,-0.02
 82416,0.0113856,-0.2597002,-0.0617947,0.0834672,-0.0100377,-0.1004069,
 0.1393287,0.1056644,0.1076875,-0.3288057,0.1218896,0.1118246,-0.057894
 5,0.0329982,0.3157438,0.029051,-0.0917011,0.0772399,0.2721088\Polar=18
 .6345556,0.4442022,33.7206097,1.4277375,7.6095408,20.7470681\Quadrupol
 e=0.5558349,-0.9880553,0.4322203,1.1829773,1.1430222,0.5070058\PG=C01 
 [X(C1H5O1)]\NImag=2\\0.56439860,0.02047396,0.29792219,0.00709109,-0.10
 295494,0.52734349,-0.02944479,0.01214357,0.00236158,0.05098286,-0.0021
 9230,0.00293028,0.01054753,-0.00409935,-0.01988882,-0.00378668,0.01931
 127,-0.01882088,0.01182896,-0.02336898,0.02596637,-0.25303620,0.002930
 48,0.12771218,-0.00273877,-0.00156343,0.00060270,0.26809602,0.01016620
 ,-0.03084162,-0.00040183,0.01517526,-0.00943970,-0.01309771,-0.0046672
 8,0.03298849,0.13046386,0.00421081,-0.12853461,0.00565508,-0.00209906,
 -0.00483525,-0.14024251,-0.00098960,0.13131105,-0.04903774,0.00368975,
 -0.00747279,-0.00060257,0.00176349,-0.00151230,0.00336036,-0.01678643,
 0.02046752,0.04481542,0.00363861,-0.13527318,0.14950779,0.00066429,-0.
 01833644,0.01160405,0.00081177,0.00268926,-0.00280249,-0.00456022,0.14
 301227,-0.00714312,0.14050254,-0.22810231,0.00014280,-0.00895648,0.001
 92519,-0.00276632,0.00968337,-0.00983225,0.00773774,-0.15354547,0.2445
 6862,-0.23457567,-0.03630516,-0.12928173,0.00014479,0.00362316,0.00135
 646,-0.01665049,-0.00479057,-0.01612941,0.00160376,-0.00096166,0.00161
 081,0.24874308,-0.04410725,-0.03718329,-0.02207593,-0.01497673,-0.0141
 3225,-0.01541805,0.00188293,0.00119084,0.00102640,0.01633395,0.0050313
 9,0.01077890,0.04038362,0.03974500,-0.13262793,-0.01730573,-0.13709570
 ,-0.00662064,-0.00404647,-0.00531553,0.01492510,0.00319109,0.01147327,
 -0.01916382,-0.00604018,-0.01062143,0.14251391,0.02287705,0.14091474,-
 0.00018742,0.00172420,0.00018314,-0.01641538,-0.00590983,-0.00995551,0
 .00081653,0.00018270,-0.00058748,-0.00013385,0.00034053,0.00014047,0.0
 0117419,-0.00066882,0.00051564,0.39123973,0.01444042,-0.09814808,-0.03
 357516,0.00563083,0.06006367,0.03103608,0.00049810,0.00285706,0.000737
 16,-0.00014929,0.00298141,0.00121640,-0.00267165,0.00600736,0.00100232
 ,-0.04367497,0.05227420,0.00563689,-0.04134886,-0.01356497,-0.00500605
 ,0.02398083,0.00294809,-0.00042163,0.00159162,0.00075962,-0.00010020,0
 .00046840,0.00158574,-0.00034339,0.00222688,0.00060682,0.21896635,-0.0
 0531827,0.13399871,0.00188321,-0.00465681,-0.00059347,-0.00192615,0.00
 837827,0.00146637,0.00015255,0.00072012,0.00037293,-0.00000539,0.00006
 668,0.00027763,-0.00043967,0.00115230,0.00045774,-0.37649380,0.0259265
 6,-0.21873197,0.37682924,-0.00241963,0.00059371,-0.00104746,-0.0145378
 7,-0.00119674,-0.01006666,0.00010743,0.00055566,-0.00008323,-0.0002912
 4,-0.00010472,0.00032074,0.00072225,-0.00065904,0.00032193,0.04800619,
 -0.02603562,0.01839939,-0.03158713,0.02684674,0.00036589,-0.00241509,-
 0.00122502,-0.00836173,0.00394263,-0.00186799,0.00019048,0.00002306,-0
 .00034183,0.00004384,0.00080790,0.00047643,0.00027334,0.00058475,0.000
 03782,-0.20926260,0.00490147,-0.12633402,0.21675077,-0.00784472,0.1292
 5460\\0.00041928,-0.00097284,-0.00016052,-0.00043714,0.00009079,-0.000
 22830,-0.00076964,0.00011588,0.00045938,-0.00007868,0.00060081,-0.0006
 7102,0.00072597,0.00037334,0.00060394,0.00017202,-0.00016612,0.0000339
 2,-0.00003180,-0.00004187,-0.00003740\\\@


 HAPPINESS IS NOT HAVING WHAT YOU WANT --
 HAPPINESS IS WANTING WHAT YOU HAVE!

              -- FROM MRS. SEVERN'S DESK
 Job cpu time:       0 days  0 hours  3 minutes 43.9 seconds.
 Elapsed time:       0 days  0 hours  0 minutes 14.4 seconds.
 File lengths (MBytes):  RWF=     13 Int=      0 D2E=      0 Chk=      3 Scr=      1
 Normal termination of Gaussian 16 at Mon Oct  7 08:21:39 2024.
