 Entering Gaussian System, Link 0=g16
 Initial command:
 /usr/local/g16-gpu/g16/l1.exe "/gtmp/calvin.p/scratch/g16/4410953.zeus-master/Gau-3588346.inp" -scrdir="/gtmp/calvin.p/scratch/g16/4410953.zeus-master/"
 Entering Link 1 = /usr/local/g16-gpu/g16/l1.exe PID=   3588358.
  
 Copyright (c) 1988-2021, Gaussian, Inc.  All Rights Reserved.
  
 This is part of the Gaussian(R) 16 program.  It is based on
 the Gaussian(R) 09 system (copyright 2009, Gaussian, Inc.),
 the Gaussian(R) 03 system (copyright 2003, Gaussian, Inc.),
 the Gaussian(R) 98 system (copyright 1998, Gaussian, Inc.),
 the Gaussian(R) 94 system (copyright 1995, Gaussian, Inc.),
 the Gaussian 92(TM) system (copyright 1992, Gaussian, Inc.),
 the Gaussian 90(TM) system (copyright 1990, Gaussian, Inc.),
 the Gaussian 88(TM) system (copyright 1988, Gaussian, Inc.),
 the Gaussian 86(TM) system (copyright 1986, Carnegie Mellon
 University), and the Gaussian 82(TM) system (copyright 1983,
 Carnegie Mellon University). Gaussian is a federally registered
 trademark of Gaussian, Inc.
  
 This software contains proprietary and confidential information,
 including trade secrets, belonging to Gaussian, Inc.
  
 This software is provided under written license and may be
 used, copied, transmitted, or stored only in accord with that
 written license.
  
 The following legend is applicable only to US Government
 contracts under FAR:
  
                    RESTRICTED RIGHTS LEGEND
  
 Use, reproduction and disclosure by the US Government is
 subject to restrictions as set forth in subparagraphs (a)
 and (c) of the Commercial Computer Software - Restricted
 Rights clause in FAR 52.227-19.
  
 Gaussian, Inc.
 340 Quinnipiac St., Bldg. 40, Wallingford CT 06492
  
  
 ---------------------------------------------------------------
 Warning -- This program may not be used in any manner that
 competes with the business of Gaussian, Inc. or will provide
 assistance to any competitor of Gaussian, Inc.  The licensee
 of this program is prohibited from giving any competitor of
 Gaussian, Inc. access to this program.  By using this program,
 the user acknowledges that Gaussian, Inc. is engaged in the
 business of creating and licensing software in the field of
 computational chemistry and represents and warrants to the
 licensee that it is not a competitor of Gaussian, Inc. and that
 it will not use this program in any manner prohibited above.
 ---------------------------------------------------------------
  

 Cite this work as:
 Gaussian 16, Revision C.02,
 M. J. Frisch, G. W. Trucks, H. B. Schlegel, G. E. Scuseria, 
 M. A. Robb, J. R. Cheeseman, G. Scalmani, V. Barone, 
 G. A. Petersson, H. Nakatsuji, X. Li, M. Caricato, A. V. Marenich, 
 J. Bloino, B. G. Janesko, R. Gomperts, B. Mennucci, H. P. Hratchian, 
 J. V. Ortiz, A. F. Izmaylov, J. L. Sonnenberg, D. Williams-Young, 
 F. Ding, F. Lipparini, F. Egidi, J. Goings, B. Peng, A. Petrone, 
 T. Henderson, D. Ranasinghe, V. G. Zakrzewski, J. Gao, N. Rega, 
 G. Zheng, W. Liang, M. Hada, M. Ehara, K. Toyota, R. Fukuda, 
 J. Hasegawa, M. Ishida, T. Nakajima, Y. Honda, O. Kitao, H. Nakai, 
 T. Vreven, K. Throssell, J. A. Montgomery, Jr., J. E. Peralta, 
 F. Ogliaro, M. J. Bearpark, J. J. Heyd, E. N. Brothers, K. N. Kudin, 
 V. N. Staroverov, T. A. Keith, R. Kobayashi, J. Normand, 
 K. Raghavachari, A. P. Rendell, J. C. Burant, S. S. Iyengar, 
 J. Tomasi, M. Cossi, J. M. Millam, M. Klene, C. Adamo, R. Cammi, 
 J. W. Ochterski, R. L. Martin, K. Morokuma, O. Farkas, 
 J. B. Foresman, and D. J. Fox, Gaussian, Inc., Wallingford CT, 2019.
 
 ******************************************
 Gaussian 16:  ES64L-G16RevC.02  7-Dec-2021
                 8-Jul-2026 
 ******************************************
 %chk=check.chk
 %mem=42578mb
 %NProcShared=12
 Will use up to   12 processors via shared memory.
 ----------------------------------------------------------------------
 #P guess=read ub3lyp/def2tzvp freq IOp(7/33=1) integral=(grid=ultrafin
 e, Acc2E=12) IOp(2/9=2000) scf=(direct,tight)
 ----------------------------------------------------------------------
 1/10=4,30=1,38=1/1,3;
 2/9=2000,12=2,17=6,18=5,40=1/2;
 3/5=44,7=101,11=2,25=1,27=12,30=1,71=2,74=-5,75=-5,116=2,140=1/1,2,3;
 4/5=1/1;
 5/5=2,32=2,38=6,87=12,98=1/2;
 8/6=4,10=90,11=11,87=12/1;
 11/6=1,8=1,9=11,15=111,16=1,87=12/1,2,10;
 10/6=1,87=12/2;
 6/7=2,8=2,9=2,10=2,28=1,87=12/1;
 7/8=1,10=1,25=1,33=1,87=12/1,2,3,16;
 1/10=4,30=1/3;
 99//99;
 Leave Link    1 at Wed Jul  8 09:32:06 2026, MaxMem=  5580783616 cpu:               0.1 elap:               0.0
 (Enter /usr/local/g16-gpu/g16/l101.exe)
 ---
 TS0
 ---
 Symbolic Z-matrix:
 Charge =  0 Multiplicity = 2
 C                     1.57537  -0.66469   0. 
 C                     1.57537   0.66469   0. 
 O                    -1.54159   0.69609  0. 
 O                    -1.54159  -0.69609   0. 
 H                     1.58184  -1.23451  -0.92122 
 H                     1.58184  -1.23451   0.92122 
 H                    -0.5664    0.        0. 
 H                     1.58184   1.23451   0.92122 
 H                     1.58184   1.23451  -0.92122 
 
 ITRead=  0  0  0  0  0  0  0  0  0
 MicOpt= -1 -1 -1 -1 -1 -1 -1 -1 -1
 NAtoms=      9 NQM=        9 NQMF=       0 NMMI=      0 NMMIF=      0
                NMic=       0 NMicF=      0.
                    Isotopes and Nuclear Properties:
 (Nuclear quadrupole moments (NQMom) in fm**2, nuclear magnetic moments (NMagM)
  in nuclear magnetons)

  Atom         1           2           3           4           5           6           7           8           9
 IAtWgt=          12          12          16          16           1           1           1           1           1
 AtmWgt=  12.0000000  12.0000000  15.9949146  15.9949146   1.0078250   1.0078250   1.0078250   1.0078250   1.0078250
 NucSpn=           0           0           0           0           1           1           1           1           1
 AtZEff=  -0.0000000  -0.0000000  -0.0000000  -0.0000000  -0.0000000  -0.0000000  -0.0000000  -0.0000000  -0.0000000
 NQMom=    0.0000000   0.0000000   0.0000000   0.0000000   0.0000000   0.0000000   0.0000000   0.0000000   0.0000000
 NMagM=    0.0000000   0.0000000   0.0000000   0.0000000   2.7928460   2.7928460   2.7928460   2.7928460   2.7928460
 AtZNuc=   6.0000000   6.0000000   8.0000000   8.0000000   1.0000000   1.0000000   1.0000000   1.0000000   1.0000000
 Leave Link  101 at Wed Jul  8 09:32:06 2026, MaxMem=  5580783616 cpu:               0.1 elap:               0.1
 (Enter /usr/local/g16-gpu/g16/l103.exe)

 GradGradGradGradGradGradGradGradGradGradGradGradGradGradGradGradGradGrad
 Berny optimization.
 Initialization pass.
 Trust Radius=3.00D-01 FncErr=1.00D-07 GrdErr=1.00D-07 EigMax=2.50D+02 EigMin=1.00D-04
 Number of steps in this run=      2 maximum allowed number of steps=      2.
 GradGradGradGradGradGradGradGradGradGradGradGradGradGradGradGradGradGrad

 Leave Link  103 at Wed Jul  8 09:32:06 2026, MaxMem=  5580783616 cpu:               0.0 elap:               0.0
 (Enter /usr/local/g16-gpu/g16/l202.exe)
                          Input orientation:                          
 ---------------------------------------------------------------------
 Center     Atomic      Atomic             Coordinates (Angstroms)
 Number     Number       Type             X           Y           Z
 ---------------------------------------------------------------------
      1          6           0        1.575367   -0.664687    0.000000
      2          6           0        1.575367    0.664687    0.000001
      3          8           0       -1.541586    0.696086   -0.000001
      4          8           0       -1.541586   -0.696086    0.000001
      5          1           0        1.581843   -1.234509   -0.921223
      6          1           0        1.581842   -1.234510    0.921221
      7          1           0       -0.566396    0.000000    0.000000
      8          1           0        1.581842    1.234509    0.921223
      9          1           0        1.581843    1.234510   -0.921221
 ---------------------------------------------------------------------
                    Distance matrix (angstroms):
                    1          2          3          4          5
     1  C    0.000000
     2  C    1.329374   0.000000
     3  O    3.401044   3.117111   0.000000
     4  O    3.117111   3.401044   1.392172   0.000000
     5  H    1.083232   2.110839   3.785717   3.300661   0.000000
     6  H    1.083230   2.110838   3.785717   3.300659   1.842444
     7  H    2.242534   2.242534   1.198137   1.198137   2.643406
     8  H    2.110839   1.083231   3.300660   3.785717   3.080691
     9  H    2.110839   1.083231   3.300660   3.785718   2.469019
                    6          7          8          9
     6  H    0.000000
     7  H    2.643405   0.000000
     8  H    2.469019   2.643405   0.000000
     9  H    3.080690   2.643406   1.842444   0.000000
 Stoichiometry    C2H5O2(2)
 Framework group  C2[C2(H),X(C2H4O2)]
 Deg. of freedom    11
 Full point group                 C2      NOp   2
 Largest Abelian subgroup         C2      NOp   2
 Largest concise Abelian subgroup C2      NOp   2
                         Standard orientation:                         
 ---------------------------------------------------------------------
 Center     Atomic      Atomic             Coordinates (Angstroms)
 Number     Number       Type             X           Y           Z
 ---------------------------------------------------------------------
      1          6           0       -0.000001   -0.664687   -1.575367
      2          6           0        0.000001    0.664687   -1.575367
      3          8           0        0.000000    0.696086    1.541586
      4          8           0       -0.000000   -0.696086    1.541586
      5          1           0       -0.921225   -1.234507   -1.581843
      6          1           0        0.921219   -1.234512   -1.581842
      7          1           0        0.000000   -0.000000    0.566396
      8          1           0        0.921225    1.234507   -1.581843
      9          1           0       -0.921219    1.234512   -1.581842
 ---------------------------------------------------------------------
 Rotational constants (GHZ):          14.1687584           3.3944147           2.8438142
 Leave Link  202 at Wed Jul  8 09:32:06 2026, MaxMem=  5580783616 cpu:               0.1 elap:               0.0
 (Enter /usr/local/g16-gpu/g16/l301.exe)
 Standard basis: def2TZVP (5D, 7F)
 Ernie: Thresh=  0.10000D-02 Tol=  0.10000D-05 Strict=F.
 There are    88 symmetry adapted cartesian basis functions of A   symmetry.
 There are    86 symmetry adapted cartesian basis functions of B   symmetry.
 There are    78 symmetry adapted basis functions of A   symmetry.
 There are    76 symmetry adapted basis functions of B   symmetry.
   154 basis functions,   244 primitive gaussians,   174 cartesian basis functions
    17 alpha electrons       16 beta electrons
       nuclear repulsion energy       109.2819314434 Hartrees.
 IExCor=  402 DFT=T Ex+Corr=B3LYP ExCW=0 ScaHFX=  0.200000
 ScaDFX=  0.800000  0.720000  1.000000  0.810000 ScalE2=  1.000000  1.000000
 IRadAn=      5 IRanWt=     -1 IRanGd=            0 ICorTp=0 IEmpDi=  4
 NAtoms=    9 NActive=    9 NUniq=    5 SFac= 3.24D+00 NAtFMM=   60 NAOKFM=F Big=F
 Integral buffers will be    131072 words long.
 Raffenetti 2 integral format.
 Two-electron integral symmetry is turned on.
 Leave Link  301 at Wed Jul  8 09:32:06 2026, MaxMem=  5580783616 cpu:               0.1 elap:               0.0
 (Enter /usr/local/g16-gpu/g16/l302.exe)
 NPDir=0 NMtPBC=     1 NCelOv=     1 NCel=       1 NClECP=     1 NCelD=      1
         NCelK=      1 NCelE2=     1 NClLst=     1 CellRange=     0.0.
 One-electron integrals computed using PRISM.
 One-electron integral symmetry used in STVInt
   2 Symmetry operations used in ECPInt.
 ECPInt:  NShTT=    2080 NPrTT=    6208 LenC2=    2060 LenP2D=    5147.
 LDataN:  DoStor=T MaxTD1= 6 Len=  172
 NBasis=   154 RedAO= T EigKep=  2.15D-04  NBF=    78    76
 NBsUse=   154 1.00D-06 EigRej= -1.00D+00 NBFU=    78    76
 Precomputing XC quadrature grid using
 IXCGrd= 4 IRadAn=           5 IRanWt=          -1 IRanGd=           0 AccXCQ= 1.00D-12.
 Generated NRdTot=       0 NPtTot=           0 NUsed=           0 NTot=          32
 NSgBfM=   174   174   174   174   174 MxSgAt=     9 MxSgA2=     9.
 Leave Link  302 at Wed Jul  8 09:32:06 2026, MaxMem=  5580783616 cpu:               1.1 elap:               0.1
 (Enter /usr/local/g16-gpu/g16/l303.exe)
 DipDrv:  MaxL=1.
 Leave Link  303 at Wed Jul  8 09:32:06 2026, MaxMem=  5580783616 cpu:               0.1 elap:               0.0
 (Enter /usr/local/g16-gpu/g16/l401.exe)
 Initial guess from the checkpoint file:  "check.chk"
 B after Tr=     0.000000   -0.000000   -0.000000
         Rot=    0.707107   -0.000000   -0.707107    0.000000 Ang= -90.00 deg.
 Guess basis will be translated and rotated to current coordinates.
 JPrj=2 DoOrth=T DoCkMO=T.
 Initial guess orbital symmetries:
 Alpha Orbitals:
       Occupied  (A) (B) (A) (B) (A) (B) (A) (B) (A) (B) (B) (A)
                 (A) (A) (A) (A) (B)
       Virtual   (B) (B) (A) (B) (A) (B) (A) (A) (A) (B) (B) (B)
                 (A) (B) (A) (B) (B) (A) (B) (B) (A) (A) (A) (B)
                 (A) (B) (B) (A) (A) (A) (B) (A) (A) (A) (B) (B)
                 (A) (B) (B) (B) (A) (B) (A) (A) (B) (B) (B) (A)
                 (A) (B) (B) (A) (B) (B) (A) (A) (A) (B) (B) (B)
                 (A) (A) (B) (A) (A) (A) (B) (B) (A) (B) (B) (B)
                 (A) (A) (A) (B) (A) (A) (A) (B) (A) (B) (A) (B)
                 (A) (A) (A) (B) (B) (B) (B) (A) (A) (B) (A) (B)
                 (B) (A) (B) (A) (A) (A) (B) (B) (B) (A) (B) (A)
                 (B) (A) (A) (B) (B) (A) (A) (B) (B) (A) (A) (B)
                 (A) (B) (B) (A) (A) (B) (B) (B) (A) (A) (A) (B)
                 (B) (A) (B) (A) (B)
 Beta  Orbitals:
       Occupied  (A) (B) (A) (B) (A) (A) (B) (B) (A) (B) (A) (A)
                 (B) (A) (A) (B)
       Virtual   (A) (B) (A) (B) (B) (B) (A) (A) (A) (A) (B) (B)
                 (B) (A) (B) (A) (B) (B) (A) (B) (B) (A) (A) (A)
                 (B) (A) (B) (B) (A) (A) (A) (A) (B) (A) (A) (B)
                 (B) (A) (B) (B) (B) (A) (B) (A) (A) (B) (B) (B)
                 (A) (B) (A) (B) (B) (A) (B) (A) (A) (A) (B) (B)
                 (B) (A) (A) (B) (A) (A) (A) (B) (B) (A) (B) (B)
                 (A) (B) (A) (A) (B) (A) (A) (A) (B) (A) (B) (A)
                 (B) (A) (A) (A) (B) (B) (B) (B) (A) (A) (B) (A)
                 (B) (B) (A) (B) (A) (A) (A) (B) (B) (B) (A) (B)
                 (A) (B) (A) (A) (B) (B) (A) (A) (B) (B) (A) (A)
                 (B) (B) (A) (B) (A) (A) (B) (B) (B) (A) (A) (A)
                 (B) (B) (A) (B) (A) (B)
 The electronic state of the initial guess is 2-A.
 Initial guess <Sx>= 0.0000 <Sy>= 0.0000 <Sz>= 0.5000 <S**2>= 0.7551 S= 0.5025
 Leave Link  401 at Wed Jul  8 09:32:06 2026, MaxMem=  5580783616 cpu:               0.6 elap:               0.1
 (Enter /usr/local/g16-gpu/g16/l502.exe)
 Keep R1 and R2 ints in memory in symmetry-blocked form, NReq=106882397.
 FoFCou: FMM=F IPFlag=           0 FMFlag=           0 FMFlg1=           0
         NFxFlg=           0 DoJE=F BraDBF=F KetDBF=F FulRan=T
         wScrn=  0.000000 ICntrl=       600 IOpCl=  0 I1Cent=           0 NGrid=           0
         NMat0=    1 NMatS0=  11935 NMatT0=    0 NMatD0=    1 NMtDS0=    0 NMtDT0=    0
 Petite list used in FoFCou.
 UHF open shell SCF:
 Using DIIS extrapolation, IDIIS=  1040.
 NGot=  5580783616 LenX=  5509456532 LenY=  5509425815
 Requested convergence on RMS density matrix=1.00D-08 within 128 cycles.
 Requested convergence on MAX density matrix=1.00D-06.
 Requested convergence on             energy=1.00D-06.
 No special actions if energy rises.

 Cycle   1  Pass 1  IDiag  1:
 E= -229.540462422102    
 DIIS: error= 1.21D-07 at cycle   1 NSaved=   1.
 NSaved= 1 IEnMin= 1 EnMin= -229.540462422102     IErMin= 1 ErrMin= 1.21D-07
 ErrMax= 1.21D-07  0.00D+00 EMaxC= 1.00D-01 BMatC= 4.32D-12 BMatP= 4.32D-12
 IDIUse=1 WtCom= 1.00D+00 WtEn= 0.00D+00
 Coeff-Com:  0.100D+01
 Coeff:      0.100D+01
 Gap=     0.260 Goal=   None    Shift=    0.000
 Gap=     0.136 Goal=   None    Shift=    0.000
 RMSDP=8.03D-09 MaxDP=1.11D-07              OVMax= 4.61D-07

 SCF Done:  E(UB3LYP) =  -229.540462422     A.U. after    1 cycles
            NFock=  1  Conv=0.80D-08     -V/T= 2.0045
 <Sx>= 0.0000 <Sy>= 0.0000 <Sz>= 0.5000 <S**2>= 0.7551 S= 0.5025
 <L.S>=  0.00000000000    
 KE= 2.285031017348D+02 PE=-7.573882533423D+02 EE= 1.900627577419D+02
 Annihilation of the first spin contaminant:
 S**2 before annihilation     0.7551,   after     0.7500
 Leave Link  502 at Wed Jul  8 09:32:07 2026, MaxMem=  5580783616 cpu:              10.1 elap:               1.0
 (Enter /usr/local/g16-gpu/g16/l801.exe)
 DoSCS=F DFT=T ScalE2(SS,OS)=  1.000000  1.000000
 Range of M.O.s used for correlation:     1   154
 NBasis=   154 NAE=    17 NBE=    16 NFC=     0 NFV=     0
 NROrb=    154 NOA=    17 NOB=    16 NVA=   137 NVB=   138

 **** Warning!!: The largest alpha MO coefficient is  0.20060393D+02


 **** Warning!!: The largest beta MO coefficient is  0.20052369D+02

 Leave Link  801 at Wed Jul  8 09:32:07 2026, MaxMem=  5580783616 cpu:               0.1 elap:               0.0
 (Enter /usr/local/g16-gpu/g16/l1101.exe)
 Using compressed storage, NAtomX=     9.
 Will process     10 centers per pass.
   2 Symmetry operations used in ECPInt.
 ECPInt:  NShTT=    2080 NPrTT=    6208 LenC2=    2060 LenP2D=    5147.
 LDataN:  DoStor=T MaxTD1= 7 Len=  274
 Leave Link 1101 at Wed Jul  8 09:32:08 2026, MaxMem=  5580783616 cpu:               2.7 elap:               0.3
 (Enter /usr/local/g16-gpu/g16/l1102.exe)
 Symmetrizing basis deriv contribution to polar:
 IMax=3 JMax=2 DiffMx= 0.00D+00
 Leave Link 1102 at Wed Jul  8 09:32:08 2026, MaxMem=  5580783616 cpu:               0.1 elap:               0.0
 (Enter /usr/local/g16-gpu/g16/l1110.exe)
 Forming Gx(P) for the SCF density, NAtomX=     9.
 Integral derivatives from FoFJK, PRISM(SPDF).
 Do as many integral derivatives as possible in FoFJK.
 G2DrvN: MDV=    5580782571.
 G2DrvN: will do    10 centers at a time, making    1 passes.
 Calling FoFCou, ICntrl=  3107 FMM=F I1Cent=   0 AccDes= 1.00D-12.
 FoFJK:  IHMeth= 1 ICntrl=    3107 DoSepK=F KAlg= 0 I1Cent=           0 FoldK=F
 IRaf=         0 NMat=       1 IRICut=       1 DoRegI=T DoRafI=F ISym2E= 1 IDoP0=0 IntGTp=1.
 FoFCou: FMM=F IPFlag=           0 FMFlag=      100000 FMFlg1=           0
         NFxFlg=           0 DoJE=F BraDBF=F KetDBF=F FulRan=T
         wScrn=  0.000000 ICntrl=      3107 IOpCl=  1 I1Cent=           0 NGrid=           0
         NMat0=    1 NMatS0=      1 NMatT0=    0 NMatD0=    1 NMtDS0=    0 NMtDT0=    0
 Petite list used in FoFCou.
 End of G2Drv F.D. properties file   721 does not exist.
 End of G2Drv F.D. properties file   722 does not exist.
 End of G2Drv F.D. properties file   788 does not exist.
 Leave Link 1110 at Wed Jul  8 09:32:13 2026, MaxMem=  5580783616 cpu:              56.5 elap:               4.8
 (Enter /usr/local/g16-gpu/g16/l1002.exe)
 Minotr:  UHF open shell wavefunction.
          IDoAtm=111111111
          Direct CPHF calculation.
          Differentiating once with respect to electric field.
                with respect to dipole field.
          Differentiating once with respect to nuclear coordinates.
          Using symmetry in CPHF.
          Requested convergence is 1.0D-08 RMS, and 1.0D-07 maximum.
          Secondary convergence is 1.0D-12 RMS, and 1.0D-12 maximum.
          NewPWx=T KeepS1=F KeepF1=F KeepIn=T MapXYZ=F SortEE=F KeepMc=T.
         2683 words used for storage of precomputed grid.
 Keep R1 and R2 ints in memory in symmetry-blocked form, NReq=106886665.
 FoFCou: FMM=F IPFlag=           0 FMFlag=           0 FMFlg1=           0
         NFxFlg=           0 DoJE=F BraDBF=F KetDBF=F FulRan=T
         wScrn=  0.000000 ICntrl=       600 IOpCl=  0 I1Cent=           0 NGrid=           0
         NMat0=    1 NMatS0=  11935 NMatT0=    0 NMatD0=    1 NMtDS0=    0 NMtDT0=    0
 Petite list used in FoFCou.
          MDV=    5580783616 using IRadAn=       1.
          Solving linear equations simultaneously, MaxMat=       0.
          There are    18 degrees of freedom in the 1st order CPHF.  IDoFFX=4 NUNeed=    18.
     18 vectors produced by pass  0 Test12= 2.52D-14 5.56D-09 XBig12= 1.14D+02 5.18D+00.
 AX will form    18 AO Fock derivatives at one time.
     18 vectors produced by pass  1 Test12= 2.52D-14 5.56D-09 XBig12= 9.75D+01 3.02D+00.
     18 vectors produced by pass  2 Test12= 2.52D-14 5.56D-09 XBig12= 6.36D+00 1.17D+00.
     18 vectors produced by pass  3 Test12= 2.52D-14 5.56D-09 XBig12= 2.06D-01 1.45D-01.
     18 vectors produced by pass  4 Test12= 2.52D-14 5.56D-09 XBig12= 2.49D-03 9.60D-03.
     18 vectors produced by pass  5 Test12= 2.52D-14 5.56D-09 XBig12= 2.82D-05 1.88D-03.
     14 vectors produced by pass  6 Test12= 2.52D-14 5.56D-09 XBig12= 3.70D-07 1.85D-04.
      7 vectors produced by pass  7 Test12= 2.52D-14 5.56D-09 XBig12= 1.93D-09 1.01D-05.
      3 vectors produced by pass  8 Test12= 2.52D-14 5.56D-09 XBig12= 2.00D-11 1.47D-06.
      2 vectors produced by pass  9 Test12= 2.52D-14 5.56D-09 XBig12= 1.09D-13 9.88D-08.
      1 vectors produced by pass 10 Test12= 2.52D-14 5.56D-09 XBig12= 7.34D-16 6.92D-09.
 InvSVY:  IOpt=1 It=  1 EMax= 3.55D-15
 Solved reduced A of dimension   135 with    18 vectors.
 FullF1:  Do perturbations      1 to      18.
 Isotropic polarizability for W=    0.000000       37.93 Bohr**3.
 End of Minotr F.D. properties file   721 does not exist.
 End of Minotr F.D. properties file   722 does not exist.
 End of Minotr F.D. properties file   788 does not exist.
 Leave Link 1002 at Wed Jul  8 09:32:25 2026, MaxMem=  5580783616 cpu:             146.5 elap:              12.7
 (Enter /usr/local/g16-gpu/g16/l601.exe)
 Copying SCF densities to generalized density rwf, IOpCl= 1 IROHF=0.

 **********************************************************************

            Population analysis using the SCF Density.

 **********************************************************************

 Orbital symmetries:
 Alpha Orbitals:
       Occupied  (A) (B) (A) (B) (A) (B) (A) (B) (A) (B) (B) (A)
                 (A) (A) (A) (A) (B)
       Virtual   (B) (B) (A) (B) (A) (B) (A) (A) (A) (B) (B) (B)
                 (A) (B) (A) (B) (B) (A) (B) (B) (A) (A) (A) (B)
                 (A) (B) (B) (A) (A) (A) (B) (A) (A) (A) (B) (B)
                 (A) (B) (B) (B) (A) (B) (A) (A) (B) (B) (B) (A)
                 (A) (B) (B) (A) (B) (B) (A) (A) (A) (B) (B) (B)
                 (A) (A) (B) (A) (A) (A) (B) (B) (A) (B) (B) (B)
                 (A) (A) (A) (B) (A) (A) (A) (B) (A) (B) (A) (B)
                 (A) (A) (A) (B) (B) (B) (B) (A) (A) (B) (A) (B)
                 (B) (A) (B) (A) (A) (A) (B) (B) (B) (A) (B) (A)
                 (B) (A) (A) (B) (B) (A) (A) (B) (B) (A) (A) (B)
                 (A) (B) (B) (A) (A) (B) (B) (B) (A) (A) (A) (B)
                 (B) (A) (B) (A) (B)
 Beta  Orbitals:
       Occupied  (A) (B) (A) (B) (A) (A) (B) (B) (A) (B) (A) (A)
                 (B) (A) (A) (B)
       Virtual   (A) (B) (A) (B) (B) (B) (A) (A) (A) (A) (B) (B)
                 (B) (A) (B) (A) (B) (B) (A) (B) (B) (A) (A) (A)
                 (B) (A) (B) (B) (A) (A) (A) (A) (B) (A) (A) (B)
                 (B) (A) (B) (B) (B) (A) (B) (A) (A) (B) (B) (B)
                 (A) (B) (A) (B) (B) (A) (B) (A) (A) (A) (B) (B)
                 (B) (A) (A) (B) (A) (A) (A) (B) (B) (A) (B) (B)
                 (A) (B) (A) (A) (B) (A) (A) (A) (B) (A) (B) (A)
                 (B) (A) (A) (A) (B) (B) (B) (B) (A) (A) (B) (A)
                 (B) (B) (A) (B) (A) (A) (A) (B) (B) (B) (A) (B)
                 (A) (B) (A) (A) (B) (B) (A) (A) (B) (B) (A) (A)
                 (B) (B) (A) (B) (A) (A) (B) (B) (B) (A) (A) (A)
                 (B) (B) (A) (B) (A) (B)
 The electronic state is 2-A.
 Alpha  occ. eigenvalues --  -19.22538 -19.22532 -10.20016 -10.19926  -1.18290
 Alpha  occ. eigenvalues --   -0.83553  -0.79393  -0.60805  -0.54311  -0.49899
 Alpha  occ. eigenvalues --   -0.48171  -0.47697  -0.45113  -0.38303  -0.31110
 Alpha  occ. eigenvalues --   -0.31105  -0.29040
 Alpha virt. eigenvalues --   -0.03072   0.03429   0.03593   0.07279   0.07574
 Alpha virt. eigenvalues --    0.07626   0.13716   0.16719   0.19539   0.20390
 Alpha virt. eigenvalues --    0.23566   0.28892   0.29030   0.31498   0.32972
 Alpha virt. eigenvalues --    0.38747   0.39924   0.41124   0.42622   0.44288
 Alpha virt. eigenvalues --    0.45051   0.45468   0.49340   0.52498   0.53752
 Alpha virt. eigenvalues --    0.54351   0.63024   0.63535   0.71559   0.75294
 Alpha virt. eigenvalues --    0.76219   0.76899   0.84106   0.87290   0.92934
 Alpha virt. eigenvalues --    1.03932   1.06994   1.07913   1.14286   1.21224
 Alpha virt. eigenvalues --    1.24148   1.25324   1.34134   1.39112   1.44076
 Alpha virt. eigenvalues --    1.49355   1.52642   1.56354   1.57412   1.58204
 Alpha virt. eigenvalues --    1.67410   1.69118   1.69436   1.71904   1.76445
 Alpha virt. eigenvalues --    1.80495   1.81739   1.81872   1.93667   1.95857
 Alpha virt. eigenvalues --    2.00800   2.03485   2.06839   2.16633   2.21828
 Alpha virt. eigenvalues --    2.22770   2.27218   2.31459   2.33280   2.36777
 Alpha virt. eigenvalues --    2.42421   2.44194   2.45466   2.50377   2.58390
 Alpha virt. eigenvalues --    2.60472   2.61389   2.64393   2.65370   2.75458
 Alpha virt. eigenvalues --    2.80117   2.81023   2.85526   2.89463   2.94833
 Alpha virt. eigenvalues --    2.96667   3.00482   3.06537   3.09869   3.12781
 Alpha virt. eigenvalues --    3.19588   3.21032   3.26489   3.34631   3.39136
 Alpha virt. eigenvalues --    3.42254   3.43464   3.50875   3.61088   3.68063
 Alpha virt. eigenvalues --    4.07445   4.08488   4.13276   4.17577   4.35661
 Alpha virt. eigenvalues --    4.40639   4.56395   4.58828   4.61412   4.67292
 Alpha virt. eigenvalues --    4.76546   4.82223   4.96097   5.00052   5.09888
 Alpha virt. eigenvalues --    5.16432   5.22262   5.37549   5.48774   5.49768
 Alpha virt. eigenvalues --    5.90183   5.92871   6.13048   6.15729   6.23221
 Alpha virt. eigenvalues --    6.25230   6.29628   6.41605   6.75213   6.86239
 Alpha virt. eigenvalues --    7.04002   7.05815   8.13068  22.01830  22.55858
 Alpha virt. eigenvalues --   43.36433  43.64351
  Beta  occ. eigenvalues --  -19.21030 -19.21020 -10.20019 -10.19928  -1.15366
  Beta  occ. eigenvalues --   -0.79398  -0.79034  -0.60808  -0.53183  -0.49859
  Beta  occ. eigenvalues --   -0.46090  -0.45089  -0.39142  -0.38300  -0.31051
  Beta  occ. eigenvalues --   -0.27434
  Beta virt. eigenvalues --   -0.13820  -0.03029   0.03674   0.05096   0.07291
  Beta virt. eigenvalues --    0.07804   0.07845   0.13732   0.16724   0.19569
  Beta virt. eigenvalues --    0.20398   0.23777   0.29009   0.29350   0.31691
  Beta virt. eigenvalues --    0.32993   0.39867   0.41015   0.41297   0.42839
  Beta virt. eigenvalues --    0.44473   0.45602   0.46115   0.50636   0.52788
  Beta virt. eigenvalues --    0.54019   0.54359   0.63362   0.63914   0.71656
  Beta virt. eigenvalues --    0.75362   0.77021   0.77089   0.84365   0.87305
  Beta virt. eigenvalues --    0.93038   1.03945   1.07018   1.09210   1.14393
  Beta virt. eigenvalues --    1.21224   1.24614   1.27627   1.34574   1.39123
  Beta virt. eigenvalues --    1.45506   1.49360   1.52647   1.56525   1.58695
  Beta virt. eigenvalues --    1.60124   1.67450   1.69487   1.69794   1.71952
  Beta virt. eigenvalues --    1.77184   1.81477   1.81860   1.81982   1.94795
  Beta virt. eigenvalues --    1.96934   2.03615   2.04075   2.07714   2.16675
  Beta virt. eigenvalues --    2.21889   2.23163   2.27276   2.31860   2.33294
  Beta virt. eigenvalues --    2.38074   2.42601   2.45729   2.48456   2.50782
  Beta virt. eigenvalues --    2.58761   2.60537   2.61718   2.64453   2.70777
  Beta virt. eigenvalues --    2.75670   2.80666   2.82940   2.86911   2.89629
  Beta virt. eigenvalues --    2.94834   2.96671   3.00505   3.06837   3.09869
  Beta virt. eigenvalues --    3.12773   3.20002   3.21032   3.26486   3.34630
  Beta virt. eigenvalues --    3.39481   3.42478   3.43465   3.51703   3.61105
  Beta virt. eigenvalues --    3.68057   4.07442   4.08485   4.15313   4.17576
  Beta virt. eigenvalues --    4.35818   4.40648   4.56458   4.58828   4.64364
  Beta virt. eigenvalues --    4.67674   4.79587   4.84692   4.96115   5.03226
  Beta virt. eigenvalues --    5.13677   5.19932   5.25752   5.40201   5.50045
  Beta virt. eigenvalues --    5.52637   5.93617   5.94732   6.18473   6.20008
  Beta virt. eigenvalues --    6.28512   6.30630   6.32930   6.45333   6.76893
  Beta virt. eigenvalues --    6.90459   7.06260   7.06739   8.14285  22.01827
  Beta virt. eigenvalues --   22.55855  43.37973  43.65889
          Condensed to atoms (all electrons):
               1          2          3          4          5          6
     1  C    4.976641   0.535120  -0.031706   0.015453   0.411233   0.411233
     2  C    0.535120   4.976641   0.015453  -0.031706  -0.040593  -0.040593
     3  O   -0.031706   0.015453   8.146786  -0.067647   0.000560   0.000560
     4  O    0.015453  -0.031706  -0.067647   8.146786  -0.000984  -0.000984
     5  H    0.411233  -0.040593   0.000560  -0.000984   0.521485  -0.026092
     6  H    0.411233  -0.040593   0.000560  -0.000984  -0.026092   0.521484
     7  H    0.023185   0.023185   0.140382   0.140382  -0.000565  -0.000565
     8  H   -0.040593   0.411233  -0.000984   0.000560   0.005104  -0.006732
     9  H   -0.040593   0.411233  -0.000984   0.000560  -0.006732   0.005104
               7          8          9
     1  C    0.023185  -0.040593  -0.040593
     2  C    0.023185   0.411233   0.411233
     3  O    0.140382  -0.000984  -0.000984
     4  O    0.140382   0.000560   0.000560
     5  H   -0.000565   0.005104  -0.006732
     6  H   -0.000565  -0.006732   0.005104
     7  H    0.296682  -0.000565  -0.000565
     8  H   -0.000565   0.521485  -0.026092
     9  H   -0.000565  -0.026092   0.521484
          Atomic-Atomic Spin Densities.
               1          2          3          4          5          6
     1  C   -0.003661   0.001590   0.001472  -0.002451   0.000145   0.000145
     2  C    0.001590  -0.003661  -0.002451   0.001472  -0.000123  -0.000123
     3  O    0.001472  -0.002451   0.639634  -0.128648  -0.000022  -0.000022
     4  O   -0.002451   0.001472  -0.128648   0.639634   0.000098   0.000098
     5  H    0.000145  -0.000123  -0.000022   0.000098   0.000111  -0.000060
     6  H    0.000145  -0.000123  -0.000022   0.000098  -0.000060   0.000111
     7  H    0.000673   0.000673  -0.002072  -0.002072   0.000021   0.000021
     8  H   -0.000123   0.000145   0.000098  -0.000022   0.000019  -0.000009
     9  H   -0.000123   0.000145   0.000098  -0.000022  -0.000009   0.000019
               7          8          9
     1  C    0.000673  -0.000123  -0.000123
     2  C    0.000673   0.000145   0.000145
     3  O   -0.002072   0.000098   0.000098
     4  O   -0.002072  -0.000022  -0.000022
     5  H    0.000021   0.000019  -0.000009
     6  H    0.000021  -0.000009   0.000019
     7  H   -0.009518   0.000021   0.000021
     8  H    0.000021   0.000111  -0.000060
     9  H    0.000021  -0.000060   0.000111
 Mulliken charges and spin densities:
               1          2
     1  C   -0.259972  -0.002334
     2  C   -0.259972  -0.002334
     3  O   -0.202419   0.508088
     4  O   -0.202419   0.508088
     5  H    0.136584   0.000180
     6  H    0.136584   0.000180
     7  H    0.378446  -0.012231
     8  H    0.136584   0.000180
     9  H    0.136584   0.000180
 Sum of Mulliken charges =  -0.00000   1.00000
 Mulliken charges and spin densities with hydrogens summed into heavy atoms:
               1          2
     1  C    0.013196  -0.001973
     2  C    0.013196  -0.001973
     3  O    0.176027   0.495858
     4  O   -0.202419   0.508088
 APT charges:
               1
     1  C   -0.076063
     2  C   -0.076063
     3  O   -0.282464
     4  O   -0.282464
     5  H    0.049165
     6  H    0.049165
     7  H    0.520394
     8  H    0.049165
     9  H    0.049165
 Sum of APT charges =   0.00000
 APT charges with hydrogens summed into heavy atoms:
               1
     1  C    0.022267
     2  C    0.022267
     3  O    0.237930
     4  O   -0.282464
 Electronic spatial extent (au):  <R**2>=            417.0057
 Charge=              0.0000 electrons
 Dipole moment (field-independent basis, Debye):
    X=              0.0000    Y=             -0.0000    Z=             -2.4829  Tot=              2.4829
 Quadrupole moment (field-independent basis, Debye-Ang):
   XX=            -23.3995   YY=            -24.3435   ZZ=            -29.5582
   XY=             -0.0000   XZ=             -0.0000   YZ=              0.0000
 Traceless Quadrupole moment (field-independent basis, Debye-Ang):
   XX=              2.3676   YY=              1.4236   ZZ=             -3.7912
   XY=             -0.0000   XZ=             -0.0000   YZ=              0.0000
 Octapole moment (field-independent basis, Debye-Ang**2):
  XXX=             -0.0000  YYY=              0.0000  ZZZ=             12.0698  XYY=              0.0000
  XXY=              0.0000  XXZ=              2.1168  XZZ=              0.0000  YZZ=             -0.0000
  YYZ=             -0.4446  XYZ=             -0.0000
 Hexadecapole moment (field-independent basis, Debye-Ang**3):
 XXXX=            -35.5081 YYYY=           -106.3078 ZZZZ=           -419.0960 XXXY=             -0.0000
 XXXZ=              0.0000 YYYX=             -0.0001 YYYZ=              0.0000 ZZZX=              0.0000
 ZZZY=              0.0000 XXYY=            -21.1144 XXZZ=            -66.7783 YYZZ=            -81.5100
 XXYZ=             -0.0000 YYXZ=              0.0000 ZZXY=             -0.0000
 N-N= 1.092819314434D+02 E-N=-7.573882537115D+02  KE= 2.285031017348D+02
 Symmetry A    KE= 1.172183235372D+02
 Symmetry B    KE= 1.112847781977D+02
 Symmetry A    SP= 1.000000000000D+00
 Symmetry B    SP= 5.468263246524D-15
  Exact polarizability:      28.552       0.000      47.845      -0.000       0.000      37.379
 Approx polarizability:      37.816       0.000      85.500      -0.000       0.000      45.758
                          Isotropic Fermi Contact Couplings
        Atom                 a.u.       MegaHertz       Gauss      10(-4) cm-1
     1  C(13)             -0.00036      -0.40363      -0.14402      -0.13464
     2  C(13)             -0.00036      -0.40363      -0.14402      -0.13464
     3  O(17)              0.04788     -29.02420     -10.35656      -9.68143
     4  O(17)              0.04788     -29.02420     -10.35656      -9.68143
     5  H(1)               0.00003       0.13212       0.04714       0.04407
     6  H(1)               0.00003       0.13212       0.04714       0.04407
     7  H(1)              -0.00556     -24.84696      -8.86601      -8.28805
     8  H(1)               0.00003       0.13212       0.04714       0.04407
     9  H(1)               0.00003       0.13212       0.04714       0.04407
 --------------------------------------------------------
       Center         ----  Spin Dipole Couplings  ----
                      3XX-RR        3YY-RR        3ZZ-RR
 --------------------------------------------------------
     1   Atom       -0.002773     -0.002396      0.005169
     2   Atom       -0.002773     -0.002396      0.005169
     3   Atom        2.457459     -1.254833     -1.202626
     4   Atom        2.457459     -1.254833     -1.202626
     5   Atom       -0.002650     -0.002139      0.004789
     6   Atom       -0.002650     -0.002139      0.004789
     7   Atom       -0.050512      0.000016      0.050497
     8   Atom       -0.002650     -0.002139      0.004789
     9   Atom       -0.002650     -0.002139      0.004789
 --------------------------------------------------------
                        XY            XZ            YZ
 --------------------------------------------------------
     1   Atom        0.000000      0.000000      0.001381
     2   Atom        0.000000     -0.000000     -0.001381
     3   Atom        0.000001     -0.000000     -0.007187
     4   Atom        0.000001      0.000000      0.007187
     5   Atom        0.000550      0.002164      0.002459
     6   Atom       -0.000550     -0.002164      0.002459
     7   Atom       -0.000000     -0.000000      0.000000
     8   Atom        0.000550     -0.002164     -0.002459
     9   Atom       -0.000550      0.002164     -0.002459
 --------------------------------------------------------


 ---------------------------------------------------------------------------------
              Anisotropic Spin Dipole Couplings in Principal Axis System
 ---------------------------------------------------------------------------------

       Atom             a.u.   MegaHertz   Gauss  10(-4) cm-1        Axes

              Baa    -0.0028    -0.372    -0.133    -0.124  1.0000 -0.0000 -0.0000
     1 C(13)  Bbb    -0.0026    -0.354    -0.126    -0.118  0.0000  0.9847 -0.1742
              Bcc     0.0054     0.726     0.259     0.242  0.0000  0.1742  0.9847
 
              Baa    -0.0028    -0.372    -0.133    -0.124  1.0000 -0.0000  0.0000
     2 C(13)  Bbb    -0.0026    -0.354    -0.126    -0.118  0.0000  0.9847  0.1742
              Bcc     0.0054     0.726     0.259     0.242 -0.0000 -0.1742  0.9847
 
              Baa    -1.2558    90.869    32.424    30.311 -0.0000  0.9910  0.1339
     3 O(17)  Bbb    -1.2017    86.951    31.026    29.004  0.0000 -0.1339  0.9910
              Bcc     2.4575  -177.820   -63.451   -59.314  1.0000  0.0000 -0.0000
 
              Baa    -1.2558    90.869    32.424    30.311 -0.0000  0.9910 -0.1339
     4 O(17)  Bbb    -1.2017    86.951    31.026    29.004 -0.0000  0.1339  0.9910
              Bcc     2.4575  -177.820   -63.451   -59.314  1.0000  0.0000  0.0000
 
              Baa    -0.0033    -1.742    -0.621    -0.581  0.9066  0.2685 -0.3256
     5 H(1)   Bbb    -0.0029    -1.533    -0.547    -0.511 -0.3430  0.9183 -0.1978
              Bcc     0.0061     3.275     1.169     1.092  0.2459  0.2910  0.9246
 
              Baa    -0.0033    -1.742    -0.621    -0.581  0.9066 -0.2685  0.3256
     6 H(1)   Bbb    -0.0029    -1.533    -0.547    -0.511  0.3430  0.9183 -0.1978
              Bcc     0.0061     3.275     1.169     1.092 -0.2459  0.2910  0.9246
 
              Baa    -0.0505   -26.951    -9.617    -8.990  1.0000  0.0000  0.0000
     7 H(1)   Bbb     0.0000     0.008     0.003     0.003 -0.0000  1.0000 -0.0000
              Bcc     0.0505    26.943     9.614     8.987 -0.0000  0.0000  1.0000
 
              Baa    -0.0033    -1.742    -0.621    -0.581  0.9066  0.2685  0.3256
     8 H(1)   Bbb    -0.0029    -1.533    -0.547    -0.511 -0.3430  0.9183  0.1978
              Bcc     0.0061     3.275     1.169     1.092 -0.2459 -0.2910  0.9246
 
              Baa    -0.0033    -1.742    -0.621    -0.581  0.9066 -0.2685 -0.3256
     9 H(1)   Bbb    -0.0029    -1.533    -0.547    -0.511  0.3430  0.9183  0.1978
              Bcc     0.0061     3.275     1.169     1.092  0.2459 -0.2910  0.9246
 

 ---------------------------------------------------------------------------------

 No NMR shielding tensors so no spin-rotation constants.
 Leave Link  601 at Wed Jul  8 09:32:26 2026, MaxMem=  5580783616 cpu:               2.0 elap:               0.2
 (Enter /usr/local/g16-gpu/g16/l701.exe)
 SCFChk:  SCF convergence  8.03D-09 required  1.00D-08
 ... and contract with generalized density number  0.
 Compute integral second derivatives.
 Entering OneElI...
 Calculate overlap and kinetic energy integrals
    NBasis = 174  MinDer = 2  MaxDer = 2
 Requested accuracy = 0.1000D-14
 PrmmSu-InSpLW:  IPartL=    0 NPrtUS=   12 NPrtUL=    1 DoSpLW=F IThBeg=    0 IThEnd=   11 NThAct=   12.
 PrSmSu:  IncTry=   512 NBBP=           2069 NTPThr=   100 NPartT=   12 Incr=           1 LDynOK=F GPUOK=F.
 PrsmSu:  NPrtUS=  12 ThrOK=T IAlg=2 LenDen=           0 ISkipM=0 DoSpLW=F IThBeg=    0 IThEnd=   11.
 Prism:   IPart=     0 DynPar=F LinDyn=F Incr=           1.
 PRISM was handed   465003923 working-precision words and  2069 shell-pairs
 PRISM was handed   465003923 working-precision words and  2069 shell-pairs
 PRISM was handed   465003923 working-precision words and  2069 shell-pairs
 PRISM was handed   465003923 working-precision words and  2069 shell-pairs
 PRISM was handed   465003923 working-precision words and  2069 shell-pairs
 PRISM was handed   465003923 working-precision words and  2069 shell-pairs
 PRISM was handed   465003923 working-precision words and  2069 shell-pairs
 PRISM was handed   465003923 working-precision words and  2069 shell-pairs
 PRISM was handed   465003923 working-precision words and  2069 shell-pairs
 PRISM was handed   465003923 working-precision words and  2069 shell-pairs
 PRISM was handed   465003923 working-precision words and  2069 shell-pairs
 PRISM was handed   465003923 working-precision words and  2069 shell-pairs
 IPart=  5 NShTot=         171 NBatch=          31 AvBLen=         5.5
 IPart=  7 NShTot=         164 NBatch=          28 AvBLen=         5.9
 IPart=  1 NShTot=         200 NBatch=          48 AvBLen=         4.2
 IPart=  9 NShTot=         157 NBatch=          27 AvBLen=         5.8
 IPart=  4 NShTot=         172 NBatch=          32 AvBLen=         5.4
 IPart=  3 NShTot=         185 NBatch=          37 AvBLen=         5.0
 IPart= 11 NShTot=         155 NBatch=          26 AvBLen=         6.0
 IPart=  8 NShTot=         157 NBatch=          27 AvBLen=         5.8
 IPart=  0 NShTot=         201 NBatch=          49 AvBLen=         4.1
 IPart=  2 NShTot=         186 NBatch=          37 AvBLen=         5.0
 IPart= 10 NShTot=         155 NBatch=          26 AvBLen=         6.0
 IPart=  6 NShTot=         166 NBatch=          28 AvBLen=         5.9
 PrSmSu:  NxtVal=             13.
 Entering OneElI...
 Calculate potential energy integrals
    NBasis = 174  MinDer = 2  MaxDer = 2
 Requested accuracy = 0.1000D-14
 PrmmSu-InSpLW:  IPartL=    0 NPrtUS=   12 NPrtUL=    1 DoSpLW=F IThBeg=    0 IThEnd=   11 NThAct=   12.
 PrSmSu:  IncTry=   512 NBBP=          18036 NTPThr=   100 NPartT=   12 Incr=          15 LDynOK=F GPUOK=F.
 PrsmSu:  NPrtUS=  12 ThrOK=T IAlg=2 LenDen=           0 ISkipM=0 DoSpLW=F IThBeg=    0 IThEnd=   11.
 Prism:   IPart=     0 DynPar=F LinDyn=F Incr=          15.
 PRISM was handed   465011254 working-precision words and  2004 shell-pairs
 PRISM was handed   465011254 working-precision words and  2004 shell-pairs
 PRISM was handed   465011254 working-precision words and  2004 shell-pairs
 PRISM was handed   465011254 working-precision words and  2004 shell-pairs
 PRISM was handed   465011254 working-precision words and  2004 shell-pairs
 PRISM was handed   465011254 working-precision words and  2004 shell-pairs
 PRISM was handed   465011254 working-precision words and  2004 shell-pairs
 PRISM was handed   465011254 working-precision words and  2004 shell-pairs
 PRISM was handed   465011254 working-precision words and  2004 shell-pairs
 PRISM was handed   465011254 working-precision words and  2004 shell-pairs
 PRISM was handed   465011254 working-precision words and  2004 shell-pairs
 PRISM was handed   465011254 working-precision words and  2004 shell-pairs
 IPart=  4 NShTot=        1503 NBatch=         167 AvBLen=         9.0
 IPart=  1 NShTot=        1674 NBatch=         186 AvBLen=         9.0
 IPart= 10 NShTot=        1395 NBatch=         155 AvBLen=         9.0
 IPart=  2 NShTot=        1584 NBatch=         176 AvBLen=         9.0
 IPart=  0 NShTot=        1701 NBatch=         189 AvBLen=         9.0
 IPart=  8 NShTot=        1413 NBatch=         157 AvBLen=         9.0
 IPart=  9 NShTot=        1413 NBatch=         157 AvBLen=         9.0
 IPart=  5 NShTot=        1476 NBatch=         164 AvBLen=         9.0
 IPart=  3 NShTot=        1584 NBatch=         176 AvBLen=         9.0
 IPart=  6 NShTot=        1458 NBatch=         162 AvBLen=         9.0
 IPart= 11 NShTot=        1395 NBatch=         155 AvBLen=         9.0
 IPart=  7 NShTot=        1440 NBatch=         160 AvBLen=         9.0
 PrSmSu:  NxtVal=            181.
   2 Symmetry operations used in ECPInt.
 ECPInt:  NShTT=    2080 NPrTT=    6208 LenC2=    2060 LenP2D=    5147.
 LDataN:  DoStor=F MaxTD1= 8 Len=  415
 LDataN:  DoStor=T MaxTD1= 8 Len=  415
 ECPSu:  NPrtUS=  12 ThrOK=T ISkipM=0 DoSpLW=F IThBeg=    0 IThEnd=   11.
 Polarizability after L701:
                1             2             3 
      1  0.285520D+02
      2  0.385850D-04  0.478450D+02
      3  0.000000D+00  0.000000D+00  0.373787D+02
 Dipole Derivatives after L701:
                 1             2             3             4             5 
      1   0.102464D+00  0.000000D+00  0.000000D+00  0.102463D+00  0.000000D+00
      2   0.000000D+00  0.214215D-01  0.417136D-01  0.000000D+00  0.214217D-01
      3   0.000000D+00  0.594065D-01 -0.352074D+00  0.000000D+00 -0.594065D-01
                 6             7             8             9            10 
      1   0.000000D+00 -0.168842D+00  0.000000D+00  0.000000D+00 -0.168842D+00
      2  -0.417137D-01  0.000000D+00 -0.192600D+00 -0.865743D-01  0.000000D+00
      3  -0.352074D+00  0.000000D+00 -0.658122D-02 -0.485951D+00  0.000000D+00
                11            12            13            14            15 
      1   0.000000D+00  0.000000D+00 -0.296510D-01 -0.316299D-01 -0.950009D-03
      2  -0.192600D+00  0.865744D-01 -0.615239D-01  0.262288D-01 -0.183773D-04
      3   0.658122D-02 -0.485951D+00  0.199579D-02 -0.435528D-02  0.150917D+00
                16            17            18            19            20 
      1  -0.296503D-01  0.316296D-01  0.949853D-03  0.251360D+00  0.000000D+00
      2   0.615237D-01  0.262286D-01 -0.184794D-04  0.000000D+00  0.237442D+00
      3  -0.199595D-02 -0.435529D-02  0.150918D+00  0.000000D+00  0.000000D+00
                21            22            23            24            25 
      1   0.000000D+00 -0.296512D-01 -0.316300D-01  0.950131D-03 -0.296505D-01
      2   0.000000D+00 -0.615240D-01  0.262286D-01  0.184058D-04  0.615238D-01
      3   0.107238D+01 -0.199580D-02  0.435528D-02  0.150918D+00  0.199595D-02
                26            27 
      1   0.316297D-01 -0.949976D-03
      2   0.262286D-01  0.185060D-04
      3   0.435529D-02  0.150918D+00
 Hessian after L701:
                1             2             3             4             5 
      1  0.103975D+02
      2 -0.943777D-05  0.504528D+01
      3 -0.342530D-05 -0.278276D+00  0.147842D+02
      4 -0.700765D+01  0.137257D-04  0.000000D+00  0.103975D+02
      5  0.137257D-04  0.427885D+00  0.121514D+00 -0.943777D-05  0.504528D+01
      6  0.000000D+00 -0.121514D+00 -0.936448D+01  0.342530D-05  0.278276D+00
      7 -0.127940D+00  0.000000D+00  0.000000D+00 -0.316888D+00  0.000000D+00
      8  0.000000D+00 -0.945537D-01  0.777329D-01  0.000000D+00 -0.306830D+00
      9  0.000000D+00  0.135184D+00  0.194676D+00  0.000000D+00 -0.869437D-02
     10 -0.316888D+00  0.000000D+00  0.000000D+00 -0.127940D+00  0.000000D+00
     11  0.000000D+00 -0.306830D+00 -0.107305D-01  0.000000D+00 -0.945537D-01
     12  0.000000D+00  0.869437D-02  0.487386D+00  0.000000D+00 -0.135184D+00
     13 -0.149300D+01  0.106606D+01 -0.219201D-01  0.900528D-01  0.271222D-01
     14  0.113407D+01 -0.244473D+01 -0.122681D-01 -0.242512D-01 -0.350014D-01
     15  0.805451D-01  0.598521D-01 -0.316356D+01 -0.540718D-02 -0.198124D-01
     16 -0.149302D+01 -0.106606D+01  0.219232D-01  0.900529D-01 -0.271225D-01
     17 -0.113407D+01 -0.244472D+01 -0.122703D-01  0.242506D-01 -0.350016D-01
     18 -0.805418D-01  0.598509D-01 -0.316357D+01  0.540724D-02 -0.198127D-01
     19 -0.139094D+00  0.000000D+00  0.000000D+00 -0.139094D+00  0.000000D+00
     20  0.000000D+00 -0.112320D+00  0.117450D+00  0.000000D+00 -0.112320D+00
     21  0.000000D+00  0.965832D-01  0.122575D+00  0.000000D+00 -0.965832D-01
     22  0.900528D-01  0.271222D-01 -0.289987D-03 -0.149300D+01  0.106606D+01
     23 -0.242512D-01 -0.350014D-01 -0.157570D-02  0.113407D+01 -0.244473D+01
     24  0.540718D-02  0.198124D-01  0.513820D-01 -0.805451D-01 -0.598521D-01
     25  0.900529D-01 -0.271225D-01  0.289923D-03 -0.149302D+01 -0.106606D+01
     26  0.242506D-01 -0.350016D-01 -0.157563D-02 -0.113407D+01 -0.244472D+01
     27 -0.540724D-02  0.198127D-01  0.513819D-01  0.805418D-01 -0.598509D-01
                6             7             8             9            10 
      6  0.147842D+02
      7  0.000000D+00  0.896321D+01
      8  0.107305D-01  0.000000D+00 -0.177793D+01
      9  0.487386D+00  0.000000D+00 -0.180555D+01  0.339122D+01
     10  0.000000D+00 -0.632330D+01  0.000000D+00  0.000000D+00  0.896321D+01
     11 -0.777329D-01  0.000000D+00  0.292584D+01  0.762682D-01  0.000000D+00
     12  0.194676D+00  0.000000D+00 -0.762682D-01 -0.355210D+01  0.000000D+00
     13  0.289987D-03 -0.790506D-02  0.273587D-01  0.481699D-01 -0.769852D-02
     14  0.157570D-02  0.137625D-01  0.934310D-02  0.507475D-01  0.109776D-01
     15  0.513820D-01  0.138330D-01  0.294578D-01  0.263738D-01  0.211691D-01
     16 -0.289923D-03 -0.790520D-02 -0.273586D-01 -0.481697D-01 -0.769878D-02
     17  0.157563D-02 -0.137625D-01  0.934333D-02  0.507478D-01 -0.109776D-01
     18  0.513819D-01 -0.138329D-01  0.294578D-01  0.263737D-01 -0.211689D-01
     19  0.000000D+00 -0.216388D+01  0.000000D+00  0.000000D+00 -0.216388D+01
     20 -0.117450D+00  0.000000D+00 -0.722384D+00  0.158363D+01  0.000000D+00
     21  0.122575D+00  0.000000D+00  0.175600D+01 -0.669498D+00  0.000000D+00
     22  0.219201D-01 -0.769852D-02  0.102648D-01 -0.724692D-01 -0.790506D-02
     23  0.122681D-01  0.109776D-01 -0.214137D-01 -0.411652D-01  0.137625D-01
     24 -0.316356D+01 -0.211691D-01 -0.107807D-01  0.477850D-01 -0.138330D-01
     25 -0.219232D-01 -0.769878D-02 -0.102648D-01  0.724690D-01 -0.790520D-02
     26  0.122703D-01 -0.109776D-01 -0.214137D-01 -0.411657D-01 -0.137625D-01
     27 -0.316357D+01  0.211689D-01 -0.107808D-01  0.477850D-01  0.138329D-01
               11            12            13            14            15 
     11 -0.177793D+01
     12  0.180555D+01  0.339122D+01
     13  0.102648D-01  0.724692D-01  0.153617D+01
     14 -0.214137D-01  0.411652D-01 -0.119033D+01  0.240521D+01
     15  0.107807D-01  0.477850D-01 -0.104578D+00 -0.835989D-01  0.297926D+01
     16 -0.102648D-01 -0.724690D-01 -0.151210D+00  0.957484D-02 -0.775753D-02
     17 -0.214137D-01  0.411657D-01 -0.957388D-02  0.776789D-01  0.151188D-02
     18  0.107808D-01  0.477850D-01  0.775736D-02  0.151185D-02  0.653942D-01
     19  0.000000D+00  0.000000D+00 -0.359692D-03  0.195983D-02  0.830294D-03
     20 -0.722385D+00 -0.158363D+01  0.491197D-02  0.118039D-03  0.346147D-02
     21 -0.175600D+01 -0.669498D+00 -0.212981D-02 -0.785828D-03 -0.296840D-02
     22  0.273587D-01 -0.481699D-01  0.336094D-01  0.542127D-01  0.711948D-03
     23  0.934310D-02 -0.507475D-01  0.542127D-01  0.427745D-01  0.105492D-02
     24 -0.294578D-01  0.263738D-01 -0.711948D-03 -0.105492D-02 -0.381618D-02
     25 -0.273586D-01  0.481697D-01  0.343990D-03 -0.997508D-02  0.653501D-03
     26  0.934333D-02 -0.507478D-01  0.997492D-02 -0.339832D-01 -0.270751D-02
     27 -0.294578D-01  0.263737D-01  0.653558D-03  0.270750D-02  0.145759D-03
               16            17            18            19            20 
     16  0.153619D+01
     17  0.119033D+01  0.240521D+01
     18  0.104575D+00 -0.835974D-01  0.297927D+01
     19 -0.359701D-03 -0.195981D-02 -0.830235D-03  0.460739D+01
     20 -0.491193D-02  0.118071D-03  0.346139D-02  0.000000D+00  0.166894D+01
     21  0.212986D-02 -0.785912D-03 -0.296846D-02  0.000000D+00  0.000000D+00
     22  0.343990D-03  0.997492D-02 -0.653558D-03 -0.359641D-03  0.491195D-02
     23 -0.997508D-02 -0.339832D-01 -0.270750D-02  0.195987D-02  0.118025D-03
     24 -0.653501D-03  0.270751D-02  0.145759D-03 -0.830338D-03 -0.346147D-02
     25  0.336088D-01 -0.542126D-01 -0.711882D-03 -0.359655D-03 -0.491192D-02
     26 -0.542126D-01  0.427750D-01  0.105488D-02 -0.195984D-02  0.118067D-03
     27  0.711882D-03 -0.105488D-02 -0.381613D-02  0.830280D-03 -0.346138D-02
               21            22            23            24            25 
     21  0.110572D+01
     22  0.212981D-02  0.153617D+01
     23  0.785828D-03 -0.119033D+01  0.240521D+01
     24 -0.296840D-02  0.104578D+00  0.835989D-01  0.297926D+01
     25 -0.212986D-02 -0.151210D+00  0.957484D-02  0.775753D-02  0.153619D+01
     26  0.785913D-03 -0.957388D-02  0.776789D-01 -0.151188D-02  0.119033D+01
     27 -0.296846D-02 -0.775736D-02 -0.151185D-02  0.653942D-01 -0.104575D+00
               26            27 
     26  0.240521D+01
     27  0.835974D-01  0.297927D+01
 Leave Link  701 at Wed Jul  8 09:32:26 2026, MaxMem=  5580783616 cpu:               3.1 elap:               0.3
 (Enter /usr/local/g16-gpu/g16/l702.exe)
 L702 exits ... SP integral derivatives will be done elsewhere.
 Leave Link  702 at Wed Jul  8 09:32:26 2026, MaxMem=  5580783616 cpu:               0.1 elap:               0.0
 (Enter /usr/local/g16-gpu/g16/l703.exe)
 Integral derivatives from FoFJK, PRISM(SPDF).
 Compute integral second derivatives, UseDBF=F ICtDFT=           0.
 ICntrl=    100127.
 Calling FoFJK, ICntrl=    100127 FMM=F ISym2X=1 I1Cent= 0 IOpClX= 1 NMat=1 NMatS=1 NMatT=0.
 FoFJK:  IHMeth= 1 ICntrl=  100127 DoSepK=F KAlg= 0 I1Cent=           0 FoldK=F
 IRaf=         0 NMat=       1 IRICut=       1 DoRegI=T DoRafI=F ISym2E= 1 IDoP0=0 IntGTp=1.
 FoFCou: FMM=F IPFlag=           0 FMFlag=      100000 FMFlg1=         800
         NFxFlg=           0 DoJE=F BraDBF=F KetDBF=F FulRan=T
         wScrn=  0.000000 ICntrl=    100127 IOpCl=  1 I1Cent=           0 NGrid=           0
         NMat0=    1 NMatS0=      1 NMatT0=    0 NMatD0=    1 NMtDS0=    0 NMtDT0=    0
 Petite list used in FoFCou.
 FoFCou:  KetSym=F NOpSet=  2 NOpAb=2 NOp=  2.
 FoFCou:  CnvScl= 1.00D+00 Thresh= 1.00D-12 IAcrcy=      10.
 PrismS was handed  5580580139 working-precision words and  2051 shell-pairs
 FoFCou: LinMIO=F DoNuc=F BraDBF=F KetDBF=F HaveP=T PDBF=F HaveZ=T HaveW=F
         NIJTC =      10 NIJTAt=       0 NIJTCD=       0 NIJTT =      10
         IJTBeg=       1 IJTEnd=      10 KLTBeg=       1 KLTEnd=      10
         IPTBeg=       1 IPTEnd=      10 IPTBCv=       1 IPTECv=      10
         IZTBeg=       1 IZTEnd=      10 IZTBCv=       1 IZTECv=      10
         IWTBeg=      11 IWTEnd=      10 IWTBCv=      11 IWTECv=      10
         INTBeg=       1 INTEnd=       0 IFTBCv=       1 IFTECv=      10
 NCel replicated for PrismC:     1
 CoulSu-InSpLW:  IPartL=    0 NPrtUS=   12 NPrtUL=    1 DoSpLW=F IThBeg=    0 IThEnd=   11 NThAct=   12.
 CoulSu:  IncTry=  1024 NBBP=        2104326 NTPThr=   100 NPartT=   12 Incr=        1024 LDynOK=F GPUOK=F.
 CoulSu:  NPrtUS=  12 ThrOK=T IAlg=2 LenDen=           0 LWGrdD=           0 DoCopy=F ISkipM=0
          DoSpLW=F IThBeg=    0 IThEnd=   11.
 Enter PrismC:  IPart=  0 JobTyp=22 DoJE=F Cont=F.
 Enter PrismC:  IPart=  1 JobTyp=22 DoJE=F Cont=F.
 PrismC:  IPart=     1 DynPar=T LinDyn=F Incr=        1024 UseFst=F UseS4=T ISplat=2.
 PrismC was handed   465009700 working-precision words and  2051 shell-pairs
 Enter PrismC:  IPart=  7 JobTyp=22 DoJE=F Cont=F.
 PrismC:  IPart=     0 DynPar=T LinDyn=F Incr=        1024 UseFst=F UseS4=T ISplat=2.
 PrismC was handed   465009700 working-precision words and  2051 shell-pairs
 PrismC:  IPart=     7 DynPar=T LinDyn=F Incr=        1024 UseFst=F UseS4=T ISplat=2.
 PrismC was handed   465009700 working-precision words and  2051 shell-pairs
 Enter PrismC:  IPart= 10 JobTyp=22 DoJE=F Cont=F.
 Enter PrismC:  IPart=  5 JobTyp=22 DoJE=F Cont=F.
 PrismC:  IPart=    10 DynPar=T LinDyn=F Incr=        1024 UseFst=F UseS4=T ISplat=2.
 Enter PrismC:  IPart=  4 JobTyp=22 DoJE=F Cont=F.
 PrismC was handed   465009700 working-precision words and  2051 shell-pairs
 Enter PrismC:  IPart=  6 JobTyp=22 DoJE=F Cont=F.
 PrismC:  IPart=     5 DynPar=T LinDyn=F Incr=        1024 UseFst=F UseS4=T ISplat=2.
 PrismC was handed   465009700 working-precision words and  2051 shell-pairs
 PrismC:  IPart=     4 DynPar=T LinDyn=F Incr=        1024 UseFst=F UseS4=T ISplat=2.
 PrismC:  IPart=     6 DynPar=T LinDyn=F Incr=        1024 UseFst=F UseS4=T ISplat=2.
 PrismC was handed   465009700 working-precision words and  2051 shell-pairs
 PrismC was handed   465009700 working-precision words and  2051 shell-pairs
 Enter PrismC:  IPart=  3 JobTyp=22 DoJE=F Cont=F.
 Enter PrismC:  IPart=  8 JobTyp=22 DoJE=F Cont=F.
 PrismC:  IPart=     3 DynPar=T LinDyn=F Incr=        1024 UseFst=F UseS4=T ISplat=2.
 PrismC was handed   465009700 working-precision words and  2051 shell-pairs
 Enter PrismC:  IPart=  2 JobTyp=22 DoJE=F Cont=F.
 PrismC:  IPart=     8 DynPar=T LinDyn=F Incr=        1024 UseFst=F UseS4=T ISplat=2.
 Enter PrismC:  IPart=  9 JobTyp=22 DoJE=F Cont=F.
 PrismC:  IPart=     2 DynPar=T LinDyn=F Incr=        1024 UseFst=F UseS4=T ISplat=2.
 Enter PrismC:  IPart= 11 JobTyp=22 DoJE=F Cont=F.
 PrismC was handed   465009700 working-precision words and  2051 shell-pairs
 PrismC was handed   465009700 working-precision words and  2051 shell-pairs
 PrismC:  IPart=     9 DynPar=T LinDyn=F Incr=        1024 UseFst=F UseS4=T ISplat=2.
 PrismC was handed   465009700 working-precision words and  2051 shell-pairs
 PrismC:  IPart=    11 DynPar=T LinDyn=F Incr=        1024 UseFst=F UseS4=T ISplat=2.
 PrismC was handed   465009700 working-precision words and  2051 shell-pairs
 IPart=  1 NShTot=       64005 NShNF=       64005 NShFF=           0 MinMC=       7
           NShCPU=       64005 NBCPU=        1399 AvBCPU=        45.8
           NShGPU=           0 NBGPU=           0 AvBGPU=         0.0
 IPart=  6 NShTot=       72418 NShNF=       72418 NShFF=           0 MinMC=       7
           NShCPU=       72418 NBCPU=        1781 AvBCPU=        40.7
           NShGPU=           0 NBGPU=           0 AvBGPU=         0.0
 IPart=  7 NShTot=       80367 NShNF=       80367 NShFF=           0 MinMC=       7
           NShCPU=       80367 NBCPU=        2064 AvBCPU=        38.9
           NShGPU=           0 NBGPU=           0 AvBGPU=         0.0
 IPart=  4 NShTot=       60768 NShNF=       60768 NShFF=           0 MinMC=       7
           NShCPU=       60768 NBCPU=        1471 AvBCPU=        41.3
           NShGPU=           0 NBGPU=           0 AvBGPU=         0.0
 IPart=  8 NShTot=       81315 NShNF=       81315 NShFF=           0 MinMC=       7
           NShCPU=       81315 NBCPU=        2245 AvBCPU=        36.2
           NShGPU=           0 NBGPU=           0 AvBGPU=         0.0
 IPart=  9 NShTot=       87957 NShNF=       87957 NShFF=           0 MinMC=       7
           NShCPU=       87957 NBCPU=        2271 AvBCPU=        38.7
           NShGPU=           0 NBGPU=           0 AvBGPU=         0.0
 IPart= 11 NShTot=       68246 NShNF=       68246 NShFF=           0 MinMC=       7
           NShCPU=       68246 NBCPU=        1703 AvBCPU=        40.1
           NShGPU=           0 NBGPU=           0 AvBGPU=         0.0
 IPart=  3 NShTot=       78706 NShNF=       78706 NShFF=           0 MinMC=       7
           NShCPU=       78706 NBCPU=        2112 AvBCPU=        37.3
           NShGPU=           0 NBGPU=           0 AvBGPU=         0.0
 IPart= 10 NShTot=       91966 NShNF=       91966 NShFF=           0 MinMC=       7
           NShCPU=       91966 NBCPU=        2269 AvBCPU=        40.5
           NShGPU=           0 NBGPU=           0 AvBGPU=         0.0
 IPart=  2 NShTot=       68835 NShNF=       68835 NShFF=           0 MinMC=       7
           NShCPU=       68835 NBCPU=        1873 AvBCPU=        36.8
           NShGPU=           0 NBGPU=           0 AvBGPU=         0.0
 IPart=  5 NShTot=       75417 NShNF=       75417 NShFF=           0 MinMC=       7
           NShCPU=       75417 NBCPU=        1900 AvBCPU=        39.7
           NShGPU=           0 NBGPU=           0 AvBGPU=         0.0
 IPart=  0 NShTot=       62433 NShNF=       62433 NShFF=           0 MinMC=       7
           NShCPU=       62433 NBCPU=        1725 AvBCPU=        36.2
           NShGPU=           0 NBGPU=           0 AvBGPU=         0.0
 CoulSu:  NxtVal=        1148929 LenVP=      465009701 MinMC=       7.
 ReadGW:  IGet=0 IStart=           1 Next=           1 LGW=           0.
 Remaining memory in FofDFT     5322.19 Mw
 CkSvGd:  ISavGI=        -1 IRadAn=       5 IRASav=       5 ISavGd=        -1.
 CalDSu-InSpLW:  IPartL=    0 NPrtUS=   12 NPrtUL=    1 DoSpLW=F IThBeg=    0 IThEnd=   11 NThAct=   12.
 CalDSu:  NPrtUS=  12 ThrOK=T IAlg=1 DoDPD=T LenP=       15225 LenD1P=             0 GPUOK=F
          ISkipM=0 DoSpLW=F IThBeg=    0 IThEnd=   11.
 IPart=  0 IRanGd=          0 ScrnBf=T ScrnGd=T RCrit=4.00D+00 DoMicB=T.
 IPart=  1         5881 of         6534 points in       8 batches and       50 microbatches, Max-NSigAt=       9 Max-NSgAt2=       9
 IPart=  7         7565 of         8078 points in       7 batches and       24 microbatches, Max-NSigAt=       9 Max-NSgAt2=       9
 IPart=  8         8114 of         9316 points in      13 batches and       76 microbatches, Max-NSigAt=       9 Max-NSgAt2=       9
 IPart=  5         7155 of         7716 points in       9 batches and       48 microbatches, Max-NSigAt=       9 Max-NSgAt2=       9
 IPart= 10         8743 of         9612 points in      12 batches and       82 microbatches, Max-NSigAt=       9 Max-NSgAt2=       9
 IPart= 11        11696 of        13588 points in      13 batches and       53 microbatches, Max-NSigAt=       9 Max-NSgAt2=       9
 IPart=  3         7115 of         7758 points in       8 batches and       52 microbatches, Max-NSigAt=       9 Max-NSgAt2=       9
 IPart=  9         7416 of         8032 points in      10 batches and       69 microbatches, Max-NSigAt=       9 Max-NSgAt2=       9
 IPart=  4         5768 of         6108 points in       6 batches and       37 microbatches, Max-NSigAt=       9 Max-NSgAt2=       9
 IPart=  0         8114 of         8198 points in       5 batches and       24 microbatches, Max-NSigAt=       9 Max-NSgAt2=       9
 IPart=  2         7633 of         7904 points in       6 batches and       36 microbatches, Max-NSigAt=       9 Max-NSgAt2=       9
 IPart=  6         7495 of         7602 points in       5 batches and       23 microbatches, Max-NSigAt=       9 Max-NSgAt2=       9
 Polarizability after L703:
                1             2             3 
      1  0.285520D+02
      2  0.385850D-04  0.478450D+02
      3  0.000000D+00  0.000000D+00  0.373787D+02
 Dipole Derivatives after L703:
                 1             2             3             4             5 
      1   0.102464D+00  0.000000D+00  0.000000D+00  0.102463D+00  0.000000D+00
      2   0.000000D+00  0.214215D-01  0.417136D-01  0.000000D+00  0.214217D-01
      3   0.000000D+00  0.594065D-01 -0.352074D+00  0.000000D+00 -0.594065D-01
                 6             7             8             9            10 
      1   0.000000D+00 -0.168842D+00  0.000000D+00  0.000000D+00 -0.168842D+00
      2  -0.417137D-01  0.000000D+00 -0.192600D+00 -0.865743D-01  0.000000D+00
      3  -0.352074D+00  0.000000D+00 -0.658122D-02 -0.485951D+00  0.000000D+00
                11            12            13            14            15 
      1   0.000000D+00  0.000000D+00 -0.296510D-01 -0.316299D-01 -0.950009D-03
      2  -0.192600D+00  0.865744D-01 -0.615239D-01  0.262288D-01 -0.183773D-04
      3   0.658122D-02 -0.485951D+00  0.199579D-02 -0.435528D-02  0.150917D+00
                16            17            18            19            20 
      1  -0.296503D-01  0.316296D-01  0.949853D-03  0.251360D+00  0.000000D+00
      2   0.615237D-01  0.262286D-01 -0.184794D-04  0.000000D+00  0.237442D+00
      3  -0.199595D-02 -0.435529D-02  0.150918D+00  0.000000D+00  0.000000D+00
                21            22            23            24            25 
      1   0.000000D+00 -0.296512D-01 -0.316300D-01  0.950131D-03 -0.296505D-01
      2   0.000000D+00 -0.615240D-01  0.262286D-01  0.184058D-04  0.615238D-01
      3   0.107238D+01 -0.199580D-02  0.435528D-02  0.150918D+00  0.199595D-02
                26            27 
      1   0.316297D-01 -0.949976D-03
      2   0.262286D-01  0.185060D-04
      3   0.435529D-02  0.150918D+00
 Hessian after L703:
                1             2             3             4             5 
      1  0.637860D+00
      2 -0.107160D-05  0.847135D+00
      3  0.000000D+00  0.385153D-02  0.116549D+00
      4 -0.115494D+00  0.000000D+00  0.000000D+00  0.637860D+00
      5  0.000000D+00 -0.556949D+00 -0.648724D-03 -0.107160D-05  0.847135D+00
      6  0.000000D+00  0.648724D-03 -0.466433D-01  0.000000D+00 -0.385153D-02
      7  0.859423D-03  0.000000D+00  0.000000D+00 -0.198516D-03  0.000000D+00
      8  0.000000D+00 -0.252203D-02  0.269371D-02  0.000000D+00  0.137644D-02
      9  0.000000D+00  0.245175D-02 -0.462355D-02  0.000000D+00 -0.711613D-02
     10 -0.198516D-03  0.000000D+00  0.000000D+00  0.859423D-03  0.000000D+00
     11  0.000000D+00  0.137644D-02 -0.292816D-02  0.000000D+00 -0.252203D-02
     12  0.000000D+00  0.711613D-02 -0.760042D-02  0.000000D+00 -0.245175D-02
     13 -0.264927D+00 -0.124038D+00 -0.152059D-02  0.422469D-02  0.168977D-02
     14 -0.119493D+00 -0.129709D+00 -0.192145D-02 -0.301944D-01 -0.145235D-01
     15 -0.136685D-02 -0.953429D-03 -0.382371D-01  0.299460D-03 -0.357737D-04
     16 -0.264927D+00  0.124040D+00  0.152040D-02  0.422487D-02 -0.168993D-02
     17  0.119495D+00 -0.129711D+00 -0.192134D-02  0.301943D-01 -0.145236D-01
     18  0.136664D-02 -0.953282D-03 -0.382367D-01 -0.299462D-03 -0.357973D-04
     19 -0.162296D-02  0.000000D+00  0.000000D+00 -0.162281D-02  0.000000D+00
     20  0.000000D+00 -0.573763D-03  0.842419D-03  0.000000D+00 -0.573741D-03
     21  0.000000D+00 -0.122330D-01  0.821380D-02  0.000000D+00  0.122330D-01
     22  0.422469D-02  0.168977D-02 -0.444146D-05 -0.264927D+00 -0.124038D+00
     23 -0.301944D-01 -0.145235D-01  0.160018D-04 -0.119493D+00 -0.129709D+00
     24 -0.299460D-03  0.357737D-04  0.528935D-02  0.136685D-02  0.953429D-03
     25  0.422487D-02 -0.168993D-02  0.445198D-05 -0.264927D+00  0.124040D+00
     26  0.301943D-01 -0.145236D-01  0.160040D-04  0.119495D+00 -0.129711D+00
     27  0.299462D-03  0.357973D-04  0.528932D-02 -0.136664D-02  0.953282D-03
                6             7             8             9            10 
      6  0.116549D+00
      7  0.000000D+00  0.103724D-02
      8  0.292816D-02  0.000000D+00  0.348092D+00
      9 -0.760042D-02  0.000000D+00 -0.193471D-01 -0.107799D-01
     10  0.000000D+00  0.835464D-03  0.000000D+00  0.000000D+00  0.103724D-02
     11 -0.269371D-02  0.000000D+00 -0.427919D+00 -0.895969D-01  0.000000D+00
     12 -0.462355D-02  0.000000D+00  0.895969D-01  0.127015D+00  0.000000D+00
     13  0.444146D-05 -0.392895D-04  0.184509D-03  0.879126D-05  0.252040D-03
     14 -0.160018D-04  0.254279D-04 -0.110470D-03 -0.128589D-03  0.111536D-03
     15  0.528935D-02  0.779115D-04 -0.308950D-03 -0.210569D-03  0.196653D-03
     16 -0.445198D-05 -0.392900D-04 -0.184514D-03 -0.879873D-05  0.252039D-03
     17 -0.160040D-04 -0.254261D-04 -0.110464D-03 -0.128582D-03 -0.111538D-03
     18  0.528932D-02 -0.779110D-04 -0.308938D-03 -0.210555D-03 -0.196653D-03
     19  0.000000D+00 -0.295906D-02  0.000000D+00  0.000000D+00 -0.295916D-02
     20 -0.842423D-03  0.000000D+00  0.809379D-01  0.113777D+00  0.000000D+00
     21  0.821380D-02  0.000000D+00 -0.748083D-01 -0.104800D+00  0.000000D+00
     22  0.152059D-02  0.252040D-03  0.110137D-03 -0.678775D-04 -0.392895D-04
     23  0.192145D-02  0.111536D-03  0.127914D-03  0.440762D-04  0.254279D-04
     24 -0.382371D-01 -0.196653D-03 -0.222780D-03  0.604878D-03 -0.779115D-04
     25 -0.152040D-02  0.252039D-03 -0.110137D-03  0.678810D-04 -0.392900D-04
     26  0.192134D-02 -0.111538D-03  0.127916D-03  0.440750D-04 -0.254261D-04
     27 -0.382367D-01  0.196653D-03 -0.222795D-03  0.604863D-03  0.779110D-04
               11            12            13            14            15 
     11  0.348092D+00
     12  0.193471D-01 -0.107799D-01
     13  0.110137D-03  0.678775D-04  0.273880D+00
     14  0.127914D-03 -0.440762D-04  0.135231D+00  0.137431D+00
     15  0.222780D-03  0.604878D-03  0.154896D-02  0.160481D-02  0.257474D-01
     16 -0.110137D-03 -0.678810D-04 -0.159849D-01  0.135472D-01  0.270360D-03
     17  0.127916D-03 -0.440750D-04 -0.135471D-01  0.100799D-01  0.333524D-03
     18  0.222795D-03  0.604863D-03 -0.270366D-03  0.333528D-03  0.312220D-02
     19  0.000000D+00  0.000000D+00 -0.348575D-03 -0.332360D-03 -0.113192D-02
     20  0.809379D-01 -0.113777D+00 -0.379063D-03 -0.156306D-03 -0.885963D-03
     21  0.748083D-01 -0.104800D+00  0.225853D-03  0.194762D-03 -0.445854D-03
     22  0.184509D-03 -0.879126D-05  0.163962D-02  0.926742D-03  0.851981D-04
     23 -0.110470D-03  0.128589D-03  0.926742D-03 -0.465620D-02  0.568194D-04
     24  0.308950D-03 -0.210569D-03 -0.851981D-04 -0.568194D-04  0.125199D-01
     25 -0.184514D-03  0.879873D-05  0.130303D-02  0.177549D-03  0.202121D-04
     26 -0.110464D-03  0.128582D-03 -0.177543D-03  0.151631D-02 -0.338198D-04
     27  0.308938D-03 -0.210555D-03  0.202240D-04  0.338235D-04 -0.839023D-02
               16            17            18            19            20 
     16  0.273880D+00
     17 -0.135233D+00  0.137433D+00
     18 -0.154874D-02  0.160471D-02  0.257471D-01
     19 -0.348569D-03  0.332359D-03  0.113192D-02  0.105582D-01
     20  0.379070D-03 -0.156319D-03 -0.885999D-03  0.000000D+00 -0.160103D+00
     21 -0.225849D-03  0.194764D-03 -0.445851D-03  0.000000D+00  0.000000D+00
     22  0.130303D-02 -0.177543D-03 -0.202240D-04 -0.348524D-03 -0.379077D-03
     23  0.177549D-03  0.151631D-02 -0.338235D-04 -0.332321D-03 -0.156320D-03
     24 -0.202121D-04  0.338198D-04 -0.839023D-02  0.113188D-02  0.885966D-03
     25  0.163960D-02 -0.926777D-03 -0.851805D-04 -0.348523D-03  0.379078D-03
     26 -0.926777D-03 -0.465618D-02  0.568127D-04  0.332322D-03 -0.156324D-03
     27  0.851805D-04 -0.568127D-04  0.125199D-01 -0.113187D-02  0.886001D-03
               21            22            23            24            25 
     21  0.194956D+00
     22 -0.225853D-03  0.273880D+00
     23 -0.194763D-03  0.135231D+00  0.137431D+00
     24 -0.445851D-03 -0.154896D-02 -0.160481D-02  0.257474D-01
     25  0.225848D-03 -0.159849D-01  0.135472D-01 -0.270360D-03  0.273880D+00
     26 -0.194763D-03 -0.135471D-01  0.100799D-01 -0.333524D-03 -0.135233D+00
     27 -0.445853D-03  0.270366D-03 -0.333528D-03  0.312220D-02  0.154874D-02
               26            27 
     26  0.137433D+00
     27 -0.160471D-02  0.257471D-01
 Leave Link  703 at Wed Jul  8 09:32:34 2026, MaxMem=  5580783616 cpu:              92.3 elap:               7.8
 (Enter /usr/local/g16-gpu/g16/l716.exe)
 FrcOut:
 IF    =        62 IFX   =        89 IFXYZ =       116
 IFFX  =       143 IFFFX =       521 IFLen =        27
 IFFLen=       378 IFFFLn=         0 IEDerv=       521
 LEDerv=      1349 IFroze=      2210 ICStrt=     50058
 Dipole        = 1.62872922D-16-1.92001582D-15-9.76857644D-01
 DipoleDeriv   = 1.02463774D-01 4.03830250D-07 4.83090313D-07
                 3.21897775D-07 2.14215216D-02 5.94065379D-02
                 2.92357893D-07 4.17136271D-02-3.52074383D-01
                 1.02463358D-01 8.31208282D-09-4.81972097D-07
                 2.80022474D-07 2.14217479D-02-5.94065330D-02
                -2.92782563D-07-4.17136776D-02-3.52074397D-01
                -1.68842434D-01 3.07617903D-07 1.00069996D-07
                -2.27687463D-09-1.92599975D-01-6.58122397D-03
                -6.92295216D-08-8.65743467D-02-4.85950737D-01
                -1.68842156D-01-1.03321866D-07-1.02019910D-07
                 3.91146016D-08-1.92600308D-01 6.58121805D-03
                 6.82418529D-08 8.65744044D-02-4.85950722D-01
                -2.96510356D-02-6.15238811D-02 1.99579020D-03
                -3.16298821D-02 2.62288009D-02-4.35528289D-03
                -9.50008779D-04-1.83772864D-05 1.50917500D-01
                -2.96503241D-02 6.15237347D-02-1.99594740D-03
                 3.16296306D-02 2.62286404D-02-4.35528646D-03
                 9.49853425D-04-1.84793538D-05 1.50917582D-01
                 2.51360437D-01-2.52454543D-07-2.97927372D-08
                -1.29580993D-07 2.37442330D-01-4.73520002D-08
                 5.18971416D-09-6.82192469D-08 1.07238015D+00
                -2.96511741D-02-6.15240418D-02-1.99579576D-03
                -3.16299900D-02 2.62286500D-02 4.35528049D-03
                 9.50131033D-04 1.84057643D-05 1.50917505D-01
                -2.96504503D-02 6.15238264D-02 1.99595188D-03
                 3.16297342D-02 2.62285832D-02 4.35528591D-03
                -9.49976231D-04 1.85059951D-05 1.50917574D-01
 Polarizability= 2.85520196D+01 3.85850179D-05 4.78450268D+01
                -9.40921877D-08 4.15553039D-07 3.73787002D+01
 Quadrupole    = 1.76022915D+00 1.05840312D+00-2.81863228D+00
                -3.83453792D-07-2.70961812D-16 2.83686467D-15
 VibFq2-Diag1:  N=     27 IV=          10 MDV=  5580730484 NE2=   206693721
 Full mass-weighted force constant matrix:
 Low frequencies ----2144.1435   -3.3397   -0.0020    0.0010    0.0371    1.9459
 Low frequencies ---    2.6044   24.1533  108.6412
 OrtVCM:  Ph=1 IPass= 1 DotMx1= 0.00D+00
 OrtVCM:  IS=    1 I=    1 IndO=    1 Dot= 1.00D+00 DotN= 1.00D+00 ElMax1= 5.12D-01 ElMax1N= 5.12D-01
 OrtVCM:  Ph=2 NNew=    0 IAdd=    2 IPass= 1 DotMx2= 0.00D+00
 OrtVCM:  IS=    1 I=    2 IndO=    2 Dot= 1.00D+00 DotN= 1.00D+00 ElMax1= 5.12D-01 ElMax1N= 5.12D-01
 OrtVCM:  Ph=2 NNew=    0 IAdd=    3 IPass= 1 DotMx2= 0.00D+00
 OrtVCM:  IS=    1 I=    3 IndO=    3 Dot= 1.00D+00 DotN= 1.00D+00 ElMax1= 5.12D-01 ElMax1N= 5.12D-01
 OrtVCM:  Ph=2 NNew=    0 IAdd=    4 IPass= 1 DotMx2= 8.52D-18
 OrtVCM:  IS=    1 I=    4 IndO=    4 Dot= 1.00D+00 DotN= 1.00D+00 ElMax1= 4.66D-01 ElMax1N= 4.66D-01
 OrtVCM:  Ph=2 NNew=    0 IAdd=    5 IPass= 1 DotMx2= 1.19D-16
 OrtVCM:  IS=    1 I=    5 IndO=    5 Dot= 1.00D+00 DotN= 1.00D+00 ElMax1= 4.75D-01 ElMax1N= 4.75D-01
 OrtVCM:  Ph=2 NNew=    0 IAdd=    6 IPass= 1 DotMx2= 6.97D-16
 OrtVCM:  IS=    1 I=    6 IndO=    6 Dot= 1.00D+00 DotN= 1.00D+00 ElMax1= 4.34D-01 ElMax1N= 4.34D-01
 OrtVCM:  Ph=1 IPass= 1 DotMx1= 5.12D-01
 OrtVCM:  Ph=1 IPass= 2 DotMx1= 2.32D-16
 OrtVCM:  IS=    1 I=    1 IndO=    7 Dot= 4.30D-01 DotN= 4.30D-01 ElMax1= 4.30D-01 ElMax1N= 4.30D-01
 OrtVCM:  Ph=2 NNew=    0 IAdd=    2 IPass= 1 DotMx2= 5.04D-07
 OrtVCM:  Ph=2 NNew=    0 IAdd=    2 IPass= 2 DotMx2= 1.63D-19
 OrtVCM:  IS=    1 I=    2 IndO=    8 Dot= 6.15D-01 DotN= 6.15D-01 ElMax1= 6.15D-01 ElMax1N= 6.15D-01
 OrtVCM:  Ph=2 NNew=    0 IAdd=    3 IPass= 1 DotMx2= 9.55D-02
 OrtVCM:  Ph=2 NNew=    0 IAdd=    3 IPass= 2 DotMx2= 2.06D-17
 OrtVCM:  IS=    1 I=    3 IndO=    9 Dot= 7.64D-01 DotN= 7.64D-01 ElMax1= 7.64D-01 ElMax1N= 7.64D-01
 OrtVCM:  Ph=2 NNew=    0 IAdd=    4 IPass= 1 DotMx2= 4.15D-01
 OrtVCM:  Ph=2 NNew=    0 IAdd=    4 IPass= 2 DotMx2= 6.22D-18
 OrtVCM:  IS=    1 I=    4 IndO=   10 Dot= 2.58D-01 DotN= 2.58D-01 ElMax1= 2.58D-01 ElMax1N= 2.58D-01
 OrtVCM:  Ph=2 NNew=    0 IAdd=    5 IPass= 1 DotMx2= 4.90D-01
 OrtVCM:  Ph=2 NNew=    0 IAdd=    5 IPass= 2 DotMx2= 9.58D-17
 OrtVCM:  IS=    1 I=    5 IndO=   11 Dot= 3.55D-01 DotN= 3.55D-01 ElMax1= 3.55D-01 ElMax1N= 3.55D-01
 OrtVCM:  Ph=2 NNew=    0 IAdd=    6 IPass= 1 DotMx2= 1.80D-01
 OrtVCM:  Ph=2 NNew=    0 IAdd=    6 IPass= 2 DotMx2= 3.21D-17
 OrtVCM:  IS=    1 I=    6 IndO=   12 Dot= 7.06D-01 DotN= 7.06D-01 ElMax1= 7.06D-01 ElMax1N= 7.06D-01
 OrtVCM:  Ph=2 NNew=    0 IAdd=    7 IPass= 1 DotMx2= 2.71D-01
 OrtVCM:  Ph=2 NNew=    0 IAdd=    7 IPass= 2 DotMx2= 4.13D-17
 OrtVCM:  IS=    1 I=    7 IndO=   13 Dot= 2.03D-01 DotN= 2.03D-01 ElMax1= 2.03D-01 ElMax1N= 2.03D-01
 OrtVCM:  Ph=2 NNew=    0 IAdd=    8 IPass= 1 DotMx2= 8.65D-02
 OrtVCM:  Ph=2 NNew=    0 IAdd=    8 IPass= 2 DotMx2= 2.34D-17
 OrtVCM:  IS=    1 I=    8 IndO=   14 Dot= 5.30D-01 DotN= 5.30D-01 ElMax1= 5.30D-01 ElMax1N= 5.30D-01
 OrtVCM:  Ph=2 NNew=    0 IAdd=    9 IPass= 1 DotMx2= 4.09D-01
 OrtVCM:  Ph=2 NNew=    0 IAdd=    9 IPass= 2 DotMx2= 6.94D-17
 OrtVCM:  IS=    1 I=    9 IndO=   15 Dot= 4.22D-01 DotN= 4.22D-01 ElMax1= 4.22D-01 ElMax1N= 4.22D-01
 OrtVCM:  Ph=2 NNew=    0 IAdd=   10 IPass= 1 DotMx2= 3.95D-01
 OrtVCM:  Ph=2 NNew=    0 IAdd=   10 IPass= 2 DotMx2= 5.55D-17
 OrtVCM:  IS=    1 I=   10 IndO=   16 Dot= 4.71D-02 DotN= 4.71D-02 ElMax1= 1.60D-01 ElMax1N= 1.60D-01
 OrtVCM:  Ph=2 NNew=    0 IAdd=   11 IPass= 1 DotMx2= 6.45D-01
 OrtVCM:  Ph=2 NNew=    0 IAdd=   11 IPass= 2 DotMx2= 2.78D-17
 OrtVCM:  IS=    1 I=   11 IndO=   17 Dot= 7.10D-02 DotN= 7.10D-02 ElMax1= 1.69D-01 ElMax1N= 1.69D-01
 OrtVCM:  Ph=2 NNew=    0 IAdd=   12 IPass= 1 DotMx2= 4.40D-01
 OrtVCM:  Ph=2 NNew=    0 IAdd=   12 IPass= 2 DotMx2= 1.95D-16
 OrtVCM:  IS=    1 I=   12 IndO=   18 Dot= 2.02D-01 DotN= 2.02D-01 ElMax1= 2.31D-01 ElMax1N= 2.31D-01
 OrtVCM:  Ph=2 NNew=    0 IAdd=   13 IPass= 1 DotMx2= 3.36D-01
 OrtVCM:  Ph=2 NNew=    0 IAdd=   13 IPass= 2 DotMx2= 1.39D-16
 OrtVCM:  IS=    1 I=   13 IndO=   19 Dot= 6.13D-01 DotN= 6.13D-01 ElMax1= 6.13D-01 ElMax1N= 6.13D-01
 OrtVCM:  Ph=2 NNew=    0 IAdd=   14 IPass= 1 DotMx2= 3.14D-01
 OrtVCM:  Ph=2 NNew=    0 IAdd=   14 IPass= 2 DotMx2= 1.67D-16
 OrtVCM:  IS=    1 I=   14 IndO=   20 Dot= 6.68D-01 DotN= 6.68D-01 ElMax1= 6.68D-01 ElMax1N= 6.68D-01
 OrtVCM:  Ph=2 NNew=    0 IAdd=   15 IPass= 1 DotMx2= 5.15D-01
 OrtVCM:  Ph=2 NNew=    0 IAdd=   15 IPass= 2 DotMx2= 1.00D-16
 OrtVCM:  IS=    1 I=   15 IndO=   21 Dot= 5.17D-01 DotN= 5.17D-01 ElMax1= 5.17D-01 ElMax1N= 5.17D-01
 OrtVCM:  Ph=2 NNew=    0 IAdd=   16 IPass= 1 DotMx2= 4.94D-01
 OrtVCM:  Ph=2 NNew=    0 IAdd=   16 IPass= 2 DotMx2= 1.11D-16
 OrtVCM:  IS=    1 I=   16 IndO=   22 Dot= 3.01D-01 DotN= 3.01D-01 ElMax1= 3.01D-01 ElMax1N= 3.01D-01
 OrtVCM:  Ph=2 NNew=    0 IAdd=   17 IPass= 1 DotMx2= 3.20D-01
 OrtVCM:  Ph=2 NNew=    0 IAdd=   17 IPass= 2 DotMx2= 8.24D-17
 OrtVCM:  IS=    1 I=   17 IndO=   23 Dot= 5.39D-01 DotN= 5.39D-01 ElMax1= 5.39D-01 ElMax1N= 5.39D-01
 OrtVCM:  Ph=2 NNew=    0 IAdd=   18 IPass= 1 DotMx2= 5.15D-01
 OrtVCM:  Ph=2 NNew=    0 IAdd=   18 IPass= 2 DotMx2= 2.50D-16
 OrtVCM:  IS=    1 I=   18 IndO=   24 Dot= 3.84D-01 DotN= 3.84D-01 ElMax1= 3.84D-01 ElMax1N= 3.84D-01
 OrtVCM:  Ph=2 NNew=    0 IAdd=   19 IPass= 1 DotMx2= 7.38D-01
 OrtVCM:  Ph=2 NNew=    0 IAdd=   19 IPass= 2 DotMx2= 5.55D-17
 OrtVCM:  IS=    1 I=   19 IndO=   25 Dot= 1.95D-01 DotN= 1.95D-01 ElMax1= 2.28D-01 ElMax1N= 2.28D-01
 OrtVCM:  Ph=2 NNew=    0 IAdd=   20 IPass= 1 DotMx2= 6.35D-01
 OrtVCM:  Ph=2 NNew=    0 IAdd=   20 IPass= 2 DotMx2= 1.73D-16
 OrtVCM:  IS=    1 I=   20 IndO=   26 Dot= 1.66D-01 DotN= 1.66D-01 ElMax1= 2.88D-01 ElMax1N= 2.88D-01
 OrtVCM:  Ph=2 NNew=    0 IAdd=   21 IPass= 1 DotMx2= 7.08D-01
 OrtVCM:  Ph=2 NNew=    0 IAdd=   21 IPass= 2 DotMx2= 2.04D-16
 OrtVCM:  IS=    1 I=   21 IndO=    0 Dot= 4.24D-31 DotN= 4.24D-31 ElMax1= 2.89D-16 ElMax1N= 2.89D-16
 SchOr2:  IPass= 1 Test2A= 1.00D-01 IOff=     0 NDo=    21 NNew=    20
 OrtVCM:  Ph=1 IPass= 1 DotMx1= 4.51D-01
 OrtVCM:  Ph=1 IPass= 2 DotMx1= 1.96D-16
 OrtVCM:  IS=    1 I=    1 IndO=   27 Dot= 5.00D-01 DotN= 5.00D-01 ElMax1= 5.00D-01 ElMax1N= 5.00D-01
 SchOr2:  IPass= 1 Test2A= 1.00D-01 IOff=    21 NDo=     1 NNew=     1
 VibFq2-Diag2:  N=     21 IV=          10 MDV=  5580730484 NE2=   265749070
 ******    1 imaginary frequencies (negative Signs) ****** 
 Dipole derivative wrt mode   1: -2.78099D-06  7.64550D+00 -1.03499D-06
 Vibrational polarizability contributions from mode   1       0.0000000       0.3421665       0.0000000
[...]
     14  0.192145D-02 -0.129709D+00 -0.119493D+00  0.160018D-04 -0.145235D-01
     15  0.152059D-02 -0.124039D+00 -0.264926D+00 -0.444149D-05  0.168980D-02
     16 -0.382367D-01  0.953280D-03 -0.136664D-02  0.528932D-02  0.357978D-04
     17  0.192134D-02 -0.129710D+00  0.119494D+00  0.160040D-04 -0.145235D-01
     18 -0.152040D-02  0.124040D+00 -0.264927D+00  0.445195D-05 -0.168990D-02
     19  0.821380D-02  0.122330D-01  0.000000D+00  0.821380D-02 -0.122330D-01
     20 -0.842419D-03 -0.573763D-03  0.000000D+00  0.842423D-03 -0.573741D-03
     21  0.000000D+00  0.000000D+00 -0.162296D-02  0.000000D+00  0.000000D+00
     22  0.528935D-02 -0.357732D-04  0.299460D-03 -0.382371D-01 -0.953432D-03
     23 -0.160018D-04 -0.145235D-01 -0.301944D-01 -0.192145D-02 -0.129709D+00
     24  0.444149D-05  0.168980D-02  0.422474D-02 -0.152059D-02 -0.124039D+00
     25  0.528932D-02 -0.357978D-04 -0.299462D-03 -0.382367D-01 -0.953280D-03
     26 -0.160040D-04 -0.145235D-01  0.301943D-01 -0.192134D-02 -0.129710D+00
     27 -0.445195D-05 -0.168990D-02  0.422482D-02  0.152040D-02  0.124040D+00
                6             7             8             9            10 
      6  0.637860D+00
      7  0.000000D+00 -0.107799D-01
      8  0.000000D+00  0.193471D-01  0.348092D+00
      9 -0.198516D-03  0.000000D+00  0.000000D+00  0.103724D-02
     10  0.000000D+00  0.127015D+00 -0.895969D-01  0.000000D+00 -0.107799D-01
     11  0.000000D+00  0.895969D-01 -0.427919D+00  0.000000D+00 -0.193471D-01
     12  0.859423D-03  0.000000D+00  0.000000D+00  0.835464D-03  0.000000D+00
     13 -0.299460D-03 -0.210569D-03  0.308950D-03 -0.779120D-04  0.604878D-03
     14 -0.301944D-01  0.128589D-03 -0.110470D-03  0.254280D-04  0.440761D-04
     15  0.422474D-02 -0.879148D-05  0.184509D-03 -0.392898D-04 -0.678775D-04
     16  0.299462D-03 -0.210555D-03  0.308938D-03  0.779104D-04  0.604863D-03
     17  0.301943D-01  0.128582D-03 -0.110464D-03 -0.254260D-04  0.440751D-04
     18  0.422482D-02  0.879851D-05 -0.184514D-03 -0.392896D-04  0.678810D-04
     19  0.000000D+00 -0.104800D+00  0.748083D-01  0.000000D+00 -0.104800D+00
     20  0.000000D+00 -0.113777D+00  0.809379D-01  0.000000D+00  0.113777D+00
     21 -0.162281D-02  0.000000D+00  0.000000D+00 -0.295906D-02  0.000000D+00
     22 -0.136685D-02  0.604878D-03  0.222781D-03  0.196653D-03 -0.210569D-03
     23 -0.119493D+00 -0.440761D-04  0.127915D-03  0.111536D-03 -0.128589D-03
     24 -0.264926D+00  0.678775D-04  0.110138D-03  0.252039D-03  0.879148D-05
     25  0.136664D-02  0.604863D-03  0.222794D-03 -0.196654D-03 -0.210555D-03
     26  0.119494D+00 -0.440751D-04  0.127915D-03 -0.111538D-03 -0.128582D-03
     27 -0.264927D+00 -0.678810D-04 -0.110137D-03  0.252039D-03 -0.879851D-05
               11            12            13            14            15 
     11  0.348092D+00
     12  0.000000D+00  0.103724D-02
     13 -0.222781D-03 -0.196653D-03  0.257474D-01
     14  0.127915D-03  0.111536D-03 -0.160482D-02  0.137432D+00
     15  0.110138D-03  0.252039D-03 -0.154896D-02  0.135231D+00  0.273880D+00
     16 -0.222794D-03  0.196654D-03  0.312220D-02 -0.333528D-03  0.270367D-03
     17  0.127915D-03 -0.111538D-03 -0.333525D-03  0.100799D-01 -0.135472D-01
     18 -0.110137D-03  0.252039D-03 -0.270359D-03  0.135472D-01 -0.159849D-01
     19 -0.748083D-01  0.000000D+00 -0.445854D-03 -0.194763D-03 -0.225853D-03
     20  0.809379D-01  0.000000D+00  0.885965D-03 -0.156307D-03 -0.379063D-03
     21  0.000000D+00 -0.295916D-02  0.113192D-02 -0.332361D-03 -0.348573D-03
     22 -0.308950D-03  0.779120D-04  0.125199D-01  0.568195D-04  0.851980D-04
     23 -0.110470D-03  0.254280D-04 -0.568195D-04 -0.465619D-02  0.926753D-03
     24  0.184509D-03 -0.392898D-04 -0.851980D-04  0.926753D-03  0.163962D-02
     25 -0.308938D-03 -0.779104D-04 -0.839023D-02 -0.338236D-04 -0.202239D-04
     26 -0.110464D-03 -0.254260D-04  0.338197D-04  0.151631D-02 -0.177544D-03
     27 -0.184514D-03 -0.392896D-04 -0.202121D-04  0.177549D-03  0.130303D-02
               16            17            18            19            20 
     16  0.257471D-01
     17 -0.160470D-02  0.137433D+00
     18  0.154874D-02 -0.135233D+00  0.273881D+00
     19 -0.445851D-03 -0.194764D-03  0.225849D-03  0.194956D+00
     20  0.885997D-03 -0.156318D-03  0.379070D-03  0.000000D+00 -0.160103D+00
     21 -0.113192D-02  0.332359D-03 -0.348570D-03  0.000000D+00  0.000000D+00
     22 -0.839023D-02 -0.338197D-04  0.202121D-04 -0.445851D-03 -0.885968D-03
     23  0.338236D-04  0.151631D-02  0.177549D-03  0.194763D-03 -0.156322D-03
     24  0.202239D-04 -0.177544D-03  0.130303D-02  0.225853D-03 -0.379078D-03
     25  0.125199D-01  0.568125D-04 -0.851806D-04 -0.445853D-03 -0.885999D-03
     26 -0.568125D-04 -0.465618D-02 -0.926767D-03  0.194763D-03 -0.156323D-03
     27  0.851806D-04 -0.926767D-03  0.163961D-02 -0.225849D-03  0.379077D-03
               21            22            23            24            25 
     21  0.105582D-01
     22 -0.113188D-02  0.257474D-01
     23 -0.332322D-03  0.160482D-02  0.137432D+00
     24 -0.348523D-03  0.154896D-02  0.135231D+00  0.273880D+00
     25  0.113188D-02  0.312220D-02  0.333528D-03 -0.270367D-03  0.257471D-01
     26  0.332322D-03  0.333525D-03  0.100799D-01 -0.135472D-01  0.160470D-02
     27 -0.348524D-03  0.270359D-03  0.135472D-01 -0.159849D-01 -0.154874D-02
               26            27 
     26  0.137433D+00
     27 -0.135233D+00  0.273881D+00
 Final forces over variables, Energy=-2.29540462D+02:
  3.39763604D-08 3.39763488D-08-1.08062421D-07-1.08062402D-07
 -5.92404159D-08 3.09716509D-08 2.04709766D-07-5.92404152D-08
  3.09716521D-08 1.48213142D-06-1.48213144D-06 3.33348858D-07
 -3.33348841D-07-1.56130577D-08-3.74528782D-07 4.73673111D-16
  1.56130634D-08 3.74528777D-07-8.15406948D-07 8.15406951D-07
  2.53928870D-08-2.53928871D-08 1.44300515D-07 5.64894472D-07
  1.03424313D-16-1.44300515D-07-5.64894484D-07
 Leave Link  716 at Wed Jul  8 09:32:34 2026, MaxMem=  5580783616 cpu:               0.1 elap:               0.0
 (Enter /usr/local/g16-gpu/g16/l103.exe)

 GradGradGradGradGradGradGradGradGradGradGradGradGradGradGradGradGradGrad
 Berny optimization.
 Search for a local minimum.
 Step number   1 out of a maximum of    2
 All quantities printed in internal units (Hartrees-Bohrs-Radians)
 Second derivative matrix not updated -- analytic derivatives used.
 ITU=  0
     Eigenvalues ---   -0.37178   0.00019   0.00138   0.00166   0.00303
     Eigenvalues ---    0.01230   0.01259   0.03098   0.04352   0.07808
     Eigenvalues ---    0.08998   0.12946   0.14205   0.18364   0.26301
     Eigenvalues ---    0.30980   0.52704   0.73978   0.80504   0.93797
     Eigenvalues ---    1.45691
 Eigenvalue     1 is  -3.72D-01 should be greater than     0.000000 Eigenvector:
                          Y7        X3        X4        Y3        Y4
   1                    0.70923   0.45447  -0.45447  -0.19219  -0.19219
                          Y1        Y2        Y9        Y6        Y8
   1                    0.05026   0.05026   0.03293   0.03293   0.03293
 Angle between quadratic step and forces=  88.54 degrees.
 ClnCor:  largest displacement from symmetrization is 4.99D-10 for atom     9.
 Linear search not attempted -- first point.
 ClnCor:  largest displacement from symmetrization is 4.97D-16 for atom     5.
 B after Tr=    -0.000000    0.000000    0.000000
         Rot=    1.000000   -0.000005    0.000000    0.000000 Ang=  -0.00 deg.
 Variable       Old X    -DE/DX   Delta X   Delta X   Delta X     New X
                                 (Linear)    (Quad)   (Total)
    X1        2.97701   0.00000   0.00000   0.00000   0.00000   2.97701
    Y1       -1.25608   0.00000   0.00000   0.00000   0.00000  -1.25608
    Z1       -0.00000  -0.00000   0.00000   0.00002   0.00001   0.00001
    X2        2.97701   0.00000   0.00000   0.00000   0.00000   2.97701
    Y2        1.25608  -0.00000   0.00000  -0.00000  -0.00000   1.25608
    Z2        0.00000   0.00000   0.00000  -0.00002  -0.00001  -0.00001
    X3       -2.91318  -0.00000   0.00000  -0.00000  -0.00000  -2.91318
    Y3        1.31541   0.00000   0.00000   0.00000   0.00000   1.31541
    Z3       -0.00000   0.00000   0.00000   0.00009   0.00010   0.00010
    X4       -2.91318  -0.00000   0.00000  -0.00000  -0.00000  -2.91318
    Y4       -1.31541  -0.00000   0.00000  -0.00000  -0.00000  -1.31541
    Z4        0.00000  -0.00000   0.00000  -0.00009  -0.00010  -0.00010
    X5        2.98925  -0.00000   0.00000  -0.00000  -0.00000   2.98925
    Y5       -2.33288  -0.00000   0.00000  -0.00003  -0.00001  -2.33290
    Z5       -1.74086   0.00000   0.00000   0.00004   0.00002  -1.74084
    X6        2.98925   0.00000   0.00000   0.00000   0.00000   2.98925
    Y6       -2.33289  -0.00000   0.00000   0.00003   0.00001  -2.33287
    Z6        1.74086   0.00000   0.00000   0.00004   0.00002   1.74087
    X7       -1.07033   0.00000   0.00000  -0.00000  -0.00000  -1.07033
    Y7        0.00000   0.00000   0.00000   0.00000  -0.00000   0.00000
    Z7        0.00000   0.00000   0.00000  -0.00000  -0.00000   0.00000
    X8        2.98925  -0.00000   0.00000  -0.00000  -0.00000   2.98925
    Y8        2.33288   0.00000   0.00000   0.00003   0.00001   2.33290
    Z8        1.74086  -0.00000   0.00000  -0.00004  -0.00002   1.74084
    X9        2.98925   0.00000   0.00000   0.00000   0.00000   2.98925
    Y9        2.33289   0.00000   0.00000  -0.00003  -0.00001   2.33287
    Z9       -1.74085  -0.00000   0.00000  -0.00004  -0.00002  -1.74087
         Item               Value     Threshold  Converged?
 Maximum Force            0.000001     0.000450     YES
 RMS     Force            0.000001     0.000300     YES
 Maximum Displacement     0.000103     0.001800     YES
 RMS     Displacement     0.000029     0.001200     YES
 Predicted change in Energy=-6.008749D-12
 Optimization completed.
    -- Stationary point found.
 GradGradGradGradGradGradGradGradGradGradGradGradGradGradGradGradGradGrad

 Leave Link  103 at Wed Jul  8 09:32:34 2026, MaxMem=  5580783616 cpu:               0.1 elap:               0.0
 (Enter /usr/local/g16-gpu/g16/l9999.exe)

 ----------------------------------------------------------------------

 Electric dipole moment (input orientation):
 (Debye = 10**-18 statcoulomb cm , SI units = C m)
                  (au)            (Debye)         (10**-30 SI)
   Tot        0.976858D+00      0.248292D+01      0.828214D+01
   x          0.976858D+00      0.248292D+01      0.828214D+01
   y          0.000000D+00      0.000000D+00      0.000000D+00
   z          0.000000D+00      0.000000D+00      0.000000D+00

 Dipole polarizability, Alpha (input orientation).
 (esu units = cm**3 , SI units = C**2 m**2 J**-1)
 Alpha(0;0):
               (au)            (10**-24 esu)      (10**-40 SI)
   iso        0.379252D+02      0.561994D+01      0.625303D+01
   aniso      0.167283D+02      0.247888D+01      0.275813D+01
   xx         0.373787D+02      0.553895D+01      0.616292D+01
   yx         0.000000D+00      0.000000D+00      0.000000D+00
   yy         0.478450D+02      0.708990D+01      0.788858D+01
   zx         0.000000D+00      0.000000D+00      0.000000D+00
   zy         0.000000D+00      0.000000D+00      0.000000D+00
   zz         0.285520D+02      0.423097D+01      0.470759D+01

 ----------------------------------------------------------------------

 Dipole orientation:
     6         -0.00000000         -1.25607639          2.97701218
     6         -0.00000069          1.25607639          2.97701218
     8          0.00000189          1.31541190         -2.91317534
     8         -0.00000258         -1.31541190         -2.91317534
     1          1.74085917         -2.33288391          2.98925004
     1         -1.74085539         -2.33288580          2.98924815
     1         -0.00000034         -0.00000000         -1.07033332
     1         -1.74085986          2.33288391          2.98925004
     1          1.74085470          2.33288580          2.98924815

 Electric dipole moment (dipole orientation):
 (Debye = 10**-18 statcoulomb cm , SI units = C m)
                  (au)            (Debye)         (10**-30 SI)
   Tot        0.976858D+00      0.248292D+01      0.828214D+01
   x          0.000000D+00      0.000000D+00      0.000000D+00
   y          0.000000D+00      0.000000D+00      0.000000D+00
   z          0.976858D+00      0.248292D+01      0.828214D+01

 Dipole polarizability, Alpha (dipole orientation).
 (esu units = cm**3 , SI units = C**2 m**2 J**-1)
 Alpha(0;0):
               (au)            (10**-24 esu)      (10**-40 SI)
   iso        0.379252D+02      0.561994D+01      0.625303D+01
   aniso      0.167283D+02      0.247888D+01      0.275813D+01
   xx         0.285520D+02      0.423097D+01      0.470759D+01
   yx         0.000000D+00      0.000000D+00      0.000000D+00
   yy         0.478450D+02      0.708990D+01      0.788858D+01
   zx         0.000000D+00      0.000000D+00      0.000000D+00
   zy         0.000000D+00      0.000000D+00      0.000000D+00
   zz         0.373787D+02      0.553895D+01      0.616292D+01

 ----------------------------------------------------------------------

 Test job not archived.
 1\1\GINC-N171\Freq\UB3LYP\def2TZVP\C2H5O2(2)\CALVIN.P\08-Jul-2026\0\\#
 P guess=read ub3lyp/def2tzvp freq IOp(7/33=1) integral=(grid=ultrafine
 , Acc2E=12) IOp(2/9=2000) scf=(direct,tight)\\TS0\\0,2\C,1.575367,-0.6
 64687,0.\C,1.575367,0.664687,0.0000003636\O,-1.541586,0.696086,-0.0000
 01\O,-1.541586,-0.696086,0.0000013636\H,1.581843,-1.234509,-0.921223\H
 ,1.581842,-1.23451,0.921221\H,-0.566396,0.,0.0000001818\H,1.581843,1.2
 34509,0.9212233636\H,1.581842,1.23451,-0.9212206364\\Version=ES64L-G16
 RevC.02\State=2-A\HF=-229.5404624\S2=0.75506\S2-1=0.\S2A=0.750013\RMSD
 =8.034e-09\RMSF=5.086e-07\ZeroPoint=0.0615335\Thermal=0.0682409\ETot=-
 229.4722216\HTot=-229.4712774\GTot=-229.5101153\Dipole=0.9768576,0.,0.
 \DipoleDeriv=-0.3520744,-0.0417136,-0.0000002,-0.0594065,0.0214215,0.0
 000005,-0.0000004,0.0000005,0.1024638,-0.3520744,0.0417137,0.0000002,0
 .0594065,0.0214217,0.0000004,0.0000004,0.0000001,0.1024634,-0.4859507,
 0.0865743,0.,0.0065812,-0.1926,0.,-0.0000001,0.0000003,-0.1688424,-0.4
 859507,-0.0865744,0.,-0.0065812,-0.1926003,0.,0.0000001,0.,-0.1688422,
 0.1509175,0.0000184,0.00095,0.0043553,0.0262286,-0.03163,-0.0019958,-0
 .061524,-0.0296509,0.1509176,0.0000185,-0.0009499,0.0043553,0.0262288,
 0.0316295,0.0019959,0.0615236,-0.0296505,1.0723801,0.,0.,0.,0.2374423,
 -0.0000001,0.,-0.0000002,0.2513604,0.1509175,-0.0000184,-0.0009501,-0.
 0043553,0.0262285,-0.0316301,0.0019958,-0.0615241,-0.029651,0.1509176,
 -0.0000185,0.00095,-0.0043553,0.0262287,0.0316296,-0.0019959,0.0615237
 ,-0.0296506\Polar=37.3787002,-0.0000004,47.8450268,0.,0.0000058,28.552
 0196\Quadrupole=-2.8186323,1.0584031,1.7602292,0.,0.,0.0000008\PG=C02 
 [C2(H1),X(C2H4O2)]\NImag=1\\0.11654860,-0.00385153,0.84713470,-0.00000
 019,-0.00000143,0.63785967,-0.04664327,-0.00064872,-0.00000002,0.11654
 860,0.00064872,-0.55694865,-0.00000003,0.00385153,0.84713470,0.0000000
 2,-0.00000003,-0.11549364,0.00000019,-0.00000143,0.63785967,-0.0046235
 5,-0.00245175,0.,-0.00760042,0.00711613,-0.00000002,-0.01077995,-0.002
 69371,-0.00252203,0.,-0.00292816,0.00137644,0.00000001,0.01934708,0.34
 809162,0.,0.,0.00085942,0.,0.,-0.00019852,-0.00000001,-0.00000060,0.00
 103724,-0.00760042,-0.00711613,0.00000002,-0.00462355,0.00245175,0.,0.
 12701524,-0.08959692,0.00000017,-0.01077995,0.00292816,0.00137644,0.00
 000001,0.00269371,-0.00252203,0.,0.08959692,-0.42791881,0.00000073,-0.
 01934708,0.34809162,0.,0.,-0.00019852,0.,0.,0.00085942,-0.00000017,0.0
 0000073,0.00083546,0.00000001,-0.00000060,0.00103724,-0.03823709,0.000
 95343,0.00136685,0.00528935,0.00003577,-0.00029946,-0.00021057,0.00030
 895,-0.00007791,0.00060488,-0.00022278,-0.00019665,0.02574744,0.001921
 45,-0.12970938,-0.11949289,0.00001600,-0.01452352,-0.03019438,0.000128
 59,-0.00011047,0.00002543,0.00004408,0.00012791,0.00011154,-0.00160482
 ,0.13743179,0.00152059,-0.12403855,-0.26492616,-0.00000444,0.00168980,
 0.00422474,-0.00000879,0.00018451,-0.00003929,-0.00006788,0.00011014,0
 .00025204,-0.00154896,0.13523114,0.27387953,-0.03823674,0.00095328,-0.
 00136664,0.00528932,0.00003580,0.00029946,-0.00021056,0.00030894,0.000
 07791,0.00060486,-0.00022279,0.00019665,0.00312220,-0.00033353,0.00027
 037,0.02574711,0.00192134,-0.12971029,0.11949439,0.00001600,-0.0145235
 2,0.03019433,0.00012858,-0.00011046,-0.00002543,0.00004408,0.00012792,
 -0.00011154,-0.00033352,0.01007987,-0.01354719,-0.00160470,0.13743268,
 -0.00152040,0.12404010,-0.26492746,0.00000445,-0.00168990,0.00422482,0
 .00000880,-0.00018451,-0.00003929,0.00006788,-0.00011014,0.00025204,-0
 .00027036,0.01354719,-0.01598495,0.00154874,-0.13523260,0.27388076,0.0
 0821380,0.01223299,0.00000001,0.00821380,-0.01223298,-0.00000001,-0.10
 479995,0.07480827,-0.00000013,-0.10479994,-0.07480827,0.00000013,-0.00
 044585,-0.00019476,-0.00022585,-0.00044585,-0.00019476,0.00022585,0.19
 495570,-0.00084242,-0.00057376,0.00000002,0.00084242,-0.00057374,-0.00
 000002,-0.11377739,0.08093790,-0.00000011,0.11377738,0.08093786,-0.000
 00015,0.00088596,-0.00015631,-0.00037906,0.00088600,-0.00015632,0.0003
 7907,0.,-0.16010299,0.,0.,-0.00162296,0.,0.,-0.00162281,0.00000019,-0.
 00000013,-0.00295906,-0.00000019,-0.00000014,-0.00295916,0.00113192,-0
 .00033236,-0.00034857,-0.00113192,0.00033236,-0.00034857,0.,0.00000027
 ,0.01055817,0.00528935,-0.00003577,0.00029946,-0.03823709,-0.00095343,
 -0.00136685,0.00060488,0.00022278,0.00019665,-0.00021057,-0.00030895,0
 .00007791,0.01251987,0.00005682,0.00008520,-0.00839023,-0.00003382,0.0
 0002021,-0.00044585,-0.00088597,-0.00113188,0.02574744,-0.00001600,-0.
 01452352,-0.03019438,-0.00192145,-0.12970938,-0.11949289,-0.00004408,0
 .00012791,0.00011154,-0.00012859,-0.00011047,0.00002543,-0.00005682,-0
 .00465619,0.00092675,0.00003382,0.00151631,0.00017755,0.00019476,-0.00
 015632,-0.00033232,0.00160482,0.13743179,0.00000444,0.00168980,0.00422
 474,-0.00152059,-0.12403855,-0.26492616,0.00006788,0.00011014,0.000252
 04,0.00000879,0.00018451,-0.00003929,-0.00008520,0.00092675,0.00163962
 ,0.00002022,-0.00017754,0.00130303,0.00022585,-0.00037908,-0.00034852,
 0.00154896,0.13523114,0.27387953,0.00528932,-0.00003580,-0.00029946,-0
 .03823674,-0.00095328,0.00136664,0.00060486,0.00022279,-0.00019665,-0.
 00021056,-0.00030894,-0.00007791,-0.00839023,-0.00003382,-0.00002022,0
 .01251989,0.00005681,-0.00008518,-0.00044585,-0.00088600,0.00113188,0.
 00312220,0.00033353,-0.00027037,0.02574711,-0.00001600,-0.01452352,0.0
 3019433,-0.00192134,-0.12971029,0.11949439,-0.00004408,0.00012792,-0.0
 0011154,-0.00012858,-0.00011046,-0.00002543,0.00003382,0.00151631,-0.0
 0017754,-0.00005681,-0.00465618,-0.00092677,0.00019476,-0.00015632,0.0
 0033232,0.00033352,0.01007987,-0.01354719,0.00160470,0.13743268,-0.000
 00445,-0.00168990,0.00422482,0.00152040,0.12404010,-0.26492746,-0.0000
 6788,-0.00011014,0.00025204,-0.00000880,-0.00018451,-0.00003929,-0.000
 02021,0.00017755,0.00130303,0.00008518,-0.00092677,0.00163961,-0.00022
 585,0.00037908,-0.00034852,0.00027036,0.01354719,-0.01598495,-0.001548
 74,-0.13523260,0.27388076\\-0.00000003,-0.00000148,0.00000082,-0.00000
 003,0.00000148,-0.00000082,0.00000011,-0.00000033,-0.00000003,0.000000
 11,0.00000033,0.00000003,0.00000006,0.00000002,-0.00000014,-0.00000003
 ,0.00000037,-0.00000056,-0.00000020,0.,0.,0.00000006,-0.00000002,0.000
 00014,-0.00000003,-0.00000037,0.00000056\\\@


 IF YOU DON'T HAVE THE LAW - ARGUE THE FACTS.
 IF YOU DON'T HAVE THE FACTS - ARGUE THE LAW.
 IF YOU DON'T HAVE EITHER - POUND THE TABLE.
 Job cpu time:       0 days  0 hours  5 minutes 16.6 seconds.
 Elapsed time:       0 days  0 hours  0 minutes 27.8 seconds.
 File lengths (MBytes):  RWF=     33 Int=      0 D2E=      0 Chk=      4 Scr=      1
 Normal termination of Gaussian 16 at Wed Jul  8 09:32:34 2026.
