 Entering Gaussian System, Link 0=/Local/ce_dana/g09/g09
 Initial command:
 /Local/ce_dana/g09/l1.exe "/storage/ce_dana/alongd/scratch/g09/Gau-28466.inp" -scrdir="/storage/ce_dana/alongd/scratch/g09/"
 Entering Link 1 = /Local/ce_dana/g09/l1.exe PID=     28468.
  
 Copyright (c) 1988,1990,1992,1993,1995,1998,2003,2009,2013,
            Gaussian, Inc.  All Rights Reserved.
  
 This is part of the Gaussian(R) 09 program.  It is based on
 the Gaussian(R) 03 system (copyright 2003, Gaussian, Inc.),
 the Gaussian(R) 98 system (copyright 1998, Gaussian, Inc.),
 the Gaussian(R) 94 system (copyright 1995, Gaussian, Inc.),
 the Gaussian 92(TM) system (copyright 1992, Gaussian, Inc.),
 the Gaussian 90(TM) system (copyright 1990, Gaussian, Inc.),
 the Gaussian 88(TM) system (copyright 1988, Gaussian, Inc.),
 the Gaussian 86(TM) system (copyright 1986, Carnegie Mellon
 University), and the Gaussian 82(TM) system (copyright 1983,
 Carnegie Mellon University). Gaussian is a federally registered
 trademark of Gaussian, Inc.
  
 This software contains proprietary and confidential information,
 including trade secrets, belonging to Gaussian, Inc.
  
 This software is provided under written license and may be
 used, copied, transmitted, or stored only in accord with that
 written license.
  
 The following legend is applicable only to US Government
 contracts under FAR:
  
                    RESTRICTED RIGHTS LEGEND
  
 Use, reproduction and disclosure by the US Government is
 subject to restrictions as set forth in subparagraphs (a)
 and (c) of the Commercial Computer Software - Restricted
 Rights clause in FAR 52.227-19.
  
 Gaussian, Inc.
 340 Quinnipiac St., Bldg. 40, Wallingford CT 06492
  
  
 ---------------------------------------------------------------
 Warning -- This program may not be used in any manner that
 competes with the business of Gaussian, Inc. or will provide
 assistance to any competitor of Gaussian, Inc.  The licensee
 of this program is prohibited from giving any competitor of
 Gaussian, Inc. access to this program.  By using this program,
 the user acknowledges that Gaussian, Inc. is engaged in the
 business of creating and licensing software in the field of
 computational chemistry and represents and warrants to the
 licensee that it is not a competitor of Gaussian, Inc. and that
 it will not use this program in any manner prohibited above.
 ---------------------------------------------------------------
  

 Cite this work as:
 Gaussian 09, Revision D.01,
 M. J. Frisch, G. W. Trucks, H. B. Schlegel, G. E. Scuseria, 
 M. A. Robb, J. R. Cheeseman, G. Scalmani, V. Barone, B. Mennucci, 
 G. A. Petersson, H. Nakatsuji, M. Caricato, X. Li, H. P. Hratchian, 
 A. F. Izmaylov, J. Bloino, G. Zheng, J. L. Sonnenberg, M. Hada, 
 M. Ehara, K. Toyota, R. Fukuda, J. Hasegawa, M. Ishida, T. Nakajima, 
 Y. Honda, O. Kitao, H. Nakai, T. Vreven, J. A. Montgomery, Jr., 
 J. E. Peralta, F. Ogliaro, M. Bearpark, J. J. Heyd, E. Brothers, 
 K. N. Kudin, V. N. Staroverov, T. Keith, R. Kobayashi, J. Normand, 
 K. Raghavachari, A. Rendell, J. C. Burant, S. S. Iyengar, J. Tomasi, 
 M. Cossi, N. Rega, J. M. Millam, M. Klene, J. E. Knox, J. B. Cross, 
 V. Bakken, C. Adamo, J. Jaramillo, R. Gomperts, R. E. Stratmann, 
 O. Yazyev, A. J. Austin, R. Cammi, C. Pomelli, J. W. Ochterski, 
 R. L. Martin, K. Morokuma, V. G. Zakrzewski, G. A. Voth, 
 P. Salvador, J. J. Dannenberg, S. Dapprich, A. D. Daniels, 
 O. Farkas, J. B. Foresman, J. V. Ortiz, J. Cioslowski, 
 and D. J. Fox, Gaussian, Inc., Wallingford CT, 2013.
 
 ******************************************
 Gaussian 09:  ES64L-G09RevD.01 24-Apr-2013
                27-Jun-2021 
 ******************************************
 %chk=check.chk
 %mem=25600mb
 %NProcShared=10
 Will use up to   10 processors via shared memory.
 ----------------------------------------------------------------------
 #P guess=read ub3lyp/cbsb7 freq IOp(7/33=1) scf=(tight, direct) integr
 al=(grid=ultrafine, Acc2E=12) IOp(2/9=2000) scf=xqc
 ----------------------------------------------------------------------
 1/10=4,30=1,38=1/1,3;
 2/9=2000,12=2,17=6,18=5,40=1/2;
 3/5=4,6=6,7=700,11=2,16=1,25=1,30=1,71=2,74=-5,75=-5,116=2,140=1/1,2,3;
 4/5=1/1;
 5/5=2,8=3,13=1,32=2,38=6,87=12,98=1/2,8;
 8/6=4,10=90,11=11,87=12/1;
 11/6=1,8=1,9=11,15=111,16=1,87=12/1,2,10;
 10/6=1,87=12/2;
 6/7=2,8=2,9=2,10=2,18=1,28=1/1;
 7/8=1,10=1,25=1,33=1,87=12/1,2,3,16;
 1/10=4,30=1/3;
 99//99;
 Leave Link    1 at Sun Jun 27 00:31:13 2021, MaxMem=  3355443200 cpu:         0.1
 (Enter /Local/ce_dana/g09/l101.exe)
 ---
 TS0
 ---
 Symbolic Z-matrix:
 Charge =  0 Multiplicity = 2
 C                     1.52485   0.59197  -0.27614 
 C                     0.17978  -0.07017  -0.26139 
 C                    -0.99399   0.61089   0.36398 
 H                     0.12473  -1.15063  -0.33562 
 H                     2.19484   0.13818  -1.01053 
 H                     1.44156   1.65741  -0.51606 
 H                    -0.79006   0.49022  -0.91761 
 H                     2.01353   0.52804   0.70847 
 H                    -1.83089   0.02385   0.71724 
 H                    -0.8844    1.62884   0.71479 
 
 NAtoms=     10 NQM=       10 NQMF=       0 NMMI=      0 NMMIF=      0
                NMic=       0 NMicF=      0.
                    Isotopes and Nuclear Properties:
 (Nuclear quadrupole moments (NQMom) in fm**2, nuclear magnetic moments (NMagM)
  in nuclear magnetons)

  Atom         1           2           3           4           5           6           7           8           9          10
 IAtWgt=          12          12          12           1           1           1           1           1           1           1
 AtmWgt=  12.0000000  12.0000000  12.0000000   1.0078250   1.0078250   1.0078250   1.0078250   1.0078250   1.0078250   1.0078250
 NucSpn=           0           0           0           1           1           1           1           1           1           1
 AtZEff=   0.0000000   0.0000000   0.0000000   0.0000000   0.0000000   0.0000000   0.0000000   0.0000000   0.0000000   0.0000000
 NQMom=    0.0000000   0.0000000   0.0000000   0.0000000   0.0000000   0.0000000   0.0000000   0.0000000   0.0000000   0.0000000
 NMagM=    0.0000000   0.0000000   0.0000000   2.7928460   2.7928460   2.7928460   2.7928460   2.7928460   2.7928460   2.7928460
 AtZNuc=   6.0000000   6.0000000   6.0000000   1.0000000   1.0000000   1.0000000   1.0000000   1.0000000   1.0000000   1.0000000
 Leave Link  101 at Sun Jun 27 00:31:13 2021, MaxMem=  3355443200 cpu:         0.1
 (Enter /Local/ce_dana/g09/l103.exe)

 GradGradGradGradGradGradGradGradGradGradGradGradGradGradGradGradGradGrad
 Berny optimization.
 Initialization pass.
 Trust Radius=3.00D-01 FncErr=1.00D-07 GrdErr=1.00D-07
 Number of steps in this run=      2 maximum allowed number of steps=      2.
 GradGradGradGradGradGradGradGradGradGradGradGradGradGradGradGradGradGrad

 Leave Link  103 at Sun Jun 27 00:31:13 2021, MaxMem=  3355443200 cpu:         0.0
 (Enter /Local/ce_dana/g09/l202.exe)
                          Input orientation:                          
 ---------------------------------------------------------------------
 Center     Atomic      Atomic             Coordinates (Angstroms)
 Number     Number       Type             X           Y           Z
 ---------------------------------------------------------------------
      1          6           0        1.524852    0.591965   -0.276141
      2          6           0        0.179776   -0.070169   -0.261389
      3          6           0       -0.993993    0.610890    0.363983
      4          1           0        0.124725   -1.150632   -0.335616
      5          1           0        2.194840    0.138175   -1.010532
      6          1           0        1.441557    1.657406   -0.516060
      7          1           0       -0.790061    0.490224   -0.917609
      8          1           0        2.013526    0.528035    0.708471
      9          1           0       -1.830890    0.023846    0.717239
     10          1           0       -0.884404    1.628837    0.714790
 ---------------------------------------------------------------------
                    Distance matrix (angstroms):
                    1          2          3          4          5
     1  C    0.000000
     2  C    1.499289   0.000000
     3  C    2.598980   1.494211   0.000000
     4  H    2.236188   1.084408   2.200893   0.000000
     5  H    1.092767   2.159886   3.504484   2.530200   0.000000
     6  H    1.095292   2.154406   2.793130   3.106716   1.766352
     7  H    2.404299   1.298171   1.303314   1.966712   3.007026
     8  H    1.101068   2.158962   3.028318   2.734156   1.771958
     9  H    3.545500   2.238153   1.081576   2.512436   4.382324
    10  H    2.803848   2.229804   1.082262   3.138016   3.831521
                    6          7          8          9         10
     6  H    0.000000
     7  H    2.550230   0.000000
     8  H    1.761279   3.241244   0.000000
     9  H    3.859852   1.993379   3.877347   0.000000
    10  H    2.631711   1.992503   3.099968   1.863287   0.000000
 Stoichiometry    C3H7(2)
 Framework group  C1[X(C3H7)]
 Deg. of freedom    24
 Full point group                 C1      NOp   1
 Largest Abelian subgroup         C1      NOp   1
 Largest concise Abelian subgroup C1      NOp   1
                         Standard orientation:                         
 ---------------------------------------------------------------------
 Center     Atomic      Atomic             Coordinates (Angstroms)
 Number     Number       Type             X           Y           Z
 ---------------------------------------------------------------------
      1          6           0        1.279906   -0.191149   -0.024558
      2          6           0       -0.040637    0.517073    0.025028
      3          6           0       -1.318249   -0.255157   -0.038482
      4          1           0       -0.091811    1.556222   -0.280736
      5          1           0        2.096169    0.442456    0.330967
      6          1           0        1.269507   -1.096591    0.591664
      7          1           0       -0.823137    0.291596    1.036018
      8          1           0        1.524901   -0.510401   -1.049451
      9          1           0       -2.222433    0.228641   -0.382279
     10          1           0       -1.279319   -1.336527   -0.018107
 ---------------------------------------------------------------------
 Rotational constants (GHZ):     37.7591611      8.5433959      7.5746621
 Leave Link  202 at Sun Jun 27 00:31:13 2021, MaxMem=  3355443200 cpu:         0.0
 (Enter /Local/ce_dana/g09/l301.exe)
 Standard basis: 6-311G(2d,d,p) (5D, 7F)
 Ernie: Thresh=  0.10000D-02 Tol=  0.10000D-05 Strict=F.
 There are    99 symmetry adapted cartesian basis functions of A   symmetry.
 There are    96 symmetry adapted basis functions of A   symmetry.
    96 basis functions,   152 primitive gaussians,    99 cartesian basis functions
    13 alpha electrons       12 beta electrons
       nuclear repulsion energy        76.0979971052 Hartrees.
 IExCor=  402 DFT=T Ex+Corr=B3LYP ExCW=0 ScaHFX=  0.200000
 ScaDFX=  0.800000  0.720000  1.000000  0.810000 ScalE2=  1.000000  1.000000
 IRadAn=      5 IRanWt=     -1 IRanGd=            0 ICorTp=0 IEmpDi=  4
 NAtoms=   10 NActive=   10 NUniq=   10 SFac= 1.00D+00 NAtFMM=   60 NAOKFM=F Big=F
 Integral buffers will be    131072 words long.
 Raffenetti 2 integral format.
 Two-electron integral symmetry is turned on.
 Leave Link  301 at Sun Jun 27 00:31:13 2021, MaxMem=  3355443200 cpu:         0.0
 (Enter /Local/ce_dana/g09/l302.exe)
 NPDir=0 NMtPBC=     1 NCelOv=     1 NCel=       1 NClECP=     1 NCelD=      1
         NCelK=      1 NCelE2=     1 NClLst=     1 CellRange=     0.0.
 One-electron integrals computed using PRISM.
 NBasis=    96 RedAO= T EigKep=  3.07D-03  NBF=    96
 NBsUse=    96 1.00D-06 EigRej= -1.00D+00 NBFU=    96
 Precomputing XC quadrature grid using
 IXCGrd= 4 IRadAn=           5 IRanWt=          -1 IRanGd=           0 AccXCQ= 0.00D+00.
 Generated NRdTot=       0 NPtTot=           0 NUsed=           0 NTot=          32
 NSgBfM=    99    99    99    99    99 MxSgAt=    10 MxSgA2=    10.
 Leave Link  302 at Sun Jun 27 00:31:13 2021, MaxMem=  3355443200 cpu:         1.2
 (Enter /Local/ce_dana/g09/l303.exe)
 DipDrv:  MaxL=1.
 Leave Link  303 at Sun Jun 27 00:31:13 2021, MaxMem=  3355443200 cpu:         0.1
 (Enter /Local/ce_dana/g09/l401.exe)
 Initial guess from the checkpoint file:  "check.chk"
 B after Tr=    -0.000000   -0.000000    0.000000
         Rot=    1.000000    0.000000   -0.000000   -0.000000 Ang=   0.00 deg.
 Guess basis will be translated and rotated to current coordinates.
 JPrj=2 DoOrth=T DoCkMO=T.
 Initial guess <Sx>= 0.0000 <Sy>= 0.0000 <Sz>= 0.5000 <S**2>= 0.7929 S= 0.5212
 Leave Link  401 at Sun Jun 27 00:31:13 2021, MaxMem=  3355443200 cpu:         0.4
 (Enter /Local/ce_dana/g09/l502.exe)
 UHF open shell SCF:
 Using DIIS extrapolation, IDIIS=  1040.
 Integral symmetry usage will be decided dynamically.
 Keep R1 and R2 ints in memory in canonical form, NReq=22641738.
 IVT=       37088 IEndB=       37088 NGot=  3355443200 MDV=  3333723121
 LenX=  3333723121 LenY=  3333712879
 Requested convergence on RMS density matrix=1.00D-08 within  64 cycles.
 Requested convergence on MAX density matrix=1.00D-06.
 Requested convergence on             energy=1.00D-06.
 No special actions if energy rises.
 FoFCou: FMM=F IPFlag=           0 FMFlag=           0 FMFlg1=           0
         NFxFlg=           0 DoJE=F BraDBF=F KetDBF=F FulRan=T
         wScrn=  0.000000 ICntrl=     600 IOpCl=  0 I1Cent=           0 NGrid=           0
         NMat0=    1 NMatS0=   4656 NMatT0=    0 NMatD0=    1 NMtDS0=    0 NMtDT0=    0
 Symmetry not used in FoFCou.

 Cycle   1  Pass 1  IDiag  1:
 E= -118.421769832033    
 DIIS: error= 1.41D-02 at cycle   1 NSaved=   1.
 NSaved= 1 IEnMin= 1 EnMin= -118.421769832033     IErMin= 1 ErrMin= 1.41D-02
 ErrMax= 1.41D-02  0.00D+00 EMaxC= 1.00D-01 BMatC= 1.60D-01 BMatP= 1.60D-01
 IDIUse=3 WtCom= 8.59D-01 WtEn= 1.41D-01
 Coeff-Com:  0.100D+01
 Coeff-En:   0.100D+01
 Coeff:      0.100D+01
 Gap=     9.552 Goal=   None    Shift=    0.000
 Gap=     9.811 Goal=   None    Shift=    0.000
 GapD=    9.552 DampG=2.000 DampE=0.500 DampFc=1.0000 IDamp=-1.
 RMSDP=2.07D-03 MaxDP=6.95D-02              OVMax= 4.48D-02

 Cycle   2  Pass 1  IDiag  1:
 E= -118.441396869195     Delta-E=       -0.019627037162 Rises=F Damp=F
 DIIS: error= 4.29D-03 at cycle   2 NSaved=   2.
 NSaved= 2 IEnMin= 2 EnMin= -118.441396869195     IErMin= 2 ErrMin= 4.29D-03
 ErrMax= 4.29D-03  0.00D+00 EMaxC= 1.00D-01 BMatC= 9.90D-03 BMatP= 1.60D-01
 IDIUse=3 WtCom= 9.57D-01 WtEn= 4.29D-02
 Coeff-Com:  0.971D-01 0.903D+00
 Coeff-En:   0.000D+00 0.100D+01
 Coeff:      0.929D-01 0.907D+00
 Gap=     0.174 Goal=   None    Shift=    0.000
 Gap=     0.280 Goal=   None    Shift=    0.000
 RMSDP=8.62D-04 MaxDP=1.95D-02 DE=-1.96D-02 OVMax= 2.52D-02

 Cycle   3  Pass 1  IDiag  1:
 E= -118.441714048714     Delta-E=       -0.000317179519 Rises=F Damp=F
 DIIS: error= 3.82D-03 at cycle   3 NSaved=   3.
 NSaved= 3 IEnMin= 3 EnMin= -118.441714048714     IErMin= 3 ErrMin= 3.82D-03
 ErrMax= 3.82D-03  0.00D+00 EMaxC= 1.00D-01 BMatC= 8.48D-03 BMatP= 9.90D-03
 IDIUse=3 WtCom= 9.62D-01 WtEn= 3.82D-02
 Coeff-Com: -0.103D-01 0.479D+00 0.531D+00
 Coeff-En:   0.000D+00 0.466D+00 0.534D+00
 Coeff:     -0.991D-02 0.479D+00 0.531D+00
 Gap=     0.183 Goal=   None    Shift=    0.000
 Gap=     0.280 Goal=   None    Shift=    0.000
 RMSDP=4.68D-04 MaxDP=1.19D-02 DE=-3.17D-04 OVMax= 1.28D-02

 Cycle   4  Pass 1  IDiag  1:
 E= -118.443956083401     Delta-E=       -0.002242034687 Rises=F Damp=F
 DIIS: error= 4.64D-04 at cycle   4 NSaved=   4.
 NSaved= 4 IEnMin= 4 EnMin= -118.443956083401     IErMin= 4 ErrMin= 4.64D-04
 ErrMax= 4.64D-04  0.00D+00 EMaxC= 1.00D-01 BMatC= 8.43D-05 BMatP= 8.48D-03
 IDIUse=3 WtCom= 9.95D-01 WtEn= 4.64D-03
 Coeff-Com: -0.365D-02 0.167D-01 0.797D-01 0.907D+00
 Coeff-En:   0.000D+00 0.000D+00 0.000D+00 0.100D+01
 Coeff:     -0.364D-02 0.166D-01 0.793D-01 0.908D+00
 Gap=     0.182 Goal=   None    Shift=    0.000
 Gap=     0.279 Goal=   None    Shift=    0.000
 RMSDP=8.47D-05 MaxDP=2.09D-03 DE=-2.24D-03 OVMax= 3.31D-03

 Cycle   5  Pass 1  IDiag  1:
 E= -118.443984118355     Delta-E=       -0.000028034953 Rises=F Damp=F
 DIIS: error= 3.52D-04 at cycle   5 NSaved=   5.
 NSaved= 5 IEnMin= 5 EnMin= -118.443984118355     IErMin= 5 ErrMin= 3.52D-04
 ErrMax= 3.52D-04  0.00D+00 EMaxC= 1.00D-01 BMatC= 3.79D-05 BMatP= 8.43D-05
 IDIUse=3 WtCom= 9.96D-01 WtEn= 3.52D-03
 Coeff-Com: -0.227D-03-0.674D-01-0.422D-01 0.479D+00 0.631D+00
 Coeff-En:   0.000D+00 0.000D+00 0.000D+00 0.000D+00 0.100D+01
 Coeff:     -0.226D-03-0.672D-01-0.420D-01 0.477D+00 0.632D+00
 Gap=     0.181 Goal=   None    Shift=    0.000
 Gap=     0.279 Goal=   None    Shift=    0.000
 RMSDP=3.95D-05 MaxDP=8.68D-04 DE=-2.80D-05 OVMax= 1.83D-03

 Cycle   6  Pass 1  IDiag  1:
 E= -118.443995067383     Delta-E=       -0.000010949028 Rises=F Damp=F
 DIIS: error= 1.17D-04 at cycle   6 NSaved=   6.
 NSaved= 6 IEnMin= 6 EnMin= -118.443995067383     IErMin= 6 ErrMin= 1.17D-04
 ErrMax= 1.17D-04  0.00D+00 EMaxC= 1.00D-01 BMatC= 4.85D-06 BMatP= 3.79D-05
 IDIUse=3 WtCom= 9.99D-01 WtEn= 1.17D-03
 Coeff-Com:  0.818D-03-0.325D-01-0.411D-01-0.131D-01 0.270D+00 0.816D+00
 Coeff-En:   0.000D+00 0.000D+00 0.000D+00 0.000D+00 0.000D+00 0.100D+01
 Coeff:      0.817D-03-0.324D-01-0.411D-01-0.131D-01 0.269D+00 0.817D+00
 Gap=     0.181 Goal=   None    Shift=    0.000
 Gap=     0.279 Goal=   None    Shift=    0.000
 RMSDP=1.59D-05 MaxDP=3.75D-04 DE=-1.09D-05 OVMax= 8.60D-04

 Cycle   7  Pass 1  IDiag  1:
 E= -118.443996772886     Delta-E=       -0.000001705504 Rises=F Damp=F
 DIIS: error= 2.43D-05 at cycle   7 NSaved=   7.
 NSaved= 7 IEnMin= 7 EnMin= -118.443996772886     IErMin= 7 ErrMin= 2.43D-05
 ErrMax= 2.43D-05  0.00D+00 EMaxC= 1.00D-01 BMatC= 2.42D-07 BMatP= 4.85D-06
 IDIUse=1 WtCom= 1.00D+00 WtEn= 0.00D+00
 Coeff-Com:  0.216D-03-0.320D-02-0.928D-02-0.405D-01 0.236D-01 0.233D+00
 Coeff-Com:  0.796D+00
 Coeff:      0.216D-03-0.320D-02-0.928D-02-0.405D-01 0.236D-01 0.233D+00
 Coeff:      0.796D+00
 Gap=     0.181 Goal=   None    Shift=    0.000
 Gap=     0.279 Goal=   None    Shift=    0.000
 RMSDP=4.99D-06 MaxDP=1.57D-04 DE=-1.71D-06 OVMax= 1.10D-04

 Cycle   8  Pass 1  IDiag  1:
 E= -118.443996850160     Delta-E=       -0.000000077274 Rises=F Damp=F
 DIIS: error= 6.32D-06 at cycle   8 NSaved=   8.
 NSaved= 8 IEnMin= 8 EnMin= -118.443996850160     IErMin= 8 ErrMin= 6.32D-06
 ErrMax= 6.32D-06  0.00D+00 EMaxC= 1.00D-01 BMatC= 2.09D-08 BMatP= 2.42D-07
 IDIUse=1 WtCom= 1.00D+00 WtEn= 0.00D+00
 Coeff-Com:  0.355D-04 0.575D-03-0.116D-02-0.134D-01-0.628D-02 0.360D-01
 Coeff-Com:  0.293D+00 0.692D+00
 Coeff:      0.355D-04 0.575D-03-0.116D-02-0.134D-01-0.628D-02 0.360D-01
 Coeff:      0.293D+00 0.692D+00
 Gap=     0.181 Goal=   None    Shift=    0.000
 Gap=     0.279 Goal=   None    Shift=    0.000
 RMSDP=7.58D-07 MaxDP=1.80D-05 DE=-7.73D-08 OVMax= 2.88D-05

 Cycle   9  Pass 1  IDiag  1:
 E= -118.443996855342     Delta-E=       -0.000000005182 Rises=F Damp=F
 DIIS: error= 2.64D-06 at cycle   9 NSaved=   9.
 NSaved= 9 IEnMin= 9 EnMin= -118.443996855342     IErMin= 9 ErrMin= 2.64D-06
 ErrMax= 2.64D-06  0.00D+00 EMaxC= 1.00D-01 BMatC= 2.95D-09 BMatP= 2.09D-08
 IDIUse=1 WtCom= 1.00D+00 WtEn= 0.00D+00
 Coeff-Com: -0.980D-05 0.584D-03 0.658D-03-0.474D-03-0.549D-02-0.133D-01
 Coeff-Com:  0.235D-01 0.283D+00 0.711D+00
 Coeff:     -0.980D-05 0.584D-03 0.658D-03-0.474D-03-0.549D-02-0.133D-01
 Coeff:      0.235D-01 0.283D+00 0.711D+00
 Gap=     0.181 Goal=   None    Shift=    0.000
 Gap=     0.279 Goal=   None    Shift=    0.000
 RMSDP=3.44D-07 MaxDP=1.01D-05 DE=-5.18D-09 OVMax= 1.05D-05

 Cycle  10  Pass 1  IDiag  1:
 E= -118.443996856173     Delta-E=       -0.000000000831 Rises=F Damp=F
 DIIS: error= 7.07D-07 at cycle  10 NSaved=  10.
 NSaved=10 IEnMin=10 EnMin= -118.443996856173     IErMin=10 ErrMin= 7.07D-07
 ErrMax= 7.07D-07  0.00D+00 EMaxC= 1.00D-01 BMatC= 1.90D-10 BMatP= 2.95D-09
 IDIUse=1 WtCom= 1.00D+00 WtEn= 0.00D+00
 Coeff-Com: -0.562D-05 0.699D-04 0.300D-03 0.137D-02-0.822D-03-0.679D-02
 Coeff-Com: -0.275D-01-0.157D-01 0.167D+00 0.882D+00
 Coeff:     -0.562D-05 0.699D-04 0.300D-03 0.137D-02-0.822D-03-0.679D-02
 Coeff:     -0.275D-01-0.157D-01 0.167D+00 0.882D+00
 Gap=     0.181 Goal=   None    Shift=    0.000
 Gap=     0.279 Goal=   None    Shift=    0.000
 RMSDP=1.76D-07 MaxDP=5.97D-06 DE=-8.31D-10 OVMax= 4.23D-06

 Cycle  11  Pass 1  IDiag  1:
 E= -118.443996856250     Delta-E=       -0.000000000077 Rises=F Damp=F
 DIIS: error= 1.78D-07 at cycle  11 NSaved=  11.
 NSaved=11 IEnMin=11 EnMin= -118.443996856250     IErMin=11 ErrMin= 1.78D-07
 ErrMax= 1.78D-07  0.00D+00 EMaxC= 1.00D-01 BMatC= 1.48D-11 BMatP= 1.90D-10
 IDIUse=1 WtCom= 1.00D+00 WtEn= 0.00D+00
 Coeff-Com: -0.178D-07-0.489D-04-0.364D-04 0.196D-03 0.453D-03 0.651D-03
 Coeff-Com: -0.519D-02-0.320D-01-0.566D-01 0.123D+00 0.970D+00
 Coeff:     -0.178D-07-0.489D-04-0.364D-04 0.196D-03 0.453D-03 0.651D-03
 Coeff:     -0.519D-02-0.320D-01-0.566D-01 0.123D+00 0.970D+00
 Gap=     0.181 Goal=   None    Shift=    0.000
 Gap=     0.279 Goal=   None    Shift=    0.000
 RMSDP=3.97D-08 MaxDP=9.11D-07 DE=-7.72D-11 OVMax= 1.03D-06

 Cycle  12  Pass 1  IDiag  1:
 E= -118.443996856256     Delta-E=       -0.000000000007 Rises=F Damp=F
 DIIS: error= 8.00D-08 at cycle  12 NSaved=  12.
 NSaved=12 IEnMin=12 EnMin= -118.443996856256     IErMin=12 ErrMin= 8.00D-08
 ErrMax= 8.00D-08  0.00D+00 EMaxC= 1.00D-01 BMatC= 1.86D-12 BMatP= 1.48D-11
 IDIUse=1 WtCom= 1.00D+00 WtEn= 0.00D+00
 Coeff-Com:  0.455D-06-0.217D-04-0.383D-04-0.499D-04 0.224D-03 0.742D-03
 Coeff-Com:  0.715D-03-0.894D-02-0.325D-01-0.357D-01 0.306D+00 0.770D+00
 Coeff:      0.455D-06-0.217D-04-0.383D-04-0.499D-04 0.224D-03 0.742D-03
 Coeff:      0.715D-03-0.894D-02-0.325D-01-0.357D-01 0.306D+00 0.770D+00
 Gap=     0.181 Goal=   None    Shift=    0.000
 Gap=     0.279 Goal=   None    Shift=    0.000
 RMSDP=1.39D-08 MaxDP=3.29D-07 DE=-6.57D-12 OVMax= 3.47D-07

 Cycle  13  Pass 1  IDiag  1:
 E= -118.443996856257     Delta-E=       -0.000000000000 Rises=F Damp=F
 DIIS: error= 1.28D-08 at cycle  13 NSaved=  13.
 NSaved=13 IEnMin=13 EnMin= -118.443996856257     IErMin=13 ErrMin= 1.28D-08
 ErrMax= 1.28D-08  0.00D+00 EMaxC= 1.00D-01 BMatC= 4.87D-14 BMatP= 1.86D-12
 IDIUse=1 WtCom= 1.00D+00 WtEn= 0.00D+00
 Coeff-Com:  0.302D-07 0.264D-05 0.235D-05-0.749D-05-0.262D-04-0.622D-04
 Coeff-Com:  0.309D-03 0.225D-02 0.446D-02-0.801D-02-0.733D-01-0.469D-02
 Coeff-Com:  0.108D+01
 Coeff:      0.302D-07 0.264D-05 0.235D-05-0.749D-05-0.262D-04-0.622D-04
 Coeff:      0.309D-03 0.225D-02 0.446D-02-0.801D-02-0.733D-01-0.469D-02
 Coeff:      0.108D+01
 Gap=     0.181 Goal=   None    Shift=    0.000
 Gap=     0.279 Goal=   None    Shift=    0.000
 RMSDP=3.02D-09 MaxDP=8.09D-08 DE=-3.13D-13 OVMax= 8.29D-08

 SCF Done:  E(UB3LYP) =  -118.443996856     A.U. after   13 cycles
            NFock= 13  Conv=0.30D-08     -V/T= 2.0051
 <Sx>= 0.0000 <Sy>= 0.0000 <Sz>= 0.5000 <S**2>= 0.7579 S= 0.5039
 <L.S>=  0.00000000000    
 KE= 1.178463469923D+02 PE=-4.259024379016D+02 EE= 1.135140969478D+02
 Annihilation of the first spin contaminant:
 S**2 before annihilation     0.7579,   after     0.7500
 Leave Link  502 at Sun Jun 27 00:31:22 2021, MaxMem=  3355443200 cpu:        73.8
 (Enter /Local/ce_dana/g09/l508.exe)
 QCSCF skips out because SCF is already converged.
 Leave Link  508 at Sun Jun 27 00:31:22 2021, MaxMem=  3355443200 cpu:         0.0
 (Enter /Local/ce_dana/g09/l801.exe)
 DoSCS=F DFT=T ScalE2(SS,OS)=  1.000000  1.000000
 Range of M.O.s used for correlation:     1    96
 NBasis=    96 NAE=    13 NBE=    12 NFC=     0 NFV=     0
 NROrb=     96 NOA=    13 NOB=    12 NVA=    83 NVB=    84
 Leave Link  801 at Sun Jun 27 00:31:22 2021, MaxMem=  3355443200 cpu:         0.1
 (Enter /Local/ce_dana/g09/l1101.exe)
 Using compressed storage, NAtomX=    10.
 Will process     11 centers per pass.
 Leave Link 1101 at Sun Jun 27 00:31:22 2021, MaxMem=  3355443200 cpu:         3.5
 (Enter /Local/ce_dana/g09/l1102.exe)
 Symmetrizing basis deriv contribution to polar:
 IMax=3 JMax=2 DiffMx= 0.00D+00
 Leave Link 1102 at Sun Jun 27 00:31:22 2021, MaxMem=  3355443200 cpu:         0.1
 (Enter /Local/ce_dana/g09/l1110.exe)
 Forming Gx(P) for the SCF density, NAtomX=    10.
 Integral derivatives from FoFJK, PRISM(SPDF).
 Do as many integral derivatives as possible in FoFJK.
 G2DrvN: MDV=    3355443016.
 G2DrvN: will do    11 centers at a time, making    1 passes.
 Calling FoFCou, ICntrl=  3107 FMM=F I1Cent=   0 AccDes= 1.00D-12.
 FoFJK:  IHMeth= 1 ICntrl=    3107 DoSepK=F KAlg= 0 I1Cent=   0 FoldK=F
 IRaf=         0 NMat=   1 IRICut=       1 DoRegI=T DoRafI=F ISym2E= 0.
 FoFCou: FMM=F IPFlag=           0 FMFlag=      100000 FMFlg1=           0
         NFxFlg=           0 DoJE=F BraDBF=F KetDBF=F FulRan=T
         wScrn=  0.000000 ICntrl=    3107 IOpCl=  1 I1Cent=           0 NGrid=           0
         NMat0=    1 NMatS0=      1 NMatT0=    0 NMatD0=    1 NMtDS0=    0 NMtDT0=    0
 Symmetry not used in FoFCou.
 End of G2Drv F.D. properties file   721 does not exist.
 End of G2Drv F.D. properties file   722 does not exist.
 End of G2Drv F.D. properties file   788 does not exist.
 Leave Link 1110 at Sun Jun 27 00:31:33 2021, MaxMem=  3355443200 cpu:       107.5
 (Enter /Local/ce_dana/g09/l1002.exe)
 Minotr:  UHF open shell wavefunction.
          IDoAtm=1111111111
          Direct CPHF calculation.
          Differentiating once with respect to electric field.
                with respect to dipole field.
          Differentiating once with respect to nuclear coordinates.
          Requested convergence is 1.0D-08 RMS, and 1.0D-07 maximum.
          Secondary convergence is 1.0D-12 RMS, and 1.0D-12 maximum.
          NewPWx=T KeepS1=F KeepF1=F KeepIn=T MapXYZ=F SortEE=F KeepMc=T.
          MDV=    3355442904 using IRadAn=       1.
 Generate precomputed XC quadrature information.
 Keep R1 and R2 ints in memory in canonical form, NReq=22605689.
 FoFCou: FMM=F IPFlag=           0 FMFlag=           0 FMFlg1=           0
         NFxFlg=           0 DoJE=F BraDBF=F KetDBF=F FulRan=T
         wScrn=  0.000000 ICntrl=     600 IOpCl=  0 I1Cent=           0 NGrid=           0
         NMat0=    1 NMatS0=   4656 NMatT0=    0 NMatD0=    1 NMtDS0=    0 NMtDT0=    0
 Symmetry not used in FoFCou.
          Solving linear equations simultaneously, MaxMat=       0.
          There are    33 degrees of freedom in the 1st order CPHF.  IDoFFX=6 NUNeed=     3.
     30 vectors produced by pass  0 Test12= 6.32D-15 3.03D-09 XBig12= 6.37D+01 3.27D+00.
 AX will form    30 AO Fock derivatives at one time.
     30 vectors produced by pass  1 Test12= 6.32D-15 3.03D-09 XBig12= 3.60D+00 5.02D-01.
     30 vectors produced by pass  2 Test12= 6.32D-15 3.03D-09 XBig12= 9.39D-02 6.05D-02.
     30 vectors produced by pass  3 Test12= 6.32D-15 3.03D-09 XBig12= 1.08D-03 5.74D-03.
     30 vectors produced by pass  4 Test12= 6.32D-15 3.03D-09 XBig12= 4.31D-06 2.69D-04.
     30 vectors produced by pass  5 Test12= 6.32D-15 3.03D-09 XBig12= 1.64D-08 2.12D-05.
     13 vectors produced by pass  6 Test12= 6.32D-15 3.03D-09 XBig12= 3.04D-11 8.73D-07.
      3 vectors produced by pass  7 Test12= 6.32D-15 3.03D-09 XBig12= 6.67D-14 2.57D-08.
 InvSVY:  IOpt=1 It=  1 EMax= 1.15D-14
 Solved reduced A of dimension   196 with    33 vectors.
 FullF1:  Do perturbations    1 to     3.
 Isotropic polarizability for W=    0.000000       37.72 Bohr**3.
 End of Minotr F.D. properties file   721 does not exist.
 End of Minotr F.D. properties file   722 does not exist.
 End of Minotr F.D. properties file   788 does not exist.
 Leave Link 1002 at Sun Jun 27 00:31:48 2021, MaxMem=  3355443200 cpu:       145.3
 (Enter /Local/ce_dana/g09/l601.exe)
 Copying SCF densities to generalized density rwf, IOpCl= 1 IROHF=0.

 **********************************************************************

            Population analysis using the SCF density.

 **********************************************************************

 Orbital symmetries:
 Alpha Orbitals:
       Occupied  (A) (A) (A) (A) (A) (A) (A) (A) (A) (A) (A) (A)
                 (A)
       Virtual   (A) (A) (A) (A) (A) (A) (A) (A) (A) (A) (A) (A)
                 (A) (A) (A) (A) (A) (A) (A) (A) (A) (A) (A) (A)
                 (A) (A) (A) (A) (A) (A) (A) (A) (A) (A) (A) (A)
                 (A) (A) (A) (A) (A) (A) (A) (A) (A) (A) (A) (A)
                 (A) (A) (A) (A) (A) (A) (A) (A) (A) (A) (A) (A)
                 (A) (A) (A) (A) (A) (A) (A) (A) (A) (A) (A) (A)
                 (A) (A) (A) (A) (A) (A) (A) (A) (A) (A) (A)
 Beta  Orbitals:
       Occupied  (A) (A) (A) (A) (A) (A) (A) (A) (A) (A) (A) (A)
       Virtual   (A) (A) (A) (A) (A) (A) (A) (A) (A) (A) (A) (A)
                 (A) (A) (A) (A) (A) (A) (A) (A) (A) (A) (A) (A)
                 (A) (A) (A) (A) (A) (A) (A) (A) (A) (A) (A) (A)
                 (A) (A) (A) (A) (A) (A) (A) (A) (A) (A) (A) (A)
                 (A) (A) (A) (A) (A) (A) (A) (A) (A) (A) (A) (A)
                 (A) (A) (A) (A) (A) (A) (A) (A) (A) (A) (A) (A)
                 (A) (A) (A) (A) (A) (A) (A) (A) (A) (A) (A) (A)
 The electronic state is 2-A.
 Alpha  occ. eigenvalues --  -10.18128 -10.17113 -10.16507  -0.80919  -0.69812
 Alpha  occ. eigenvalues --   -0.57115  -0.48027  -0.44722  -0.41678  -0.38787
 Alpha  occ. eigenvalues --   -0.36380  -0.32185  -0.13858
 Alpha virt. eigenvalues --    0.04241   0.07775   0.08066   0.09106   0.12000
 Alpha virt. eigenvalues --    0.12730   0.13241   0.21526   0.25326   0.26752
 Alpha virt. eigenvalues --    0.30089   0.31267   0.34397   0.36943   0.40789
 Alpha virt. eigenvalues --    0.46414   0.49023   0.53758   0.56471   0.57347
 Alpha virt. eigenvalues --    0.58514   0.59742   0.60078   0.64492   0.67050
 Alpha virt. eigenvalues --    0.71611   0.76524   0.84439   0.96074   1.09793
 Alpha virt. eigenvalues --    1.18704   1.22975   1.34098   1.36537   1.40940
 Alpha virt. eigenvalues --    1.41647   1.42880   1.46195   1.49558   1.50445
 Alpha virt. eigenvalues --    1.53463   1.59443   1.61296   1.69459   1.71470
 Alpha virt. eigenvalues --    1.73605   1.77369   1.88573   1.93887   1.99013
 Alpha virt. eigenvalues --    1.99822   2.05525   2.07557   2.12572   2.16022
 Alpha virt. eigenvalues --    2.19116   2.27118   2.35876   2.40837   2.42676
 Alpha virt. eigenvalues --    2.46250   2.46939   2.50397   2.52445   2.54735
 Alpha virt. eigenvalues --    2.57054   2.66067   2.68582   2.73206   2.80749
 Alpha virt. eigenvalues --    2.89019   2.94775   3.10677   3.20881   3.65918
 Alpha virt. eigenvalues --    3.72966   3.78975   3.83267   4.05064   4.40682
 Alpha virt. eigenvalues --   23.80921  23.85678  23.93149
  Beta  occ. eigenvalues --  -10.17288 -10.16540 -10.16308  -0.79220  -0.68999
  Beta  occ. eigenvalues --   -0.55302  -0.46935  -0.43712  -0.40967  -0.38322
  Beta  occ. eigenvalues --   -0.35882  -0.29998
  Beta virt. eigenvalues --   -0.02118   0.04672   0.08006   0.08515   0.09841
  Beta virt. eigenvalues --    0.12203   0.13148   0.13442   0.22172   0.25788
  Beta virt. eigenvalues --    0.27162   0.30328   0.31570   0.34974   0.37772
  Beta virt. eigenvalues --    0.42023   0.49132   0.51357   0.54937   0.57117
  Beta virt. eigenvalues --    0.57800   0.58730   0.60272   0.60622   0.65104
  Beta virt. eigenvalues --    0.67945   0.72730   0.78078   0.84974   0.97157
  Beta virt. eigenvalues --    1.10782   1.19129   1.24209   1.34859   1.37503
  Beta virt. eigenvalues --    1.41233   1.42350   1.43400   1.46453   1.50206
  Beta virt. eigenvalues --    1.52608   1.53834   1.59912   1.61799   1.69881
  Beta virt. eigenvalues --    1.71913   1.73918   1.78861   1.89621   1.94837
  Beta virt. eigenvalues --    1.99865   2.00665   2.05912   2.09280   2.13407
  Beta virt. eigenvalues --    2.16926   2.20113   2.27453   2.36405   2.41874
  Beta virt. eigenvalues --    2.42902   2.46608   2.47306   2.50859   2.52797
  Beta virt. eigenvalues --    2.55083   2.57430   2.66535   2.69409   2.75015
  Beta virt. eigenvalues --    2.81133   2.89652   2.95095   3.13718   3.21375
  Beta virt. eigenvalues --    3.66767   3.74043   3.79326   3.83457   4.06025
  Beta virt. eigenvalues --    4.41705  23.81863  23.86470  23.93240
          Condensed to atoms (all electrons):
               1          2          3          4          5          6
     1  C    4.792445   0.360463  -0.049354  -0.027328   0.405574   0.408046
     2  C    0.360463   5.423026   0.098283   0.391483  -0.033635  -0.046692
     3  C   -0.049354   0.098283   5.391940  -0.027037   0.007408   0.004081
     4  H   -0.027328   0.391483  -0.027037   0.552043  -0.006407   0.007676
     5  H    0.405574  -0.033635   0.007408  -0.006407   0.581899  -0.029357
     6  H    0.408046  -0.046692   0.004081   0.007676  -0.029357   0.601873
     7  H   -0.011698   0.164126   0.115628  -0.005661  -0.005143  -0.005663
     8  H    0.390074  -0.048030  -0.004477  -0.004114  -0.031178  -0.042815
     9  H    0.004719  -0.024870   0.395320  -0.008189  -0.000323  -0.000293
    10  H   -0.005836  -0.031624   0.400592   0.005117  -0.000046   0.001841
               7          8          9         10
     1  C   -0.011698   0.390074   0.004719  -0.005836
     2  C    0.164126  -0.048030  -0.024870  -0.031624
     3  C    0.115628  -0.004477   0.395320   0.400592
     4  H   -0.005661  -0.004114  -0.008189   0.005117
     5  H   -0.005143  -0.031178  -0.000323  -0.000046
     6  H   -0.005663  -0.042815  -0.000293   0.001841
     7  H    0.583682   0.005690   0.000206  -0.001986
     8  H    0.005690   0.623659   0.000440   0.002208
     9  H    0.000206   0.000440   0.535595  -0.028044
    10  H   -0.001986   0.002208  -0.028044   0.535491
          Atomic-Atomic Spin Densities.
               1          2          3          4          5          6
     1  C   -0.024824  -0.024766   0.010650   0.005520   0.004095   0.008015
     2  C   -0.024766   0.914500  -0.345355  -0.017711  -0.002597  -0.016843
     3  C    0.010650  -0.345355   0.907848   0.011017  -0.000261   0.008381
     4  H    0.005520  -0.017711   0.011017  -0.009606   0.000512   0.001337
     5  H    0.004095  -0.002597  -0.000261   0.000512  -0.000821   0.000810
     6  H    0.008015  -0.016843   0.008381   0.001337   0.000810   0.029582
     7  H   -0.003705   0.041748   0.002101  -0.002294   0.001034  -0.001065
     8  H   -0.010343  -0.019884   0.003221  -0.004810  -0.001380  -0.017832
     9  H   -0.000906   0.005843  -0.011136  -0.001338   0.000016  -0.000347
    10  H    0.000078   0.005063  -0.008976  -0.001241  -0.000014  -0.001995
               7          8          9         10
     1  C   -0.003705  -0.010343  -0.000906   0.000078
     2  C    0.041748  -0.019884   0.005843   0.005063
     3  C    0.002101   0.003221  -0.011136  -0.008976
     4  H   -0.002294  -0.004810  -0.001338  -0.001241
     5  H    0.001034  -0.001380   0.000016  -0.000014
     6  H   -0.001065  -0.017832  -0.000347  -0.001995
     7  H   -0.114331   0.000247  -0.000103   0.000302
     8  H    0.000247   0.091873   0.000711   0.001888
     9  H   -0.000103   0.000711  -0.016519   0.004212
    10  H    0.000302   0.001888   0.004212  -0.021498
 Mulliken charges and spin densities:
               1          2
     1  C   -0.267104  -0.036188
     2  C   -0.252531   0.539998
     3  C   -0.332383   0.577490
     4  H    0.122419  -0.018614
     5  H    0.111208   0.001393
     6  H    0.101304   0.010044
     7  H    0.160819  -0.076066
     8  H    0.108542   0.043692
     9  H    0.125440  -0.019570
    10  H    0.122286  -0.022181
 Sum of Mulliken charges =  -0.00000   1.00000
 Mulliken charges and spin densities with hydrogens summed into heavy atoms:
               1          2
     1  C    0.053950   0.018942
     2  C    0.030707   0.445319
     3  C   -0.084657   0.535739
 APT charges:
               1
     1  C    0.148991
     2  C   -0.037759
     3  C   -0.194324
     4  H    0.006581
     5  H   -0.020225
     6  H   -0.023393
     7  H    0.107060
     8  H   -0.063464
     9  H    0.037682
    10  H    0.038852
 Sum of APT charges =  -0.00000
 APT charges with hydrogens summed into heavy atoms:
               1
     1  C    0.041909
     2  C    0.075881
     3  C   -0.117790
 Electronic spatial extent (au):  <R**2>=            215.5309
 Charge=             -0.0000 electrons
 Dipole moment (field-independent basis, Debye):
    X=              0.1412    Y=              0.1004    Z=              0.0803  Tot=              0.1909
 Quadrupole moment (field-independent basis, Debye-Ang):
   XX=            -21.4834   YY=            -20.5512   ZZ=            -22.3401
   XY=             -0.3942   XZ=              0.2530   YZ=             -0.4235
 Traceless Quadrupole moment (field-independent basis, Debye-Ang):
   XX=             -0.0251   YY=              0.9070   ZZ=             -0.8819
   XY=             -0.3942   XZ=              0.2530   YZ=             -0.4235
 Octapole moment (field-independent basis, Debye-Ang**2):
  XXX=              0.6794  YYY=             -0.0976  ZZZ=             -0.1999  XYY=             -0.3182
  XXY=              1.7421  XXZ=             -1.3836  XZZ=              1.2226  YZZ=             -0.1060
  YYZ=             -0.5139  XYZ=             -0.0568
 Hexadecapole moment (field-independent basis, Debye-Ang**3):
 XXXX=           -204.2785 YYYY=            -58.5899 ZZZZ=            -38.9387 XXXY=             -1.1364
 XXXZ=              6.1551 YYYX=              0.9266 YYYZ=             -2.2989 ZZZX=             -0.7458
 ZZZY=             -0.2595 XXYY=            -44.0245 XXZZ=            -42.7805 YYZZ=            -17.7426
 XXYZ=              0.3094 YYXZ=              0.8345 ZZXY=             -1.3810
 N-N= 7.609799710524D+01 E-N=-4.259024379404D+02  KE= 1.178463469923D+02
  Exact polarizability:  46.470   2.217  35.422  -0.609   0.685  31.265
 Approx polarizability:  57.614   4.641  48.013  -1.020   1.275  44.408
                          Isotropic Fermi Contact Couplings
        Atom                 a.u.       MegaHertz       Gauss      10(-4) cm-1
     1  C(13)             -0.00465      -5.23228      -1.86701      -1.74530
     2  C(13)              0.06948      78.11434      27.87314      26.05614
     3  C(13)              0.06125      68.85655      24.56973      22.96807
     4  H(1)              -0.00397     -17.72794      -6.32577      -5.91340
     5  H(1)               0.00126       5.61240       2.00264       1.87210
     6  H(1)               0.00509      22.73403       8.11207       7.58326
     7  H(1)              -0.02999    -134.07357     -47.84078     -44.72213
     8  H(1)               0.01580      70.61560      25.19740      23.55483
     9  H(1)              -0.00440     -19.66957      -7.01859      -6.56106
    10  H(1)              -0.00573     -25.63169      -9.14602      -8.54981
 --------------------------------------------------------
       Center         ----  Spin Dipole Couplings  ----
                      3XX-RR        3YY-RR        3ZZ-RR
 --------------------------------------------------------
     1   Atom        0.017304     -0.001800     -0.015503
     2   Atom       -0.333064     -0.328756      0.661820
     3   Atom       -0.315724     -0.305394      0.621117
     4   Atom       -0.040768      0.039883      0.000885
     5   Atom        0.013562     -0.007779     -0.005783
     6   Atom        0.003933      0.002337     -0.006269
     7   Atom        0.052422     -0.037770     -0.014653
     8   Atom        0.006179     -0.003160     -0.003020
     9   Atom        0.019532     -0.022306      0.002774
    10   Atom       -0.041357      0.043631     -0.002274
 --------------------------------------------------------
                        XY            XZ            YZ
 --------------------------------------------------------
     1   Atom       -0.014743     -0.003526      0.002554
     2   Atom       -0.006085     -0.086591      0.121021
     3   Atom       -0.012897     -0.104884      0.155551
     4   Atom       -0.003570     -0.003427     -0.016562
     5   Atom       -0.001067      0.001264      0.000233
     6   Atom       -0.009725      0.003006     -0.002054
     7   Atom        0.081186     -0.006884      0.014564
     8   Atom       -0.005731     -0.004757      0.002520
     9   Atom       -0.033632      0.016258     -0.002797
    10   Atom       -0.003084     -0.002946      0.002379
 --------------------------------------------------------


 ---------------------------------------------------------------------------------
              Anisotropic Spin Dipole Couplings in Principal Axis System
 ---------------------------------------------------------------------------------

       Atom             a.u.   MegaHertz   Gauss  10(-4) cm-1        Axes

              Baa    -0.0160    -2.148    -0.766    -0.716  0.0482 -0.1281  0.9906
     1 C(13)  Bbb    -0.0098    -1.310    -0.468    -0.437  0.4853  0.8698  0.0889
              Bcc     0.0258     3.458     1.234     1.154  0.8730 -0.4765 -0.1041
 
              Baa    -0.3464   -46.486   -16.587   -15.506 -0.5822  0.7998 -0.1460
     2 C(13)  Bbb    -0.3374   -45.271   -16.154   -15.101  0.8086  0.5884 -0.0012
              Bcc     0.6838    91.757    32.741    30.607 -0.0850  0.1188  0.9893
 
              Baa    -0.3335   -44.757   -15.970   -14.929 -0.5444  0.8164 -0.1928
     3 C(13)  Bbb    -0.3245   -43.538   -15.536   -14.523  0.8319  0.5549  0.0010
              Bcc     0.6580    88.295    31.506    29.452 -0.1078  0.1599  0.9812
 
              Baa    -0.0414   -22.072    -7.876    -7.363  0.9922  0.0652  0.1060
     4 H(1)   Bbb    -0.0047    -2.483    -0.886    -0.828 -0.1219  0.3374  0.9335
              Bcc     0.0460    24.555     8.762     8.191 -0.0251  0.9391 -0.3427
 
              Baa    -0.0079    -4.202    -1.499    -1.402  0.0577  0.9878 -0.1448
     5 H(1)   Bbb    -0.0058    -3.105    -1.108    -1.036 -0.0563  0.1480  0.9874
              Bcc     0.0137     7.307     2.607     2.437  0.9967 -0.0488  0.0641
 
              Baa    -0.0073    -3.902    -1.392    -1.301 -0.5100 -0.3464  0.7873
     6 H(1)   Bbb    -0.0062    -3.327    -1.187    -1.110  0.4601  0.6634  0.5900
              Bcc     0.0135     7.228     2.579     2.411  0.7267 -0.6632  0.1790
 
              Baa    -0.0890   -47.489   -16.945   -15.841 -0.4943  0.8433 -0.2109
     7 H(1)   Bbb    -0.0112    -5.981    -2.134    -1.995 -0.1180  0.1753  0.9774
              Bcc     0.1002    53.470    19.079    17.836  0.8612  0.5081  0.0128
 
              Baa    -0.0059    -3.169    -1.131    -1.057  0.3388  0.9112 -0.2345
     8 H(1)   Bbb    -0.0050    -2.684    -0.958    -0.895  0.4220  0.0755  0.9034
              Bcc     0.0110     5.853     2.089     1.952  0.8409 -0.4051 -0.3589
 
              Baa    -0.0417   -22.255    -7.941    -7.423  0.5036  0.8540 -0.1303
     9 H(1)   Bbb    -0.0024    -1.291    -0.461    -0.431 -0.2465  0.2866  0.9258
              Bcc     0.0441    23.546     8.402     7.854  0.8280 -0.4341  0.3549
 
              Baa    -0.0417   -22.237    -7.935    -7.417  0.9968  0.0340  0.0725
    10 H(1)   Bbb    -0.0022    -1.174    -0.419    -0.392 -0.0705 -0.0564  0.9959
              Bcc     0.0439    23.411     8.353     7.809 -0.0380  0.9978  0.0539
 

 ---------------------------------------------------------------------------------

 No NMR shielding tensors so no spin-rotation constants.
 Leave Link  601 at Sun Jun 27 00:31:48 2021, MaxMem=  3355443200 cpu:         2.3
 (Enter /Local/ce_dana/g09/l701.exe)
 Compute integral second derivatives.
 ... and contract with generalized density number  0.
 Entering OneElI...
 Calculate overlap and kinetic energy integrals
    NBasis =  99  MinDer = 2  MaxDer = 2
 Requested accuracy = 0.1000D-14
 PrsmSu:  NPrtUS=  10 ThrOK=T IAlg=1 NPAlg=1 LenDen=           0.
 Prism:   IPart=     0 DynPar=F LinDyn=F Incr=           1.
 PRISM was handed   335512760 working-precision words and   946 shell-pairs
 PRISM was handed   335512760 working-precision words and   946 shell-pairs
 PRISM was handed   335512760 working-precision words and   946 shell-pairs
 PRISM was handed   335512760 working-precision words and   946 shell-pairs
 PRISM was handed   335512760 working-precision words and   946 shell-pairs
 PRISM was handed   335512760 working-precision words and   946 shell-pairs
 PRISM was handed   335512760 working-precision words and   946 shell-pairs
 PRISM was handed   335512760 working-precision words and   946 shell-pairs
 PRISM was handed   335512760 working-precision words and   946 shell-pairs
 PRISM was handed   335512760 working-precision words and   946 shell-pairs
 IPart=  7 NShTot=          89 NBatch=          25 AvBLen=         3.6
 IPart=  5 NShTot=          92 NBatch=          27 AvBLen=         3.4
 IPart=  0 NShTot=         115 NBatch=          38 AvBLen=         3.0
 IPart=  8 NShTot=          82 NBatch=          23 AvBLen=         3.6
 IPart=  2 NShTot=         103 NBatch=          35 AvBLen=         2.9
 IPart=  9 NShTot=          77 NBatch=          19 AvBLen=         4.1
 IPart=  1 NShTot=         106 NBatch=          35 AvBLen=         3.0
 IPart=  6 NShTot=          90 NBatch=          25 AvBLen=         3.6
 IPart=  4 NShTot=          93 NBatch=          27 AvBLen=         3.4
 IPart=  3 NShTot=          99 NBatch=          31 AvBLen=         3.2
 PrSmSu:  NxtVal=             11.
 Entering OneElI...
 Calculate potential energy integrals
    NBasis =  99  MinDer = 2  MaxDer = 2
 Requested accuracy = 0.1000D-14
 PrsmSu:  NPrtUS=  10 ThrOK=T IAlg=1 NPAlg=1 LenDen=           0.
 Prism:   IPart=     0 DynPar=F LinDyn=F Incr=           9.
 PRISM was handed   335515440 working-precision words and   944 shell-pairs
 PRISM was handed   335515440 working-precision words and   944 shell-pairs
 PRISM was handed   335515440 working-precision words and   944 shell-pairs
 PRISM was handed   335515440 working-precision words and   944 shell-pairs
 PRISM was handed   335515440 working-precision words and   944 shell-pairs
 PRISM was handed   335515440 working-precision words and   944 shell-pairs
 PRISM was handed   335515440 working-precision words and   944 shell-pairs
 PRISM was handed   335515440 working-precision words and   944 shell-pairs
 PRISM was handed   335515440 working-precision words and   944 shell-pairs
 PRISM was handed   335515440 working-precision words and   944 shell-pairs
 IPart=  5 NShTot=         940 NBatch=          94 AvBLen=        10.0
 IPart=  7 NShTot=         890 NBatch=          89 AvBLen=        10.0
 IPart=  0 NShTot=        1160 NBatch=         116 AvBLen=        10.0
 IPart=  2 NShTot=         990 NBatch=          99 AvBLen=        10.0
 IPart=  6 NShTot=         910 NBatch=          91 AvBLen=        10.0
 IPart=  3 NShTot=         960 NBatch=          96 AvBLen=        10.0
 IPart=  9 NShTot=         780 NBatch=          78 AvBLen=        10.0
 IPart=  1 NShTot=        1060 NBatch=         106 AvBLen=        10.0
 IPart=  8 NShTot=         800 NBatch=          80 AvBLen=        10.0
 IPart=  4 NShTot=         950 NBatch=          95 AvBLen=        10.0
 PrSmSu:  NxtVal=             91.
 Polarizability after L701:
                1             2             3 
      1  0.464695D+02
      2  0.221740D+01  0.354216D+02
      3 -0.608836D+00  0.684999D+00  0.312646D+02
 Dipole Derivatives after L701:
                 1             2             3             4             5 
      1   0.127259D+00 -0.356268D-01  0.476234D-01  0.652416D-01 -0.598161D-01
      2  -0.893171D-02  0.103673D+00  0.797050D-01 -0.594634D-01 -0.505343D-02
      3  -0.375137D-01  0.619739D-01  0.216040D+00 -0.135446D+00 -0.164237D+00
                 6             7             8             9            10 
      1  -0.587158D-01 -0.254208D+00 -0.118631D+00  0.111381D+00 -0.131006D-01
      2  -0.128703D+00 -0.162200D-01  0.253614D-01 -0.340660D-01  0.247894D-01
      3  -0.173466D+00  0.217880D+00  0.342122D-01 -0.354126D+00  0.852217D-02
                11            12            13            14            15 
      1   0.234874D-01  0.211452D-01 -0.104912D+00 -0.996517D-01 -0.616745D-01
      2  -0.993693D-01  0.105707D+00 -0.662839D-01 -0.847640D-02 -0.504096D-01
      3   0.642928D-01  0.132212D+00 -0.387493D-01 -0.526350D-01  0.527152D-01
                16            17            18            19            20 
      1   0.337672D-01  0.473448D-01 -0.199814D-01  0.205868D+00  0.103551D+00
      2  -0.215638D-01 -0.921580D-01  0.107264D+00  0.690902D-01  0.104298D+00
      3   0.313148D-01  0.102635D+00 -0.117883D-01  0.321221D-01  0.657614D-02
                21            22            23            24            25 
      1   0.202583D-01 -0.565941D-01  0.109538D+00  0.122553D+00 -0.529906D-01
      2  -0.907573D-03  0.117391D-01  0.360049D-01 -0.890289D-01  0.269310D-01
      3   0.110137D-01  0.307024D-01 -0.783759D-01 -0.169803D+00 -0.682278D-01
                26            27            28            29            30 
      1   0.487781D-01 -0.115413D+00  0.496695D-01 -0.189740D-01 -0.671764D-01
      2   0.220063D-01  0.197582D-01  0.399130D-01 -0.862860D-01 -0.931920D-02
      3   0.229454D-01  0.144029D+00 -0.406042D-01  0.261269D-02  0.153173D+00
 Hessian after L701:
                1             2             3             4             5 
      1  0.711468D+01
      2  0.135126D+01  0.963780D+01
      3  0.827369D-01 -0.315865D-01  0.103772D+02
      4 -0.626041D+00 -0.200858D+01 -0.765094D-01  0.457118D+01
      5 -0.201769D+01 -0.349243D+01  0.103076D+00 -0.391132D-01  0.834242D+01
      6 -0.296513D-01  0.106027D+00 -0.451643D+01  0.971930D+00  0.479896D+00
      7  0.401252D+00  0.361076D-01  0.149986D-02 -0.894643D+00  0.163203D+01
      8 -0.305969D-01 -0.179724D+00  0.125358D-01  0.172685D+01 -0.283847D+01
      9 -0.563023D-01 -0.430098D-02 -0.162476D+00  0.617139D-01  0.304533D+00
     10 -0.164392D-03  0.690154D-02 -0.759448D-02 -0.291830D+01 -0.713091D-01
     11 -0.299158D-01  0.871691D-01 -0.185421D-01 -0.854511D-01 -0.885586D+00
     12  0.184995D-02 -0.231195D-01  0.191396D-02  0.986934D-02 -0.486071D+00
     13 -0.156490D+01  0.888802D+00  0.501877D+00  0.888857D-01  0.263267D-01
     14  0.840943D+00 -0.212657D+01  0.352619D+00  0.690981D-01  0.262562D-01
     15  0.481711D+00  0.358198D+00 -0.253907D+01  0.607140D-01  0.152239D-01
     16 -0.285506D+01 -0.882606D-01  0.581677D-01  0.227319D-01  0.459437D-01
     17  0.117181D-01 -0.134513D+01 -0.974520D+00 -0.161761D-01  0.357735D-01
     18 -0.661059D-02 -0.967859D+00 -0.217753D+01  0.527548D-01 -0.781498D-01
     19 -0.396549D-02 -0.633067D-02 -0.609242D-01 -0.311356D+00  0.434043D+00
     20  0.886030D-02 -0.310786D-01 -0.412931D-02  0.360427D+00 -0.132403D+01
     21 -0.464675D-01  0.841625D-02  0.545301D-01 -0.105937D+01 -0.442372D+00
     22 -0.259144D+01 -0.166903D+00 -0.513404D+00 -0.583995D-02  0.115874D-01
     23 -0.148528D+00 -0.252201D+01  0.565821D+00 -0.379630D-02  0.406611D-01
     24 -0.449115D+00  0.559093D+00 -0.985673D+00 -0.103009D+00  0.801777D-01
     25  0.110471D+00 -0.213962D-01  0.165746D-01  0.599608D-01  0.733915D-02
     26 -0.287611D-01 -0.285784D-01 -0.579603D-02 -0.353190D-01  0.106869D-01
     27  0.270761D-01 -0.298955D-02 -0.266555D-01  0.702371D-01 -0.117068D-01
     28  0.151752D-01  0.839254D-02 -0.242374D-02  0.134256D-01 -0.291612D-01
     29  0.427033D-01  0.551176D-03  0.522719D-03  0.320602D-01  0.847242D-01
     30 -0.522685D-02 -0.187838D-02 -0.258463D-01  0.116670D-01  0.353931D-01
                6             7             8             9            10 
      6  0.106605D+02
      7 -0.189916D+00  0.503641D+01
      8  0.178487D+00 -0.140796D+01  0.678626D+01
      9 -0.274006D+01 -0.123808D+01 -0.452561D+00  0.887838D+01
     10  0.154653D-01  0.337323D-02 -0.127055D-01 -0.429016D-01  0.296076D+01
     11 -0.449181D+00  0.263138D-01  0.653563D-01 -0.108114D+00  0.951853D-01
     12 -0.278361D+01 -0.345448D-01 -0.813216D-01  0.248630D-01  0.267208D-01
     13  0.514704D-01  0.124124D+00  0.368383D-01  0.226654D-01 -0.122831D-01
     14  0.225462D-01  0.475416D-01 -0.279391D-01  0.765448D-02  0.124154D-01
     15  0.154957D-01  0.342892D-01  0.745354D-02 -0.292810D-01 -0.402263D-02
     16  0.367201D-01  0.748092D-01 -0.463591D-01 -0.187330D-01 -0.565724D-02
     17 -0.939593D-01 -0.703964D-01 -0.957405D-02  0.304903D-02 -0.331185D-01
     18  0.939425D-01  0.176581D-01 -0.146611D-01 -0.513940D-01  0.142970D-01
     19 -0.891529D+00 -0.725379D+00  0.474402D+00  0.753851D+00  0.127295D-02
     20 -0.368775D+00  0.526889D+00 -0.811368D+00  0.592093D+00 -0.482782D-02
     21 -0.985274D+00  0.880255D+00  0.658860D+00 -0.601898D+00  0.555470D-03
     22 -0.850872D-01  0.123583D-01 -0.878730D-03  0.337045D-01 -0.185037D-02
     23  0.780641D-01  0.945386D-02 -0.157763D-01 -0.481347D-02  0.390663D-02
     24  0.230990D+00  0.549399D-02  0.614513D-02 -0.310055D-01 -0.674827D-03
     25  0.869676D-01 -0.119922D+01 -0.801963D+00  0.493622D+00 -0.185824D-01
     26 -0.102172D-01 -0.738371D+00 -0.233073D+01 -0.238807D+00 -0.195471D-01
     27  0.194353D-01  0.513482D+00 -0.250713D+00 -0.251672D+01 -0.177658D-02
     28  0.336302D-01 -0.283309D+01  0.623733D-01 -0.953614D-02 -0.855910D-02
     29  0.571124D-01 -0.616124D-01 -0.638034D+00 -0.987323D-01  0.230991D-01
     30  0.497112D-02  0.986728D-02 -0.642256D-01 -0.277041D+01 -0.684460D-04
               11            12            13            14            15 
     11  0.585631D+00
     12  0.614993D+00  0.275949D+01
     13 -0.135200D-02 -0.212707D-02  0.129549D+01
     14 -0.559690D-02  0.509170D-02 -0.929881D+00  0.212068D+01
     15 -0.313061D-02  0.498783D-02 -0.565209D+00 -0.350677D+00  0.251254D+01
     16 -0.397618D-01  0.121398D-01  0.291574D-01 -0.367737D-01  0.219638D-01
     17  0.722763D-01 -0.266116D-01 -0.210204D-01 -0.136132D-01  0.209778D-01
     18 -0.368049D-01 -0.703484D-02  0.355804D-02 -0.875952D-02  0.429967D-01
     19  0.107091D-01 -0.747239D-02 -0.166321D-01  0.844600D-03  0.549652D-02
     20  0.126406D-01  0.128504D-01  0.602552D-03  0.529311D-02  0.613703D-03
     21 -0.958855D-02  0.433101D-02  0.262347D-02 -0.244393D-02  0.342842D-02
     22  0.145697D-02  0.202139D-02  0.445340D-01 -0.145554D-01 -0.399972D-01
     23  0.223363D-02 -0.234056D-02 -0.100344D-01  0.162889D-01 -0.513168D-01
     24  0.122330D-01 -0.817789D-04 -0.186059D-01 -0.276134D-01 -0.905077D-02
     25 -0.347705D-02 -0.334318D-02  0.644624D-02  0.601761D-02  0.369788D-02
     26 -0.722711D-02  0.620599D-03 -0.454564D-02 -0.216584D-02 -0.131832D-02
     27  0.251195D-02  0.805349D-02  0.330120D-02  0.123541D-02  0.252981D-03
     28  0.262927D-01 -0.511381D-02  0.518172D-02  0.434985D-02  0.135656D-02
     29  0.731027D-01 -0.140919D-01  0.142642D-01  0.736500D-02  0.397571D-02
     30 -0.437684D-02 -0.129123D-01  0.446910D-03  0.346855D-03 -0.229768D-02
               16            17            18            19            20 
     16  0.266610D+01
     17  0.149901D+00  0.121814D+01
     18 -0.131309D+00  0.104573D+01  0.214903D+01
     19 -0.162259D-01  0.590532D-02  0.707464D-02  0.103316D+01
     20  0.141730D-01 -0.369498D-02 -0.320324D-02 -0.903467D+00  0.215848D+01
     21  0.523499D-02  0.184537D-02  0.328099D-02  0.222024D+00 -0.248051D+00
     22  0.603745D-01 -0.106346D-01  0.235732D-01  0.272314D-01 -0.956447D-02
     23 -0.917652D-02  0.611134D-01  0.572300D-01 -0.195515D-01 -0.117031D-01
     24  0.773036D-02  0.277660D-01 -0.462364D-01 -0.444263D-01  0.114256D-01
     25  0.461368D-02 -0.109039D-01  0.759820D-02  0.194059D-01  0.484391D-02
     26 -0.309243D-02  0.390280D-02 -0.401048D-02 -0.103994D-01 -0.118692D-01
     27  0.213806D-02 -0.322383D-02  0.421831D-03  0.978797D-02  0.146261D-01
     28  0.191613D-01 -0.527469D-02  0.114055D-01 -0.750830D-02  0.206250D-02
     29  0.134062D-01 -0.191941D-01  0.104907D-01  0.138439D-01  0.173294D-01
     30  0.594704D-02 -0.105018D-02 -0.747858D-02  0.611734D-02 -0.744977D-02
               21            22            23            24            25 
     21  0.147126D+01
     22 -0.395192D-01  0.242333D+01
     23  0.162939D-01  0.177879D+00  0.243607D+01
     24  0.298304D-01  0.628950D+00 -0.657633D+00  0.816788D+00
     25  0.324301D-01  0.132593D-01 -0.523817D-02 -0.121926D-01  0.980757D+00
     26 -0.597200D-02 -0.507977D-02 -0.662521D-03  0.489278D-02  0.781264D+00
     27  0.137669D-01 -0.575734D-03 -0.121053D-03 -0.407091D-02 -0.618136D+00
     28  0.223138D-02  0.180461D-01  0.508515D-02 -0.141505D-01  0.228855D-01
     29  0.230122D-01  0.166931D-01 -0.621556D-02 -0.164863D-01  0.435136D-01
     30  0.674601D-02 -0.966630D-02 -0.118378D-02 -0.148966D-02 -0.721846D-02
               26            27            28            29            30 
     26  0.239908D+01
     27  0.233908D+00  0.246749D+01
     28  0.638509D-01 -0.553394D-02  0.275528D+01
     29 -0.324363D-01  0.164719D-01 -0.137971D+00  0.512807D+00
     30  0.266995D-01  0.380249D-01 -0.118655D-01  0.177251D-01  0.277070D+01
 Leave Link  701 at Sun Jun 27 00:31:49 2021, MaxMem=  3355443200 cpu:         4.9
 (Enter /Local/ce_dana/g09/l702.exe)
 L702 exits ... SP integral derivatives will be done elsewhere.
 Leave Link  702 at Sun Jun 27 00:31:49 2021, MaxMem=  3355443200 cpu:         0.0
 (Enter /Local/ce_dana/g09/l703.exe)
 Compute integral second derivatives, UseDBF=F ICtDFT=           0.
 Integral derivatives from FoFJK, PRISM(SPDF).
 ICntrl=    100127.
 Calling FoFJK, ICntrl=    100127 FMM=F ISym2X=0 I1Cent= 0 IOpClX= 1 NMat=1 NMatS=1 NMatT=0.
 FoFJK:  IHMeth= 1 ICntrl=  100127 DoSepK=F KAlg= 0 I1Cent=   0 FoldK=F
 IRaf=         0 NMat=   1 IRICut=       1 DoRegI=T DoRafI=F ISym2E= 0.
 FoFCou: FMM=F IPFlag=           0 FMFlag=      100000 FMFlg1=         800
         NFxFlg=           0 DoJE=F BraDBF=F KetDBF=F FulRan=T
         wScrn=  0.000000 ICntrl=  100127 IOpCl=  1 I1Cent=           0 NGrid=           0
         NMat0=    1 NMatS0=      1 NMatT0=    0 NMatD0=    1 NMtDS0=    0 NMtDT0=    0
 Symmetry not used in FoFCou.
 FoFCou:  KetSym=F NOpSet=  1 NOpAb=1 NOp=  1.
 FoFCou:  CnvScl= 1.00D+00 Thresh= 1.00D-12 IAcrcy=      10.
 PrismS was handed  3355353408 working-precision words and   946 shell-pairs
 FoFCou: LinMIO=F DoNuc=F BraDBF=F KetDBF=F HaveP=T PDBF=F HaveZ=T HaveW=F
         NIJTC =      10 NIJTAt=       0 NIJTCD=       0 NIJTT =      10
         IJTBeg=       1 IJTEnd=      10 KLTBeg=       1 KLTEnd=      10
         IPTBeg=       1 IPTEnd=      10 IPTBCv=       1 IPTECv=      10
         IZTBeg=       1 IZTEnd=      10 IZTBCv=       1 IZTECv=      10
         IWTBeg=      11 IWTEnd=      10 IWTBCv=      11 IWTECv=      10
         INTBeg=       1 INTEnd=       0 IFTBCv=       1 IFTECv=      10
 NCel replicated for PrismC:     1
 CoulSu:  IncDef=  1024 NBBP=         447931 NTPThr=   100 NPartT=   10 Incr=         447 LDynOK=F.
 CoulSu:  NPrtUS=  10 ThrOK=T IAlg=1 NPAlg=1 LenDen=           0 LWGrdD=           0 DoCopy=F.
 Enter PrismC: JobTyp=22 DoJE=F Cont=F.
 PrismC:  IPart=     0 DynPar=T LinDyn=F Incr=         447 UseFst=F UseS4=T IGathr=2.
 PrismC was handed   335513586 working-precision words and   946 shell-pairs
 Enter PrismC: JobTyp=22 DoJE=F Cont=F.
 Enter PrismC: JobTyp=22 DoJE=F Cont=F.
 Enter PrismC: JobTyp=22 DoJE=F Cont=F.
 Enter PrismC: JobTyp=22 DoJE=F Cont=F.
 PrismC was handed   335513586 working-precision words and   946 shell-pairs
 Enter PrismC: JobTyp=22 DoJE=F Cont=F.
 PrismC was handed   335513586 working-precision words and   946 shell-pairs
 PrismC was handed   335513586 working-precision words and   946 shell-pairs
 PrismC was handed   335513586 working-precision words and   946 shell-pairs
 PrismC was handed   335513586 working-precision words and   946 shell-pairs
 Enter PrismC: JobTyp=22 DoJE=F Cont=F.
 Enter PrismC: JobTyp=22 DoJE=F Cont=F.
 PrismC was handed   335513586 working-precision words and   946 shell-pairs
 PrismC was handed   335513586 working-precision words and   946 shell-pairs
 Enter PrismC: JobTyp=22 DoJE=F Cont=F.
 Enter PrismC: JobTyp=22 DoJE=F Cont=F.
 PrismC was handed   335513586 working-precision words and   946 shell-pairs
 PrismC was handed   335513586 working-precision words and   946 shell-pairs
 IPart=  8 NShTot=       43422 NShNF=       43422 NShFF=           0 NBatch=        1407 AvBLen=        30.9
 IPart=  6 NShTot=       42996 NShNF=       42996 NShFF=           0 NBatch=        1365 AvBLen=        31.5
 IPart=  2 NShTot=       37624 NShNF=       37624 NShFF=           0 NBatch=        1190 AvBLen=        31.6
 IPart=  1 NShTot=       44759 NShNF=       44759 NShFF=           0 NBatch=        1337 AvBLen=        33.5
 IPart=  4 NShTot=       44105 NShNF=       44105 NShFF=           0 NBatch=        1497 AvBLen=        29.5
 IPart=  3 NShTot=       41147 NShNF=       41147 NShFF=           0 NBatch=        1359 AvBLen=        30.3
 IPart=  0 NShTot=       41569 NShNF=       41569 NShFF=           0 NBatch=        1364 AvBLen=        30.5
 IPart=  9 NShTot=       43635 NShNF=       43635 NShFF=           0 NBatch=        1195 AvBLen=        36.5
 IPart=  5 NShTot=       41837 NShNF=       41837 NShFF=           0 NBatch=        1407 AvBLen=        29.7
 IPart=  7 NShTot=       41450 NShNF=       41450 NShFF=           0 NBatch=        1297 AvBLen=        32.0
 CoulSu:  NxtVal=         480973.
 ReadGW:  IGet=0 IStart=           1 Next=           1 LGW=           0.
 Remaining memory in FofDFT     3199.98 Mw
 CkSvGd:  ISavGI=        -1 IRadAn=       5 IRASav=       5 ISavGd=        -1.
 CalDSu:  NPrtUS=  10 ThrOK=T IAlg=1 NPAlg=2 DoDPD=T LenP=        4950 LenD1P=             0.
 IPart=  0 IRanGd=          0 ScrnBf=T ScrnGd=T RCrit=4.00D+00 DoMicB=T.
 IPart=  1        19127 of        20852 points in      19 batches and      123 microbatches, Max-NSigAt=      10 Max-NSgAt2=      10
 IPart=  7        21499 of        24694 points in      25 batches and      151 microbatches, Max-NSigAt=      10 Max-NSgAt2=      10
 IPart=  2        18980 of        20264 points in      17 batches and      117 microbatches, Max-NSigAt=      10 Max-NSgAt2=      10
 IPart=  5        20129 of        22454 points in      22 batches and      145 microbatches, Max-NSigAt=      10 Max-NSgAt2=      10
 IPart=  0        19892 of        21934 points in      19 batches and       78 microbatches, Max-NSigAt=      10 Max-NSgAt2=      10
 IPart=  3        18416 of        20004 points in      18 batches and      117 microbatches, Max-NSigAt=      10 Max-NSgAt2=      10
 IPart=  4        20317 of        21668 points in      17 batches and      113 microbatches, Max-NSigAt=      10 Max-NSgAt2=      10
 IPart=  9        18875 of        20278 points in      18 batches and      117 microbatches, Max-NSigAt=      10 Max-NSgAt2=      10
 IPart=  6        22212 of        24140 points in      21 batches and      115 microbatches, Max-NSigAt=      10 Max-NSgAt2=      10
 IPart=  8        22749 of        25236 points in      24 batches and      118 microbatches, Max-NSigAt=      10 Max-NSgAt2=      10
 Polarizability after L703:
                1             2             3 
      1  0.464695D+02
      2  0.221740D+01  0.354216D+02
      3 -0.608836D+00  0.684999D+00  0.312646D+02
 Dipole Derivatives after L703:
                 1             2             3             4             5 
      1   0.127259D+00 -0.356268D-01  0.476234D-01  0.652416D-01 -0.598161D-01
      2  -0.893171D-02  0.103673D+00  0.797050D-01 -0.594634D-01 -0.505343D-02
      3  -0.375137D-01  0.619739D-01  0.216040D+00 -0.135446D+00 -0.164237D+00
                 6             7             8             9            10 
      1  -0.587158D-01 -0.254208D+00 -0.118631D+00  0.111381D+00 -0.131006D-01
      2  -0.128703D+00 -0.162200D-01  0.253614D-01 -0.340660D-01  0.247894D-01
      3  -0.173466D+00  0.217880D+00  0.342122D-01 -0.354126D+00  0.852217D-02
                11            12            13            14            15 
      1   0.234874D-01  0.211452D-01 -0.104912D+00 -0.996517D-01 -0.616745D-01
      2  -0.993693D-01  0.105707D+00 -0.662839D-01 -0.847640D-02 -0.504096D-01
      3   0.642928D-01  0.132212D+00 -0.387493D-01 -0.526350D-01  0.527152D-01
                16            17            18            19            20 
      1   0.337672D-01  0.473448D-01 -0.199814D-01  0.205868D+00  0.103551D+00
      2  -0.215638D-01 -0.921580D-01  0.107264D+00  0.690902D-01  0.104298D+00
      3   0.313148D-01  0.102635D+00 -0.117883D-01  0.321221D-01  0.657614D-02
                21            22            23            24            25 
      1   0.202583D-01 -0.565941D-01  0.109538D+00  0.122553D+00 -0.529906D-01
      2  -0.907573D-03  0.117391D-01  0.360049D-01 -0.890289D-01  0.269310D-01
      3   0.110137D-01  0.307024D-01 -0.783759D-01 -0.169803D+00 -0.682278D-01
                26            27            28            29            30 
      1   0.487781D-01 -0.115413D+00  0.496695D-01 -0.189740D-01 -0.671764D-01
      2   0.220063D-01  0.197582D-01  0.399130D-01 -0.862860D-01 -0.931920D-02
      3   0.229454D-01  0.144029D+00 -0.406042D-01  0.261269D-02  0.153173D+00
 Hessian after L703:
                1             2             3             4             5 
      1  0.501876D+00
      2  0.441323D-01  0.533515D+00
      3  0.175644D-01 -0.107782D-01  0.510555D+00
      4 -0.184818D+00  0.566361D-01  0.307045D-02  0.473022D+00
      5  0.576296D-01 -0.116294D+00  0.754545D-03 -0.136788D-01  0.586970D+00
      6 -0.393825D-02  0.121198D-01 -0.597997D-01  0.526680D-01 -0.724581D-01
      7 -0.204781D-01 -0.203223D-01 -0.499511D-02 -0.239463D+00 -0.911927D-01
      8  0.126606D-01  0.857778D-02  0.946498D-02 -0.120329D+00 -0.138979D+00
      9  0.450911D-02 -0.506035D-02 -0.195313D-02 -0.974411D-01 -0.153358D-01
     10  0.171821D-02  0.241484D-01 -0.107621D-01 -0.517522D-01  0.176058D-01
     11 -0.179034D-02 -0.780488D-02  0.447113D-02  0.128627D-01 -0.309199D+00
     12  0.838981D-03 -0.431018D-02  0.239845D-02 -0.813040D-02  0.866900D-01
     13 -0.187128D+00 -0.112889D+00 -0.631859D-01 -0.229042D-01 -0.178715D-01
     14 -0.114596D+00 -0.139336D+00 -0.502822D-01  0.139122D-01  0.116436D-01
     15 -0.641980D-01 -0.503732D-01 -0.745732D-01  0.217319D-02  0.151283D-02
     16 -0.474698D-01 -0.611912D-02  0.250205D-02 -0.276370D-03  0.261449D-01
     17 -0.630445D-02 -0.217066D+00  0.119057D+00  0.270949D-02 -0.160038D-01
     18  0.238035D-02  0.120297D+00 -0.126461D+00 -0.643606D-03 -0.369696D-02
     19 -0.993597D-02  0.799606D-02  0.107484D-01  0.534318D-01  0.235528D-01
     20 -0.280451D-02  0.204418D-02 -0.907032D-02  0.543798D-01 -0.646144D-02
     21 -0.479855D-03 -0.184348D-02  0.244997D-02  0.447204D-01  0.127558D-01
     22 -0.543503D-01  0.114433D-01  0.471136D-01 -0.124656D-01  0.118477D-01
     23  0.102961D-01 -0.622362D-01 -0.639572D-01  0.867602D-02 -0.747046D-02
     24  0.407224D-01 -0.594694D-01 -0.255122D+00  0.603600D-02 -0.475591D-02
     25 -0.177196D-02 -0.444463D-02 -0.302778D-02 -0.165800D-01  0.131702D-01
     26 -0.539442D-03 -0.222218D-02 -0.648039D-03 -0.163397D-01  0.645838D-02
     27  0.371787D-02  0.180279D-03  0.916351D-03  0.331669D-02 -0.105068D-01
     28  0.235720D-02 -0.580811D-03  0.971967D-03  0.180543D-02 -0.272081D-01
     29  0.131634D-02  0.822459D-03  0.988368D-03  0.117157D-02 -0.106656D-01
     30 -0.111701D-02 -0.762076D-03  0.159025D-02 -0.576968D-02  0.504039D-02
                6             7             8             9            10 
      6  0.103713D+00
      7  0.197670D-01  0.537661D+00
      8  0.473753D-01 -0.473246D-01  0.596070D+00
      9  0.103887D+00  0.861000D-01 -0.849955D-01  0.433254D-01
     10  0.189075D-02 -0.838074D-03 -0.260242D-01  0.579608D-02  0.556438D-01
     11  0.811809D-01  0.180505D-02 -0.129558D-01  0.246855D-02 -0.136188D-01
     12 -0.484217D-01  0.567436D-02 -0.975032D-02  0.769227D-03  0.398663D-02
     13 -0.609702D-02 -0.316657D-02  0.479879D-02 -0.198685D-02  0.110795D-02
     14  0.592443D-02  0.201323D-02 -0.149535D-02  0.343760D-04 -0.830933D-03
     15 -0.961410D-03  0.139237D-02  0.291337D-03  0.126459D-02 -0.230807D-03
     16 -0.158390D-01  0.161488D-02  0.594314D-03 -0.169598D-03 -0.472550D-02
     17  0.466117D-02  0.327071D-03  0.143012D-02  0.878334D-03  0.302148D-02
     18  0.304635D-02 -0.879003D-03 -0.199256D-04 -0.123402D-02  0.745256D-03
     19 -0.747961D-01  0.246378D-01  0.506133D-01  0.103903D+00  0.154795D-02
     20 -0.577258D-01  0.229620D-01  0.856215D-03  0.480098D-01 -0.260406D-02
     21 -0.959220D-01 -0.203269D-01 -0.241686D-01 -0.805796D-01 -0.211062D-02
     22  0.295939D-01  0.646448D-03 -0.279229D-02 -0.186256D-02  0.419734D-03
     23 -0.164669D-01  0.252645D-02  0.305685D-02  0.184164D-02 -0.183459D-03
     24  0.199429D-02  0.221505D-02  0.224915D-02  0.448477D-03  0.306731D-03
     25 -0.487094D-02 -0.250084D+00  0.110253D+00 -0.861512D-01  0.110743D-02
     26 -0.550012D-02  0.115112D+00 -0.114039D+00  0.424989D-01  0.119906D-03
     27 -0.187842D-02 -0.857167D-01  0.532116D-01 -0.487465D-01 -0.121074D-02
     28  0.162165D-02 -0.505310D-01  0.175507D-01 -0.126970D-01 -0.422935D-02
     29  0.889327D-03  0.140943D-01 -0.342522D+00  0.966000D-02 -0.163412D-02
     30 -0.565774D-02 -0.323102D-02  0.634195D-02 -0.171815D-01  0.158880D-02
               11            12            13            14            15 
     11  0.326191D+00
     12 -0.868994D-01  0.437727D-01
     13  0.364879D-03  0.587729D-05  0.207401D+00
     14  0.646937D-03  0.186784D-03  0.122731D+00  0.148255D+00
     15 -0.503458D-05 -0.561800D-04  0.688036D-01  0.564865D-01  0.769511D-01
     16  0.196125D-02 -0.381641D-03 -0.712421D-04 -0.187271D-01  0.149663D-01
     17  0.236812D-03  0.737818D-03  0.978164D-05 -0.149895D-01  0.104787D-01
     18 -0.755240D-03  0.457530D-03  0.875062D-03 -0.980458D-02  0.644094D-02
     19  0.954178D-03 -0.876544D-03  0.545210D-03  0.604641D-04 -0.530970D-03
     20  0.172209D-02  0.143583D-01 -0.393306D-03  0.248115D-03  0.270590D-03
     21 -0.121680D-02 -0.782963D-03 -0.100686D-03 -0.121868D-05  0.869579D-03
     22 -0.448366D-04 -0.659085D-03  0.529903D-02 -0.559901D-02 -0.226037D-01
     23 -0.119545D-03  0.577845D-03  0.388582D-02 -0.563433D-02 -0.186148D-01
     24 -0.198728D-03  0.763984D-04  0.115893D-02 -0.225358D-02 -0.994057D-02
     25  0.839395D-04  0.125849D-02 -0.145191D-02  0.737192D-03  0.288878D-03
     26  0.106795D-02  0.788738D-03 -0.754824D-03  0.447983D-03  0.000000D+00
     27 -0.843386D-03  0.147501D-02  0.553993D-03 -0.291517D-03  0.207898D-03
     28 -0.257805D-02 -0.171668D-02  0.368774D-03  0.299405D-03 -0.608830D-04
     29  0.213778D-03 -0.237961D-02  0.118646D-03  0.213454D-03 -0.479029D-04
     30  0.179803D-02  0.311551D-03 -0.270231D-04  0.000000D+00 -0.202748D-03
               16            17            18            19            20 
     16  0.509331D-01
     17  0.200397D-02  0.238828D+00
     18 -0.466311D-02 -0.131343D+00  0.136101D+00
     19  0.609367D-03 -0.198880D-02  0.117970D-02 -0.730683D-01
     20  0.350732D-03 -0.116096D-02  0.458268D-03 -0.773490D-01  0.484536D-02
     21  0.399749D-03 -0.167615D-03  0.716871D-03 -0.257458D-01  0.109676D-01
     22 -0.662280D-03 -0.140054D-03  0.143922D-02  0.297387D-03  0.369002D-02
     23 -0.540334D-02  0.780960D-02  0.254094D-01 -0.224877D-02 -0.227375D-02
     24  0.315448D-02 -0.460549D-02 -0.188630D-01 -0.238636D-02 -0.110756D-02
     25  0.262143D-03  0.621531D-04  0.472132D-05  0.203285D-02 -0.257135D-04
     26 -0.249257D-03  0.283068D-03 -0.316979D-03 -0.216713D-02  0.170281D-02
     27  0.255017D-03  0.311564D-03 -0.221540D-03 -0.120716D-01  0.757130D-02
     28 -0.214301D-03  0.299363D-03 -0.438583D-03 -0.980524D-04  0.179407D-02
     29 -0.556335D-03  0.633282D-03 -0.228238D-03  0.576928D-03 -0.152262D-02
     30 -0.224179D-03 -0.894252D-05  0.169877D-04  0.576130D-03 -0.137322D-01
               21            22            23            24            25 
     21  0.168564D+00
     22 -0.540945D-03  0.607767D-01
     23  0.434067D-03 -0.177048D-01  0.664923D-01
     24  0.136815D-02 -0.518400D-01  0.698639D-01  0.279745D+00
     25  0.217439D-02  0.244454D-03 -0.109272D-04  0.135908D-03  0.263720D+00
     26  0.122850D-02 -0.112672D-03  0.137988D-03  0.231606D-03 -0.117077D+00
     27 -0.618382D-03 -0.426254D-03  0.339338D-03 -0.186018D-04  0.888680D-01
     28  0.201032D-02 -0.205553D-03  0.166827D-03  0.496906D-03  0.252025D-02
     29  0.201177D-02 -0.587331D-03  0.237507D-03  0.460084D-04 -0.274822D-02
     30  0.393470D-02 -0.214177D-03  0.572737D-03  0.311873D-03  0.131951D-02
               26            27            28            29            30 
     26  0.112146D+00
     27 -0.485193D-01  0.483345D-01
     28  0.220083D-01  0.271368D-02  0.482266D-01
     29 -0.598227D-02 -0.145308D-02 -0.117517D-01  0.358572D+00
     30  0.102358D-01  0.549708D-03  0.709865D-02 -0.948665D-02  0.163270D-01
 Leave Link  703 at Sun Jun 27 00:31:58 2021, MaxMem=  3355443200 cpu:        93.9
 (Enter /Local/ce_dana/g09/l716.exe)
 FrcOut:
 IF    =    54 IFX   =    84 IFXYZ =   114
 IFFX  =   144 IFFFX =   609 IFLen =    30
 IFFLen=   465 IFFFLn=     0 IEDerv=   609
 LEDerv=  1493 IFroze=  2446 ICStrt= 21189
 Dipole        = 5.55380778D-02 3.95190180D-02 3.15775203D-02
 DipoleDeriv   = 1.27258613D-01-8.93171349D-03-3.75137140D-02
                -3.56268067D-02 1.03672986D-01 6.19738585D-02
                 4.76233513D-02 7.97049617D-02 2.16040142D-01
                 6.52415836D-02-5.94633892D-02-1.35446048D-01
                -5.98160998D-02-5.05343498D-03-1.64237478D-01
                -5.87158474D-02-1.28703176D-01-1.73466174D-01
                -2.54207547D-01-1.62199805D-02 2.17879655D-01
                -1.18630510D-01 2.53614439D-02 3.42121708D-02
                 1.11380987D-01-3.40659576D-02-3.54126231D-01
                -1.31005889D-02 2.47894231D-02 8.52217390D-03
                 2.34873524D-02-9.93692991D-02 6.42928468D-02
                 2.11452134D-02 1.05707310D-01 1.32212382D-01
                -1.04912396D-01-6.62838613D-02-3.87492635D-02
                -9.96517062D-02-8.47640102D-03-5.26350023D-02
                -6.16744749D-02-5.04096492D-02 5.27151972D-02
                 3.37672481D-02-2.15638109D-02 3.13147738D-02
                 4.73447706D-02-9.21579737D-02 1.02635315D-01
                -1.99814239D-02 1.07264034D-01-1.17882962D-02
                 2.05868265D-01 6.90902040D-02 3.21221049D-02
                 1.03550586D-01 1.04297521D-01 6.57613980D-03
                 2.02582926D-02-9.07572944D-04 1.10136692D-02
                -5.65941009D-02 1.17390974D-02 3.07023629D-02
                 1.09538292D-01 3.60048591D-02-7.83759383D-02
                 1.22553195D-01-8.90289053D-02-1.69803271D-01
                -5.29906026D-02 2.69310299D-02-6.82278433D-02
                 4.87781487D-02 2.20063170D-02 2.29453983D-02
                -1.15412891D-01 1.97581515D-02 1.44029156D-01
                 4.96695259D-02 3.99130010D-02-4.06042015D-02
                -1.89740271D-02-8.62860181D-02 2.61268977D-03
                -6.71764027D-02-9.31919632D-03 1.53173425D-01
 Polarizability= 4.64695228D+01 2.21740144D+00 3.54215769D+01
                -6.08835896D-01 6.84998600D-01 3.12645879D+01
 VibFq2-Diag1:  N=     30 IV=          11 MDV=  3355418569 NE2=   111847285
 Full mass-weighted force constant matrix:
 Low frequencies ----1927.8617   -4.4787   -0.0007    0.0002    0.0005    5.6818
 Low frequencies ---    6.9260  205.5658  364.5383
 OrtVCM:  Ph=1 IPass= 1 DotMx1= 0.00D+00
 OrtVCM:  IS=    1 I=    1 IndO=    1 Dot= 1.00D+00 DotN= 1.00D+00 ElMax1= 5.28D-01 ElMax1N= 5.28D-01
 OrtVCM:  Ph=2 NNew=    0 IAdd=    2 IPass= 1 DotMx2= 0.00D+00
 OrtVCM:  IS=    1 I=    2 IndO=    2 Dot= 1.00D+00 DotN= 1.00D+00 ElMax1= 5.28D-01 ElMax1N= 5.28D-01
 OrtVCM:  Ph=2 NNew=    0 IAdd=    3 IPass= 1 DotMx2= 0.00D+00
 OrtVCM:  IS=    1 I=    3 IndO=    3 Dot= 1.00D+00 DotN= 1.00D+00 ElMax1= 5.28D-01 ElMax1N= 5.28D-01
 OrtVCM:  Ph=2 NNew=    0 IAdd=    4 IPass= 1 DotMx2= 6.94D-18
 OrtVCM:  IS=    1 I=    4 IndO=    4 Dot= 1.00D+00 DotN= 1.00D+00 ElMax1= 4.81D-01 ElMax1N= 4.81D-01
 OrtVCM:  Ph=2 NNew=    0 IAdd=    5 IPass= 1 DotMx2= 1.01D-16
 OrtVCM:  IS=    1 I=    5 IndO=    5 Dot= 1.00D+00 DotN= 1.00D+00 ElMax1= 5.90D-01 ElMax1N= 5.90D-01
 OrtVCM:  Ph=2 NNew=    0 IAdd=    6 IPass= 1 DotMx2= 9.71D-17
 OrtVCM:  IS=    1 I=    6 IndO=    6 Dot= 1.00D+00 DotN= 1.00D+00 ElMax1= 5.54D-01 ElMax1N= 5.54D-01
 OrtVCM:  Ph=1 IPass= 1 DotMx1= 5.90D-01
 OrtVCM:  Ph=1 IPass= 2 DotMx1= 1.25D-16
 OrtVCM:  IS=    1 I=    1 IndO=    7 Dot= 7.14D-01 DotN= 7.14D-01 ElMax1= 7.14D-01 ElMax1N= 7.14D-01
 OrtVCM:  Ph=2 NNew=    0 IAdd=    2 IPass= 1 DotMx2= 5.52D-02
 OrtVCM:  Ph=2 NNew=    0 IAdd=    2 IPass= 2 DotMx2= 8.18D-18
 OrtVCM:  IS=    1 I=    2 IndO=    8 Dot= 4.18D-01 DotN= 4.18D-01 ElMax1= 4.18D-01 ElMax1N= 4.18D-01
 OrtVCM:  Ph=2 NNew=    0 IAdd=    3 IPass= 1 DotMx2= 7.04D-03
 OrtVCM:  Ph=2 NNew=    0 IAdd=    3 IPass= 2 DotMx2= 3.35D-18
 OrtVCM:  IS=    1 I=    3 IndO=    9 Dot= 3.44D-01 DotN= 3.44D-01 ElMax1= 3.44D-01 ElMax1N= 3.44D-01
 OrtVCM:  Ph=2 NNew=    0 IAdd=    4 IPass= 1 DotMx2= 3.08D-01
 OrtVCM:  Ph=2 NNew=    0 IAdd=    4 IPass= 2 DotMx2= 8.85D-17
 OrtVCM:  IS=    1 I=    4 IndO=   10 Dot= 5.56D-01 DotN= 5.56D-01 ElMax1= 5.56D-01 ElMax1N= 5.56D-01
 OrtVCM:  Ph=2 NNew=    0 IAdd=    5 IPass= 1 DotMx2= 4.19D-01
 OrtVCM:  Ph=2 NNew=    0 IAdd=    5 IPass= 2 DotMx2= 1.80D-16
 OrtVCM:  IS=    1 I=    5 IndO=   11 Dot= 5.37D-01 DotN= 5.37D-01 ElMax1= 5.37D-01 ElMax1N= 5.37D-01
 OrtVCM:  Ph=2 NNew=    0 IAdd=    6 IPass= 1 DotMx2= 2.99D-01
 OrtVCM:  Ph=2 NNew=    0 IAdd=    6 IPass= 2 DotMx2= 1.53D-16
 OrtVCM:  IS=    1 I=    6 IndO=   12 Dot= 4.01D-01 DotN= 4.01D-01 ElMax1= 4.01D-01 ElMax1N= 4.01D-01
 OrtVCM:  Ph=2 NNew=    0 IAdd=    7 IPass= 1 DotMx2= 4.56D-01
 OrtVCM:  Ph=2 NNew=    0 IAdd=    7 IPass= 2 DotMx2= 4.16D-17
 OrtVCM:  IS=    1 I=    7 IndO=   13 Dot= 3.68D-01 DotN= 3.68D-01 ElMax1= 3.68D-01 ElMax1N= 3.68D-01
 OrtVCM:  Ph=2 NNew=    0 IAdd=    8 IPass= 1 DotMx2= 3.48D-01
 OrtVCM:  Ph=2 NNew=    0 IAdd=    8 IPass= 2 DotMx2= 1.15D-16
 OrtVCM:  IS=    1 I=    8 IndO=   14 Dot= 2.65D-01 DotN= 2.65D-01 ElMax1= 2.69D-01 ElMax1N= 2.69D-01
 OrtVCM:  Ph=2 NNew=    0 IAdd=    9 IPass= 1 DotMx2= 2.56D-01
 OrtVCM:  Ph=2 NNew=    0 IAdd=    9 IPass= 2 DotMx2= 2.43D-17
 OrtVCM:  IS=    1 I=    9 IndO=   15 Dot= 2.49D-01 DotN= 2.49D-01 ElMax1= 2.66D-01 ElMax1N= 2.66D-01
 OrtVCM:  Ph=2 NNew=    0 IAdd=   10 IPass= 1 DotMx2= 2.79D-01
 OrtVCM:  Ph=2 NNew=    0 IAdd=   10 IPass= 2 DotMx2= 4.86D-17
 OrtVCM:  IS=    1 I=   10 IndO=   16 Dot= 7.31D-01 DotN= 7.31D-01 ElMax1= 7.31D-01 ElMax1N= 7.31D-01
 OrtVCM:  Ph=2 NNew=    0 IAdd=   11 IPass= 1 DotMx2= 2.77D-01
 OrtVCM:  Ph=2 NNew=    0 IAdd=   11 IPass= 2 DotMx2= 8.33D-17
 OrtVCM:  IS=    1 I=   11 IndO=   17 Dot= 8.45D-01 DotN= 8.45D-01 ElMax1= 8.45D-01 ElMax1N= 8.45D-01
 OrtVCM:  Ph=2 NNew=    0 IAdd=   12 IPass= 1 DotMx2= 4.43D-01
 OrtVCM:  Ph=2 NNew=    0 IAdd=   12 IPass= 2 DotMx2= 1.94D-16
 OrtVCM:  IS=    1 I=   12 IndO=   18 Dot= 5.57D-01 DotN= 5.57D-01 ElMax1= 5.57D-01 ElMax1N= 5.57D-01
 OrtVCM:  Ph=2 NNew=    0 IAdd=   13 IPass= 1 DotMx2= 2.90D-01
 OrtVCM:  Ph=2 NNew=    0 IAdd=   13 IPass= 2 DotMx2= 8.33D-17
 OrtVCM:  IS=    1 I=   13 IndO=   19 Dot= 7.98D-01 DotN= 7.98D-01 ElMax1= 7.98D-01 ElMax1N= 7.98D-01
 OrtVCM:  Ph=2 NNew=    0 IAdd=   14 IPass= 1 DotMx2= 3.44D-01
 OrtVCM:  Ph=2 NNew=    0 IAdd=   14 IPass= 2 DotMx2= 1.94D-16
 OrtVCM:  IS=    1 I=   14 IndO=   20 Dot= 5.95D-01 DotN= 5.95D-01 ElMax1= 5.95D-01 ElMax1N= 5.95D-01
[...]
      9 -0.401084D-02 -0.609280D-02 -0.997319D-03  0.200912D+00 -0.116863D+00
     10  0.231958D-02 -0.273578D-01  0.114673D-02 -0.509753D-01 -0.165820D-01
     11  0.228268D-02 -0.689625D-02  0.553945D-03 -0.170676D-01 -0.332330D+00
     12 -0.317538D-03 -0.139840D-02  0.888444D-03  0.936815D-02 -0.181612D-01
     13 -0.139754D+00  0.659596D-01  0.105707D+00 -0.204105D-01  0.147997D-01
     14  0.671756D-01 -0.952630D-01 -0.753989D-01 -0.101190D-01  0.758751D-02
     15  0.107263D+00 -0.751791D-01 -0.166019D+00 -0.142205D-02  0.125741D-02
     16 -0.486698D-01  0.235128D-01 -0.325131D-02  0.141042D-02 -0.314277D-01
     17  0.233497D-01 -0.285069D+00  0.544628D-01 -0.289957D-02 -0.143524D-01
     18 -0.308865D-02  0.557011D-01 -0.572586D-01 -0.336395D-03 -0.293246D-02
     19 -0.120116D-01 -0.387926D-02 -0.102041D-01  0.462014D-01 -0.355229D-01
     20  0.309186D-03  0.571323D-02 -0.829452D-02 -0.380916D-01 -0.400158D-02
     21  0.403685D-02  0.342924D-03  0.856554D-03 -0.967391D-01  0.572880D-01
     22 -0.867404D-01  0.104699D-01 -0.926140D-01 -0.211710D-01 -0.191679D-02
     23  0.822937D-02 -0.454970D-01  0.138195D-01 -0.100090D-01  0.714019D-03
     24 -0.862967D-01  0.179879D-01 -0.239471D+00 -0.509489D-02 -0.502150D-02
     25 -0.145601D-02  0.278717D-02  0.487137D-02 -0.154359D-01 -0.153394D-01
     26  0.141102D-02 -0.159927D-02 -0.195567D-02  0.154681D-01  0.107597D-01
     27 -0.283423D-02 -0.154293D-02 -0.225059D-04  0.503174D-02 -0.213993D-02
     28  0.229611D-02  0.643375D-03 -0.884908D-03  0.414990D-02  0.260886D-01
     29 -0.140130D-02  0.834819D-03  0.104921D-02 -0.321537D-02 -0.116862D-01
     30  0.414019D-03 -0.122215D-02  0.163899D-02  0.290732D-02 -0.348674D-02
                6             7             8             9            10 
      6  0.156929D+00
      7  0.801654D-01  0.480090D+00
      8 -0.540959D-01  0.100168D+00  0.584452D+00
      9  0.320528D-01 -0.166549D+00  0.993361D-01  0.112515D+00
     10 -0.160847D-02 -0.175262D-02  0.226167D-01  0.348839D-02  0.538202D-01
     11 -0.238663D-01  0.168168D-03 -0.841237D-02 -0.119713D-02  0.166531D-01
     12 -0.260672D-01 -0.615467D-02 -0.192763D-01 -0.285966D-02 -0.694332D-02
     13  0.175784D-01 -0.327261D-02 -0.523603D-02  0.118581D-02  0.113153D-02
     14  0.120323D-01 -0.158595D-02 -0.134396D-02 -0.570991D-03  0.775251D-03
     15  0.600963D-03 -0.980877D-03  0.536678D-03  0.121924D-02  0.260587D-03
     16  0.538416D-02  0.165010D-02 -0.408724D-03 -0.617499D-03 -0.486510D-02
     17 -0.108841D-02 -0.205248D-03  0.788200D-03  0.175198D-02 -0.239875D-02
     18 -0.291831D-03  0.152905D-03  0.887912D-03 -0.627321D-03 -0.495717D-03
     19  0.268738D-01 -0.342947D-02 -0.934881D-02 -0.130201D+00  0.239878D-02
     20 -0.128220D-01 -0.109157D-01 -0.179794D-01  0.751244D-01  0.484493D-02
     21 -0.911515D-01 -0.329411D-02  0.232576D-02 -0.336768D-01  0.329187D-02
     22 -0.280705D-01  0.654812D-03  0.247656D-02  0.306206D-02  0.497871D-03
     23 -0.154532D-01 -0.101774D-02  0.136684D-02  0.253471D-02  0.391839D-03
     24  0.251521D-02 -0.264958D-02  0.203573D-02  0.213013D-02 -0.293437D-03
     25  0.208585D-02 -0.216237D+00 -0.126898D+00  0.867990D-01  0.110025D-02
     26 -0.441151D-02 -0.133649D+00 -0.141403D+00  0.413994D-01 -0.379463D-03
     27 -0.732387D-02  0.845121D-01  0.507666D-01 -0.552290D-01  0.117465D-02
     28  0.618210D-02 -0.488088D-01 -0.411568D-01  0.593183D-02 -0.367527D-02
     29 -0.690670D-03 -0.339357D-01 -0.306899D+00 -0.954228D-01  0.143615D-02
     30 -0.698166D-02 -0.163203D-02 -0.972130D-01 -0.545267D-01 -0.212833D-04
               11            12            13            14            15 
     11  0.348509D+00
     12  0.261781D-01  0.232784D-01
     13 -0.271662D-03 -0.389657D-03  0.155835D+00
     14  0.501938D-03  0.221574D-03 -0.711878D-01  0.990666D-01
     15  0.284291D-03  0.652319D-04 -0.116659D+00  0.832444D-01  0.177705D+00
     16 -0.217874D-02  0.914461D-03 -0.195488D-02  0.183990D-01 -0.593458D-02
     17  0.207222D-03  0.125490D-02  0.119099D-02 -0.121655D-01  0.295431D-02
     18 -0.353259D-03  0.626723D-03  0.826022D-03 -0.219299D-01  0.550057D-02
     19 -0.157930D-02  0.654780D-03  0.723422D-03 -0.290741D-03  0.511593D-03
     20 -0.296837D-02  0.127486D-01  0.334856D-03  0.238663D-03 -0.434078D-04
     21 -0.169248D-02  0.305666D-02  0.275249D-03 -0.176456D-03  0.700819D-03
     22 -0.252734D-03  0.548591D-03  0.891859D-02 -0.227229D-02  0.172613D-01
     23 -0.219616D-03  0.392530D-03 -0.637473D-02  0.689075D-03 -0.130789D-01
     24 -0.263670D-03  0.983322D-04 -0.854499D-02  0.239740D-02 -0.198835D-01
     25  0.137024D-03 -0.114167D-02 -0.154599D-02 -0.637477D-03 -0.130223D-03
     26  0.113555D-02  0.752397D-03  0.877210D-03  0.518287D-03 -0.964666D-04
     27 -0.101683D-02  0.141459D-02  0.158308D-03 -0.303069D-04  0.231677D-03
     28  0.210904D-02  0.346086D-02  0.329340D-03 -0.256608D-03 -0.169750D-03
     29  0.472869D-03 -0.271220D-02 -0.921265D-04  0.170346D-03  0.120842D-03
     30  0.137335D-02 -0.501618D-03 -0.137585D-03  0.210955D-03 -0.120206D-03
               16            17            18            19            20 
     16  0.537018D-01
     17 -0.217832D-01  0.313145D+00
     18  0.642156D-02 -0.602151D-01  0.590152D-01
     19  0.381218D-03  0.204260D-02 -0.343477D-03 -0.386422D-01
     20 -0.207376D-03 -0.989655D-03 -0.166139D-03  0.494556D-01  0.200915D-01
     21 -0.440672D-03 -0.135004D-02  0.773719D-03  0.986664D-01 -0.587975D-01
     22 -0.180722D-02  0.102781D-02 -0.334359D-02  0.861183D-03 -0.402525D-02
     23  0.133940D-01 -0.242197D-02  0.293164D-01  0.107683D-02 -0.161862D-02
     24 -0.265392D-02  0.142121D-02 -0.748649D-02  0.301880D-02 -0.129134D-02
     25  0.194903D-03  0.570801D-04 -0.109326D-03  0.432877D-02  0.254719D-02
     26  0.280840D-03  0.224373D-03 -0.219953D-03 -0.197147D-02 -0.154468D-02
     27 -0.240752D-03  0.478151D-03 -0.956065D-04  0.115377D-01  0.698998D-02
     28 -0.414209D-04 -0.381428D-03  0.316662D-03 -0.811441D-03 -0.425182D-02
     29  0.418960D-03  0.633795D-03 -0.885241D-04  0.174581D-04  0.305888D-02
     30  0.418543D-03  0.330138D-03 -0.156406D-03 -0.514667D-03 -0.134480D-01
               21            22            23            24            25 
     21  0.118891D+00
     22 -0.844491D-03  0.986753D-01
     23 -0.982820D-03 -0.595558D-02  0.470117D-01
     24  0.149234D-03  0.103022D+00 -0.173071D-01  0.261327D+00
     25 -0.244600D-02  0.311134D-03  0.137000D-03 -0.154610D-03  0.228415D+00
     26  0.135069D-02  0.753554D-05 -0.719669D-04  0.213542D-03  0.135248D+00
     27  0.333195D-03  0.405323D-03  0.301281D-03  0.124674D-03 -0.899817D-01
     28 -0.250604D-02 -0.200357D-03  0.128000D-03 -0.353085D-03  0.325222D-03
     29  0.169194D-02  0.440834D-03  0.475570D-04 -0.172139D-03  0.196102D-02
     30  0.665853D-04  0.572860D-03  0.457619D-03  0.496627D-03  0.207339D-03
               26            27            28            29            30 
     26  0.140286D+00
     27 -0.483078D-01  0.554998D-01
     28 -0.172924D-01 -0.976316D-02  0.464367D-01
     29 -0.830458D-02 -0.549820D-02  0.343701D-01  0.321671D+00
     30  0.112753D-01  0.506705D-02 -0.221451D-02  0.101723D+00  0.550173D-01
 Final forces over variables, Energy=-1.18443997D+02:
  1.91948685D-08 1.90646019D-09 4.31329513D-07-4.12370447D-07
 -9.85279062D-08 2.80557978D-07 1.49652734D-07-3.46198570D-08
 -5.16559823D-07 1.79436437D-07-4.38047629D-07-1.20326118D-07
  8.41671861D-07 2.21146631D-07-4.09526411D-07-1.67941764D-08
  2.98267913D-07-6.40988037D-07 2.28760438D-07 3.58355202D-08
  1.55150661D-08-9.91328082D-08 1.38440729D-07-2.81331903D-07
  7.00801610D-08 1.78138018D-07-2.71593863D-07 1.52716749D-07
 -6.76827286D-09 1.03936132D-07
 Leave Link  716 at Sun Jun 27 00:31:58 2021, MaxMem=  3355443200 cpu:         0.1
 (Enter /Local/ce_dana/g09/l103.exe)

 GradGradGradGradGradGradGradGradGradGradGradGradGradGradGradGradGradGrad
 Berny optimization.
 Search for a local minimum.
 Step number   1 out of a maximum of    2
 All quantities printed in internal units (Hartrees-Bohrs-Radians)
 Second derivative matrix not updated -- analytic derivatives used.
 ITU=  0
     Eigenvalues ---   -0.26837   0.00186   0.00677   0.01028   0.02540
     Eigenvalues ---    0.03951   0.04486   0.05773   0.07048   0.07805
     Eigenvalues ---    0.09137   0.10034   0.11807   0.13725   0.14801
     Eigenvalues ---    0.23693   0.26353   0.38106   0.54853   0.67624
     Eigenvalues ---    0.73958   0.80267   0.88949   0.95747
 Eigenvalue     1 is  -2.68D-01 should be greater than     0.000000 Eigenvector:
                          X7        Z3        Y7        Z7        Z2
   1                    0.61896   0.39589  -0.38284  -0.36009  -0.26400
                          X2        Y2        Y10       X9        Z10
   1                   -0.24270   0.15005   0.07126  -0.06851  -0.05817
 Angle between quadratic step and forces=  76.08 degrees.
 Linear search not attempted -- first point.
 TrRot=  0.000000 -0.000000  0.000000  0.000000  0.000000  0.000000
 Variable       Old X    -DE/DX   Delta X   Delta X   Delta X     New X
                                 (Linear)    (Quad)   (Total)
    X1        2.88155   0.00000   0.00000  -0.00000  -0.00000   2.88155
    Y1        1.11865  -0.00000   0.00000   0.00000   0.00000   1.11865
    Z1       -0.52183   0.00000   0.00000  -0.00000  -0.00000  -0.52183
    X2        0.33973   0.00000   0.00000   0.00000   0.00000   0.33973
    Y2       -0.13260  -0.00000   0.00000  -0.00000  -0.00000  -0.13260
    Z2       -0.49395  -0.00000   0.00000   0.00000   0.00000  -0.49395
    X3       -1.87837   0.00000   0.00000   0.00000   0.00000  -1.87837
    Y3        1.15441   0.00000   0.00000  -0.00000  -0.00000   1.15441
    Z3        0.68783   0.00000   0.00000   0.00000   0.00000   0.68783
    X4        0.23570  -0.00000   0.00000   0.00000   0.00000   0.23570
    Y4       -2.17438   0.00000   0.00000  -0.00000  -0.00000  -2.17438
    Z4       -0.63422  -0.00000   0.00000  -0.00000  -0.00000  -0.63422
    X5        4.14765  -0.00000   0.00000  -0.00000  -0.00000   4.14765
    Y5        0.26111  -0.00000   0.00000  -0.00000  -0.00000   0.26111
    Z5       -1.90963   0.00000   0.00000   0.00000   0.00000  -1.90963
    X6        2.72415   0.00000   0.00000  -0.00000  -0.00000   2.72415
    Y6        3.13204  -0.00000   0.00000   0.00000   0.00000   3.13204
    Z6       -0.97521   0.00000   0.00000  -0.00000  -0.00000  -0.97521
    X7       -1.49300   0.00000   0.00000   0.00000   0.00000  -1.49300
    Y7        0.92639   0.00000   0.00000   0.00000   0.00000   0.92639
    Z7       -1.73403  -0.00000   0.00000   0.00000   0.00000  -1.73403
    X8        3.80501  -0.00000   0.00000   0.00000   0.00000   3.80501
    Y8        0.99784  -0.00000   0.00000   0.00000   0.00000   0.99784
    Z8        1.33882   0.00000   0.00000  -0.00000  -0.00000   1.33882
    X9       -3.45988  -0.00000   0.00000  -0.00000  -0.00000  -3.45988
    Y9        0.04506   0.00000   0.00000   0.00000   0.00000   0.04506
    Z9        1.35539  -0.00000   0.00000  -0.00000  -0.00000   1.35538
   X10       -1.67128   0.00000   0.00000  -0.00000   0.00000  -1.67128
   Y10        3.07806   0.00000   0.00000  -0.00000  -0.00000   3.07805
   Z10        1.35076   0.00000   0.00000   0.00000   0.00000   1.35076
         Item               Value     Threshold  Converged?
 Maximum Force            0.000001     0.000450     YES
 RMS     Force            0.000000     0.000300     YES
 Maximum Displacement     0.000003     0.001800     YES
 RMS     Displacement     0.000001     0.001200     YES
 Predicted change in Energy=-5.468237D-13
 Optimization completed.
    -- Stationary point found.
 GradGradGradGradGradGradGradGradGradGradGradGradGradGradGradGradGradGrad

 Leave Link  103 at Sun Jun 27 00:31:58 2021, MaxMem=  3355443200 cpu:         0.0
 (Enter /Local/ce_dana/g09/l9999.exe)

 Test job not archived.
 1\1\GINC-TECH-WN089\Freq\UB3LYP\6-311G(2d,d,p)\C3H7(2)\ALONGD\27-Jun-2
 021\0\\#P guess=read ub3lyp/cbsb7 freq IOp(7/33=1) scf=(tight, direct)
  integral=(grid=ultrafine, Acc2E=12) IOp(2/9=2000) scf=xqc\\TS0\\0,2\C
 ,1.524852,0.591965,-0.276141\C,0.179776,-0.070169,-0.261389\C,-0.99399
 3,0.61089,0.363983\H,0.124725,-1.150632,-0.335616\H,2.19484,0.138175,-
 1.010532\H,1.441557,1.657406,-0.51606\H,-0.790061,0.490224,-0.917609\H
 ,2.013526,0.528035,0.708471\H,-1.83089,0.023846,0.717239\H,-0.884404,1
 .628837,0.71479\\Version=ES64L-G09RevD.01\State=2-A\HF=-118.4439969\S2
 =0.757906\S2-1=0.\S2A=0.750025\RMSD=3.021e-09\RMSF=3.003e-07\ZeroPoint
 =0.0839513\Thermal=0.0884562\Dipole=0.0441959,-0.0248861,-0.0554146\Di
 poleDeriv=0.1346238,0.0013944,0.0655212,0.0512762,0.0713935,-0.0050507
 ,-0.0047319,0.0241322,0.2409545,0.0986597,-0.0010257,0.0652891,0.01786
 59,0.0717179,-0.0750221,-0.0067523,-0.0349785,-0.2836556,-0.3197113,0.
 1084775,-0.1966301,0.1800412,-0.0196508,0.1192482,-0.0596771,0.0681182
 ,-0.2436103,-0.0134031,-0.0165166,0.0250608,-0.0205636,-0.1270096,-0.0
 30793,0.0131614,0.0106584,0.1601552,-0.0651566,0.0317594,0.0788077,0.0
 534971,0.0352673,-0.0735665,0.1120931,-0.0655988,-0.0307842,0.0299611,
 0.045482,-0.0179364,-0.0360703,-0.152119,0.0588655,0.0053401,0.0444244
 ,0.0519789,0.1726482,-0.0433712,-0.0905754,-0.0770479,0.0885917,0.0556
 578,-0.0916803,0.0398803,0.0599395,-0.1058169,-0.001942,-0.05544,-0.05
 60641,0.0647708,0.0247897,-0.1759747,-0.0008408,-0.1493464,-0.0076835,
 -0.0549772,0.0904739,-0.0905682,0.0214044,-0.0013416,0.126803,-0.01262
 72,0.099324,0.0758787,-0.0692806,0.0354292,-0.0223663,-0.0543662,-0.07
 27872,0.0814187,-0.0731681,0.0950444\Polar=45.6432618,-1.6223925,34.37
 52054,-3.4560464,2.3347767,33.1372203\PG=C01 [X(C3H7)]\NImag=1\\0.4884
 7478,-0.03466504,0.53680359,-0.02787502,0.00745016,0.52066683,-0.18574
 054,-0.05332763,0.00667347,0.43214810,-0.05932834,-0.11488882,-0.00638
 299,0.05411252,0.57462862,0.01270911,0.00395339,-0.06028156,-0.1212998
 8,0.09644237,0.15692856,-0.01871781,0.01585679,0.01643034,-0.19017667,
 0.06511635,0.08016537,0.48009016,-0.00736289,0.00586165,0.01469639,0.0
 6514924,-0.11643076,-0.05409591,0.10016836,0.58445178,-0.00401084,-0.0
 0609280,-0.00099732,0.20091158,-0.11686296,0.03205279,-0.16654946,0.09
 933611,0.11251465,0.00231958,-0.02735777,0.00114673,-0.05097526,-0.016
 58202,-0.00160847,-0.00175262,0.02261673,0.00348839,0.05382024,0.00228
 268,-0.00689625,0.00055394,-0.01706758,-0.33233019,-0.02386631,0.00016
 817,-0.00841237,-0.00119713,0.01665311,0.34850921,-0.00031754,-0.00139
 840,0.00088844,0.00936815,-0.01816117,-0.02606715,-0.00615467,-0.01927
 628,-0.00285966,-0.00694332,0.02617809,0.02327844,-0.13975433,0.065959
 64,0.10570744,-0.02041048,0.01479968,0.01757843,-0.00327261,-0.0052360
 3,0.00118581,0.00113153,-0.00027166,-0.00038966,0.15583540,0.06717565,
 -0.09526297,-0.07539889,-0.01011902,0.00758751,0.01203230,-0.00158595,
 -0.00134396,-0.00057099,0.00077525,0.00050194,0.00022157,-0.07118782,0
 .09906662,0.10726299,-0.07517915,-0.16601938,-0.00142205,0.00125741,0.
 00060096,-0.00098088,0.00053668,0.00121924,0.00026059,0.00028429,0.000
 06523,-0.11665903,0.08324435,0.17770461,-0.04866980,0.02351284,-0.0032
 5131,0.00141042,-0.03142769,0.00538416,0.00165010,-0.00040872,-0.00061
 750,-0.00486510,-0.00217874,0.00091446,-0.00195488,0.01839901,-0.00593
 458,0.05370178,0.02334967,-0.28506894,0.05446283,-0.00289957,-0.014352
 37,-0.00108841,-0.00020525,0.00078820,0.00175198,-0.00239875,0.0002072
 2,0.00125490,0.00119099,-0.01216551,0.00295431,-0.02178315,0.31314486,
 -0.00308865,0.05570108,-0.05725860,-0.00033639,-0.00293246,-0.00029183
 ,0.00015291,0.00088791,-0.00062732,-0.00049572,-0.00035326,0.00062672,
 0.00082602,-0.02192994,0.00550057,0.00642156,-0.06021507,0.05901525,-0
 .01201161,-0.00387926,-0.01020411,0.04620136,-0.03552291,0.02687383,-0
 .00342947,-0.00934881,-0.13020085,0.00239878,-0.00157930,0.00065478,0.
 00072342,-0.00029074,0.00051159,0.00038122,0.00204260,-0.00034348,-0.0
 3864220,0.00030919,0.00571323,-0.00829452,-0.03809162,-0.00400158,-0.0
 1282202,-0.01091572,-0.01797937,0.07512442,0.00484493,-0.00296837,0.01
 274856,0.00033486,0.00023866,-0.00004341,-0.00020738,-0.00098966,-0.00
 016614,0.04945561,0.02009151,0.00403685,0.00034292,0.00085655,-0.09673
 905,0.05728796,-0.09115146,-0.00329411,0.00232576,-0.03367676,0.003291
 87,-0.00169248,0.00305666,0.00027525,-0.00017646,0.00070082,-0.0004406
 7,-0.00135004,0.00077372,0.09866639,-0.05879748,0.11889145,-0.08674038
 ,0.01046990,-0.09261401,-0.02117096,-0.00191679,-0.02807049,0.00065481
 ,0.00247656,0.00306206,0.00049787,-0.00025273,0.00054859,0.00891859,-0
 .00227229,0.01726134,-0.00180722,0.00102781,-0.00334359,0.00086118,-0.
 00402525,-0.00084449,0.09867533,0.00822937,-0.04549704,0.01381953,-0.0
 1000903,0.00071402,-0.01545324,-0.00101774,0.00136684,0.00253471,0.000
 39184,-0.00021962,0.00039253,-0.00637473,0.00068907,-0.01307886,0.0133
 9404,-0.00242197,0.02931635,0.00107683,-0.00161862,-0.00098282,-0.0059
 5558,0.04701172,-0.08629670,0.01798787,-0.23947146,-0.00509489,-0.0050
 2150,0.00251521,-0.00264958,0.00203573,0.00213013,-0.00029344,-0.00026
 367,0.00009833,-0.00854499,0.00239740,-0.01988353,-0.00265392,0.001421
 21,-0.00748649,0.00301880,-0.00129134,0.00014923,0.10302241,-0.0173071
 0,0.26132727,-0.00145601,0.00278717,0.00487137,-0.01543587,-0.01533945
 ,0.00208585,-0.21623714,-0.12689761,0.08679898,0.00110025,0.00013702,-
 0.00114167,-0.00154599,-0.00063748,-0.00013022,0.00019490,0.00005708,-
 0.00010933,0.00432877,0.00254719,-0.00244600,0.00031113,0.00013700,-0.
 00015461,0.22841473,0.00141102,-0.00159927,-0.00195567,0.01546806,0.01
 075974,-0.00441151,-0.13364935,-0.14140341,0.04139943,-0.00037946,0.00
 113555,0.00075240,0.00087721,0.00051829,-0.00009647,0.00028084,0.00022
 437,-0.00021995,-0.00197147,-0.00154468,0.00135069,0.00000754,-0.00007
 197,0.00021354,0.13524805,0.14028598,-0.00283423,-0.00154293,-0.000022
 51,0.00503174,-0.00213993,-0.00732387,0.08451211,0.05076660,-0.0552290
 4,0.00117465,-0.00101683,0.00141459,0.00015831,-0.00003031,0.00023168,
 -0.00024075,0.00047815,-0.00009561,0.01153772,0.00698998,0.00033320,0.
 00040532,0.00030128,0.00012467,-0.08998172,-0.04830781,0.05549984,0.00
 229611,0.00064338,-0.00088491,0.00414990,0.02608864,0.00618210,-0.0488
 0877,-0.04115683,0.00593183,-0.00367527,0.00210904,0.00346086,0.000329
 34,-0.00025661,-0.00016975,-0.00004142,-0.00038143,0.00031666,-0.00081
 144,-0.00425182,-0.00250604,-0.00020036,0.00012800,-0.00035309,0.00032
 522,-0.01729244,-0.00976316,0.04643669,-0.00140130,0.00083482,0.001049
 21,-0.00321537,-0.01168616,-0.00069067,-0.03393567,-0.30689860,-0.0954
 2278,0.00143615,0.00047287,-0.00271220,-0.00009213,0.00017035,0.000120
 84,0.00041896,0.00063380,-0.00008852,0.00001746,0.00305888,0.00169194,
 0.00044083,0.00004756,-0.00017214,0.00196102,-0.00830458,-0.00549820,0
 .03437006,0.32167108,0.00041402,-0.00122215,0.00163899,0.00290732,-0.0
 0348674,-0.00698166,-0.00163203,-0.09721298,-0.05452671,-0.00002128,0.
 00137335,-0.00050162,-0.00013759,0.00021096,-0.00012021,0.00041854,0.0
 0033014,-0.00015641,-0.00051467,-0.01344805,0.00006659,0.00057286,0.00
 045762,0.00049663,0.00020734,0.01127534,0.00506705,-0.00221451,0.10172
 252,0.05501734\\-0.00000002,0.00000044,-0.00000002,0.,0.00000012,0.000
 00010,-0.00000043,-0.00000084,-0.00000014,0.00000041,-0.00000022,0.000
 00028,0.00000010,0.00000041,-0.00000007,-0.00000028,0.00000002,-0.0000
 0018,-0.00000015,-0.00000030,0.00000027,0.00000003,0.00000064,-0.00000
 015,0.00000052,-0.00000023,0.,-0.00000018,-0.00000004,-0.00000010\\\@


 THE PROMISED LAND ALWAYS LIES ON THE OTHER SIDE OF A WILDERNESS.

                         -- HAVELOCK ELLIS
 Job cpu time:       0 days  0 hours  7 minutes 14.1 seconds.
 File lengths (MBytes):  RWF=     21 Int=      0 D2E=      0 Chk=      4 Scr=      1
 Normal termination of Gaussian 09 at Sun Jun 27 00:31:58 2021.
