 Entering Gaussian System, Link 0=/Local/ce_dana/g09/g09
 Initial command:
 /Local/ce_dana/g09/l1.exe "/storage/ce_dana/alongd/scratch/g09/Gau-38569.inp" -scrdir="/storage/ce_dana/alongd/scratch/g09/"
 Entering Link 1 = /Local/ce_dana/g09/l1.exe PID=     38570.
  
 Copyright (c) 1988,1990,1992,1993,1995,1998,2003,2009,2013,
            Gaussian, Inc.  All Rights Reserved.
  
 This is part of the Gaussian(R) 09 program.  It is based on
 the Gaussian(R) 03 system (copyright 2003, Gaussian, Inc.),
 the Gaussian(R) 98 system (copyright 1998, Gaussian, Inc.),
 the Gaussian(R) 94 system (copyright 1995, Gaussian, Inc.),
 the Gaussian 92(TM) system (copyright 1992, Gaussian, Inc.),
 the Gaussian 90(TM) system (copyright 1990, Gaussian, Inc.),
 the Gaussian 88(TM) system (copyright 1988, Gaussian, Inc.),
 the Gaussian 86(TM) system (copyright 1986, Carnegie Mellon
 University), and the Gaussian 82(TM) system (copyright 1983,
 Carnegie Mellon University). Gaussian is a federally registered
 trademark of Gaussian, Inc.
  
 This software contains proprietary and confidential information,
 including trade secrets, belonging to Gaussian, Inc.
  
 This software is provided under written license and may be
 used, copied, transmitted, or stored only in accord with that
 written license.
  
 The following legend is applicable only to US Government
 contracts under FAR:
  
                    RESTRICTED RIGHTS LEGEND
  
 Use, reproduction and disclosure by the US Government is
 subject to restrictions as set forth in subparagraphs (a)
 and (c) of the Commercial Computer Software - Restricted
 Rights clause in FAR 52.227-19.
  
 Gaussian, Inc.
 340 Quinnipiac St., Bldg. 40, Wallingford CT 06492
  
  
 ---------------------------------------------------------------
 Warning -- This program may not be used in any manner that
 competes with the business of Gaussian, Inc. or will provide
 assistance to any competitor of Gaussian, Inc.  The licensee
 of this program is prohibited from giving any competitor of
 Gaussian, Inc. access to this program.  By using this program,
 the user acknowledges that Gaussian, Inc. is engaged in the
 business of creating and licensing software in the field of
 computational chemistry and represents and warrants to the
 licensee that it is not a competitor of Gaussian, Inc. and that
 it will not use this program in any manner prohibited above.
 ---------------------------------------------------------------
  

 Cite this work as:
 Gaussian 09, Revision D.01,
 M. J. Frisch, G. W. Trucks, H. B. Schlegel, G. E. Scuseria, 
 M. A. Robb, J. R. Cheeseman, G. Scalmani, V. Barone, B. Mennucci, 
 G. A. Petersson, H. Nakatsuji, M. Caricato, X. Li, H. P. Hratchian, 
 A. F. Izmaylov, J. Bloino, G. Zheng, J. L. Sonnenberg, M. Hada, 
 M. Ehara, K. Toyota, R. Fukuda, J. Hasegawa, M. Ishida, T. Nakajima, 
 Y. Honda, O. Kitao, H. Nakai, T. Vreven, J. A. Montgomery, Jr., 
 J. E. Peralta, F. Ogliaro, M. Bearpark, J. J. Heyd, E. Brothers, 
 K. N. Kudin, V. N. Staroverov, T. Keith, R. Kobayashi, J. Normand, 
 K. Raghavachari, A. Rendell, J. C. Burant, S. S. Iyengar, J. Tomasi, 
 M. Cossi, N. Rega, J. M. Millam, M. Klene, J. E. Knox, J. B. Cross, 
 V. Bakken, C. Adamo, J. Jaramillo, R. Gomperts, R. E. Stratmann, 
 O. Yazyev, A. J. Austin, R. Cammi, C. Pomelli, J. W. Ochterski, 
 R. L. Martin, K. Morokuma, V. G. Zakrzewski, G. A. Voth, 
 P. Salvador, J. J. Dannenberg, S. Dapprich, A. D. Daniels, 
 O. Farkas, J. B. Foresman, J. V. Ortiz, J. Cioslowski, 
 and D. J. Fox, Gaussian, Inc., Wallingford CT, 2013.
 
 ******************************************
 Gaussian 09:  ES64L-G09RevD.01 24-Apr-2013
                22-May-2022 
 ******************************************
 %chk=check.chk
 %mem=7168mb
 %NProcShared=10
 Will use up to   10 processors via shared memory.
 ----------------------------------------------------------------------
 #P guess=read uhf/3-21g freq IOp(7/33=1) scf=(tight, direct) integral=
 (grid=ultrafine, Acc2E=12) IOp(2/9=2000) scf=xqc
 ----------------------------------------------------------------------
 1/10=4,30=1,38=1/1,3;
 2/9=2000,12=2,17=6,18=5,40=1/2;
 3/5=5,11=2,16=1,25=1,30=1,71=2,75=-5,116=2,140=1/1,2,3;
 4/5=1/1;
 5/5=2,8=3,13=1,32=2,38=6,87=12,98=1/2,8;
 8/6=4,10=90,11=11,87=12/1;
 10/13=10,15=4,87=12/2;
 11/6=3,8=1,9=11,15=111,16=1,87=12/1,2,10;
 10/6=1,87=12/2;
 6/7=2,8=2,9=2,10=2,18=1,28=1/1;
 7/8=1,10=1,25=1,33=1,87=12/1,2,3,16;
 1/10=4,30=1/3;
 99//99;
 Leave Link    1 at Sun May 22 09:31:48 2022, MaxMem=   939524096 cpu:         0.1
 (Enter /Local/ce_dana/g09/l101.exe)
 ---
 TS0
 ---
 Symbolic Z-matrix:
 Charge =  0 Multiplicity = 2
 C                     1.06984   0.74493  -1.14325 
 C                     0.07473  -0.29599  -0.71363 
 C                    -0.85156   0.00364   0.43913 
 H                     1.44278   0.72347  -2.1473 
 H                     1.13021   1.65811  -0.58519 
 H                     1.36783  -0.3404   -0.44646 
 H                    -0.22514  -1.01456  -1.4517 
 H                    -1.28956  -0.90278   0.84031 
 H                    -1.66065   0.65931   0.12291 
 H                    -0.32096   0.50338   1.2435 
 
 NAtoms=     10 NQM=       10 NQMF=       0 NMMI=      0 NMMIF=      0
                NMic=       0 NMicF=      0.
                    Isotopes and Nuclear Properties:
 (Nuclear quadrupole moments (NQMom) in fm**2, nuclear magnetic moments (NMagM)
  in nuclear magnetons)

  Atom         1           2           3           4           5           6           7           8           9          10
 IAtWgt=          12          12          12           1           1           1           1           1           1           1
 AtmWgt=  12.0000000  12.0000000  12.0000000   1.0078250   1.0078250   1.0078250   1.0078250   1.0078250   1.0078250   1.0078250
 NucSpn=           0           0           0           1           1           1           1           1           1           1
 AtZEff=   0.0000000   0.0000000   0.0000000   0.0000000   0.0000000   0.0000000   0.0000000   0.0000000   0.0000000   0.0000000
 NQMom=    0.0000000   0.0000000   0.0000000   0.0000000   0.0000000   0.0000000   0.0000000   0.0000000   0.0000000   0.0000000
 NMagM=    0.0000000   0.0000000   0.0000000   2.7928460   2.7928460   2.7928460   2.7928460   2.7928460   2.7928460   2.7928460
 AtZNuc=   6.0000000   6.0000000   6.0000000   1.0000000   1.0000000   1.0000000   1.0000000   1.0000000   1.0000000   1.0000000
 Leave Link  101 at Sun May 22 09:31:48 2022, MaxMem=   939524096 cpu:         0.2
 (Enter /Local/ce_dana/g09/l103.exe)

 GradGradGradGradGradGradGradGradGradGradGradGradGradGradGradGradGradGrad
 Berny optimization.
 Initialization pass.
 Trust Radius=3.00D-01 FncErr=1.00D-07 GrdErr=1.00D-07
 Number of steps in this run=      2 maximum allowed number of steps=      2.
 GradGradGradGradGradGradGradGradGradGradGradGradGradGradGradGradGradGrad

 Leave Link  103 at Sun May 22 09:31:48 2022, MaxMem=   939524096 cpu:         0.0
 (Enter /Local/ce_dana/g09/l202.exe)
                          Input orientation:                          
 ---------------------------------------------------------------------
 Center     Atomic      Atomic             Coordinates (Angstroms)
 Number     Number       Type             X           Y           Z
 ---------------------------------------------------------------------
      1          6           0        1.069836    0.744932   -1.143254
      2          6           0        0.074733   -0.295991   -0.713630
      3          6           0       -0.851562    0.003636    0.439126
      4          1           0        1.442781    0.723474   -2.147298
      5          1           0        1.130213    1.658108   -0.585190
      6          1           0        1.367829   -0.340403   -0.446464
      7          1           0       -0.225144   -1.014555   -1.451703
      8          1           0       -1.289561   -0.902781    0.840309
      9          1           0       -1.660651    0.659309    0.122912
     10          1           0       -0.320960    0.503380    1.243496
 ---------------------------------------------------------------------
                    Distance matrix (angstroms):
                    1          2          3          4          5
     1  C    0.000000
     2  C    1.502773   0.000000
     3  C    2.597155   1.508856   0.000000
     4  H    1.071286   2.228513   3.531539   0.000000
     5  H    1.071901   2.224643   2.777397   1.847003   0.000000
     6  H    1.323733   1.321154   2.414193   2.007558   2.017363
     7  H    2.206334   1.072852   2.237040   2.507304   3.119449
     8  H    3.495173   2.155045   1.083689   4.363049   3.800724
     9  H    3.010991   2.150339   1.088358   3.845681   3.047610
    10  H    2.772947   2.150793   1.085492   3.828408   2.604495
                    6          7          8          9         10
     6  H    0.000000
     7  H    2.000637   0.000000
     8  H    3.005624   2.529584   0.000000
     9  H    3.239646   2.709597   1.758548   0.000000
    10  H    2.533761   3.094738   1.754433   1.753509   0.000000
 Stoichiometry    C3H7(2)
 Framework group  C1[X(C3H7)]
 Deg. of freedom    24
 Full point group                 C1      NOp   1
 Largest Abelian subgroup         C1      NOp   1
 Largest concise Abelian subgroup C1      NOp   1
                         Standard orientation:                         
 ---------------------------------------------------------------------
 Center     Atomic      Atomic             Coordinates (Angstroms)
 Number     Number       Type             X           Y           Z
 ---------------------------------------------------------------------
      1          6           0       -1.317288   -0.260819   -0.032638
      2          6           0       -0.041482    0.531329    0.023478
      3          6           0        1.279070   -0.197050   -0.023973
      4          1           0       -2.209628    0.216415   -0.384249
      5          1           0       -1.256223   -1.330754   -0.054542
      6          1           0       -0.820483    0.291170    1.063155
      7          1           0       -0.088157    1.550626   -0.307983
      8          1           0        2.089909    0.431147    0.325727
      9          1           0        1.509031   -0.512144   -1.040023
     10          1           0        1.253746   -1.087218    0.596716
 ---------------------------------------------------------------------
 Rotational constants (GHZ):     37.1245643      8.5777127      7.5881046
 Leave Link  202 at Sun May 22 09:31:48 2022, MaxMem=   939524096 cpu:         0.0
 (Enter /Local/ce_dana/g09/l301.exe)
 Standard basis: 3-21G (6D, 7F)
 Ernie: Thresh=  0.10000D-02 Tol=  0.10000D-05 Strict=F.
 
 
 
 < output shortened >
 
 
 
 Harmonic frequencies (cm**-1), IR intensities (KM/Mole), Raman scattering
 activities (A**4/AMU), depolarization ratios for plane and unpolarized
 incident light, reduced masses (AMU), force constants (mDyne/A),
 and normal coordinates:
                      1                      2                      3
                      A                      A                      A
 Frequencies --  -2494.2651               203.3340               396.3851
 Red. masses --      1.1324                 1.1133                 2.2121
 Frc consts  --      4.1509                 0.0271                 0.2048
 IR Inten    --      0.3471                 0.0856                 1.3977
 Raman Activ --     46.9384                 0.7153                 1.3568
 Depolar (P) --      0.7473                 0.7218                 0.4270
 Depolar (U) --      0.8554                 0.8384                 0.5985
  Atom  AN      X      Y      Z        X      Y      Z        X      Y      Z
     1   6    -0.02  -0.03  -0.07    -0.01  -0.00   0.06     0.18  -0.07  -0.00
     2   6    -0.04  -0.01   0.06     0.00  -0.01  -0.08    -0.00   0.20   0.01
     3   6    -0.00  -0.00  -0.00     0.01   0.00   0.01    -0.17  -0.06  -0.00
     4   1    -0.03   0.00   0.02    -0.02  -0.03   0.02     0.02  -0.35   0.05
     5   1    -0.02  -0.02   0.02    -0.03  -0.00   0.19     0.53  -0.05  -0.06
     6   1     0.83   0.54   0.05     0.03   0.12  -0.03     0.04   0.03   0.01
     7   1    -0.01  -0.03  -0.01     0.00  -0.04  -0.18    -0.00   0.16  -0.09
     8   1    -0.00   0.00   0.00    -0.09  -0.16   0.54     0.03  -0.36   0.05
     9   1    -0.01   0.01  -0.00     0.33   0.45  -0.06    -0.28  -0.09  -0.02
    10   1     0.00   0.00  -0.00    -0.20  -0.27  -0.39    -0.47  -0.10  -0.06
                      4                      5                      6
                      A                      A                      A
 Frequencies --    409.9900               781.4918               879.6076
 Red. masses --      1.1805                 1.1207                 1.3187
 Frc consts  --      0.1169                 0.4033                 0.6011
 IR Inten    --      3.4776                41.6880                62.6661
 Raman Activ --      1.4782                 1.0710                 0.8244
 Depolar (P) --      0.7062                 0.5973                 0.6545
 Depolar (U) --      0.8278                 0.7479                 0.7912
  Atom  AN      X      Y      Z        X      Y      Z        X      Y      Z
     1   6    -0.00  -0.01   0.03    -0.04   0.01  -0.01     0.01   0.03   0.14
     2   6    -0.01   0.01  -0.11     0.00   0.02  -0.09    -0.02  -0.06  -0.05
     3   6    -0.01   0.00   0.05     0.02  -0.02  -0.01    -0.04   0.01  -0.01
     4   1    -0.13   0.19   0.63    -0.16  -0.23  -0.04     0.28  -0.03  -0.66
     5   1    -0.03  -0.00  -0.55     0.14   0.02   0.36     0.22   0.05  -0.56
     6   1     0.28  -0.25   0.02     0.14  -0.10  -0.05     0.16   0.08   0.09
     7   1     0.01   0.05  -0.00    -0.03   0.28   0.75    -0.01   0.01   0.17
     8   1    -0.05   0.04   0.10    -0.02  -0.02   0.08    -0.11   0.08   0.03
     9   1     0.14  -0.10   0.11     0.18  -0.14   0.07     0.07  -0.02   0.02
    10   1    -0.08   0.07   0.14    -0.10   0.05   0.09    -0.01   0.03   0.03
                      7                      8                      9
                      A                      A                      A
 Frequencies --    929.0446              1025.7287              1148.4515
 Red. masses --      2.6226                 1.1542                 1.5387
 Frc consts  --      1.3337                 0.7155                 1.1957
 IR Inten    --     23.6875                 1.1460                 8.9235
 Raman Activ --     14.2786                 0.8366                 4.0086
 Depolar (P) --      0.1832                 0.4788                 0.7491
 Depolar (U) --      0.3096                 0.6476                 0.8565
  Atom  AN      X      Y      Z        X      Y      Z        X      Y      Z
     1   6     0.20   0.05  -0.04    -0.00   0.08  -0.02    -0.07  -0.06   0.02
     2   6     0.06  -0.18  -0.03    -0.03  -0.03   0.01     0.10  -0.00  -0.09
     3   6    -0.24   0.09   0.00    -0.04  -0.06   0.02    -0.04   0.06   0.12
     4   1     0.30   0.35   0.16    -0.27  -0.31   0.16    -0.04  -0.02  -0.02
     5   1    -0.26   0.02   0.44     0.47   0.10  -0.01    -0.09  -0.07  -0.08
     6   1     0.14  -0.12  -0.04    -0.03   0.02   0.01     0.05   0.11  -0.11
     7   1     0.05  -0.11   0.24     0.39  -0.05  -0.10     0.39   0.10   0.20
     8   1    -0.39   0.26   0.04    -0.28   0.30  -0.05     0.24  -0.10  -0.26
     9   1    -0.07   0.10   0.03     0.06   0.18  -0.04    -0.60   0.31  -0.10
    10   1    -0.07   0.09   0.02     0.42  -0.09  -0.01     0.14  -0.18  -0.23
                     10                     11                     12
                      A                      A                      A
 Frequencies --   1217.7860              1290.0412              1366.5522
 Red. masses --      2.1199                 1.6517                 1.0867
 Frc consts  --      1.8523                 1.6195                 1.1956
 IR Inten    --      4.9497                 2.1259                 8.7843
 Raman Activ --     11.4004                 5.1948                27.1945
 Depolar (P) --      0.4739                 0.3661                 0.7499
 Depolar (U) --      0.6430                 0.5360                 0.8571
  Atom  AN      X      Y      Z        X      Y      Z        X      Y      Z
     1   6    -0.14  -0.06   0.00    -0.01   0.12  -0.02     0.03  -0.02   0.00
     2   6     0.21   0.00   0.09    -0.02  -0.16   0.00    -0.01  -0.06   0.01
     3   6    -0.09   0.09  -0.10     0.04   0.12   0.02     0.01   0.03  -0.04
     4   1    -0.17  -0.19  -0.12    -0.23  -0.24   0.08    -0.04   0.04   0.27
     5   1     0.00  -0.07  -0.06     0.43   0.15   0.02     0.06  -0.01  -0.22
     6   1     0.07  -0.12   0.05     0.09  -0.17   0.04    -0.46   0.71  -0.14
     7   1     0.55  -0.08  -0.22    -0.18  -0.23  -0.14     0.13   0.02   0.26
     8   1    -0.16   0.03   0.19     0.36  -0.31   0.00     0.02  -0.04   0.06
     9   1     0.28  -0.20   0.08    -0.27  -0.14   0.02     0.07  -0.10   0.01
    10   1    -0.37   0.28   0.17    -0.38   0.04  -0.09    -0.14   0.06   0.02
                     13                     14                     15
                      A                      A                      A
 Frequencies --   1469.8851              1559.4814              1583.0594
 Red. masses --      1.4318                 1.1295                 1.1752
 Frc consts  --      1.8226                 1.6184                 1.7353
 IR Inten    --      3.3971                 3.8729                 4.7000
 Raman Activ --      2.4446                 6.7559                 7.7631
 Depolar (P) --      0.7452                 0.7069                 0.5619
 Depolar (U) --      0.8540                 0.8283                 0.7195
  Atom  AN      X      Y      Z        X      Y      Z        X      Y      Z
     1   6    -0.04   0.02  -0.00    -0.08  -0.05  -0.01    -0.02  -0.02  -0.00
     2   6     0.18  -0.00   0.01     0.02   0.00   0.00     0.00  -0.00  -0.00
     3   6    -0.05  -0.04   0.02    -0.04   0.01  -0.00     0.11  -0.06  -0.01
     4   1    -0.18  -0.17   0.06     0.25   0.60   0.06     0.09   0.20   0.01
     5   1     0.05   0.02  -0.14     0.65   0.00   0.17     0.20  -0.00   0.06
     6   1    -0.04   0.19  -0.13    -0.02  -0.01  -0.12     0.01  -0.03  -0.04
     7   1    -0.86  -0.05   0.01    -0.08  -0.01  -0.01     0.02   0.00   0.00
     8   1    -0.15   0.13  -0.05     0.09  -0.13  -0.02    -0.33   0.38   0.16
     9   1    -0.01   0.16  -0.03     0.14  -0.03   0.05    -0.48   0.21  -0.20
    10   1     0.11  -0.02   0.04     0.18  -0.01  -0.01    -0.48   0.12   0.19
                     16                     17                     18
                      A                      A                      A
 Frequencies --   1662.3871              1667.7804              2002.9595
 Red. masses --      1.0463                 1.0429                 1.0659
 Frc consts  --      1.7036                 1.7091                 2.5196
 IR Inten    --      6.9834                 5.2051                 1.2519
 Raman Activ --     22.5619                22.1541                61.5710
 Depolar (P) --      0.7472                 0.7472                 0.4917
 Depolar (U) --      0.8553                 0.8553                 0.6593
  Atom  AN      X      Y      Z        X      Y      Z        X      Y      Z
     1   6     0.01   0.01   0.00    -0.01  -0.00   0.00    -0.01  -0.01  -0.04
     2   6    -0.01  -0.01  -0.01     0.02   0.02  -0.00     0.03  -0.00  -0.05
     3   6    -0.02  -0.01  -0.05     0.02   0.04  -0.02    -0.00  -0.00   0.00
     4   1    -0.02  -0.04  -0.00     0.00   0.01  -0.01    -0.01   0.07   0.02
     5   1    -0.04   0.00  -0.01    -0.00  -0.00  -0.01     0.06  -0.03   0.04
     6   1     0.01  -0.01  -0.03     0.01   0.00  -0.03    -0.13   0.13   0.97
     7   1     0.01  -0.00   0.01    -0.05   0.02  -0.01    -0.05   0.03   0.02
     8   1     0.09  -0.41   0.47    -0.25   0.09   0.47    -0.01  -0.00   0.02
     9   1    -0.25   0.23  -0.15    -0.36  -0.58   0.09    -0.03   0.01  -0.01
    10   1     0.39   0.33   0.46     0.28  -0.21  -0.32     0.03   0.00   0.00
                     19                     20                     21
                      A                      A                      A
 Frequencies --   3165.4690              3219.2483              3251.4704
 Red. masses --      1.0458                 1.0874                 1.0985
 Frc consts  --      6.1739                 6.6395                 6.8421
 IR Inten    --     35.6482                30.1577                26.7702
 Raman Activ --    114.4037                69.6043                80.0931
 Depolar (P) --      0.0894                 0.5179                 0.6872
 Depolar (U) --      0.1642                 0.6824                 0.8146
  Atom  AN      X      Y      Z        X      Y      Z        X      Y      Z
     1   6    -0.00  -0.00  -0.00     0.00   0.00   0.00     0.00   0.00   0.00
     2   6    -0.00   0.00   0.00    -0.00   0.00  -0.00    -0.00   0.01  -0.00
     3   6    -0.03   0.03   0.04     0.01  -0.03   0.08    -0.05  -0.07  -0.01
     4   1     0.00  -0.00   0.00    -0.00   0.00  -0.00    -0.01   0.00  -0.00
     5   1    -0.00   0.01  -0.00     0.00  -0.01   0.00     0.00  -0.01   0.00
     6   1     0.01   0.00  -0.00     0.00  -0.00  -0.00    -0.00  -0.00   0.00
     7   1    -0.00  -0.01   0.00     0.00  -0.02   0.01     0.00  -0.08   0.03
     8   1     0.21   0.18   0.11    -0.29  -0.24  -0.10     0.65   0.51   0.29
     9   1     0.17  -0.24  -0.83     0.09  -0.13  -0.40    -0.03   0.01   0.10
    10   1    -0.02  -0.28   0.22     0.03   0.67  -0.45     0.00   0.37  -0.28
                     22                     23                     24
                      A                      A                      A
 Frequencies --   3314.7935              3349.9897              3430.5414
 Red. masses --      1.0482                 1.0884                 1.1200
 Frc consts  --      6.7862                 7.1969                 7.7658
 IR Inten    --      8.7344                12.9025                10.3319
 Raman Activ --     84.4587                85.6466                51.7535
 Depolar (P) --      0.1431                 0.3049                 0.6843
 Depolar (U) --      0.2504                 0.4673                 0.8125
  Atom  AN      X      Y      Z        X      Y      Z        X      Y      Z
     1   6    -0.05  -0.04  -0.02    -0.00   0.01  -0.00    -0.05   0.08  -0.02
     2   6     0.00  -0.00  -0.00     0.00  -0.08   0.02    -0.00   0.01  -0.00
     3   6    -0.00  -0.00   0.00    -0.01  -0.01   0.00     0.00   0.00  -0.00
     4   1     0.57  -0.32   0.22     0.04  -0.03   0.02     0.60  -0.32   0.24
     5   1    -0.05   0.72   0.00     0.01  -0.11  -0.00     0.03  -0.67  -0.01
     6   1    -0.01  -0.00   0.02    -0.00  -0.01  -0.01    -0.00   0.00   0.00
     7   1    -0.00   0.04  -0.02    -0.04   0.94  -0.30     0.00  -0.11   0.04
     8   1     0.00   0.00   0.00     0.05   0.03   0.02    -0.00  -0.00  -0.00
     9   1    -0.00   0.00   0.00     0.00  -0.00  -0.01     0.00   0.00   0.00
    10   1    -0.00   0.02  -0.01    -0.00   0.04  -0.03     0.00  -0.01   0.01

 -------------------
 - Thermochemistry -
 -------------------
 Temperature   298.150 Kelvin.  Pressure   1.00000 Atm.
 Atom     1 has atomic number  6 and mass  12.00000
 Atom     2 has atomic number  6 and mass  12.00000
 Atom     3 has atomic number  6 and mass  12.00000
 Atom     4 has atomic number  1 and mass   1.00783
 Atom     5 has atomic number  1 and mass   1.00783
 Atom     6 has atomic number  1 and mass   1.00783
 Atom     7 has atomic number  1 and mass   1.00783
 Atom     8 has atomic number  1 and mass   1.00783
 Atom     9 has atomic number  1 and mass   1.00783
 Atom    10 has atomic number  1 and mass   1.00783
 Molecular mass:    43.05478 amu.
 Principal axes and moments of inertia in atomic units:
                           1         2         3
     Eigenvalues --    48.61313 210.39889 237.83821
           X            0.99996  -0.00927  -0.00108
           Y            0.00924   0.99975  -0.02012
           Z            0.00126   0.02010   0.99980
 This molecule is an asymmetric top.
 Rotational symmetry number  1.
 Rotational temperatures (Kelvin)      1.78170     0.41166     0.36417
 Rotational constants (GHZ):          37.12456     8.57771     7.58810
    1 imaginary frequencies ignored.
 Zero-point vibrational energy     235218.6 (Joules/Mol)
                                   56.21859 (Kcal/Mol)
 Warning -- explicit consideration of   3 degrees of freedom as
           vibrations may cause significant error
 Vibrational temperatures:    292.55   570.31   589.88  1124.39  1265.56
          (Kelvin)           1336.69  1475.79  1652.36  1752.12  1856.08
                             1966.16  2114.83  2243.74  2277.67  2391.80
                             2399.56  2881.81  4554.40  4631.77  4678.13
                             4769.24  4819.88  4935.78
 
 Zero-point correction=                           0.089590 (Hartree/Particle)
 Thermal correction to Energy=                    0.093889
 Thermal correction to Enthalpy=                  0.094834
 Thermal correction to Gibbs Free Energy=         0.063585
 Sum of electronic and zero-point Energies=           -116.797787
 Sum of electronic and thermal Energies=              -116.793488
 Sum of electronic and thermal Enthalpies=            -116.792544
 Sum of electronic and thermal Free Energies=         -116.823792
 
                     E (Thermal)             CV                S
                      KCal/Mol        Cal/Mol-Kelvin    Cal/Mol-Kelvin
 Total                   58.917             13.746             65.768
 Electronic               0.000              0.000              1.377
 Translational            0.889              2.981             37.206
 Rotational               0.889              2.981             22.413
 Vibrational             57.139              7.785              4.771
 Vibration     1          0.639              1.835              2.103
 Vibration     2          0.763              1.478              0.976
 Vibration     3          0.774              1.449              0.927
                       Q            Log10(Q)             Ln(Q)
 Total Bot       0.566083D-29        -29.247120        -67.343983
 Total V=0       0.914840D+12         11.961345         27.542015
 Vib (Bot)       0.144370D-40        -40.840523        -94.038780
 Vib (Bot)    1  0.979371D+00         -0.009053         -0.020845
 Vib (Bot)    2  0.450841D+00         -0.345976         -0.796640
 Vib (Bot)    3  0.431531D+00         -0.364988         -0.840415
 Vib (V=0)       0.233315D+01          0.367942          0.847219
 Vib (V=0)    1  0.159962D+01          0.204017          0.469767
 Vib (V=0)    2  0.117324D+01          0.069388          0.159773
 Vib (V=0)    3  0.116047D+01          0.064634          0.148824
 Electronic      0.200000D+01          0.301030          0.693147
 Translational   0.111042D+08          7.045487         16.222834
 Rotational      0.176557D+05          4.246886          9.778816
 
                                                                 TS0
                                                             IR Spectrum
 
     3  3 3 33 3                                          2           11  11  1   1  1 1  1    1                                     
     4  3 3 22 1                                          0           66  55  4   3  2 2  1    0  9 8   7            43      2       
     3  5 1 51 6                                          0           66  85  7   6  9 1  4    2  2 8   8            19      0       
     1  0 5 19 5                                          3           82  39  0   7  0 8  8    6  9 0   1            06      3       
 
     X  X X XX X                                          X           XX  XX  X   X  X X  X    X  X X   X            XX      X       
     X  X X XX X                                                      XX  X       X    X  X       X X   X                            
     X  X X XX X                                                                  X       X       X X   X                            
        X   XX X                                                                                  X X   X                            
            XX X                                                                                  X X   X                            
            XX X                                                                                  X X   X                            
            XX X                                                                                  X X   X                            
            XX X                                                                                  X X   X                            
            XX X                                                                                    X   X                            
             X X                                                                                    X   X                            
               X                                                                                    X   X                            
                                                                                                    X   X                            
                                                                                                    X   X                            
                                                                                                    X                                
                                                                                                    X                                
                                                                                                    X                                
                                                                                                    X                                
                                                                                                    X                                
                                                                                                    X                                
                                                                                                    X                                
 
 
                                                                 TS0
                                                            Raman Spectrum
 
     3  3 3 33 3                                          2           11  11  1   1  1 1  1    1                                     
     4  3 3 22 1                                          0           66  55  4   3  2 2  1    0  9 8   7            43      2       
     3  5 1 51 6                                          0           66  85  7   6  9 1  4    2  2 8   8            19      0       
     1  0 5 19 5                                          3           82  39  0   7  0 8  8    6  9 0   1            06      3       
 
     X  X X XX X                                          X           XX  XX  X   X  X X  X    X  X X   X            XX      X       
     X  X X XX X                                          X           XX          X    X          X                                  
     X  X X XX X                                          X           XX          X                                                  
     X  X X XX X                                          X           XX          X                                                  
     X  X X XX X                                          X                       X                                                  
     X  X X XX X                                          X                                                                          
     X  X X XX X                                          X                                                                          
     X  X X XX X                                          X                                                                          
     X  X X XX X                                          X                                                                          
        X X XX X                                          X                                                                          
        X X XX X                                          X                                                                          
        X X XX X                                                                                                                     
        X X X  X                                                                                                                     
        X X X  X                                                                                                                     
        X X    X                                                                                                                     
               X                                                                                                                     
               X                                                                                                                     
               X                                                                                                                     
               X                                                                                                                     
               X                                                                                                                     
 
 Forces in standard orientation:
 -------------------------------------------------------------------
 Center     Atomic                   Forces (Hartrees/Bohr)
 Number     Number              X              Y              Z
 -------------------------------------------------------------------
      1        6           0.000008491    0.000008605    0.000006192
      2        6          -0.000004663   -0.000012527    0.000009039
      3        6          -0.000004317    0.000001577    0.000001496
      4        1          -0.000005349    0.000003088   -0.000002427
      5        1          -0.000000011   -0.000008217   -0.000000163
      6        1           0.000003887   -0.000000015   -0.000008998
      7        1          -0.000001349    0.000008102   -0.000004066
      8        1           0.000002625    0.000002188    0.000002017
      9        1           0.000001089    0.000000034   -0.000004796
     10        1          -0.000000402   -0.000002835    0.000001707
 -------------------------------------------------------------------
 ***** Axes restored to original set *****
 Rotating derivatives, DoTrsp=F IDiff=-2 LEDeriv=   1492 LFDPrp=       0 LDFDPr=       0.
 -------------------------------------------------------------------
 Center     Atomic                   Forces (Hartrees/Bohr)
 Number     Number              X              Y              Z
 -------------------------------------------------------------------
      1        6           0.000003135    0.000012342   -0.000004724
      2        6          -0.000010854   -0.000008032   -0.000008835
      3        6          -0.000004009    0.000000876    0.000002555
      4        1          -0.000001998    0.000000184    0.000006326
      5        1          -0.000000822   -0.000007137   -0.000003992
      6        1           0.000008845   -0.000002935    0.000003038
      7        1           0.000002610    0.000004827    0.000007341
      8        1           0.000000848    0.000003455   -0.000001758
      9        1           0.000003992   -0.000001786    0.000002249
     10        1          -0.000001748   -0.000001795   -0.000002199
 -------------------------------------------------------------------
 Cartesian Forces:  Max     0.000012342 RMS     0.000005199
 Z-matrix is all fixed cartesians, so copy forces.
 Force constants in Cartesian coordinates: 
                1             2             3             4             5 
      1  0.266215D+00
      2  0.181266D+00  0.421796D+00
      3 -0.201057D+00  0.214536D+00  0.552948D+00
      4 -0.578942D-01 -0.270233D+00  0.164685D+00  0.223506D+00
      5 -0.115568D+00 -0.146511D+00  0.409333D-02  0.168522D+00  0.479262D+00
      6  0.740083D-01 -0.203967D-01 -0.600388D-01 -0.123535D+00  0.170724D+00
      7 -0.125222D-01  0.527001D-03  0.104536D-01 -0.131979D+00  0.474088D-02
      8 -0.161962D-01  0.712580D-02  0.305684D-01  0.297679D-02 -0.971875D-01
      9  0.411323D-02 -0.821602D-02 -0.893677D-02  0.593643D-01 -0.224541D-01
     10 -0.740975D-01 -0.166420D-01  0.109621D+00 -0.955983D-02  0.106901D-01
     11 -0.455756D-02 -0.547508D-01 -0.130129D-01 -0.899473D-02 -0.324201D-02
     12  0.115873D+00 -0.163971D-01 -0.344780D+00  0.219722D-04  0.139249D-02
     13 -0.392651D-01 -0.221955D-01  0.135194D-01 -0.894372D-03 -0.222814D-01
     14 -0.225961D-01 -0.288708D+00 -0.150515D+00 -0.335129D-02 -0.150172D-01
     15  0.280170D-03 -0.150277D+00 -0.142089D+00  0.271637D-02  0.111533D-01
     16 -0.743563D-01  0.140653D+00 -0.935949D-01  0.744558D-01  0.132541D-01
     17 -0.231310D-01  0.752955D-01 -0.638485D-01  0.174033D+00 -0.295905D-01
     18  0.407543D-02 -0.320644D-01 -0.714400D-02 -0.851037D-01  0.619599D-02
     19 -0.843278D-02 -0.139244D-01 -0.688815D-02 -0.764831D-01 -0.696306D-01
     20 -0.184002D-02 -0.186636D-01 -0.195964D-01 -0.742034D-01 -0.187253D+00
     21  0.320918D-02  0.127904D-01  0.138468D-01 -0.505788D-01 -0.159431D+00
     22 -0.927105D-03  0.133702D-02  0.545651D-02 -0.135493D-01 -0.207927D-01
     23  0.117553D-02  0.688062D-04 -0.154558D-02  0.561227D-02  0.108206D-01
     24  0.145230D-02 -0.307819D-02 -0.448184D-02  0.149917D-01  0.272146D-01
     25  0.296972D-03 -0.232567D-02 -0.776533D-03 -0.209975D-01  0.166116D-01
     26  0.124697D-02  0.312947D-02 -0.130222D-02  0.797125D-02 -0.480410D-02
     27 -0.107105D-02  0.222950D-02  0.889216D-03  0.293312D-01 -0.217252D-01
     28  0.982720D-03  0.153799D-02 -0.141835D-02  0.133962D-01  0.144540D-01
     29  0.200554D-03  0.121764D-02  0.622121D-03 -0.233302D-02 -0.647705D-02
     30 -0.883547D-03  0.873512D-03 -0.214014D-03 -0.118932D-01 -0.171635D-01
                6             7             8             9            10 
      6  0.500507D+00
      7  0.644634D-01  0.568187D+00
      8 -0.350019D-01  0.397602D-01  0.621470D+00
      9 -0.161260D+00  0.442672D-01 -0.156312D-01  0.558010D+00
     10  0.262376D-01 -0.162035D-02 -0.640702D-02  0.205022D-02  0.765885D-01
     11  0.196848D-01  0.103482D-03 -0.338637D-02 -0.951323D-03  0.112158D-01
     12  0.950286D-03 -0.118770D-02  0.107063D-02  0.106513D-02 -0.123273D+00
     13 -0.224534D-01  0.225295D-02  0.107023D-02 -0.111962D-02  0.143911D-02
     14 -0.707141D-02 -0.829254D-03  0.158325D-02 -0.188455D-02 -0.467551D-03
     15  0.148117D-04  0.100244D-02  0.417487D-03  0.150914D-02 -0.272255D-02
     16  0.925439D-02 -0.585905D-02  0.568572D-02  0.793688D-03  0.695591D-02
     17  0.354256D-01  0.166179D-02 -0.506142D-03  0.446393D-02 -0.111276D-03
     18 -0.458318D-01  0.127931D-01 -0.875044D-02  0.549521D-02 -0.117794D-01
     19 -0.585923D-01  0.114755D-01  0.150144D-01  0.172809D-01  0.126269D-02
     20 -0.149973D+00 -0.296861D-02 -0.712461D-03 -0.119125D-02  0.119771D-02
     21 -0.208212D+00 -0.108449D-01 -0.136424D-01 -0.121920D-01 -0.928472D-03
     22  0.756915D-02 -0.101339D+00 -0.928240D-01  0.394632D-01 -0.120915D-02
     23 -0.525952D-02 -0.952036D-01 -0.259109D+00  0.859145D-01  0.458903D-03
     24 -0.105886D-01  0.386605D-01  0.835746D-01 -0.956975D-01  0.140491D-02
     25 -0.126952D-03 -0.201751D+00  0.116812D+00 -0.642150D-01  0.176398D-03
     26 -0.146263D-02  0.116362D+00 -0.154320D+00  0.519576D-01  0.418411D-04
     27  0.743724D-02 -0.592704D-01  0.487788D-01 -0.814123D-01 -0.473752D-03
     28  0.231747D-01 -0.126844D+00 -0.658920D-01 -0.101998D+00  0.641774D-04
     29 -0.666954D-02 -0.641541D-01 -0.114957D+00 -0.920076D-01  0.234783D-04
     30 -0.229780D-01 -0.100337D+00 -0.913841D-01 -0.206581D+00 -0.135574D-03
               11            12            13            14            15 
     11  0.507343D-01
     12  0.143500D-01  0.355287D+00
     13  0.955016D-02  0.399825D-02  0.368680D-01
     14  0.548178D-02  0.342430D-02  0.290627D-01  0.299502D+00
     15 -0.269322D-01 -0.865227D-02 -0.428452D-02  0.159560D+00  0.144142D+00
     16 -0.538174D-02  0.340472D-02  0.213985D-02 -0.149194D-02  0.251806D-02
     17  0.334276D-02 -0.397521D-02  0.971298D-02 -0.222694D-02  0.541753D-02
     18  0.629965D-02 -0.516117D-02  0.747815D-02 -0.796473D-02  0.518775D-02
     19 -0.132122D-02  0.122666D-02 -0.247607D-02  0.137179D-03  0.721588D-03
     20  0.125790D-02  0.483245D-03 -0.505390D-02 -0.138666D-02  0.767135D-03
     21 -0.792115D-03  0.115432D-02  0.286247D-02  0.252930D-02 -0.890345D-04
     22 -0.715015D-03  0.191375D-03  0.284750D-03  0.335500D-03 -0.189650D-03
     23  0.269358D-03 -0.724227D-04  0.277175D-03  0.183981D-03 -0.124576D-05
     24  0.864875D-03 -0.765063D-05 -0.228901D-03  0.116914D-03  0.188081D-04
     25 -0.184143D-03  0.581653D-05 -0.456226D-03 -0.630104D-03  0.150164D-04
     26  0.187047D-03 -0.139916D-03 -0.416099D-04  0.251371D-03 -0.328406D-03
     27  0.694380D-04 -0.898695D-04 -0.249762D-03  0.608339D-03  0.768191D-04
     28  0.284952D-03 -0.260715D-03  0.107107D-03 -0.169132D-03 -0.569245D-04
     29  0.106046D-03 -0.136033D-03 -0.100819D-03  0.336330D-03  0.224061D-03
     30  0.419794D-03  0.234044D-03  0.477951D-03  0.119672D-02 -0.119661D-03
               16            17            18            19            20 
     16 -0.762375D-02
     17 -0.153284D+00 -0.522735D-01
     18  0.774159D-01  0.311118D-01  0.526829D-01
     19  0.250756D-02 -0.917570D-02 -0.674709D-02  0.737241D-01
     20  0.351074D-02  0.761916D-02  0.474849D-02  0.784728D-01  0.197829D+00
     21  0.451949D-03 -0.495437D-02 -0.473095D-02  0.518099D-01  0.164119D+00
     22  0.109451D-02 -0.432418D-03 -0.479265D-03  0.824753D-03  0.409652D-03
     23 -0.140971D-03  0.302605D-03  0.192467D-04 -0.416612D-03  0.602628D-03
     24  0.279390D-03 -0.108135D-04  0.407392D-03 -0.106986D-02 -0.153113D-03
     25  0.139881D-02  0.125652D-02  0.186075D-02  0.254999D-03  0.348636D-04
     26 -0.220692D-02 -0.120905D-02  0.360758D-03 -0.174055D-03 -0.269395D-03
     27  0.118028D-03 -0.197515D-02 -0.201931D-02 -0.104036D-02  0.256717D-03
     28 -0.713436D-03 -0.529930D-03  0.486126D-03 -0.265765D-02  0.440144D-03
     29 -0.597734D-03 -0.753916D-03  0.436542D-04  0.101819D-02  0.976282D-03
     30 -0.641261D-03 -0.165483D-02  0.111401D-02  0.329877D-02  0.539018D-03
               21            22            23            24            25 
     21  0.212652D+00
     22 -0.302443D-03  0.109937D+00
     23  0.884556D-03  0.103859D+00  0.282467D+00
     24  0.437983D-03 -0.487657D-01 -0.939077D-01  0.102385D+00
     25  0.535009D-03  0.134206D-01 -0.939669D-02  0.471791D-02  0.223107D+00
     26 -0.368564D-03  0.255117D-01 -0.205009D-01  0.111789D-01 -0.134506D+00
     27  0.908398D-04 -0.106616D-01  0.775339D-02 -0.493320D-02  0.650632D-01
     28  0.378614D-02 -0.853690D-02 -0.622540D-02 -0.114423D-01 -0.154496D-01
     29 -0.113481D-02 -0.166892D-01 -0.151052D-01 -0.258001D-01  0.123274D-01
     30 -0.295786D-02  0.771834D-02  0.621480D-02  0.124591D-01 -0.707917D-02
               26            27            28            29            30 
     26  0.165562D+00
     27 -0.547383D-01  0.894421D-01
     28 -0.142059D-01 -0.217455D-01  0.139651D+00
     29  0.119738D-01  0.187425D-01  0.703053D-01  0.122683D+00
     30 -0.515713D-02 -0.948150D-02  0.109475D+00  0.106116D+00  0.228525D+00
 Final forces over variables, Energy=-1.16887377D+02:
  3.13508162D-06-1.08537414D-05-4.00861788D-06-1.99787186D-06
 -8.22099333D-07 8.84489850D-06 2.61029156D-06 8.48019212D-07
  3.99243738D-06-1.74839782D-06 1.23424335D-05-8.03156027D-06
  8.76246448D-07 1.84013974D-07-7.13680634D-06-2.93491258D-06
  4.82675428D-06 3.45476789D-06-1.78629642D-06-1.79464046D-06
 -4.72447676D-06-8.83498712D-06 2.55501955D-06 6.32575263D-06
 -3.99217213D-06 3.03786050D-06 7.34051759D-06-1.75808016D-06
  2.24940772D-06-2.19884182D-06
 Leave Link  716 at Sun May 22 09:31:51 2022, MaxMem=   939524096 cpu:         0.1
 (Enter /Local/ce_dana/g09/l103.exe)

 GradGradGradGradGradGradGradGradGradGradGradGradGradGradGradGradGradGrad
 Berny optimization.
 Search for a local minimum.
 Step number   1 out of a maximum of    2
 All quantities printed in internal units (Hartrees-Bohrs-Radians)
 Second derivative matrix not updated -- analytic derivatives used.
 ITU=  0
     Eigenvalues ---   -0.44867   0.00183   0.00829   0.01262   0.03181
     Eigenvalues ---    0.04910   0.06108   0.06783   0.08358   0.09193
     Eigenvalues ---    0.11055   0.12479   0.14159   0.16965   0.17563
     Eigenvalues ---    0.23298   0.27603   0.41782   0.60983   0.77610
     Eigenvalues ---    0.82307   0.86502   0.94141   1.06496
 Eigenvalue     1 is  -4.49D-01 should be greater than     0.000000 Eigenvector:
                          Y6        X6        X2        Y1        Z6
   1                    0.58890   0.51514  -0.37390  -0.28496  -0.21273
                          Z1        X1        Z2        Y2        Y7
   1                    0.21133   0.17031  -0.12170   0.08060  -0.06507
 Angle between quadratic step and forces=  83.51 degrees.
 Linear search not attempted -- first point.
 TrRot=  0.000002 -0.000004 -0.000001  0.000002  0.000004  0.000002
 Variable       Old X    -DE/DX   Delta X   Delta X   Delta X     New X
                                 (Linear)    (Quad)   (Total)
    X1        2.02170   0.00000   0.00000  -0.00007  -0.00009   2.02161
    Y1        1.40772   0.00001   0.00000   0.00004   0.00004   1.40776
    Z1       -2.16044  -0.00000   0.00000  -0.00006  -0.00006  -2.16050
    X2        0.14122  -0.00001   0.00000   0.00005   0.00005   0.14128
    Y2       -0.55934  -0.00001   0.00000  -0.00006  -0.00006  -0.55940
    Z2       -1.34857  -0.00001   0.00000   0.00004   0.00004  -1.34853
    X3       -1.60922  -0.00000   0.00000   0.00001   0.00002  -1.60920
    Y3        0.00687   0.00000   0.00000  -0.00000  -0.00001   0.00686
    Z3        0.82983   0.00000   0.00000   0.00000   0.00001   0.82983
    X4        2.72646  -0.00000   0.00000  -0.00005  -0.00007   2.72639
    Y4        1.36717   0.00000   0.00000  -0.00000   0.00001   1.36717
    Z4       -4.05781   0.00001   0.00000  -0.00003  -0.00004  -4.05785
    X5        2.13579  -0.00000   0.00000  -0.00021  -0.00023   2.13557
    Y5        3.13337  -0.00001   0.00000   0.00008   0.00008   3.13345
    Z5       -1.10585  -0.00000   0.00000  -0.00014  -0.00015  -1.10600
    X6        2.58482   0.00001   0.00000   0.00011   0.00011   2.58493
    Y6       -0.64327  -0.00000   0.00000   0.00011   0.00011  -0.64315
    Z6       -0.84369   0.00000   0.00000   0.00008   0.00007  -0.84363
    X7       -0.42546   0.00000   0.00000   0.00016   0.00016  -0.42530
    Y7       -1.91723   0.00000   0.00000  -0.00018  -0.00019  -1.91742
    Z7       -2.74332   0.00001   0.00000   0.00015   0.00015  -2.74317
    X8       -2.43692   0.00000   0.00000  -0.00035  -0.00034  -2.43726
    Y8       -1.70601   0.00000   0.00000   0.00007   0.00006  -1.70595
    Z8        1.58795  -0.00000   0.00000  -0.00027  -0.00026   1.58769
    X9       -3.13818   0.00000   0.00000   0.00030   0.00030  -3.13788
    Y9        1.24591  -0.00000   0.00000   0.00036   0.00034   1.24626
    Z9        0.23227   0.00000   0.00000   0.00006   0.00007   0.23234
   X10       -0.60653  -0.00000   0.00000   0.00008   0.00009  -0.60644
   Y10        0.95125  -0.00000   0.00000  -0.00038  -0.00039   0.95086
   Z10        2.34987  -0.00000   0.00000   0.00018   0.00018   2.35005
         Item               Value     Threshold  Converged?
 Maximum Force            0.000012     0.000450     YES
 RMS     Force            0.000005     0.000300     YES
 Maximum Displacement     0.000385     0.001800     YES
 RMS     Displacement     0.000165     0.001200     YES
 Predicted change in Energy=-1.471078D-09
 Optimization completed.
    -- Stationary point found.
 GradGradGradGradGradGradGradGradGradGradGradGradGradGradGradGradGradGrad

 Leave Link  103 at Sun May 22 09:31:51 2022, MaxMem=   939524096 cpu:         0.0
 (Enter /Local/ce_dana/g09/l9999.exe)

 Test job not archived.
 1\1\GINC-TECH-WN175\Freq\UHF\3-21G\C3H7(2)\ALONGD\22-May-2022\0\\#P gu
 ess=read uhf/3-21g freq IOp(7/33=1) scf=(tight, direct) integral=(grid
 =ultrafine, Acc2E=12) IOp(2/9=2000) scf=xqc\\TS0\\0,2\C,1.069836,0.744
 932,-1.143254\C,0.074733,-0.295991,-0.71363\C,-0.851562,0.003636,0.439
 126\H,1.442781,0.723474,-2.147298\H,1.130213,1.658108,-0.58519\H,1.367
 829,-0.340403,-0.446464\H,-0.225144,-1.014555,-1.451703\H,-1.289561,-0
 .902781,0.840309\H,-1.660651,0.659309,0.122912\H,-0.32096,0.50338,1.24
 3496\\Version=ES64L-G09RevD.01\State=2-A\HF=-116.8873773\S2=0.805897\S
 2-1=0.\S2A=0.750741\RMSD=6.653e-09\RMSF=5.199e-06\ZeroPoint=0.08959\Th
 ermal=0.0938895\Dipole=-0.0061669,-0.0392822,0.0385547\DipoleDeriv=-0.
 5054911,0.0414735,-0.0805534,0.0829019,0.0511007,0.0353965,-0.1332173,
 0.0088017,-0.0242058,0.117879,0.1920443,-0.0649876,0.1046937,-0.199229
 5,0.1580693,-0.0349377,0.1843469,-0.0440438,0.0931173,-0.0595731,0.051
 7591,-0.0279826,0.1365427,-0.0504822,-0.0470686,-0.0783367,0.1017982,0
 .1462228,-0.0379024,0.0807788,-0.0598462,0.0531764,-0.0078882,0.124744
 7,0.0011272,-0.0565413,0.1727281,-0.0131561,0.0428737,-0.0714001,-0.03
 65711,-0.0549242,0.0432941,-0.0733364,0.0186473,0.0278274,0.0084992,-0
 .0250236,0.0155215,0.0223782,0.0120317,-0.0054598,0.0284516,0.0409332,
 0.0345662,-0.0961948,0.0372859,-0.0605821,0.0479568,-0.0999606,0.02587
 95,-0.1370142,-0.0204169,0.0137148,-0.0660446,0.0638882,-0.0892436,-0.
 0869363,0.0862598,0.0677587,0.0689629,0.027788,-0.1076319,0.0835435,-0
 .0012708,0.1431045,-0.0127796,0.0177216,-0.0054813,0.0648454,0.0170016
 ,0.0070674,-0.0526895,-0.1047503,-0.0371672,0.0243616,-0.0962237,-0.03
 55123,-0.0678484,-0.0609604\Polar=31.157775,5.0344647,30.1947088,-4.84
 31377,-0.9532327,29.0552543\PolarDeriv=2.8848522,4.1345042,1.8230844,-
 1.4885054,-0.8872867,-0.8325245,6.2443283,0.6951278,-2.2867862,-0.3882
 462,-1.312897,-1.6206711,-2.2794851,-0.3480927,-0.4006075,-2.1477587,-
 0.6458222,2.463182,2.6925203,0.8715519,-3.4855887,-0.3651778,3.9401247
 ,-0.2701613,-0.2936458,-2.6891633,-2.6561077,2.3492198,3.3334291,0.213
 3934,2.0316407,2.2538509,3.1671616,-0.6122763,1.0531143,0.3433743,4.10
 61302,-1.9507466,1.3149367,-0.4726299,-2.5103287,-3.0495478,-2.508401,
 3.5291234,1.9795249,-2.5015584,-2.8800617,-0.3977541,0.4251045,-2.2425
 223,-1.4562316,-0.8711442,-0.7067007,-2.3074,1.8185939,-0.0846236,0.38
 50257,-2.5088294,-0.2304869,1.4219787,0.1067798,1.1534297,0.7990453,-0
 .0830883,-1.4628128,0.1799525,-1.7246082,-0.654527,-0.2131907,3.186854
 8,0.7407591,-7.7356694,0.187615,1.3533776,0.0788106,0.8548235,-0.17388
 75,0.4256673,0.7943328,1.5128868,6.493965,-0.10567,1.8473198,0.8872058
 ,0.0830522,0.359799,1.7528583,0.7990189,2.1176118,1.3229825,-0.8834808
 ,-3.9675775,3.1909918,1.781098,-1.6726523,1.845245,-6.100811,2.3615048
 ,0.9609805,-0.4876831,-1.5450235,1.5782065,2.0710459,-0.4721423,-1.777
 899,2.613957,-0.3769051,1.7844333,-1.3670137,-1.8988744,-1.2237098,-1.
 1825012,-0.5935907,-1.1112013,-0.6081267,-0.884017,-4.0251987,-0.50281
 36,-2.8577093,-1.4947953,-0.126712,-1.0980968,-2.553719,-1.1087101,-2.
 8669723,-4.0743649,-3.3876661,-2.4239863,-1.2039824,1.5648979,1.054384
 7,-0.0509124,-1.0111094,-2.5533428,-5.9474257,1.3643768,2.3201889,-1.1
 373373,0.3892717,1.1545008,1.0568023,-1.3424598,-2.5545366,2.9067197,-
 7.9311983,2.6644117,-1.0453156,0.0877517,0.3776305,-0.0501188,2.784180
 8,-3.5443156,2.8221146,0.0078759,0.019993,0.5472383,-0.7419641,0.61070
 39,-0.1192804,-1.8885206,1.544052,-0.9900191,1.8796473,1.3019629,0.165
 7474,1.7290725,0.6960929,1.6715753,0.5924722,0.4187663,1.8598879,0.347
 5872,2.5375735,1.2445614,-0.1273457,0.4365266,0.5441061,1.371039,1.695
 3995,6.2867615\HyperPolar=-32.3197391,-7.4139687,-6.3712328,10.4988206
 ,7.7022199,-1.9426557,3.614584,17.2024542,1.8913675,-15.4868134\PG=C01
  [X(C3H7)]\NImag=1\\0.26621537,0.18126620,0.42179634,-0.20105712,0.214
 53635,0.55294817,-0.05789423,-0.27023340,0.16468501,0.22350571,-0.1155
 6831,-0.14651116,0.00409333,0.16852247,0.47926181,0.07400830,-0.020396
 73,-0.06003878,-0.12353487,0.17072430,0.50050653,-0.01252215,0.0005270
 0,0.01045364,-0.13197941,0.00474088,0.06446338,0.56818723,-0.01619619,
 0.00712580,0.03056844,0.00297679,-0.09718750,-0.03500186,0.03976016,0.
 62147034,0.00411323,-0.00821602,-0.00893677,0.05936425,-0.02245410,-0.
 16126016,0.04426718,-0.01563116,0.55801045,-0.07409746,-0.01664197,0.1
 0962054,-0.00955983,0.01069007,0.02623759,-0.00162035,-0.00640702,0.00
 205022,0.07658851,-0.00455756,-0.05475083,-0.01301294,-0.00899473,-0.0
 0324201,0.01968485,0.00010348,-0.00338637,-0.00095132,0.01121582,0.050
 73432,0.11587310,-0.01639708,-0.34477993,0.00002197,0.00139249,0.00095
 029,-0.00118770,0.00107063,0.00106513,-0.12327348,0.01435000,0.3552871
 0,-0.03926507,-0.02219554,0.01351936,-0.00089437,-0.02228138,-0.022453
 37,0.00225295,0.00107023,-0.00111962,0.00143911,0.00955016,0.00399825,
 0.03686797,-0.02259613,-0.28870792,-0.15051459,-0.00335129,-0.01501715
 ,-0.00707141,-0.00082925,0.00158325,-0.00188455,-0.00046755,0.00548178
 ,0.00342430,0.02906271,0.29950196,0.00028017,-0.15027733,-0.14208884,0
 .00271637,0.01115329,0.00001481,0.00100244,0.00041749,0.00150914,-0.00
 272255,-0.02693221,-0.00865227,-0.00428452,0.15955969,0.14414247,-0.07
 435626,0.14065275,-0.09359490,0.07445585,0.01325406,0.00925439,-0.0058
 5905,0.00568572,0.00079369,0.00695591,-0.00538174,0.00340472,0.0021398
 5,-0.00149194,0.00251806,-0.00762375,-0.02313105,0.07529547,-0.0638485
 4,0.17403306,-0.02959048,0.03542565,0.00166179,-0.00050614,0.00446393,
 -0.00011128,0.00334276,-0.00397521,0.00971298,-0.00222694,0.00541753,-
 0.15328397,-0.05227347,0.00407543,-0.03206442,-0.00714400,-0.08510370,
 0.00619599,-0.04583182,0.01279310,-0.00875044,0.00549521,-0.01177944,0
 .00629965,-0.00516117,0.00747815,-0.00796473,0.00518775,0.07741593,0.0
 3111180,0.05268289,-0.00843278,-0.01392439,-0.00688815,-0.07648314,-0.
 06963059,-0.05859227,0.01147551,0.01501436,0.01728086,0.00126269,-0.00
 132122,0.00122666,-0.00247607,0.00013718,0.00072159,0.00250756,-0.0091
 7570,-0.00674709,0.07372414,-0.00184002,-0.01866361,-0.01959637,-0.074
 20341,-0.18725299,-0.14997309,-0.00296861,-0.00071246,-0.00119125,0.00
 119771,0.00125790,0.00048325,-0.00505390,-0.00138666,0.00076714,0.0035
 1074,0.00761916,0.00474849,0.07847283,0.19782915,0.00320918,0.01279041
 ,0.01384677,-0.05057878,-0.15943121,-0.20821153,-0.01084491,-0.0136424
 2,-0.01219204,-0.00092847,-0.00079212,0.00115432,0.00286247,0.00252930
 ,-0.00008903,0.00045195,-0.00495437,-0.00473095,0.05180986,0.16411922,
 0.21265150,-0.00092711,0.00133702,0.00545651,-0.01354930,-0.02079273,0
 .00756915,-0.10133921,-0.09282399,0.03946323,-0.00120915,-0.00071502,0
 .00019137,0.00028475,0.00033550,-0.00018965,0.00109451,-0.00043242,-0.
 00047927,0.00082475,0.00040965,-0.00030244,0.10993706,0.00117553,0.000
 06881,-0.00154558,0.00561227,0.01082062,-0.00525952,-0.09520363,-0.259
 10929,0.08591446,0.00045890,0.00026936,-0.00007242,0.00027717,0.000183
 98,-0.00000125,-0.00014097,0.00030261,0.00001925,-0.00041661,0.0006026
 3,0.00088456,0.10385943,0.28246745,0.00145230,-0.00307819,-0.00448184,
 0.01499173,0.02721465,-0.01058857,0.03866053,0.08357462,-0.09569751,0.
 00140491,0.00086487,-0.00000765,-0.00022890,0.00011691,0.00001881,0.00
 027939,-0.00001081,0.00040739,-0.00106986,-0.00015311,0.00043798,-0.04
 876566,-0.09390768,0.10238544,0.00029697,-0.00232567,-0.00077653,-0.02
 099749,0.01661157,-0.00012695,-0.20175150,0.11681189,-0.06421503,0.000
 17640,-0.00018414,0.00000582,-0.00045623,-0.00063010,0.00001502,0.0013
 9881,0.00125652,0.00186075,0.00025500,0.00003486,0.00053501,0.01342059
 ,-0.00939669,0.00471791,0.22310702,0.00124697,0.00312947,-0.00130222,0
 .00797125,-0.00480410,-0.00146263,0.11636226,-0.15432029,0.05195757,0.
 00004184,0.00018705,-0.00013992,-0.00004161,0.00025137,-0.00032841,-0.
 00220692,-0.00120905,0.00036076,-0.00017405,-0.00026939,-0.00036856,0.
 02551174,-0.02050095,0.01117886,-0.13450559,0.16556212,-0.00107105,0.0
 0222950,0.00088922,0.02933123,-0.02172521,0.00743724,-0.05927045,0.048
 77882,-0.08141229,-0.00047375,0.00006944,-0.00008987,-0.00024976,0.000
 60834,0.00007682,0.00011803,-0.00197515,-0.00201931,-0.00104036,0.0002
 5672,0.00009084,-0.01066159,0.00775339,-0.00493320,0.06506319,-0.05473
 832,0.08944206,0.00098272,0.00153799,-0.00141835,0.01339623,0.01445396
 ,0.02317466,-0.12684402,-0.06589197,-0.10199801,0.00006418,0.00028495,
 -0.00026071,0.00010711,-0.00016913,-0.00005692,-0.00071344,-0.00052993
 ,0.00048613,-0.00265765,0.00044014,0.00378614,-0.00853690,-0.00622540,
 -0.01144234,-0.01544957,-0.01420588,-0.02174548,0.13965134,0.00020055,
 0.00121764,0.00062212,-0.00233302,-0.00647705,-0.00666954,-0.06415409,
 -0.11495734,-0.09200756,0.00002348,0.00010605,-0.00013603,-0.00010082,
 0.00033633,0.00022406,-0.00059773,-0.00075392,0.00004365,0.00101819,0.
 00097628,-0.00113481,-0.01668919,-0.01510522,-0.02580012,0.01232735,0.
 01197378,0.01874247,0.07030527,0.12268345,-0.00088355,0.00087351,-0.00
 021401,-0.01189321,-0.01716352,-0.02297801,-0.10033721,-0.09138412,-0.
 20658117,-0.00013557,0.00041979,0.00023404,0.00047795,0.00119672,-0.00
 011966,-0.00064126,-0.00165483,0.00111401,0.00329877,0.00053902,-0.002
 95786,0.00771834,0.00621480,0.01245915,-0.00707917,-0.00515713,-0.0094
 8150,0.10947491,0.10611575,0.22852501\\-0.00000314,-0.00001234,0.00000
 472,0.00001085,0.00000803,0.00000883,0.00000401,-0.00000088,-0.0000025
 6,0.00000200,-0.00000018,-0.00000633,0.00000082,0.00000714,0.00000399,
 -0.00000884,0.00000293,-0.00000304,-0.00000261,-0.00000483,-0.00000734
 ,-0.00000085,-0.00000345,0.00000176,-0.00000399,0.00000179,-0.00000225
 ,0.00000175,0.00000179,0.00000220\\\@


 THE ... SCIENTISTS WERE WRONG ... THE MOST PERSISTENT PRINCIPLES 
 OF THE UNIVERSE WERE ACCIDENT AND ERROR.

                          -- FRANK HERBERT IN DUNE
 Job cpu time:       0 days  0 hours  0 minutes 15.8 seconds.
 File lengths (MBytes):  RWF=      8 Int=      0 D2E=      0 Chk=      1 Scr=      1
 Normal termination of Gaussian 09 at Sun May 22 09:31:51 2022.
