 Entering Gaussian System, Link 0=/Local/ce_dana/g09/g09
 Initial command:
 /Local/ce_dana/g09/l1.exe "/storage/ce_dana/jomave/scratch/g09/Gau-59145.inp" -scrdir="/storage/ce_dana/jomave/scratch/g09/"
 Entering Link 1 = /Local/ce_dana/g09/l1.exe PID=     59146.
  
 Copyright (c) 1988,1990,1992,1993,1995,1998,2003,2009,2013,
            Gaussian, Inc.  All Rights Reserved.
  
 This is part of the Gaussian(R) 09 program.  It is based on
 the Gaussian(R) 03 system (copyright 2003, Gaussian, Inc.),
 the Gaussian(R) 98 system (copyright 1998, Gaussian, Inc.),
 the Gaussian(R) 94 system (copyright 1995, Gaussian, Inc.),
 the Gaussian 92(TM) system (copyright 1992, Gaussian, Inc.),
 the Gaussian 90(TM) system (copyright 1990, Gaussian, Inc.),
 the Gaussian 88(TM) system (copyright 1988, Gaussian, Inc.),
 the Gaussian 86(TM) system (copyright 1986, Carnegie Mellon
 University), and the Gaussian 82(TM) system (copyright 1983,
 Carnegie Mellon University). Gaussian is a federally registered
 trademark of Gaussian, Inc.
  
 This software contains proprietary and confidential information,
 including trade secrets, belonging to Gaussian, Inc.
  
 This software is provided under written license and may be
 used, copied, transmitted, or stored only in accord with that
 written license.
  
 The following legend is applicable only to US Government
 contracts under FAR:
  
                    RESTRICTED RIGHTS LEGEND
  
 Use, reproduction and disclosure by the US Government is
 subject to restrictions as set forth in subparagraphs (a)
 and (c) of the Commercial Computer Software - Restricted
 Rights clause in FAR 52.227-19.
  
 Gaussian, Inc.
 340 Quinnipiac St., Bldg. 40, Wallingford CT 06492
  
  
 ---------------------------------------------------------------
 Warning -- This program may not be used in any manner that
 competes with the business of Gaussian, Inc. or will provide
 assistance to any competitor of Gaussian, Inc.  The licensee
 of this program is prohibited from giving any competitor of
 Gaussian, Inc. access to this program.  By using this program,
 the user acknowledges that Gaussian, Inc. is engaged in the
 business of creating and licensing software in the field of
 computational chemistry and represents and warrants to the
 licensee that it is not a competitor of Gaussian, Inc. and that
 it will not use this program in any manner prohibited above.
 ---------------------------------------------------------------
  

 Cite this work as:
 Gaussian 09, Revision D.01,
 M. J. Frisch, G. W. Trucks, H. B. Schlegel, G. E. Scuseria, 
 M. A. Robb, J. R. Cheeseman, G. Scalmani, V. Barone, B. Mennucci, 
 G. A. Petersson, H. Nakatsuji, M. Caricato, X. Li, H. P. Hratchian, 
 A. F. Izmaylov, J. Bloino, G. Zheng, J. L. Sonnenberg, M. Hada, 
 M. Ehara, K. Toyota, R. Fukuda, J. Hasegawa, M. Ishida, T. Nakajima, 
 Y. Honda, O. Kitao, H. Nakai, T. Vreven, J. A. Montgomery, Jr., 
 J. E. Peralta, F. Ogliaro, M. Bearpark, J. J. Heyd, E. Brothers, 
 K. N. Kudin, V. N. Staroverov, T. Keith, R. Kobayashi, J. Normand, 
 K. Raghavachari, A. Rendell, J. C. Burant, S. S. Iyengar, J. Tomasi, 
 M. Cossi, N. Rega, J. M. Millam, M. Klene, J. E. Knox, J. B. Cross, 
 V. Bakken, C. Adamo, J. Jaramillo, R. Gomperts, R. E. Stratmann, 
 O. Yazyev, A. J. Austin, R. Cammi, C. Pomelli, J. W. Ochterski, 
 R. L. Martin, K. Morokuma, V. G. Zakrzewski, G. A. Voth, 
 P. Salvador, J. J. Dannenberg, S. Dapprich, A. D. Daniels, 
 O. Farkas, J. B. Foresman, J. V. Ortiz, J. Cioslowski, 
 and D. J. Fox, Gaussian, Inc., Wallingford CT, 2013.
 
 ******************************************
 Gaussian 09:  ES64L-G09RevD.01 24-Apr-2013
                12-Jul-2022 
 ******************************************
 %chk=check.chk
 %mem=6144mb
 %NProcShared=8
 Will use up to    8 processors via shared memory.
 ----------------------------------------------------------------------
 #P guess=read uwb97xd/def2tzvp freq IOp(7/33=1) scf=(tight, direct) in
 tegral=(grid=ultrafine, Acc2E=12) IOp(2/9=2000) scf=xqc
 ----------------------------------------------------------------------
 1/10=4,30=1,38=1/1,3;
 2/9=2000,12=2,17=6,18=5,40=1/2;
 3/5=44,7=101,11=2,16=1,25=1,30=1,71=2,74=-58,75=-5,116=2,140=1/1,2,3;
 4/5=1/1;
 5/5=2,8=3,13=1,32=2,38=6,87=12,98=1/2,8;
 8/6=4,10=90,11=11,87=12/1;
 11/6=1,8=1,9=11,15=111,16=1,87=12/1,2,10;
 10/6=1,87=12/2;
 6/7=2,8=2,9=2,10=2,18=1,28=1/1;
 7/8=1,10=1,25=1,33=1,87=12/1,2,3,16;
 1/10=4,30=1/3;
 99//99;
 Leave Link    1 at Tue Jul 12 18:27:40 2022, MaxMem=   805306368 cpu:         0.0
 (Enter /Local/ce_dana/g09/l101.exe)
 ---
 TS3
 ---
 Symbolic Z-matrix:
 Charge =  0 Multiplicity = 2
 N                     0.03867   1.01473   1.03313 
 N                    -0.19928   1.54604  -0.02142 
 H                    -0.16237   2.58043   0.07092 
 N                     0.18669  -1.21526  -1.06974 
 N                     0.03394  -1.39193   0.28267 
 H                    -0.68289  -1.31039  -1.56763 
 H                     0.95459  -1.69642  -1.51022 
 H                    -0.01751  -0.20357   0.79905 
 H                     0.92139  -1.73861   0.64167 
 
 NAtoms=      9 NQM=        9 NQMF=       0 NMMI=      0 NMMIF=      0
                NMic=       0 NMicF=      0.
                    Isotopes and Nuclear Properties:
 (Nuclear quadrupole moments (NQMom) in fm**2, nuclear magnetic moments (NMagM)
  in nuclear magnetons)

  Atom         1           2           3           4           5           6           7           8           9
 IAtWgt=          14          14           1          14          14           1           1           1           1
 AtmWgt=  14.0030740  14.0030740   1.0078250  14.0030740  14.0030740   1.0078250   1.0078250   1.0078250   1.0078250
 NucSpn=           2           2           1           2           2           1           1           1           1
 AtZEff=   0.0000000   0.0000000   0.0000000   0.0000000   0.0000000   0.0000000   0.0000000   0.0000000   0.0000000
 NQMom=    2.0440000   2.0440000   0.0000000   2.0440000   2.0440000   0.0000000   0.0000000   0.0000000   0.0000000
 NMagM=    0.4037610   0.4037610   2.7928460   0.4037610   0.4037610   2.7928460   2.7928460   2.7928460   2.7928460
 AtZNuc=   7.0000000   7.0000000   1.0000000   7.0000000   7.0000000   1.0000000   1.0000000   1.0000000   1.0000000
 Leave Link  101 at Tue Jul 12 18:27:40 2022, MaxMem=   805306368 cpu:         0.1
 (Enter /Local/ce_dana/g09/l103.exe)

 GradGradGradGradGradGradGradGradGradGradGradGradGradGradGradGradGradGrad
 Berny optimization.
 Initialization pass.
 Trust Radius=3.00D-01 FncErr=1.00D-07 GrdErr=1.00D-07
 Number of steps in this run=      2 maximum allowed number of steps=      2.
 GradGradGradGradGradGradGradGradGradGradGradGradGradGradGradGradGradGrad

 Leave Link  103 at Tue Jul 12 18:27:40 2022, MaxMem=   805306368 cpu:         0.0
 (Enter /Local/ce_dana/g09/l202.exe)
                          Input orientation:                          
 ---------------------------------------------------------------------
 Center     Atomic      Atomic             Coordinates (Angstroms)
 Number     Number       Type             X           Y           Z
 ---------------------------------------------------------------------
      1          7           0        0.038668    1.014728    1.033134
      2          7           0       -0.199284    1.546037   -0.021424
      3          1           0       -0.162373    2.580426    0.070922
      4          7           0        0.186694   -1.215260   -1.069735
      5          7           0        0.033936   -1.391931    0.282669
      6          1           0       -0.682891   -1.310390   -1.567627
      7          1           0        0.954589   -1.696416   -1.510220
      8          1           0       -0.017510   -0.203570    0.799051
      9          1           0        0.921394   -1.738612    0.641673
 ---------------------------------------------------------------------
                    Distance matrix (angstroms):
                    1          2          3          4          5
     1  N    0.000000
     2  N    1.204576   0.000000
     3  H    1.848697   1.039159   0.000000
     4  N    3.068683   2.978707   3.978716   0.000000
     5  N    2.520958   2.962857   3.982837   1.372423   0.000000
     6  H    3.562412   3.283869   4.253731   1.006541   1.985972
     7  H    3.828559   3.749858   4.694570   1.007572   2.038324
     8  H    1.241854   1.940965   2.881283   2.134848   1.296726
     9  H    2.917761   3.533346   4.489365   1.934580   1.018162
                    6          7          8          9
     6  H    0.000000
     7  H    1.683346   0.000000
     8  H    2.696099   2.916556   0.000000
     9  H    2.763713   2.152563   1.806284   0.000000
 Stoichiometry    H5N4(2)
 Framework group  C1[X(H5N4)]
 Deg. of freedom    21
 Full point group                 C1      NOp   1
 Largest Abelian subgroup         C1      NOp   1
 Largest concise Abelian subgroup C1      NOp   1
                         Standard orientation:                         
 ---------------------------------------------------------------------
 Center     Atomic      Atomic             Coordinates (Angstroms)
 Number     Number       Type             X           Y           Z
 ---------------------------------------------------------------------
      1          7           0        1.377442    0.606199    0.064467
      2          7           0        1.538538   -0.583310   -0.036136
      3          1           0        2.534149   -0.834722    0.123239
      4          7           0       -1.438102   -0.614250    0.070420
      5          7           0       -1.128886    0.697069   -0.191059
      6          1           0       -1.613557   -1.139811   -0.769892
      7          1           0       -2.111235   -0.789059    0.799484
      8          1           0        0.163406    0.783433   -0.127647
      9          1           0       -1.415705    1.240201    0.620973
 ---------------------------------------------------------------------
 Rotational constants (GHZ):     17.3673150      4.0642926      3.3942662
 Leave Link  202 at Tue Jul 12 18:27:40 2022, MaxMem=   805306368 cpu:         0.0
 (Enter /Local/ce_dana/g09/l301.exe)
 Standard basis: def2TZVP (5D, 7F)
 Ernie: Thresh=  0.10000D-02 Tol=  0.10000D-05 Strict=F.
 There are   174 symmetry adapted cartesian basis functions of A   symmetry.
 There are   154 symmetry adapted basis functions of A   symmetry.
   154 basis functions,   244 primitive gaussians,   174 cartesian basis functions
    17 alpha electrons       16 beta electrons
       nuclear repulsion energy       118.5179131436 Hartrees.
 IExCor= 4639 DFT=T Ex+Corr=wB97XD ExCW=0 ScaHFX=  1.000000
 ScaDFX=  1.000000  1.000000  1.000000  1.000000 ScalE2=  1.000000  1.000000
 IRadAn=      5 IRanWt=     -1 IRanGd=            0 ICorTp=0 IEmpDi=121
  HFx wShort=  0.000000 wLong=  0.200000 cFull=  0.222036 cShort=  0.000000 cLong=  0.777964
  DFx wShort=  0.000000 wLong=  0.200000 cFull=  0.000000 cShort=  0.000000 cLong=  1.000000
 NAtoms=    9 NActive=    9 NUniq=    9 SFac= 1.00D+00 NAtFMM=   60 NAOKFM=F Big=F
 Integral buffers will be    131072 words long.
 Raffenetti 2 integral format.
 Two-electron integral symmetry is turned on.
 R6Disp:  Grimme-D2 Dispersion energy=       -0.0021975992 Hartrees.
 Nuclear repulsion after empirical dispersion term =      118.5157155444 Hartrees.
 Leave Link  301 at Tue Jul 12 18:27:41 2022, MaxMem=   805306368 cpu:         0.1
 (Enter /Local/ce_dana/g09/l302.exe)
 NPDir=0 NMtPBC=     1 NCelOv=     1 NCel=       1 NClECP=     1 NCelD=      1
         NCelK=      1 NCelE2=     1 NClLst=     1 CellRange=     0.0.
 One-electron integrals computed using PRISM.
   1 Symmetry operations used in ECPInt.
 ECPInt:  NShTT=    2080 NPrTT=    6208 LenC2=    2061 LenP2D=    5192.
 LDataN:  DoStor=T MaxTD1= 6 Len=  172
 NBasis=   154 RedAO= T EigKep=  4.50D-04  NBF=   154
 NBsUse=   154 1.00D-06 EigRej= -1.00D+00 NBFU=   154
 Precomputing XC quadrature grid using
 IXCGrd= 4 IRadAn=           5 IRanWt=          -1 IRanGd=           0 AccXCQ= 0.00D+00.
 Generated NRdTot=       0 NPtTot=           0 NUsed=           0 NTot=          32
 NSgBfM=   174   174   174   174   174 MxSgAt=     9 MxSgA2=     9.
 Leave Link  302 at Tue Jul 12 18:27:41 2022, MaxMem=   805306368 cpu:         1.4
 (Enter /Local/ce_dana/g09/l303.exe)
 DipDrv:  MaxL=1.
 Leave Link  303 at Tue Jul 12 18:27:41 2022, MaxMem=   805306368 cpu:         0.1
 (Enter /Local/ce_dana/g09/l401.exe)
 Initial guess from the checkpoint file:  "check.chk"
 B after Tr=     0.000000   -0.000000    0.000000
         Rot=    1.000000    0.000000    0.000000    0.000000 Ang=   0.00 deg.
 Guess basis will be translated and rotated to current coordinates.
 JPrj=2 DoOrth=T DoCkMO=T.
 Initial guess <Sx>= 0.0000 <Sy>= 0.0000 <Sz>= 0.5000 <S**2>= 0.7613 S= 0.5056
 Leave Link  401 at Tue Jul 12 18:27:41 2022, MaxMem=   805306368 cpu:         0.6
 (Enter /Local/ce_dana/g09/l502.exe)
 UHF open shell SCF:
 Using DIIS extrapolation, IDIIS=  1040.
 Integral symmetry usage will be decided dynamically.
 Keep R1 and R2 ints in memory in canonical form, NReq=287691362.
 IVT=       99442 IEndB=       99442 NGot=   805306368 MDV=   520294607
 LenX=   520294607 LenY=   520263890
 Requested convergence on RMS density matrix=1.00D-08 within  64 cycles.
 Requested convergence on MAX density matrix=1.00D-06.
 Requested convergence on             energy=1.00D-06.
 No special actions if energy rises.
 FoFCou: FMM=F IPFlag=           0 FMFlag=           0 FMFlg1=           0
         NFxFlg=           0 DoJE=F BraDBF=F KetDBF=F FulRan=T
         wScrn=  0.000000 ICntrl=     600 IOpCl=  0 I1Cent=           0 NGrid=           0
         NMat0=    1 NMatS0=  11935 NMatT0=    0 NMatD0=    1 NMtDS0=    0 NMtDT0=    0
 Symmetry not used in FoFCou.

 Cycle   1  Pass 1  IDiag  1:
 E= -221.875895654030    
 DIIS: error= 1.33D-05 at cycle   1 NSaved=   1.
 NSaved= 1 IEnMin= 1 EnMin= -221.875895654030     IErMin= 1 ErrMin= 1.33D-05
 ErrMax= 1.33D-05  0.00D+00 EMaxC= 1.00D-01 BMatC= 1.48D-07 BMatP= 1.48D-07
 IDIUse=1 WtCom= 1.00D+00 WtEn= 0.00D+00
 Coeff-Com:  0.100D+01
 Coeff:      0.100D+01
 Gap=     0.296 Goal=   None    Shift=    0.000
 Gap=     0.266 Goal=   None    Shift=    0.000
 RMSDP=1.48D-06 MaxDP=2.97D-05              OVMax= 3.55D-05

 Cycle   2  Pass 1  IDiag  1:
 E= -221.875895678582     Delta-E=       -0.000000024552 Rises=F Damp=F
 DIIS: error= 1.96D-06 at cycle   2 NSaved=   2.
 NSaved= 2 IEnMin= 2 EnMin= -221.875895678582     IErMin= 2 ErrMin= 1.96D-06
 ErrMax= 1.96D-06  0.00D+00 EMaxC= 1.00D-01 BMatC= 2.12D-09 BMatP= 1.48D-07
 IDIUse=1 WtCom= 1.00D+00 WtEn= 0.00D+00
 Coeff-Com: -0.722D-01 0.107D+01
 Coeff:     -0.722D-01 0.107D+01
 Gap=     0.296 Goal=   None    Shift=    0.000
 Gap=     0.266 Goal=   None    Shift=    0.000
 RMSDP=2.88D-07 MaxDP=5.47D-06 DE=-2.46D-08 OVMax= 1.37D-05

 Cycle   3  Pass 1  IDiag  1:
 E= -221.875895679328     Delta-E=       -0.000000000745 Rises=F Damp=F
 DIIS: error= 7.16D-07 at cycle   3 NSaved=   3.
 NSaved= 3 IEnMin= 3 EnMin= -221.875895679328     IErMin= 3 ErrMin= 7.16D-07
 ErrMax= 7.16D-07  0.00D+00 EMaxC= 1.00D-01 BMatC= 2.63D-10 BMatP= 2.12D-09
 IDIUse=1 WtCom= 1.00D+00 WtEn= 0.00D+00
 Coeff-Com: -0.220D-01 0.207D+00 0.815D+00
 Coeff:     -0.220D-01 0.207D+00 0.815D+00
 Gap=     0.296 Goal=   None    Shift=    0.000
 Gap=     0.266 Goal=   None    Shift=    0.000
 RMSDP=6.62D-08 MaxDP=1.57D-06 DE=-7.45D-10 OVMax= 5.84D-06

 Cycle   4  Pass 1  IDiag  1:
 E= -221.875895679425     Delta-E=       -0.000000000097 Rises=F Damp=F
 DIIS: error= 3.57D-07 at cycle   4 NSaved=   4.
 NSaved= 4 IEnMin= 4 EnMin= -221.875895679425     IErMin= 4 ErrMin= 3.57D-07
 ErrMax= 3.57D-07  0.00D+00 EMaxC= 1.00D-01 BMatC= 6.03D-11 BMatP= 2.63D-10
 IDIUse=1 WtCom= 1.00D+00 WtEn= 0.00D+00
 Coeff-Com:  0.235D-02-0.724D-01 0.200D+00 0.870D+00
 Coeff:      0.235D-02-0.724D-01 0.200D+00 0.870D+00
 Gap=     0.296 Goal=   None    Shift=    0.000
 Gap=     0.266 Goal=   None    Shift=    0.000
 RMSDP=4.20D-08 MaxDP=7.79D-07 DE=-9.69D-11 OVMax= 4.85D-06

 Cycle   5  Pass 1  IDiag  1:
 E= -221.875895679458     Delta-E=       -0.000000000034 Rises=F Damp=F
 DIIS: error= 3.31D-07 at cycle   5 NSaved=   5.
 NSaved= 5 IEnMin= 5 EnMin= -221.875895679458     IErMin= 5 ErrMin= 3.31D-07
 ErrMax= 3.31D-07  0.00D+00 EMaxC= 1.00D-01 BMatC= 2.78D-11 BMatP= 6.03D-11
 IDIUse=1 WtCom= 1.00D+00 WtEn= 0.00D+00
 Coeff-Com:  0.454D-02-0.671D-01-0.339D-01 0.449D+00 0.648D+00
 Coeff:      0.454D-02-0.671D-01-0.339D-01 0.449D+00 0.648D+00
 Gap=     0.296 Goal=   None    Shift=    0.000
 Gap=     0.266 Goal=   None    Shift=    0.000
 RMSDP=2.20D-08 MaxDP=5.36D-07 DE=-3.39D-11 OVMax= 2.61D-06

 Cycle   6  Pass 1  IDiag  1:
 E= -221.875895679472     Delta-E=       -0.000000000014 Rises=F Damp=F
 DIIS: error= 1.06D-07 at cycle   6 NSaved=   6.
 NSaved= 6 IEnMin= 6 EnMin= -221.875895679472     IErMin= 6 ErrMin= 1.06D-07
 ErrMax= 1.06D-07  0.00D+00 EMaxC= 1.00D-01 BMatC= 5.49D-12 BMatP= 2.78D-11
 IDIUse=1 WtCom= 1.00D+00 WtEn= 0.00D+00
 Coeff-Com:  0.114D-02-0.430D-02-0.803D-01-0.887D-01 0.227D+00 0.945D+00
 Coeff:      0.114D-02-0.430D-02-0.803D-01-0.887D-01 0.227D+00 0.945D+00
 Gap=     0.296 Goal=   None    Shift=    0.000
 Gap=     0.266 Goal=   None    Shift=    0.000
 RMSDP=1.90D-08 MaxDP=4.70D-07 DE=-1.39D-11 OVMax= 2.89D-06

 Cycle   7  Pass 1  IDiag  1:
 E= -221.875895679480     Delta-E=       -0.000000000008 Rises=F Damp=F
 DIIS: error= 7.83D-08 at cycle   7 NSaved=   7.
 NSaved= 7 IEnMin= 7 EnMin= -221.875895679480     IErMin= 7 ErrMin= 7.83D-08
 ErrMax= 7.83D-08  0.00D+00 EMaxC= 1.00D-01 BMatC= 1.62D-12 BMatP= 5.49D-12
 IDIUse=1 WtCom= 1.00D+00 WtEn= 0.00D+00
 Coeff-Com: -0.129D-02 0.213D-01-0.998D-02-0.164D+00-0.193D+00 0.253D+00
 Coeff-Com:  0.109D+01
 Coeff:     -0.129D-02 0.213D-01-0.998D-02-0.164D+00-0.193D+00 0.253D+00
 Coeff:      0.109D+01
 Gap=     0.296 Goal=   None    Shift=    0.000
 Gap=     0.266 Goal=   None    Shift=    0.000
 RMSDP=1.44D-08 MaxDP=2.82D-07 DE=-8.24D-12 OVMax= 2.20D-06

 Cycle   8  Pass 1  IDiag  1:
 E= -221.875895679482     Delta-E=       -0.000000000001 Rises=F Damp=F
 DIIS: error= 2.76D-08 at cycle   8 NSaved=   8.
 NSaved= 8 IEnMin= 8 EnMin= -221.875895679482     IErMin= 8 ErrMin= 2.76D-08
 ErrMax= 2.76D-08  0.00D+00 EMaxC= 1.00D-01 BMatC= 3.19D-13 BMatP= 1.62D-12
 IDIUse=1 WtCom= 1.00D+00 WtEn= 0.00D+00
 Coeff-Com: -0.563D-03 0.679D-02 0.106D-01-0.276D-01-0.100D+00-0.977D-01
 Coeff-Com:  0.272D+00 0.936D+00
 Coeff:     -0.563D-03 0.679D-02 0.106D-01-0.276D-01-0.100D+00-0.977D-01
 Coeff:      0.272D+00 0.936D+00
 Gap=     0.296 Goal=   None    Shift=    0.000
 Gap=     0.266 Goal=   None    Shift=    0.000
 RMSDP=5.43D-09 MaxDP=1.12D-07 DE=-1.19D-12 OVMax= 8.08D-07

 SCF Done:  E(UwB97XD) =  -221.875895679     A.U. after    8 cycles
            NFock=  8  Conv=0.54D-08     -V/T= 2.0041
 <Sx>= 0.0000 <Sy>= 0.0000 <Sz>= 0.5000 <S**2>= 0.7613 S= 0.5057
 <L.S>=  0.00000000000    
 KE= 2.209729327403D+02 PE=-7.565734024515D+02 EE= 1.952088584873D+02
 Annihilation of the first spin contaminant:
 S**2 before annihilation     0.7613,   after     0.7501
 Leave Link  502 at Tue Jul 12 18:27:56 2022, MaxMem=   805306368 cpu:       105.4
 (Enter /Local/ce_dana/g09/l508.exe)
 QCSCF skips out because SCF is already converged.
 Leave Link  508 at Tue Jul 12 18:27:56 2022, MaxMem=   805306368 cpu:         0.0
 (Enter /Local/ce_dana/g09/l801.exe)
 DoSCS=F DFT=T ScalE2(SS,OS)=  1.000000  1.000000
 Range of M.O.s used for correlation:     1   154
 NBasis=   154 NAE=    17 NBE=    16 NFC=     0 NFV=     0
 NROrb=    154 NOA=    17 NOB=    16 NVA=   137 NVB=   138

 **** Warning!!: The largest alpha MO coefficient is  0.11951306D+02


 **** Warning!!: The largest beta MO coefficient is  0.11681218D+02

 Leave Link  801 at Tue Jul 12 18:27:57 2022, MaxMem=   805306368 cpu:         0.0
 (Enter /Local/ce_dana/g09/l1101.exe)
 Using compressed storage, NAtomX=     9.
 Will process     10 centers per pass.
   1 Symmetry operations used in ECPInt.
 ECPInt:  NShTT=    2080 NPrTT=    6208 LenC2=    2061 LenP2D=    5192.
 LDataN:  DoStor=T MaxTD1= 7 Len=  274
 R6Disp: Adding Grimme-D2 dispersion energy 1st derivatives to the gradient.
 Leave Link 1101 at Tue Jul 12 18:27:57 2022, MaxMem=   805306368 cpu:         3.2
 (Enter /Local/ce_dana/g09/l1102.exe)
 Symmetrizing basis deriv contribution to polar:
 IMax=3 JMax=2 DiffMx= 0.00D+00
 Leave Link 1102 at Tue Jul 12 18:27:57 2022, MaxMem=   805306368 cpu:         0.1
 (Enter /Local/ce_dana/g09/l1110.exe)
 Forming Gx(P) for the SCF density, NAtomX=     9.
 Integral derivatives from FoFJK, PRISM(SPDF).
 Do as many integral derivatives as possible in FoFJK.
 G2DrvN: MDV=     805306192.
 G2DrvN: will do    10 centers at a time, making    1 passes.
 Calling FoFCou, ICntrl=  3107 FMM=F I1Cent=   0 AccDes= 1.00D-12.
 FoFJK:  IHMeth= 1 ICntrl=    3107 DoSepK=T KAlg= 0 I1Cent=   0 FoldK=F
 IRaf=         1 NMat=   1 IRICut=       1 DoRegI=T DoRafI=F ISym2E= 0.
 FoFCou: FMM=F IPFlag=           0 FMFlag=      100000 FMFlg1=           0
         NFxFlg=           0 DoJE=F BraDBF=F KetDBF=F FulRan=T
         wScrn=  0.000000 ICntrl=    3507 IOpCl=  0 I1Cent=           0 NGrid=           0
         NMat0=    1 NMatS0=      1 NMatT0=    0 NMatD0=    1 NMtDS0=    0 NMtDT0=    0
 Symmetry not used in FoFCou.
 End of G2Drv F.D. properties file   721 does not exist.
 End of G2Drv F.D. properties file   722 does not exist.
 End of G2Drv F.D. properties file   788 does not exist.
 Leave Link 1110 at Tue Jul 12 18:28:42 2022, MaxMem=   805306368 cpu:       359.4
 (Enter /Local/ce_dana/g09/l1002.exe)
 Minotr:  UHF open shell wavefunction.
          IDoAtm=111111111
          Direct CPHF calculation.
          Differentiating once with respect to electric field.
                with respect to dipole field.
          Differentiating once with respect to nuclear coordinates.
          Requested convergence is 1.0D-08 RMS, and 1.0D-07 maximum.
          Secondary convergence is 1.0D-12 RMS, and 1.0D-12 maximum.
          NewPWx=T KeepS1=F KeepF1=F KeepIn=T MapXYZ=F SortEE=F KeepMc=T.
          MDV=     805305966 using IRadAn=       1.
 Generate precomputed XC quadrature information.
 Keep R1 and R2 ints in memory in canonical form, NReq=287596381.
 FoFCou: FMM=F IPFlag=           0 FMFlag=           0 FMFlg1=           0
         NFxFlg=           0 DoJE=F BraDBF=F KetDBF=F FulRan=T
         wScrn=  0.000000 ICntrl=     600 IOpCl=  0 I1Cent=           0 NGrid=           0
         NMat0=    1 NMatS0=  11935 NMatT0=    0 NMatD0=    1 NMtDS0=    0 NMtDT0=    0
 Symmetry not used in FoFCou.
          Solving linear equations simultaneously, MaxMat=       0.
          There are    30 degrees of freedom in the 1st order CPHF.  IDoFFX=6 NUNeed=     3.
     27 vectors produced by pass  0 Test12= 1.51D-14 3.33D-09 XBig12= 9.11D+01 8.21D+00.
 AX will form    27 AO Fock derivatives at one time.
     27 vectors produced by pass  1 Test12= 1.51D-14 3.33D-09 XBig12= 8.81D+00 8.27D-01.
     27 vectors produced by pass  2 Test12= 1.51D-14 3.33D-09 XBig12= 5.93D-01 2.08D-01.
     27 vectors produced by pass  3 Test12= 1.51D-14 3.33D-09 XBig12= 1.29D-02 1.80D-02.
     27 vectors produced by pass  4 Test12= 1.51D-14 3.33D-09 XBig12= 1.65D-04 2.47D-03.
     27 vectors produced by pass  5 Test12= 1.51D-14 3.33D-09 XBig12= 2.33D-06 2.12D-04.
     27 vectors produced by pass  6 Test12= 1.51D-14 3.33D-09 XBig12= 2.77D-08 2.33D-05.
     19 vectors produced by pass  7 Test12= 1.51D-14 3.33D-09 XBig12= 2.34D-10 1.79D-06.
      4 vectors produced by pass  8 Test12= 1.51D-14 3.33D-09 XBig12= 1.50D-12 1.62D-07.
      2 vectors produced by pass  9 Test12= 1.51D-14 3.33D-09 XBig12= 1.17D-14 1.23D-08.
 InvSVY:  IOpt=1 It=  1 EMax= 1.07D-14
 Solved reduced A of dimension   214 with    30 vectors.
 FullF1:  Do perturbations    1 to     3.
 Isotropic polarizability for W=    0.000000       53.40 Bohr**3.
 End of Minotr F.D. properties file   721 does not exist.
 End of Minotr F.D. properties file   722 does not exist.
 End of Minotr F.D. properties file   788 does not exist.
 Leave Link 1002 at Tue Jul 12 18:29:54 2022, MaxMem=   805306368 cpu:       566.3
 (Enter /Local/ce_dana/g09/l601.exe)
 Copying SCF densities to generalized density rwf, IOpCl= 1 IROHF=0.

 **********************************************************************

            Population analysis using the SCF density.

 **********************************************************************

 Orbital symmetries:
 Alpha Orbitals:
       Occupied  (A) (A) (A) (A) (A) (A) (A) (A) (A) (A) (A) (A)
                 (A) (A) (A) (A) (A)
       Virtual   (A) (A) (A) (A) (A) (A) (A) (A) (A) (A) (A) (A)
                 (A) (A) (A) (A) (A) (A) (A) (A) (A) (A) (A) (A)
                 (A) (A) (A) (A) (A) (A) (A) (A) (A) (A) (A) (A)
                 (A) (A) (A) (A) (A) (A) (A) (A) (A) (A) (A) (A)
                 (A) (A) (A) (A) (A) (A) (A) (A) (A) (A) (A) (A)
                 (A) (A) (A) (A) (A) (A) (A) (A) (A) (A) (A) (A)
                 (A) (A) (A) (A) (A) (A) (A) (A) (A) (A) (A) (A)
                 (A) (A) (A) (A) (A) (A) (A) (A) (A) (A) (A) (A)
                 (A) (A) (A) (A) (A) (A) (A) (A) (A) (A) (A) (A)
                 (A) (A) (A) (A) (A) (A) (A) (A) (A) (A) (A) (A)
                 (A) (A) (A) (A) (A) (A) (A) (A) (A) (A) (A) (A)
                 (A) (A) (A) (A) (A)
 Beta  Orbitals:
       Occupied  (A) (A) (A) (A) (A) (A) (A) (A) (A) (A) (A) (A)
                 (A) (A) (A) (A)
       Virtual   (A) (A) (A) (A) (A) (A) (A) (A) (A) (A) (A) (A)
                 (A) (A) (A) (A) (A) (A) (A) (A) (A) (A) (A) (A)
                 (A) (A) (A) (A) (A) (A) (A) (A) (A) (A) (A) (A)
                 (A) (A) (A) (A) (A) (A) (A) (A) (A) (A) (A) (A)
                 (A) (A) (A) (A) (A) (A) (A) (A) (A) (A) (A) (A)
                 (A) (A) (A) (A) (A) (A) (A) (A) (A) (A) (A) (A)
                 (A) (A) (A) (A) (A) (A) (A) (A) (A) (A) (A) (A)
                 (A) (A) (A) (A) (A) (A) (A) (A) (A) (A) (A) (A)
                 (A) (A) (A) (A) (A) (A) (A) (A) (A) (A) (A) (A)
                 (A) (A) (A) (A) (A) (A) (A) (A) (A) (A) (A) (A)
                 (A) (A) (A) (A) (A) (A) (A) (A) (A) (A) (A) (A)
                 (A) (A) (A) (A) (A) (A)
 The electronic state is 2-A.
 Alpha  occ. eigenvalues --  -14.48142 -14.47235 -14.46878 -14.45153  -1.13728
 Alpha  occ. eigenvalues --   -1.08194  -0.85121  -0.75515  -0.63892  -0.58215
 Alpha  occ. eigenvalues --   -0.56158  -0.53996  -0.48205  -0.45107  -0.41436
 Alpha  occ. eigenvalues --   -0.32195  -0.25214
 Alpha virt. eigenvalues --    0.04347   0.10277   0.13499   0.14396   0.17673
 Alpha virt. eigenvalues --    0.26852   0.30875   0.35172   0.35694   0.36871
 Alpha virt. eigenvalues --    0.40224   0.42832   0.45396   0.45468   0.47133
 Alpha virt. eigenvalues --    0.49206   0.49832   0.50204   0.52145   0.53169
 Alpha virt. eigenvalues --    0.54999   0.57307   0.58826   0.62733   0.63076
 Alpha virt. eigenvalues --    0.69429   0.73395   0.74826   0.78731   0.93325
 Alpha virt. eigenvalues --    0.96747   1.03637   1.11929   1.14063   1.19859
 Alpha virt. eigenvalues --    1.26382   1.28268   1.31502   1.35016   1.42850
 Alpha virt. eigenvalues --    1.44247   1.46976   1.48240   1.52442   1.60550
 Alpha virt. eigenvalues --    1.67022   1.72621   1.73613   1.75253   1.78419
 Alpha virt. eigenvalues --    1.84667   1.94519   1.94657   1.97945   1.99754
 Alpha virt. eigenvalues --    2.04506   2.06099   2.08059   2.10334   2.12113
 Alpha virt. eigenvalues --    2.13825   2.16139   2.18804   2.21735   2.29059
 Alpha virt. eigenvalues --    2.35120   2.39884   2.40255   2.43234   2.45996
 Alpha virt. eigenvalues --    2.55054   2.62182   2.62583   2.68594   2.69370
 Alpha virt. eigenvalues --    2.76020   2.77724   2.98560   3.06391   3.12285
 Alpha virt. eigenvalues --    3.20442   3.28024   3.34751   3.39620   3.61682
 Alpha virt. eigenvalues --    3.65551   3.67369   3.76758   3.89288   3.90226
 Alpha virt. eigenvalues --    3.94540   3.97071   4.05535   4.12714   4.19231
 Alpha virt. eigenvalues --    4.20194   4.31556   4.39434   4.45831   4.56371
 Alpha virt. eigenvalues --    4.58263   4.63978   4.68747   4.69197   4.70981
 Alpha virt. eigenvalues --    4.71657   4.73078   4.77741   4.79592   4.83468
 Alpha virt. eigenvalues --    4.84177   4.85953   4.88132   4.89250   4.94453
 Alpha virt. eigenvalues --    4.98578   5.01228   5.06641   5.10223   5.28056
 Alpha virt. eigenvalues --    5.34390   5.40544   5.46434   5.54472   5.64323
 Alpha virt. eigenvalues --    5.73626   5.85760   5.90145   6.01372   6.05216
 Alpha virt. eigenvalues --    6.19011   6.79260   6.85914  31.70195  31.81995
 Alpha virt. eigenvalues --   31.89527  32.01073
  Beta  occ. eigenvalues --  -14.48011 -14.46526 -14.46460 -14.44262  -1.12731
  Beta  occ. eigenvalues --   -1.06679  -0.83198  -0.73989  -0.63299  -0.57084
  Beta  occ. eigenvalues --   -0.54570  -0.52104  -0.47579  -0.41119  -0.39985
  Beta  occ. eigenvalues --   -0.27116
  Beta virt. eigenvalues --   -0.00500   0.04995   0.10490   0.13852   0.14785
  Beta virt. eigenvalues --    0.17920   0.27334   0.31606   0.35271   0.36059
  Beta virt. eigenvalues --    0.37111   0.40528   0.43540   0.45640   0.46018
  Beta virt. eigenvalues --    0.47952   0.50018   0.50566   0.51585   0.52932
  Beta virt. eigenvalues --    0.53736   0.55505   0.57814   0.59262   0.63175
  Beta virt. eigenvalues --    0.63520   0.70060   0.73898   0.75353   0.79143
  Beta virt. eigenvalues --    0.93810   0.97339   1.04424   1.12907   1.14447
  Beta virt. eigenvalues --    1.20669   1.27160   1.28871   1.32162   1.35688
  Beta virt. eigenvalues --    1.43448   1.44851   1.47377   1.48836   1.53135
  Beta virt. eigenvalues --    1.61458   1.68242   1.72936   1.74289   1.75726
  Beta virt. eigenvalues --    1.79399   1.85000   1.95137   1.95307   1.98524
  Beta virt. eigenvalues --    2.00384   2.05408   2.06786   2.08792   2.11597
  Beta virt. eigenvalues --    2.12550   2.14926   2.17565   2.19826   2.22491
  Beta virt. eigenvalues --    2.29703   2.35741   2.40564   2.40827   2.43736
  Beta virt. eigenvalues --    2.47373   2.55609   2.62593   2.63074   2.69092
  Beta virt. eigenvalues --    2.69876   2.76814   2.77765   3.00233   3.06837
  Beta virt. eigenvalues --    3.13133   3.21114   3.28916   3.35433   3.40285
  Beta virt. eigenvalues --    3.62942   3.66333   3.67653   3.77783   3.90397
  Beta virt. eigenvalues --    3.91323   3.95799   3.98391   4.06390   4.13886
  Beta virt. eigenvalues --    4.20401   4.21624   4.33039   4.41444   4.47074
  Beta virt. eigenvalues --    4.57613   4.59455   4.65753   4.70068   4.70990
  Beta virt. eigenvalues --    4.72271   4.72482   4.74681   4.79322   4.81403
  Beta virt. eigenvalues --    4.85078   4.85210   4.87085   4.89204   4.91260
  Beta virt. eigenvalues --    4.96091   5.00042   5.02083   5.08045   5.12050
  Beta virt. eigenvalues --    5.28972   5.35781   5.42371   5.47339   5.55488
  Beta virt. eigenvalues --    5.65529   5.75229   5.86601   5.90815   6.02163
  Beta virt. eigenvalues --    6.05565   6.20360   6.80076   6.86715  31.70683
  Beta virt. eigenvalues --   31.82461  31.90323  32.01873
          Condensed to atoms (all electrons):
               1          2          3          4          5          6
     1  N    6.885919   0.336837  -0.089496   0.004910  -0.135308  -0.000381
     2  N    0.336837   6.585331   0.279579   0.003177   0.004997   0.002062
     3  H   -0.089496   0.279579   0.594540  -0.000268  -0.001248  -0.000128
     4  N    0.004910   0.003177  -0.000268   6.495403   0.163408   0.378309
     5  N   -0.135308   0.004997  -0.001248   0.163408   6.894038  -0.042788
     6  H   -0.000381   0.002062  -0.000128   0.378309  -0.042788   0.446409
     7  H   -0.002125   0.001541  -0.000139   0.372615  -0.026452  -0.037868
     8  H    0.232852  -0.028094   0.001645  -0.023063   0.228175  -0.003135
     9  H    0.009717  -0.000788   0.000138  -0.032147   0.332715   0.007377
               7          8          9
     1  N   -0.002125   0.232852   0.009717
     2  N    0.001541  -0.028094  -0.000788
     3  H   -0.000139   0.001645   0.000138
     4  N    0.372615  -0.023063  -0.032147
     5  N   -0.026452   0.228175   0.332715
     6  H   -0.037868  -0.003135   0.007377
     7  H    0.469894   0.004192  -0.019162
     8  H    0.004192   0.317997  -0.021271
     9  H   -0.019162  -0.021271   0.509690
          Atomic-Atomic Spin Densities.
               1          2          3          4          5          6
     1  N    0.468014  -0.079133  -0.021668   0.035247  -0.081860  -0.002203
     2  N   -0.079133   0.147649  -0.037519  -0.039755   0.036354   0.002879
     3  H   -0.021668  -0.037519   0.124997   0.003617  -0.003929  -0.000248
     4  N    0.035247  -0.039755   0.003617   0.331138  -0.138010  -0.005883
     5  N   -0.081860   0.036354  -0.003929  -0.138010   0.637814  -0.001552
     6  H   -0.002203   0.002879  -0.000248  -0.005883  -0.001552   0.005420
     7  H   -0.000831   0.000748  -0.000078  -0.006123   0.000741   0.003567
     8  H    0.000117   0.006187  -0.001646   0.004094  -0.003026   0.000108
     9  H    0.003850  -0.001302   0.000167   0.003834  -0.004483  -0.000981
               7          8          9
     1  N   -0.000831   0.000117   0.003850
     2  N    0.000748   0.006187  -0.001302
     3  H   -0.000078  -0.001646   0.000167
     4  N   -0.006123   0.004094   0.003834
     5  N    0.000741  -0.003026  -0.004483
     6  H    0.003567   0.000108  -0.000981
     7  H    0.002028   0.000038  -0.000790
     8  H    0.000038  -0.049434   0.000920
     9  H   -0.000790   0.000920  -0.010526
 Mulliken charges and spin densities:
               1          2
     1  N   -0.242926   0.321533
     2  N   -0.184642   0.036108
     3  H    0.215375   0.063692
     4  N   -0.362344   0.188160
     5  N   -0.417538   0.442050
     6  H    0.250142   0.001108
     7  H    0.237503  -0.000699
     8  H    0.290700  -0.042642
     9  H    0.213730  -0.009310
 Sum of Mulliken charges =  -0.00000   1.00000
 Mulliken charges and spin densities with hydrogens summed into heavy atoms:
               1          2
     1  N    0.047774   0.278891
     2  N    0.030734   0.099801
     4  N    0.125301   0.188568
     5  N   -0.203809   0.432740
 APT charges:
               1
     1  N    0.096095
     2  N   -0.046743
     3  H    0.059629
     4  N   -0.183189
     5  N    0.175269
     6  H    0.067229
     7  H    0.164645
     8  H   -0.471269
     9  H    0.138333
 Sum of APT charges =  -0.00000
 APT charges with hydrogens summed into heavy atoms:
               1
     1  N   -0.375174
     2  N    0.012886
     4  N    0.048685
     5  N    0.313602
 Electronic spatial extent (au):  <R**2>=            359.1142
 Charge=             -0.0000 electrons
 Dipole moment (field-independent basis, Debye):
    X=             -1.3964    Y=             -1.3492    Z=              1.2307  Tot=              2.2989
 Quadrupole moment (field-independent basis, Debye-Ang):
   XX=            -18.1877   YY=            -25.4558   ZZ=            -23.8671
   XY=             -0.3802   XZ=             -2.4648   YZ=              2.0731
 Traceless Quadrupole moment (field-independent basis, Debye-Ang):
   XX=              4.3158   YY=             -2.9522   ZZ=             -1.3636
   XY=             -0.3802   XZ=             -2.4648   YZ=              2.0731
 Octapole moment (field-independent basis, Debye-Ang**2):
  XXX=              1.1412  YYY=             -1.7597  ZZZ=              1.6299  XYY=             -5.4911
  XXY=            -14.2985  XXZ=              6.0756  XZZ=             -3.3285  YZZ=             -2.2157
  YYZ=              1.2523  XYZ=             -4.2320
 Hexadecapole moment (field-independent basis, Debye-Ang**3):
 XXXX=           -276.3574 YYYY=            -94.4806 ZZZZ=            -29.2569 XXXY=             -9.9299
 XXXZ=            -11.8093 YYYX=             -0.4332 YYYZ=              4.7665 ZZZX=             -3.3180
 ZZZY=              2.8670 XXYY=            -64.7731 XXZZ=            -53.6457 YYZZ=            -19.4895
 XXYZ=              1.7220 YYXZ=             -2.3728 ZZXY=              3.3121
 N-N= 1.185157155444D+02 E-N=-7.565734028583D+02  KE= 2.209729327403D+02
  Exact polarizability:  95.903  -3.003  39.083   1.630   0.694  25.217
 Approx polarizability:  70.119  -2.745  45.917   0.651   0.947  28.353
                          Isotropic Fermi Contact Couplings
        Atom                 a.u.       MegaHertz       Gauss      10(-4) cm-1
     1  N(14)              0.01719       5.55401       1.98181       1.85262
     2  N(14)              0.11748      37.95994      13.54505      12.66207
     3  H(1)               0.03361     150.22481      53.60394      50.10960
     4  N(14)              0.09541      30.82776      11.00011      10.28303
     5  N(14)              0.03746      12.10225       4.31838       4.03688
     6  H(1)               0.00106       4.74151       1.69189       1.58160
     7  H(1)               0.00087       3.88778       1.38726       1.29682
     8  H(1)              -0.02593    -115.90257     -41.35692     -38.66094
     9  H(1)              -0.00642     -28.67647     -10.23248      -9.56544
 --------------------------------------------------------
       Center         ----  Spin Dipole Couplings  ----
                      3XX-RR        3YY-RR        3ZZ-RR
 --------------------------------------------------------
     1   Atom        0.786584     -0.477780     -0.308804
     2   Atom        0.057314      0.029154     -0.086468
     3   Atom        0.008408      0.001625     -0.010033
     4   Atom        0.340829     -0.171353     -0.169476
     5   Atom        0.877679     -0.550105     -0.327574
     6   Atom       -0.009636     -0.000083      0.009719
     7   Atom        0.008164     -0.018623      0.010458
     8   Atom        0.168357     -0.080052     -0.088305
     9   Atom       -0.008790     -0.015874      0.024664
 --------------------------------------------------------
                        XY            XZ            YZ
 --------------------------------------------------------
     1   Atom        0.190415      0.385536      0.093058
     2   Atom        0.111029      0.134480      0.110623
     3   Atom       -0.012443     -0.000445      0.000661
     4   Atom       -0.237333      0.246062     -0.100504
     5   Atom       -0.301084      0.639853     -0.113357
     6   Atom        0.001465      0.007929      0.025998
     7   Atom        0.006713     -0.020055     -0.013916
     8   Atom       -0.009372      0.001260     -0.002669
     9   Atom       -0.025489     -0.009680      0.047183
 --------------------------------------------------------


 ---------------------------------------------------------------------------------
              Anisotropic Spin Dipole Couplings in Principal Axis System
 ---------------------------------------------------------------------------------

       Atom             a.u.   MegaHertz   Gauss  10(-4) cm-1        Axes

              Baa    -0.5195   -20.038    -7.150    -6.684 -0.0314  0.9343 -0.3552
     1 N(14)  Bbb    -0.4201   -16.204    -5.782    -5.405 -0.3340  0.3251  0.8847
              Bcc     0.9397    36.242    12.932    12.089  0.9421  0.1464  0.3018
 
              Baa    -0.1778    -6.856    -2.446    -2.287 -0.3789 -0.2699  0.8852
     2 N(14)  Bbb    -0.0685    -2.640    -0.942    -0.881 -0.6379  0.7692 -0.0385
              Bcc     0.2462     9.496     3.388     3.168  0.6705  0.5792  0.4636
 
              Baa    -0.0101    -5.380    -1.920    -1.794 -0.0486 -0.1077  0.9930
     3 H(1)   Bbb    -0.0079    -4.189    -1.495    -1.397  0.6057  0.7873  0.1150
              Bcc     0.0179     9.569     3.414     3.192  0.7942 -0.6071 -0.0270
 
              Baa    -0.2716   -10.473    -3.737    -3.494 -0.1341  0.5252  0.8403
     4 N(14)  Bbb    -0.2627   -10.132    -3.615    -3.380  0.4738  0.7787 -0.4111
              Bcc     0.5343    20.605     7.353     6.873  0.8703 -0.3431  0.3533
 
              Baa    -0.6215   -23.972    -8.554    -7.996  0.3818  0.7483 -0.5424
     5 N(14)  Bbb    -0.5911   -22.796    -8.134    -7.604 -0.1936  0.6386  0.7448
              Bcc     1.2126    46.767    16.688    15.600  0.9038 -0.1794  0.3887
 
              Baa    -0.0229   -12.214    -4.358    -4.074  0.3034  0.7077 -0.6380
     6 H(1)   Bbb    -0.0096    -5.105    -1.822    -1.703  0.9383 -0.3386  0.0706
              Bcc     0.0325    17.319     6.180     5.777  0.1660  0.6201  0.7668
 
              Baa    -0.0243   -12.955    -4.623    -4.321  0.0579  0.9147  0.3999
     7 H(1)   Bbb    -0.0093    -4.968    -1.773    -1.657  0.7669 -0.2972  0.5688
              Bcc     0.0336    17.923     6.395     5.978 -0.6391 -0.2737  0.7187
 
              Baa    -0.0891   -47.540   -16.964   -15.858  0.0058  0.2884  0.9575
     8 H(1)   Bbb    -0.0796   -42.479   -15.158   -14.170  0.0376  0.9568 -0.2884
              Bcc     0.1687    90.020    32.121    30.027  0.9993 -0.0377  0.0053
 
              Baa    -0.0533   -28.448   -10.151    -9.489  0.3692  0.8147 -0.4471
     9 H(1)   Bbb    -0.0095    -5.060    -1.806    -1.688  0.8783 -0.1486  0.4544
              Bcc     0.0628    33.508    11.956    11.177 -0.3037  0.5605  0.7705
 

 ---------------------------------------------------------------------------------

 No NMR shielding tensors so no spin-rotation constants.
 Leave Link  601 at Tue Jul 12 18:29:54 2022, MaxMem=   805306368 cpu:         1.8
 (Enter /Local/ce_dana/g09/l701.exe)
 Compute integral second derivatives.
 ... and contract with generalized density number  0.
 R6Disp: Adding Grimme-D2 dispersion energy 2nd derivatives to the Hessian.
 Entering OneElI...
 Calculate overlap and kinetic energy integrals
    NBasis = 174  MinDer = 2  MaxDer = 2
 Requested accuracy = 0.1000D-14
 PrsmSu:  NPrtUS=   8 ThrOK=T IAlg=1 NPAlg=1 LenDen=           0.
 Prism:   IPart=     0 DynPar=F LinDyn=F Incr=           2.
 PRISM was handed   100599323 working-precision words and  2070 shell-pairs
 PRISM was handed   100599323 working-precision words and  2070 shell-pairs
 PRISM was handed   100599323 working-precision words and  2070 shell-pairs
 PRISM was handed   100599323 working-precision words and  2070 shell-pairs
 PRISM was handed   100599323 working-precision words and  2070 shell-pairs
 PRISM was handed   100599323 working-precision words and  2070 shell-pairs
 PRISM was handed   100599323 working-precision words and  2070 shell-pairs
 PRISM was handed   100599323 working-precision words and  2070 shell-pairs
 IPart=  3 NShTot=         263 NBatch=          37 AvBLen=         7.1
 IPart=  0 NShTot=         278 NBatch=          47 AvBLen=         5.9
 IPart=  6 NShTot=         244 NBatch=          29 AvBLen=         8.4
 IPart=  1 NShTot=         275 NBatch=          45 AvBLen=         6.1
 IPart=  4 NShTot=         252 NBatch=          33 AvBLen=         7.6
 IPart=  2 NShTot=         265 NBatch=          38 AvBLen=         7.0
 IPart=  7 NShTot=         242 NBatch=          29 AvBLen=         8.3
 IPart=  5 NShTot=         251 NBatch=          32 AvBLen=         7.8
 PrSmSu:  NxtVal=             17.
 Entering OneElI...
 Calculate potential energy integrals
    NBasis = 174  MinDer = 2  MaxDer = 2
 Requested accuracy = 0.1000D-14
 PrsmSu:  NPrtUS=   8 ThrOK=T IAlg=1 NPAlg=1 LenDen=           0.
 Prism:   IPart=     0 DynPar=F LinDyn=F Incr=          22.
 PRISM was handed   100607216 working-precision words and  2020 shell-pairs
 PRISM was handed   100607216 working-precision words and  2020 shell-pairs
 PRISM was handed   100607216 working-precision words and  2020 shell-pairs
 PRISM was handed   100607216 working-precision words and  2020 shell-pairs
 PRISM was handed   100607216 working-precision words and  2020 shell-pairs
 PRISM was handed   100607216 working-precision words and  2020 shell-pairs
 PRISM was handed   100607216 working-precision words and  2020 shell-pairs
 PRISM was handed   100607216 working-precision words and  2020 shell-pairs
 IPart=  4 NShTot=        2223 NBatch=         247 AvBLen=         9.0
 IPart=  6 NShTot=        2160 NBatch=         240 AvBLen=         9.0
 IPart=  2 NShTot=        2313 NBatch=         257 AvBLen=         9.0
 IPart=  1 NShTot=        2421 NBatch=         269 AvBLen=         9.0
 IPart=  3 NShTot=        2277 NBatch=         253 AvBLen=         9.0
 IPart=  0 NShTot=        2475 NBatch=         275 AvBLen=         9.0
 IPart=  7 NShTot=        2115 NBatch=         235 AvBLen=         9.0
 IPart=  5 NShTot=        2196 NBatch=         244 AvBLen=         9.0
 PrSmSu:  NxtVal=            177.
   1 Symmetry operations used in ECPInt.
 ECPInt:  NShTT=    2080 NPrTT=    6208 LenC2=    2061 LenP2D=    5192.
 LDataN:  DoStor=F MaxTD1= 8 Len=  415
 LDataN:  DoStor=T MaxTD1= 8 Len=  415
 ECPSu:  NPrtUS=   8 ThrOK=T
 Polarizability after L701:
                1             2             3 
      1  0.959029D+02
      2 -0.300287D+01  0.390833D+02
      3  0.163026D+01  0.694339D+00  0.252167D+02
 Dipole Derivatives after L701:
                 1             2             3             4             5 
      1   0.580102D+00 -0.187667D+01 -0.140099D+00  0.336795D+00  0.169966D+01
      2  -0.782429D-01 -0.112917D+00  0.206718D-01 -0.114378D+00 -0.279803D+00
      3   0.379182D-01 -0.370174D-01 -0.178900D+00  0.479478D-01  0.327455D-01
                 6             7             8             9            10 
      1   0.270133D+00 -0.269233D+00 -0.950472D-01 -0.741282D-01 -0.783637D-02
      2  -0.546942D-01  0.176917D+00  0.227651D+00  0.300020D-01  0.968167D-01
      3  -0.197221D+00 -0.519596D-01 -0.244243D-02  0.220470D+00 -0.847725D-01
                11            12            13            14            15 
      1  -0.154083D+01  0.366455D+00  0.834005D+00  0.153289D+01 -0.477759D+00
      2  -0.367561D+00  0.187712D+00  0.219994D+00 -0.917642D-01  0.601933D-01
      3   0.469649D-01 -0.174168D+00 -0.557491D-01  0.421276D-01 -0.216432D+00
                16            17            18            19            20 
      1  -0.119707D+00  0.984354D-01  0.562768D-01  0.151392D+00 -0.377562D-02
      2  -0.106294D+00  0.181806D+00 -0.306193D-01 -0.114630D+00  0.150039D+00
      3  -0.130262D-01  0.575573D-02  0.139590D+00  0.114333D+00 -0.395054D-01
                21            22            23            24            25 
      1  -0.654388D-01 -0.173412D+01  0.207413D+00  0.944167D-01  0.228607D+00
      2  -0.407626D-01 -0.598054D-01  0.136733D+00 -0.578695D-01 -0.203775D-01
      3   0.192503D+00 -0.604609D-01 -0.675088D-02  0.183583D+00  0.657695D-01
                26            27 
      1  -0.220664D-01 -0.298568D-01
      2   0.155816D+00 -0.114634D+00
      3  -0.418775D-01  0.305759D-01
 Hessian after L701:
                1             2             3             4             5 
      1  0.956902D+01
      2  0.192895D+01  0.379501D+00
      3 -0.916016D+00 -0.149383D+01  0.170375D+02
      4 -0.111076D+02 -0.181853D+01  0.511759D+00  0.111598D+02
      5 -0.159748D+01  0.251235D+01  0.161222D+01  0.317887D+01  0.128987D+01
      6  0.536984D+00  0.159182D+01 -0.144226D+02 -0.823432D+00 -0.140927D+01
      7  0.475331D+00  0.438315D-01  0.757098D-01 -0.128655D+01 -0.113499D+01
      8  0.453653D-01 -0.252224D+00 -0.435981D-01 -0.110989D+01 -0.312024D+01
      9  0.705951D-01 -0.428899D-01  0.157280D+00  0.288008D+00 -0.167031D+00
     10  0.476055D+00  0.359286D+00  0.139957D-01  0.485436D+00 -0.786945D-01
     11  0.300890D+00 -0.234192D+00 -0.442213D-02 -0.428061D-01 -0.272427D+00
     12 -0.796248D-02  0.139869D-02 -0.282689D+00 -0.805710D-01 -0.999835D-02
     13  0.101223D+00 -0.522793D-02 -0.292551D-01  0.517821D+00 -0.448376D+00
     14  0.478082D-01 -0.118354D-01  0.192667D-02 -0.336103D+00 -0.234074D+00
     15 -0.354607D-01 -0.162801D-01 -0.741511D-01  0.994194D-01 -0.611358D-01
     16  0.356541D-01  0.234721D-01  0.130636D-01  0.613705D-01  0.199812D-01
     17  0.427796D-01  0.218635D-01  0.118337D-01  0.381558D-01 -0.305137D-01
     18  0.502876D-01  0.405250D-01 -0.252891D-02  0.599048D-01 -0.105428D-02
     19  0.280678D-01  0.222330D-01 -0.472243D-02  0.697844D-01 -0.494701D-02
     20  0.719232D-02 -0.233168D-02 -0.654952D-03  0.924539D-02 -0.217227D-01
     21 -0.258214D-01 -0.212048D-01 -0.496703D-02 -0.391606D-01  0.989044D-02
     22  0.289327D+00 -0.523266D+00  0.385521D+00  0.795043D-01  0.979952D-01
     23 -0.692125D+00 -0.236185D+01 -0.100889D+00  0.119907D+00 -0.140070D+00
     24  0.409289D+00 -0.649841D-01 -0.237258D+01  0.129045D-01 -0.553151D-02
     25  0.132967D+00 -0.307449D-01 -0.500553D-01  0.204930D-01 -0.323552D-01
     26 -0.833784D-01 -0.512834D-01  0.174064D-01 -0.388491D-01  0.168321D-01
     27 -0.818952D-01  0.544430D-02 -0.352151D-01 -0.288315D-01  0.319055D-01
                6             7             8             9            10 
      6  0.185432D+02
      7  0.285986D+00  0.669793D+00
      8 -0.166647D+00  0.114604D+01  0.337373D+01
      9 -0.347733D+01 -0.371794D+00  0.216935D+00  0.334004D+01
     10 -0.508408D-01  0.319119D-01 -0.745232D-02  0.224846D-02  0.121452D+02
     11  0.860331D-02 -0.125756D-01 -0.112155D-01 -0.132504D-02 -0.266218D+01
     12 -0.328893D+00  0.869140D-03  0.912634D-03 -0.143804D-01  0.136406D+01
     13  0.651784D-01  0.352622D-01 -0.776139D-02  0.228009D-02 -0.642744D+01
     14 -0.541140D-01 -0.446536D-02 -0.170001D-02  0.317591D-03  0.168436D+01
     15 -0.300314D+00  0.751499D-02 -0.861681D-03 -0.115601D-01 -0.943203D-01
     16  0.169777D-01  0.450201D-02 -0.144517D-02  0.898304D-03 -0.418177D+01
     17  0.629609D-02  0.572886D-02 -0.188000D-02  0.804175D-03  0.325492D+00
     18 -0.157652D-01  0.988283D-02 -0.197358D-02  0.832504D-03  0.408265D+00
     19 -0.246992D-01  0.698400D-02 -0.227582D-02  0.243753D-03 -0.262953D+01
     20 -0.168088D-02  0.157265D-02 -0.796285D-03  0.278563D-03  0.550950D+00
     21 -0.564217D-02 -0.663646D-02  0.156518D-02 -0.117005D-02 -0.161907D+01
     22  0.820703D-02  0.557559D-01 -0.583814D-01  0.737128D-02  0.749683D-01
     23  0.117387D-01 -0.370517D-01  0.121281D-01 -0.703653D-02 -0.931618D-01
     24  0.125523D-01  0.530472D-02 -0.847181D-02  0.816727D-02  0.279346D-01
     25 -0.143607D-01  0.700872D-02 -0.419942D-02  0.149355D-03  0.251164D-01
     26  0.132550D-01 -0.808525D-02  0.219568D-02 -0.528366D-04 -0.785910D-01
     27 -0.513550D-02 -0.683675D-02  0.213905D-02 -0.188075D-02 -0.522719D-01
               11            12            13            14            15 
     11  0.661346D+01
     12  0.521144D+00  0.113724D+02
     13  0.172021D+01 -0.120549D+00  0.892531D+01
     14  0.949673D+00 -0.162104D+01 -0.120385D+01  0.448377D+01
     15 -0.170794D+01 -0.652472D+01  0.480306D+00  0.220199D+00  0.109679D+02
     16  0.374166D+00  0.495022D+00  0.822961D-01 -0.243082D-01  0.365030D-01
     17 -0.309000D+01  0.168464D+01 -0.654588D-02 -0.209501D+00  0.685015D-01
     18  0.157333D+01 -0.190728D+01  0.527862D-01  0.145017D+00  0.204655D+00
     19  0.505394D+00 -0.162619D+01  0.573123D-01  0.353795D-01 -0.124366D+00
     20 -0.392143D+01 -0.561804D+00 -0.266390D-01 -0.874968D-02 -0.572407D-01
     21 -0.501357D+00 -0.237205D+01 -0.810640D-01 -0.923178D-01  0.191049D+00
     22 -0.111176D+00  0.119712D-01  0.657476D+00  0.270658D+00  0.197312D+00
     23 -0.912003D-01  0.235569D-01  0.394979D+00 -0.206943D+01  0.359767D-01
     24  0.328619D-01  0.149045D-01  0.108837D+00  0.954208D-02 -0.208493D+01
     25 -0.719221D-01 -0.366505D-01 -0.394926D+01 -0.469477D+00 -0.566908D+00
     26  0.573387D-01 -0.388064D-01 -0.416797D+00 -0.289815D+01  0.151878D+01
     27  0.791058D-01  0.427417D-01 -0.478519D+00  0.139047D+01 -0.236797D+01
               16            17            18            19            20 
     16  0.394491D+01
     17 -0.440562D+00  0.312656D+01
     18 -0.680865D+00 -0.176122D+01  0.190655D+01
     19  0.934058D-01  0.366713D-01  0.970906D-01  0.231929D+01
     20  0.387060D-01  0.113810D+00 -0.716589D-01 -0.574222D+00  0.393052D+01
     21  0.111934D+00 -0.762062D-01 -0.217902D+00  0.168843D+01  0.688275D+00
     22 -0.186939D-01  0.390501D-02  0.434574D-02  0.302382D-01  0.345937D-01
     23 -0.538435D-02 -0.324969D-02  0.126778D-02  0.281581D-01  0.368416D-02
     24 -0.317350D-02 -0.670367D-03  0.420851D-02 -0.146498D-01 -0.717027D-02
     25 -0.216703D-01 -0.562388D-02 -0.169823D-02  0.244491D-01 -0.413993D-01
     26  0.153753D-01  0.729151D-01  0.757642D-01 -0.463903D-01 -0.929834D-01
     27  0.963937D-02  0.660211D-01  0.272322D-01  0.886450D-02  0.116562D-01
               21            22            23            24            25 
     21  0.238102D+01
     22 -0.316717D-01 -0.109887D+01
     23 -0.154640D-01  0.242987D+00  0.460139D+01
     24 -0.553162D-02 -0.625346D+00  0.624345D-01  0.440024D+01
     25  0.306289D-02 -0.697109D-01  0.416916D-01  0.789003D-01  0.383061D+01
     26  0.681949D-02  0.426851D-01  0.485966D-01 -0.180105D-01  0.614031D+00
     27  0.351961D-01  0.422900D-01 -0.115851D-01  0.229679D-01  0.587561D+00
               26            27 
     26  0.284454D+01
     27 -0.157516D+01  0.228207D+01
 Leave Link  701 at Tue Jul 12 18:29:55 2022, MaxMem=   805306368 cpu:         3.4
 (Enter /Local/ce_dana/g09/l702.exe)
 L702 exits ... SP integral derivatives will be done elsewhere.
 Leave Link  702 at Tue Jul 12 18:29:55 2022, MaxMem=   805306368 cpu:         0.0
 (Enter /Local/ce_dana/g09/l703.exe)
 Compute integral second derivatives, UseDBF=F ICtDFT=           0.
 Integral derivatives from FoFJK, PRISM(SPDF).
 ICntrl=    100127.
 Calling FoFJK, ICntrl=    100127 FMM=F ISym2X=0 I1Cent= 0 IOpClX= 1 NMat=1 NMatS=1 NMatT=0.
 FoFJK:  IHMeth= 1 ICntrl=  100127 DoSepK=T KAlg= 0 I1Cent=   0 FoldK=F
 IRaf=         1 NMat=   1 IRICut=       1 DoRegI=T DoRafI=F ISym2E= 0.
 FoFCou: FMM=F IPFlag=           0 FMFlag=      100000 FMFlg1=         800
         NFxFlg=           0 DoJE=F BraDBF=F KetDBF=F FulRan=T
         wScrn=  0.000000 ICntrl=  100527 IOpCl=  0 I1Cent=           0 NGrid=           0
         NMat0=    1 NMatS0=      1 NMatT0=    0 NMatD0=    1 NMtDS0=    0 NMtDT0=    0
 Symmetry not used in FoFCou.
 FoFCou:  KetSym=F NOpSet=  1 NOpAb=1 NOp=  1.
 FoFCou:  CnvScl= 1.00D+00 Thresh= 1.00D-12 IAcrcy=      10.
 PrismS was handed   805107230 working-precision words and  2056 shell-pairs
 FoFCou: LinMIO=F DoNuc=F BraDBF=F KetDBF=F HaveP=T PDBF=F HaveZ=T HaveW=F
         NIJTC =      10 NIJTAt=       0 NIJTCD=       0 NIJTT =      10
         IJTBeg=       1 IJTEnd=      10 KLTBeg=       1 KLTEnd=      10
         IPTBeg=       1 IPTEnd=      10 IPTBCv=       1 IPTECv=      10
         IZTBeg=       1 IZTEnd=      10 IZTBCv=       1 IZTECv=      10
         IWTBeg=      11 IWTEnd=      10 IWTBCv=      11 IWTECv=      10
         INTBeg=       1 INTEnd=       0 IFTBCv=       1 IFTECv=      10
 NCel replicated for PrismC:     1
 CoulSu:  IncDef=  1024 NBBP=        2114596 NTPThr=   100 NPartT=    8 Incr=        1024 LDynOK=F.
 CoulSu:  NPrtUS=   8 ThrOK=T IAlg=1 NPAlg=1 LenDen=           0 LWGrdD=           0 DoCopy=F.
 Enter PrismC: JobTyp=22 DoJE=F Cont=F.
 Enter PrismC: JobTyp=22 DoJE=F Cont=F.
 Enter PrismC: JobTyp=22 DoJE=F Cont=F.
 PrismC was handed   100601090 working-precision words and  2056 shell-pairs
 PrismC:  IPart=     0 DynPar=T LinDyn=F Incr=        1024 UseFst=F UseS4=T IGathr=2.
 Enter PrismC: JobTyp=22 DoJE=F Cont=F.
 Enter PrismC: JobTyp=22 DoJE=F Cont=F.
 PrismC was handed   100601090 working-precision words and  2056 shell-pairs
 PrismC was handed   100601090 working-precision words and  2056 shell-pairs
 Enter PrismC: JobTyp=22 DoJE=F Cont=F.
 PrismC was handed   100601090 working-precision words and  2056 shell-pairs
 PrismC was handed   100601090 working-precision words and  2056 shell-pairs
 PrismC was handed   100601090 working-precision words and  2056 shell-pairs
 Enter PrismC: JobTyp=22 DoJE=F Cont=F.
 Enter PrismC: JobTyp=22 DoJE=F Cont=F.
 PrismC was handed   100601090 working-precision words and  2056 shell-pairs
 PrismC was handed   100601090 working-precision words and  2056 shell-pairs
 IPart=  6 NShTot=      215729 NShNF=      215729 NShFF=           0 NBatch=        6501 AvBLen=        33.2
 IPart=  4 NShTot=      235213 NShNF=      235213 NShFF=           0 NBatch=        7749 AvBLen=        30.4
 IPart=  1 NShTot=      228592 NShNF=      228592 NShFF=           0 NBatch=        7044 AvBLen=        32.5
 IPart=  2 NShTot=      232579 NShNF=      232579 NShFF=           0 NBatch=        7479 AvBLen=        31.1
 IPart=  5 NShTot=      226943 NShNF=      226943 NShFF=           0 NBatch=        7567 AvBLen=        30.0
 IPart=  3 NShTot=      228577 NShNF=      228577 NShFF=           0 NBatch=        7680 AvBLen=        29.8
 IPart=  0 NShTot=      231478 NShNF=      231478 NShFF=           0 NBatch=        7593 AvBLen=        30.5
 IPart=  7 NShTot=      213350 NShNF=      213350 NShFF=           0 NBatch=        7563 AvBLen=        28.2
 CoulSu:  NxtVal=        2259969.
 FoFCou: FMM=F IPFlag=           0 FMFlag=      100000 FMFlg1=         800
         NFxFlg=           0 DoJE=F BraDBF=F KetDBF=F FulRan=T
         wScrn=  0.000000 ICntrl=  100127 IOpCl=  1 I1Cent=           0 NGrid=           0
         NMat0=    1 NMatS0=      0 NMatT0=    1 NMatD0=    1 NMtDS0=    0 NMtDT0=    0
         CW=    0.222036    0.777964
         WU=    0.000000   12.500000
 Symmetry not used in FoFCou.
 FoFCou:  KetSym=F NOpSet=  1 NOpAb=1 NOp=  1.
 FoFCou:  CnvScl= 1.00D+00 Thresh= 1.00D-12 IAcrcy=      10.
 PrismS was handed   805105213 working-precision words and  2056 shell-pairs
 FoFCou: LinMIO=F DoNuc=F BraDBF=F KetDBF=F HaveP=T PDBF=F HaveZ=T HaveW=F
         NIJTC =      10 NIJTAt=       0 NIJTCD=       0 NIJTT =      10
         IJTBeg=       1 IJTEnd=      10 KLTBeg=       1 KLTEnd=      10
         IPTBeg=       1 IPTEnd=      10 IPTBCv=       1 IPTECv=      10
         IZTBeg=       1 IZTEnd=      10 IZTBCv=       1 IZTECv=      10
         IWTBeg=      11 IWTEnd=      10 IWTBCv=      11 IWTECv=      10
         INTBeg=       1 INTEnd=       0 IFTBCv=       1 IFTECv=      10
 NCel replicated for PrismC:     1
 CoulSu:  IncDef=  1024 NBBP=        2114596 NTPThr=   100 NPartT=    8 Incr=        1024 LDynOK=F.
 CoulSu:  NPrtUS=   8 ThrOK=T IAlg=1 NPAlg=1 LenDen=           0 LWGrdD=           0 DoCopy=F.
 Enter PrismC: JobTyp=22 DoJE=F Cont=F.
 Linear combination for Coulomb/exchange, wScrn=  0.000000
 CW=    0.222036    0.777964
 WU=    0.000000   12.500000
 PrismC:  IPart=     0 DynPar=T LinDyn=F Incr=        1024 UseFst=F UseS4=T IGathr=2.
 PrismC was handed   100600838 working-precision words and  2056 shell-pairs
 Enter PrismC: JobTyp=22 DoJE=F Cont=F.
 Enter PrismC: JobTyp=22 DoJE=F Cont=F.
 Enter PrismC: JobTyp=22 DoJE=F Cont=F.
 Linear combination for Coulomb/exchange, wScrn=  0.000000
 CW=    0.222036    0.777964
 WU=    0.000000   12.500000
 Linear combination for Coulomb/exchange, wScrn=  0.000000
 CW=    0.222036    0.777964
 WU=    0.000000   12.500000
 PrismC was handed   100600838 working-precision words and  2056 shell-pairs
 PrismC was handed   100600838 working-precision words and  2056 shell-pairs
 Enter PrismC: JobTyp=22 DoJE=F Cont=F.
 Linear combination for Coulomb/exchange, wScrn=  0.000000
 CW=    0.222036    0.777964
 WU=    0.000000   12.500000
 PrismC was handed   100600838 working-precision words and  2056 shell-pairs
 Enter PrismC: JobTyp=22 DoJE=F Cont=F.
 Linear combination for Coulomb/exchange, wScrn=  0.000000
 CW=    0.222036    0.777964
 WU=    0.000000   12.500000
 Enter PrismC: JobTyp=22 DoJE=F Cont=F.
 PrismC was handed   100600838 working-precision words and  2056 shell-pairs
 Linear combination for Coulomb/exchange, wScrn=  0.000000
 CW=    0.222036    0.777964
 WU=    0.000000   12.500000
 Linear combination for Coulomb/exchange, wScrn=  0.000000
 CW=    0.222036    0.777964
 WU=    0.000000   12.500000
 Enter PrismC: JobTyp=22 DoJE=F Cont=F.
 Linear combination for Coulomb/exchange, wScrn=  0.000000
 CW=    0.222036    0.777964
 WU=    0.000000   12.500000
 PrismC was handed   100600838 working-precision words and  2056 shell-pairs
 PrismC was handed   100600838 working-precision words and  2056 shell-pairs
 PrismC was handed   100600838 working-precision words and  2056 shell-pairs
 IPart=  2 NShTot=      228202 NShNF=      228202 NShFF=           0 NBatch=        8558 AvBLen=        26.7
 IPart=  0 NShTot=      221772 NShNF=      221772 NShFF=           0 NBatch=        8137 AvBLen=        27.3
 IPart=  5 NShTot=      221903 NShNF=      221903 NShFF=           0 NBatch=        8562 AvBLen=        25.9
 IPart=  6 NShTot=      237073 NShNF=      237073 NShFF=           0 NBatch=        9056 AvBLen=        26.2
 IPart=  4 NShTot=      233817 NShNF=      233817 NShFF=           0 NBatch=        8706 AvBLen=        26.9
 IPart=  3 NShTot=      225107 NShNF=      225107 NShFF=           0 NBatch=        8270 AvBLen=        27.2
 IPart=  7 NShTot=      221103 NShNF=      221103 NShFF=           0 NBatch=        8382 AvBLen=        26.4
 IPart=  1 NShTot=      224096 NShNF=      224096 NShFF=           0 NBatch=        8526 AvBLen=        26.3
 CoulSu:  NxtVal=        2259969.
 ReadGW:  IGet=0 IStart=           1 Next=           1 LGW=           0.
 Remaining memory in FofDFT      767.94 Mw
 CkSvGd:  ISavGI=        -1 IRadAn=       5 IRASav=       5 ISavGd=        -1.
 CalDSu:  NPrtUS=   8 ThrOK=T IAlg=1 NPAlg=2 DoDPD=T LenP=       15225 LenD1P=             0.
 IPart=  0 IRanGd=          0 ScrnBf=T ScrnGd=T RCrit=4.00D+00 DoMicB=T.
 IPart=  1        24731 of        26486 points in      22 batches and      107 microbatches, Max-NSigAt=       9 Max-NSgAt2=       9
 IPart=  6        24602 of        26536 points in      22 batches and      106 microbatches, Max-NSigAt=       9 Max-NSgAt2=       9
 IPart=  7        20581 of        22342 points in      25 batches and      162 microbatches, Max-NSigAt=       9 Max-NSgAt2=       9
 IPart=  0        23667 of        25558 points in      22 batches and      140 microbatches, Max-NSigAt=       9 Max-NSgAt2=       9
 IPart=  3        22947 of        24794 points in      22 batches and      146 microbatches, Max-NSigAt=       9 Max-NSgAt2=       9
 IPart=  4        25365 of        27546 points in      25 batches and      145 microbatches, Max-NSigAt=       9 Max-NSgAt2=       9
 IPart=  5        23160 of        24546 points in      21 batches and      128 microbatches, Max-NSigAt=       9 Max-NSgAt2=       9
 IPart=  2        21462 of        23522 points in      25 batches and      188 microbatches, Max-NSigAt=       9 Max-NSgAt2=       9
 Polarizability after L703:
                1             2             3 
      1  0.959029D+02
      2 -0.300287D+01  0.390833D+02
      3  0.163026D+01  0.694339D+00  0.252167D+02
 Dipole Derivatives after L703:
                 1             2             3             4             5 
      1   0.580102D+00 -0.187667D+01 -0.140099D+00  0.336795D+00  0.169966D+01
      2  -0.782429D-01 -0.112917D+00  0.206718D-01 -0.114378D+00 -0.279803D+00
      3   0.379182D-01 -0.370174D-01 -0.178900D+00  0.479478D-01  0.327455D-01
                 6             7             8             9            10 
      1   0.270133D+00 -0.269233D+00 -0.950472D-01 -0.741282D-01 -0.783637D-02
      2  -0.546942D-01  0.176917D+00  0.227651D+00  0.300020D-01  0.968167D-01
      3  -0.197221D+00 -0.519596D-01 -0.244243D-02  0.220470D+00 -0.847725D-01
                11            12            13            14            15 
      1  -0.154083D+01  0.366455D+00  0.834005D+00  0.153289D+01 -0.477759D+00
      2  -0.367561D+00  0.187712D+00  0.219994D+00 -0.917642D-01  0.601933D-01
      3   0.469649D-01 -0.174168D+00 -0.557491D-01  0.421276D-01 -0.216432D+00
                16            17            18            19            20 
      1  -0.119707D+00  0.984354D-01  0.562768D-01  0.151392D+00 -0.377562D-02
      2  -0.106294D+00  0.181806D+00 -0.306193D-01 -0.114630D+00  0.150039D+00
      3  -0.130262D-01  0.575573D-02  0.139590D+00  0.114333D+00 -0.395054D-01
                21            22            23            24            25 
      1  -0.654388D-01 -0.173412D+01  0.207413D+00  0.944167D-01  0.228607D+00
      2  -0.407626D-01 -0.598054D-01  0.136733D+00 -0.578695D-01 -0.203775D-01
      3   0.192503D+00 -0.604609D-01 -0.675088D-02  0.183583D+00  0.657695D-01
                26            27 
      1  -0.220664D-01 -0.298568D-01
      2   0.155816D+00 -0.114634D+00
      3  -0.418775D-01  0.305759D-01
 Hessian after L703:
                1             2             3             4             5 
      1  0.188480D+00
      2 -0.763299D-01  0.771568D+00
      3  0.185552D-01  0.628086D-01  0.358783D-01
      4 -0.105124D+00  0.915372D-01 -0.963739D-02  0.441205D+00
      5  0.490137D-01 -0.708462D+00 -0.680692D-01 -0.149535D+00  0.768175D+00
      6 -0.149602D-01 -0.621762D-01  0.581331D-02  0.609554D-01  0.553470D-01
      7 -0.546536D-02  0.288723D-01  0.560806D-02 -0.324799D+00  0.448624D-01
      8  0.656516D-01 -0.499622D-01  0.774476D-02  0.166877D-01 -0.269603D-01
      9  0.864594D-02  0.318009D-02 -0.147074D-01 -0.567975D-01  0.640835D-02
     10 -0.677207D-02  0.142474D-01  0.129600D-02 -0.790670D-03 -0.161226D-01
     11  0.313530D-01 -0.574747D-01 -0.518098D-03  0.802051D-02  0.485974D-01
     12 -0.709581D-02  0.125220D-01  0.214667D-02 -0.134624D-02 -0.122127D-01
     13 -0.124233D+00  0.653695D-01 -0.115688D-01 -0.369707D-02 -0.565271D-01
     14 -0.299734D-01  0.622983D-01  0.361354D-02 -0.430613D-02 -0.486015D-01
     15 -0.387649D-02 -0.995079D-02  0.555351D-02 -0.159372D-03  0.964573D-02
     16  0.524407D-02 -0.127586D-01 -0.644461D-03  0.118653D-02  0.108409D-01
     17 -0.260481D-02  0.511668D-02  0.522349D-04 -0.562087D-03 -0.436333D-02
     18 -0.478412D-03  0.201169D-02 -0.121233D-05  0.568281D-05 -0.166523D-02
     19 -0.343763D-03 -0.626283D-03  0.311651D-03  0.171068D-03  0.108680D-02
     20 -0.186275D-02  0.188796D-02 -0.787883D-03 -0.519831D-03 -0.800862D-03
     21  0.193525D-02 -0.518550D-02  0.124167D-03  0.124320D-02  0.387040D-02
     22  0.498657D-01 -0.109758D+00 -0.156568D-02 -0.830078D-02  0.116033D+00
     23 -0.344492D-01 -0.253060D-01 -0.433814D-02  0.384942D-01 -0.269317D-01
     24 -0.807933D-02  0.155441D-02 -0.359119D-01  0.658662D-02  0.146263D-02
     25 -0.165180D-02 -0.553803D-03 -0.235455D-02  0.148882D-03  0.347039D-03
     26 -0.798327D-03  0.334360D-03 -0.505846D-03  0.183008D-03 -0.653049D-03
     27  0.535393D-02 -0.476434D-02  0.110448D-02 -0.850342D-03  0.521297D-02
                6             7             8             9            10 
      6  0.375862D-01
      7 -0.539388D-01  0.325712D+00
      8  0.149023D-02 -0.760445D-01  0.782946D-01
      9 -0.282680D-01  0.501575D-01 -0.673520D-02  0.262598D-01
     10 -0.327929D-03  0.136462D-03  0.184076D-02 -0.101509D-02  0.302020D+00
     11  0.476686D-02 -0.262010D-02 -0.230770D-02 -0.480810D-03  0.201365D+00
     12 -0.131810D-02  0.121686D-02  0.159953D-03 -0.659409D-03 -0.205811D+00
     13 -0.341367D-02  0.813924D-04  0.860652D-02 -0.162598D-02 -0.633238D-01
     14 -0.600808D-02  0.111996D-02  0.410634D-02  0.137916D-03 -0.921630D-01
     15  0.211333D-02 -0.896066D-03  0.131449D-02 -0.132615D-02  0.382817D-01
     16  0.141050D-02 -0.252411D-03 -0.368170D-03 -0.348310D-04 -0.350732D-01
     17 -0.105230D-03  0.313423D-03  0.149774D-03 -0.514329D-04 -0.478787D-01
     18 -0.348713D-03  0.198848D-03  0.215439D-03  0.158737D-03 -0.325649D-01
     19  0.552624D-04 -0.343023D-03 -0.151387D-03 -0.193859D-03 -0.204401D+00
     20 -0.321096D-04  0.126615D-04  0.110098D-03  0.107465D-03 -0.471015D-01
     21  0.823243D-03 -0.164291D-03 -0.194267D-03 -0.200467D-03  0.195083D+00
     22  0.102070D-01  0.474334D-02 -0.155365D-01  0.587532D-03  0.903112D-02
     23  0.681928D-02  0.351886D-02 -0.333110D-02 -0.268484D-02 -0.236926D-01
     24 -0.172397D-01 -0.208785D-02 -0.344577D-02  0.190655D-01  0.628148D-02
     25  0.125157D-04  0.186918D-03 -0.686104D-03  0.276377D-03 -0.826754D-03
     26 -0.101758D-03 -0.351163D-04 -0.994027D-04  0.118455D-03  0.950493D-02
     27  0.838343D-03 -0.942320D-04 -0.549639D-03 -0.322674D-03 -0.122404D-02
               11            12            13            14            15 
     11  0.525417D+00
     12  0.137110D+00  0.700298D+00
     13 -0.368345D-02  0.382159D-01  0.154044D+00
     14 -0.282600D+00  0.418239D-01 -0.109835D-01  0.490214D+00
     15 -0.214714D-03 -0.980052D-01 -0.131228D+00  0.132840D+00  0.391367D+00
     16 -0.730289D-01 -0.600281D-01  0.417296D-02  0.351565D-02 -0.544340D-02
     17 -0.134199D+00 -0.156182D+00 -0.829980D-02 -0.332891D-01 -0.301653D-01
     18 -0.178437D+00 -0.351128D+00 -0.202477D-02  0.735668D-02  0.158665D-01
     19 -0.642290D-01  0.230363D+00 -0.474722D-02  0.416038D-02 -0.311030D-02
     20 -0.591667D-01  0.136820D-01 -0.314952D-01 -0.181266D-01  0.300360D-01
     21  0.215881D-01 -0.254277D+00  0.627552D-02  0.836664D-02 -0.185496D-02
     22 -0.859973D-01  0.141147D-01  0.100689D+00  0.740943D-01  0.663940D-02
     23 -0.364276D-02  0.290847D-02  0.169641D-02 -0.393655D-01 -0.502225D-02
     24 -0.169418D-02 -0.919538D-03 -0.598091D-02 -0.236216D-02 -0.246435D-01
     25 -0.111801D-01 -0.962996D-02 -0.629866D-01  0.545358D-01  0.997927D-01
     26 -0.346235D-01 -0.398118D-01  0.353166D-01 -0.134636D+00 -0.128483D+00
     27  0.178800D-01  0.386203D-02  0.111351D+00 -0.185768D+00 -0.289071D+00
               16            17            18            19            20 
     16  0.352004D-01
     17  0.549804D-01  0.170087D+00
     18  0.440226D-01  0.178451D+00  0.350663D+00
     19  0.290289D-02  0.270720D-02 -0.117667D-01  0.204903D+00
     20  0.165088D-01  0.481655D-02 -0.110418D-01  0.594531D-01  0.720045D-01
     21  0.217764D-01  0.751967D-02 -0.168265D-01 -0.215701D+00 -0.350073D-01
     22 -0.158112D-01  0.685452D-02  0.253021D-02  0.128227D-02  0.574946D-02
     23  0.773335D-04 -0.166219D-02 -0.447919D-03 -0.172513D-02 -0.277850D-02
     24 -0.155197D-02 -0.199039D-03  0.112920D-03  0.108912D-02  0.205777D-02
     25  0.242995D-02 -0.551021D-02  0.775063D-04  0.576289D-03 -0.744826D-03
     26  0.232528D-03 -0.665630D-02  0.355746D-02 -0.675744D-03  0.205359D-02
     27  0.493277D-03  0.680146D-03  0.150257D-02 -0.104721D-02  0.985811D-03
               21            22            23            24            25 
     21  0.269347D+00
     22 -0.786412D-02 -0.136876D+00
     23  0.100274D-03  0.530928D-02  0.101680D+00
     24 -0.250809D-03 -0.135899D-01  0.219556D-02  0.620124D-01
     25 -0.258414D-02 -0.462327D-02  0.107708D-01  0.173327D-01  0.667464D-01
     26 -0.105797D-02  0.325075D-02  0.133774D-02  0.430775D-03 -0.469786D-01
     27  0.311478D-02 -0.110591D-01  0.469574D-03 -0.222549D-02 -0.102923D+00
               26            27 
     26  0.172943D+00
     27  0.165853D+00  0.281196D+00
 Leave Link  703 at Tue Jul 12 18:30:56 2022, MaxMem=   805306368 cpu:       489.7
 (Enter /Local/ce_dana/g09/l716.exe)
 FrcOut:
 IF    =    51 IFX   =    78 IFXYZ =   105
 IFFX  =   132 IFFFX =   510 IFLen =    27
 IFFLen=   378 IFFFLn=     0 IEDerv=   510
 LEDerv=  1349 IFroze=  2172 ICStrt= 50020
 Dipole        =-5.49381624D-01-5.30818091D-01 4.84200956D-01
 DipoleDeriv   = 5.80102202D-01-7.82428646D-02 3.79182058D-02
                -1.87667352D+00-1.12916567D-01-3.70173676D-02
                -1.40099133D-01 2.06718392D-02-1.78899993D-01
                 3.36794980D-01-1.14378023D-01 4.79477946D-02
                 1.69965585D+00-2.79802701D-01 3.27454714D-02
                 2.70133224D-01-5.46942275D-02-1.97220778D-01
                -2.69233226D-01 1.76917235D-01-5.19595999D-02
                -9.50471791D-02 2.27651253D-01-2.44242747D-03
                -7.41282253D-02 3.00020490D-02 2.20469835D-01
                -7.83636945D-03 9.68167383D-02-8.47725396D-02
                -1.54083179D+00-3.67561402D-01 4.69648802D-02
                 3.66454771D-01 1.87712050D-01-1.74168350D-01
                 8.34004781D-01 2.19993571D-01-5.57490580D-02
                 1.53288992D+00-9.17641588D-02 4.21275586D-02
                -4.77758509D-01 6.01933451D-02-2.16432126D-01
                -1.19707277D-01-1.06293546D-01-1.30261783D-02
                 9.84354404D-02 1.81806058D-01 5.75573360D-03
                 5.62767894D-02-3.06192677D-02 1.39589609D-01
                 1.51392081D-01-1.14630168D-01 1.14332753D-01
                -3.77561661D-03 1.50038838D-01-3.95054321D-02
                -6.54387994D-02-4.07625634D-02 1.92502856D-01
                -1.73412410D+00-5.98054339D-02-6.04608822D-02
                 2.07413290D-01 1.36732569D-01-6.75087561D-03
                 9.44167158D-02-5.78694765D-02 1.83583077D-01
                 2.28606926D-01-2.03775090D-02 6.57695044D-02
                -2.20664069D-02 1.55816111D-01-4.18775410D-02
                -2.98568336D-02-1.14633749D-01 3.05758699D-02
 Polarizability= 9.59029275D+01-3.00286774D+00 3.90832534D+01
                 1.63025561D+00 6.94339030D-01 2.52166887D+01
 VibFq2-Diag1:  N=     27 IV=          10 MDV=   805253490 NE2=    29824203
 Full mass-weighted force constant matrix:
 Low frequencies ----2049.5874  -21.2643  -10.4601   -0.0010   -0.0007    0.0006
 Low frequencies ---    1.1514   78.2249  142.1346
 OrtVCM:  Ph=1 IPass= 1 DotMx1= 0.00D+00
 OrtVCM:  IS=    1 I=    1 IndO=    1 Dot= 1.00D+00 DotN= 1.00D+00 ElMax1= 4.79D-01 ElMax1N= 4.79D-01
 OrtVCM:  Ph=2 NNew=    0 IAdd=    2 IPass= 1 DotMx2= 0.00D+00
 OrtVCM:  IS=    1 I=    2 IndO=    2 Dot= 1.00D+00 DotN= 1.00D+00 ElMax1= 4.79D-01 ElMax1N= 4.79D-01
 OrtVCM:  Ph=2 NNew=    0 IAdd=    3 IPass= 1 DotMx2= 0.00D+00
 OrtVCM:  IS=    1 I=    3 IndO=    3 Dot= 1.00D+00 DotN= 1.00D+00 ElMax1= 4.79D-01 ElMax1N= 4.79D-01
 OrtVCM:  Ph=2 NNew=    0 IAdd=    4 IPass= 1 DotMx2= 3.82D-17
 OrtVCM:  IS=    1 I=    4 IndO=    4 Dot= 1.00D+00 DotN= 1.00D+00 ElMax1= 4.77D-01 ElMax1N= 4.77D-01
 OrtVCM:  Ph=2 NNew=    0 IAdd=    5 IPass= 1 DotMx2= 7.63D-17
 OrtVCM:  IS=    1 I=    5 IndO=    5 Dot= 1.00D+00 DotN= 1.00D+00 ElMax1= 5.02D-01 ElMax1N= 5.02D-01
 OrtVCM:  Ph=2 NNew=    0 IAdd=    6 IPass= 1 DotMx2= 3.50D-16
 OrtVCM:  IS=    1 I=    6 IndO=    6 Dot= 1.00D+00 DotN= 1.00D+00 ElMax1= 4.59D-01 ElMax1N= 4.59D-01
 OrtVCM:  Ph=1 IPass= 1 DotMx1= 5.02D-01
 OrtVCM:  Ph=1 IPass= 2 DotMx1= 1.99D-16
 OrtVCM:  IS=    1 I=    1 IndO=    7 Dot= 7.37D-01 DotN= 7.37D-01 ElMax1= 7.37D-01 ElMax1N= 7.37D-01
 OrtVCM:  Ph=2 NNew=    0 IAdd=    2 IPass= 1 DotMx2= 8.70D-02
 OrtVCM:  Ph=2 NNew=    0 IAdd=    2 IPass= 2 DotMx2= 3.04D-17
 OrtVCM:  IS=    1 I=    2 IndO=    8 Dot= 5.93D-01 DotN= 5.93D-01 ElMax1= 5.93D-01 ElMax1N= 5.93D-01
 OrtVCM:  Ph=2 NNew=    0 IAdd=    3 IPass= 1 DotMx2= 2.11D-02
 OrtVCM:  Ph=2 NNew=    0 IAdd=    3 IPass= 2 DotMx2= 4.99D-18
 OrtVCM:  IS=    1 I=    3 IndO=    9 Dot= 4.00D-01 DotN= 4.00D-01 ElMax1= 4.00D-01 ElMax1N= 4.00D-01
 OrtVCM:  Ph=2 NNew=    0 IAdd=    4 IPass= 1 DotMx2= 2.28D-01
 OrtVCM:  Ph=2 NNew=    0 IAdd=    4 IPass= 2 DotMx2= 6.79D-17
 OrtVCM:  IS=    1 I=    4 IndO=   10 Dot= 6.80D-01 DotN= 6.80D-01 ElMax1= 6.80D-01 ElMax1N= 6.80D-01
 OrtVCM:  Ph=2 NNew=    0 IAdd=    5 IPass= 1 DotMx2= 5.53D-01
 OrtVCM:  Ph=2 NNew=    0 IAdd=    5 IPass= 2 DotMx2= 6.94D-17
 OrtVCM:  IS=    1 I=    5 IndO=   11 Dot= 2.29D-01 DotN= 2.29D-01 ElMax1= 2.74D-01 ElMax1N= 2.74D-01
 OrtVCM:  Ph=2 NNew=    0 IAdd=    6 IPass= 1 DotMx2= 4.50D-01
 OrtVCM:  Ph=2 NNew=    0 IAdd=    6 IPass= 2 DotMx2= 9.02D-17
 OrtVCM:  IS=    1 I=    6 IndO=   12 Dot= 1.42D-01 DotN= 1.42D-01 ElMax1= 3.10D-01 ElMax1N= 3.10D-01
 OrtVCM:  Ph=2 NNew=    0 IAdd=    7 IPass= 1 DotMx2= 1.18D-01
 OrtVCM:  Ph=2 NNew=    0 IAdd=    7 IPass= 2 DotMx2= 4.80D-17
 OrtVCM:  IS=    1 I=    7 IndO=   13 Dot= 9.48D-01 DotN= 9.48D-01 ElMax1= 9.48D-01 ElMax1N= 9.48D-01
 OrtVCM:  Ph=2 NNew=    0 IAdd=    8 IPass= 1 DotMx2= 5.72D-01
 OrtVCM:  Ph=2 NNew=    0 IAdd=    8 IPass= 2 DotMx2= 3.30D-16
 OrtVCM:  IS=    1 I=    8 IndO=   14 Dot= 5.59D-01 DotN= 5.59D-01 ElMax1= 5.59D-01 ElMax1N= 5.59D-01
 OrtVCM:  Ph=2 NNew=    0 IAdd=    9 IPass= 1 DotMx2= 8.22D-01
 OrtVCM:  Ph=2 NNew=    0 IAdd=    9 IPass= 2 DotMx2= 9.71D-17
 OrtVCM:  IS=    1 I=    9 IndO=   15 Dot= 2.04D-01 DotN= 2.04D-01 ElMax1= 2.38D-01 ElMax1N= 2.38D-01
 OrtVCM:  Ph=2 NNew=    0 IAdd=   10 IPass= 1 DotMx2= 3.90D-01
 OrtVCM:  Ph=2 NNew=    0 IAdd=   10 IPass= 2 DotMx2= 2.05D-16
 OrtVCM:  IS=    1 I=   10 IndO=   16 Dot= 2.52D-01 DotN= 2.52D-01 ElMax1= 2.52D-01 ElMax1N= 2.52D-01
 OrtVCM:  Ph=2 NNew=    0 IAdd=   11 IPass= 1 DotMx2= 1.45D-01
 OrtVCM:  Ph=2 NNew=    0 IAdd=   11 IPass= 2 DotMx2= 4.16D-17
 OrtVCM:  IS=    1 I=   11 IndO=   17 Dot= 5.16D-01 DotN= 5.16D-01 ElMax1= 5.16D-01 ElMax1N= 5.16D-01
 OrtVCM:  Ph=2 NNew=    0 IAdd=   12 IPass= 1 DotMx2= 2.71D-01
 OrtVCM:  Ph=2 NNew=    0 IAdd=   12 IPass= 2 DotMx2= 7.29D-17
 OrtVCM:  IS=    1 I=   12 IndO=   18 Dot= 2.29D-01 DotN= 2.29D-01 ElMax1= 2.78D-01 ElMax1N= 2.78D-01
 OrtVCM:  Ph=2 NNew=    0 IAdd=   13 IPass= 1 DotMx2= 3.56D-01
 OrtVCM:  Ph=2 NNew=    0 IAdd=   13 IPass= 2 DotMx2= 2.12D-16
 OrtVCM:  IS=    1 I=   13 IndO=   19 Dot= 1.69D-01 DotN= 1.69D-01 ElMax1= 2.25D-01 ElMax1N= 2.25D-01
 OrtVCM:  Ph=2 NNew=    0 IAdd=   14 IPass= 1 DotMx2= 5.40D-01
 OrtVCM:  Ph=2 NNew=    0 IAdd=   14 IPass= 2 DotMx2= 1.39D-16
 OrtVCM:  IS=    1 I=   14 IndO=   20 Dot= 2.11D-01 DotN= 2.11D-01 ElMax1= 2.30D-01 ElMax1N= 2.30D-01
 OrtVCM:  Ph=2 NNew=    0 IAdd=   15 IPass= 1 DotMx2= 3.95D-01
 OrtVCM:  Ph=2 NNew=    0 IAdd=   15 IPass= 2 DotMx2= 4.16D-17
 OrtVCM:  IS=    1 I=   15 IndO=   21 Dot= 1.77D-01 DotN= 1.77D-01 ElMax1= 2.74D-01 ElMax1N= 2.74D-01
 OrtVCM:  Ph=2 NNew=    0 IAdd=   16 IPass= 1 DotMx2= 4.60D-01
 OrtVCM:  Ph=2 NNew=    0 IAdd=   16 IPass= 2 DotMx2= 1.94D-16
 OrtVCM:  IS=    1 I=   16 IndO=   22 Dot= 3.85D-01 DotN= 3.85D-01 ElMax1= 3.85D-01 ElMax1N= 3.85D-01
 OrtVCM:  Ph=2 NNew=    0 IAdd=   17 IPass= 1 DotMx2= 5.01D-01
 OrtVCM:  Ph=2 NNew=    0 IAdd=   17 IPass= 2 DotMx2= 1.11D-16
 OrtVCM:  IS=    1 I=   17 IndO=   23 Dot= 5.02D-01 DotN= 5.02D-01 ElMax1= 5.02D-01 ElMax1N= 5.02D-01
 OrtVCM:  Ph=2 NNew=    0 IAdd=   18 IPass= 1 DotMx2= 5.81D-01
 OrtVCM:  Ph=2 NNew=    0 IAdd=   18 IPass= 2 DotMx2= 1.67D-16
 OrtVCM:  IS=    1 I=   18 IndO=   24 Dot= 4.17D-01 DotN= 4.17D-01 ElMax1= 4.29D-01 ElMax1N= 4.29D-01
 OrtVCM:  Ph=2 NNew=    0 IAdd=   19 IPass= 1 DotMx2= 5.00D-01
 OrtVCM:  Ph=2 NNew=    0 IAdd=   19 IPass= 2 DotMx2= 1.25D-16
 OrtVCM:  IS=    1 I=   19 IndO=   25 Dot= 3.44D-01 DotN= 3.44D-01 ElMax1= 3.44D-01 ElMax1N= 3.44D-01
 OrtVCM:  Ph=2 NNew=    0 IAdd=   20 IPass= 1 DotMx2= 3.79D-01
 OrtVCM:  Ph=2 NNew=    0 IAdd=   20 IPass= 2 DotMx2= 9.02D-17
 OrtVCM:  IS=    1 I=   20 IndO=   26 Dot= 3.18D-01 DotN= 3.18D-01 ElMax1= 4.37D-01 ElMax1N= 4.37D-01
 OrtVCM:  Ph=2 NNew=    0 IAdd=   21 IPass= 1 DotMx2= 6.64D-01
 OrtVCM:  Ph=2 NNew=    0 IAdd=   21 IPass= 2 DotMx2= 8.47D-17
 OrtVCM:  IS=    1 I=   21 IndO=    0 Dot= 1.09D-31 DotN= 1.09D-31 ElMax1= 1.97D-16 ElMax1N= 1.97D-16
 SchOr2:  IPass= 1 Test2A= 1.00D-01 IOff=     0 NDo=    21 NNew=    20
 OrtVCM:  Ph=1 IPass= 1 DotMx1= 5.48D-01
 OrtVCM:  Ph=1 IPass= 2 DotMx1= 2.26D-16
 OrtVCM:  IS=    1 I=    1 IndO=   27 Dot= 3.82D-01 DotN= 3.82D-01 ElMax1= 3.82D-01 ElMax1N= 3.82D-01
 SchOr2:  IPass= 1 Test2A= 1.00D-01 IOff=    21 NDo=     1 NNew=     1
 VibFq2-Diag2:  N=     21 IV=          10 MDV=   805253490 NE2=    38345403
 ******    1 imaginary frequencies (negative Signs) ****** 
 Dipole derivatives wrt mode   1:  5.91030D+01  2.91159D+00  1.11505D+00
[...]
 
 Forces in standard orientation:
 -------------------------------------------------------------------
 Center     Atomic                   Forces (Hartrees/Bohr)
 Number     Number              X              Y              Z
 -------------------------------------------------------------------
      1        7          -0.000008608   -0.000000015    0.000008878
      2        7           0.000011189   -0.000011452   -0.000041815
      3        1           0.000010354    0.000013129    0.000004985
      4        7           0.000030582   -0.000001901    0.000095769
      5        7          -0.000015529   -0.000052637   -0.000039023
      6        1          -0.000028320    0.000007374   -0.000021156
      7        1          -0.000022075    0.000006863   -0.000039870
      8        1           0.000003198    0.000035721    0.000045724
      9        1           0.000019210    0.000002918   -0.000013491
 -------------------------------------------------------------------
 ***** Axes restored to original set *****
 Rotating derivatives, DoTrsp=F IDiff=-2 LEDeriv=   1348 LFDPrp=       0 LDFDPr=       0.
 -------------------------------------------------------------------
 Center     Atomic                   Forces (Hartrees/Bohr)
 Number     Number              X              Y              Z
 -------------------------------------------------------------------
      1        7          -0.000009609    0.000006943    0.000003521
      2        7           0.000043650   -0.000009044    0.000004210
      3        1          -0.000005306   -0.000005968   -0.000015512
      4        7          -0.000091706   -0.000041169   -0.000002370
      5        7           0.000042598    0.000001993    0.000052115
      6        1           0.000017484    0.000031567    0.000001333
      7        1           0.000036661    0.000027887   -0.000001532
      8        1          -0.000048658    0.000003118   -0.000031615
      9        1           0.000014886   -0.000015327   -0.000010150
 -------------------------------------------------------------------
 Cartesian Forces:  Max     0.000091706 RMS     0.000030106
 Z-matrix is all fixed cartesians, so copy forces.
 Force constants in Cartesian coordinates: 
                1             2             3             4             5 
      1  0.559928D-01
      2 -0.513114D-01  0.296156D+00
      3  0.134835D+00 -0.229609D+00  0.643777D+00
      4 -0.152289D-01  0.476505D-01 -0.134539D+00  0.518397D-01
      5  0.574224D-01 -0.210266D+00  0.252212D+00 -0.417896D-01  0.572778D+00
      6 -0.132996D+00  0.210100D+00 -0.582278D+00  0.137835D+00 -0.206006D+00
      7 -0.161584D-01  0.146420D-01  0.185549D-02 -0.202966D-01 -0.246249D-01
      8  0.784024D-02 -0.384840D-01  0.323949D-01 -0.184323D-01 -0.319927D+00
      9  0.540318D-03  0.689296D-01 -0.154926D-01 -0.735062D-02 -0.836564D-01
     10  0.275498D-02 -0.437754D-02  0.358720D-02 -0.130408D-02  0.132973D-02
     11  0.681392D-02 -0.274413D-01  0.257005D-01 -0.506469D-02  0.721225D-02
     12 -0.796991D-02  0.422612D-01 -0.374137D-01  0.793189D-02 -0.609481D-02
     13  0.544120D-02  0.864126D-02 -0.783134D-02  0.282733D-02 -0.328651D-02
     14  0.303195D-02 -0.114328D+00  0.131019D-02 -0.442259D-02  0.973148D-02
     15  0.141935D-01 -0.925881D-01  0.525057D-01 -0.131298D-01  0.158205D-01
     16  0.569783D-03 -0.238946D-02  0.307855D-02 -0.793855D-03  0.819438D-03
     17 -0.254127D-02  0.968321D-02 -0.105675D-01  0.235072D-02 -0.238371D-02
     18 -0.743667D-04 -0.718591D-03  0.106545D-03  0.380758D-03  0.325713D-04
     19 -0.660220D-03  0.325697D-02 -0.398069D-02  0.106479D-02 -0.184034D-04
     20  0.318894D-03  0.118465D-02 -0.159605D-02  0.299198D-03 -0.106976D-03
     21 -0.249063D-03 -0.256901D-02  0.114394D-02 -0.813068D-04 -0.276187D-03
     22 -0.329733D-01 -0.228293D-01  0.559298D-02 -0.195216D-01  0.125017D-01
     23 -0.196278D-01  0.839025D-01 -0.686133D-01  0.191349D-01 -0.566376D-01
     24 -0.714836D-02  0.605910D-02 -0.622814D-01  0.921063D-02  0.274509D-01
     25  0.262003D-03  0.671688D-02 -0.259756D-02  0.141322D-02 -0.235377D-02
     26 -0.194697D-02 -0.407483D-03 -0.123168D-02  0.273906D-03 -0.399972D-03
     27 -0.113068D-02 -0.186499D-02 -0.674812D-04 -0.257233D-03  0.517584D-03
                6             7             8             9            10 
      6  0.622350D+00
      7 -0.720403D-02  0.201904D-01
      8 -0.555885D-01  0.975139D-02  0.353311D+00
      9 -0.398037D-01  0.104567D-01  0.190817D-01  0.567649D-01
     10 -0.528236D-02 -0.714009D-03  0.870531D-03  0.112836D-03  0.757754D+00
     11 -0.317215D-01 -0.714379D-03  0.134836D-03  0.279617D-02 -0.163979D+00
     12  0.405804D-01 -0.668588D-03 -0.191221D-02 -0.225147D-02  0.408676D-01
     13  0.909586D-02 -0.964470D-03 -0.117075D-02  0.659414D-03 -0.101678D+00
     14 -0.340532D-01 -0.966934D-03 -0.286192D-02  0.640914D-02  0.212120D-01
     15 -0.627441D-01  0.250041D-03 -0.119063D-02  0.668798D-02  0.410335D-01
     16 -0.296347D-02  0.156760D-03  0.169128D-03  0.323580D-03 -0.370266D+00
     17  0.110283D-01 -0.379809D-05 -0.172811D-03 -0.451777D-03 -0.505737D-01
     18 -0.347949D-03 -0.882284D-04  0.173447D-03  0.721502D-04 -0.151762D+00
     19  0.376216D-02 -0.172167D-03 -0.863697D-04 -0.188959D-03 -0.287173D+00
     20  0.180923D-02 -0.227427D-03 -0.286591D-03 -0.291451D-03  0.188049D+00
     21 -0.764367D-03  0.631184D-04 -0.103335D-03  0.253658D-04  0.110604D+00
     22 -0.665644D-02  0.183283D-01  0.104544D-02 -0.407723D-02 -0.157753D-02
     23  0.103335D+00  0.205333D-02  0.787699D-02 -0.122292D-01  0.216621D-02
     24  0.236870D-01 -0.485489D-02  0.698600D-02 -0.572759D-02  0.601188D-02
     25  0.440936D-02 -0.369879D-03  0.127381D-04 -0.476070D-03  0.220337D-02
     26  0.109727D-02  0.907314D-04  0.409714D-03 -0.587847D-03  0.530303D-02
     27 -0.679069D-03  0.190356D-03  0.158664D-03 -0.274993D-03 -0.451723D-01
               11            12            13            14            15 
     11  0.148818D+00
     12  0.104420D+00  0.621163D+00
     13  0.297983D-01 -0.929600D-02  0.442447D+00
     14 -0.509755D-01  0.755599D-01 -0.145375D+00  0.159713D+00
     15 -0.804090D-02 -0.291276D+00  0.953600D-01 -0.937242D-01  0.433465D+00
     16 -0.156001D-01 -0.160374D+00  0.136516D-01 -0.257632D-02  0.132537D-02
     17 -0.104356D-01 -0.473473D-01  0.774837D-02  0.181045D-02  0.159942D-01
     18 -0.231657D-01 -0.139698D+00 -0.334363D-01  0.366714D-03 -0.287116D-01
     19  0.153380D+00  0.108474D+00  0.184692D-02  0.139711D-02  0.669789D-02
     20 -0.106758D+00 -0.986790D-01 -0.124514D-01  0.107589D-02  0.133973D-01
     21 -0.788272D-01 -0.123914D+00  0.283104D-01 -0.208093D-01 -0.276516D-01
     22  0.447761D-03  0.687840D-02 -0.252275D-01 -0.130841D-01 -0.161877D-01
     23  0.437351D-01 -0.695340D-01  0.438325D-02  0.603928D-01  0.108238D+00
     24 -0.659982D-02 -0.376887D-01 -0.548674D-02  0.376112D-01  0.151463D-02
     25 -0.508224D-02  0.141562D-01 -0.338345D+00  0.140784D+00 -0.129543D+00
     26 -0.428959D-02  0.132677D-02  0.111713D+00 -0.645580D-01  0.420936D-01
     27  0.154389D-01 -0.295020D-01 -0.773752D-01  0.273296D-01 -0.837907D-01
               16            17            18            19            20 
     16  0.373014D+00
     17  0.255087D-01  0.163969D-01
     18  0.169365D+00  0.215699D-01  0.166540D+00
     19 -0.179103D-01  0.168910D-01  0.161165D-01  0.299018D+00
     20 -0.916449D-02 -0.182420D-02  0.236891D-02 -0.166116D+00  0.107227D+00
     21 -0.140538D-01  0.107960D-01  0.106274D-01 -0.126528D+00  0.853595D-01
     22 -0.277531D-03  0.295633D-03 -0.954862D-03  0.556616D-03  0.394024D-03
     23  0.465201D-02 -0.160213D-01  0.123791D-02 -0.685188D-02 -0.130779D-02
     24  0.100568D-02 -0.507355D-02 -0.106165D-02 -0.250039D-02 -0.123239D-02
     25  0.185573D-02  0.324323D-03  0.453626D-03  0.342963D-02 -0.110173D-02
     26 -0.141893D-02  0.294698D-02 -0.186520D-02 -0.185300D-02  0.796040D-03
     27  0.229271D-02  0.405170D-02 -0.752649D-02 -0.185236D-02 -0.113597D-02
               21            22            23            24            25 
     21  0.140010D+00
     22  0.135884D-02  0.635396D-01
     23  0.728025D-02  0.394167D-02 -0.114364D+00
     24 -0.995852D-03  0.737023D-02 -0.709593D-01  0.776411D-01
     25  0.576252D-03 -0.284712D-02 -0.985168D-02 -0.360804D-02  0.332398D+00
     26 -0.850665D-03  0.172872D-01 -0.757629D-02  0.575784D-02 -0.129449D+00
     27  0.151899D-02  0.667582D-02  0.124453D-02  0.491239D-02  0.116629D+00
               26            27 
     26  0.730786D-01
     27 -0.457401D-01  0.115409D+00
 Final forces over variables, Energy=-2.21875896D+02:
 -9.60861176D-06 4.36498907D-05-5.30615939D-06-9.17058917D-05
  4.25978928D-05 1.74843298D-05 3.66606117D-05-4.86582375D-05
  1.48861755D-05 6.94284973D-06-9.04429944D-06-5.96837238D-06
 -4.11694391D-05 1.99348852D-06 3.15671887D-05 2.78871774D-05
  3.11810359D-06-1.53266971D-05 3.52066811D-06 4.21045808D-06
 -1.55124257D-05-2.36966437D-06 5.21153330D-05 1.33340630D-06
 -1.53209518D-06-3.16154755D-05-1.01502047D-05
 Leave Link  716 at Tue Jul 12 18:30:56 2022, MaxMem=   805306368 cpu:         0.1
 (Enter /Local/ce_dana/g09/l103.exe)

 GradGradGradGradGradGradGradGradGradGradGradGradGradGradGradGradGradGrad
 Berny optimization.
 Search for a local minimum.
 Step number   1 out of a maximum of    2
 All quantities printed in internal units (Hartrees-Bohrs-Radians)
 Second derivative matrix not updated -- analytic derivatives used.
 ITU=  0
     Eigenvalues ---   -0.22758   0.00104   0.00293   0.00435   0.01207
     Eigenvalues ---    0.02834   0.03479   0.05861   0.06308   0.09162
     Eigenvalues ---    0.11124   0.12477   0.14569   0.18549   0.29204
     Eigenvalues ---    0.46067   0.70447   0.77401   1.00122   1.08973
     Eigenvalues ---    1.55840
 Eigenvalue     1 is  -2.28D-01 should be greater than     0.000000 Eigenvector:
                          Y8        Z8        Y5        Z5        Y1
   1                    0.87595   0.26471  -0.22593  -0.14961  -0.13840
                          Y6        Y4        Z4        Z3        Z2
   1                    0.13173  -0.10778   0.09671   0.09332  -0.07906
 Angle between quadratic step and forces=  70.31 degrees.
 Linear search not attempted -- first point.
 TrRot= -0.000596 -0.000805  0.000082  0.010814 -0.000844 -0.011257
 Variable       Old X    -DE/DX   Delta X   Delta X   Delta X     New X
                                 (Linear)    (Quad)   (Total)
    X1        0.07307  -0.00001   0.00000  -0.01332  -0.01471   0.05836
    Y1        1.91756   0.00001   0.00000  -0.00215  -0.00300   1.91456
    Z1        1.95234   0.00000   0.00000   0.00198   0.00213   1.95447
    X2       -0.37659   0.00004   0.00000   0.01260   0.01333  -0.36326
    Y2        2.92159  -0.00001   0.00000  -0.00113  -0.00177   2.91981
    Z2       -0.04049   0.00000   0.00000  -0.00334  -0.00353  -0.04402
    X3       -0.30684  -0.00001   0.00000   0.01048   0.01194  -0.29490
    Y3        4.87630  -0.00001   0.00000  -0.00115  -0.00183   4.87447
    Z3        0.13402  -0.00002   0.00000  -0.00162  -0.00174   0.13228
    X4        0.35280  -0.00009   0.00000  -0.00657  -0.00648   0.34632
    Y4       -2.29651  -0.00004   0.00000   0.00044  -0.00050  -2.29700
    Z4       -2.02151  -0.00000   0.00000   0.00120   0.00155  -2.01995
    X5        0.06413   0.00004   0.00000   0.00410   0.00188   0.06601
    Y5       -2.63037   0.00000   0.00000  -0.00209  -0.00293  -2.63330
    Z5        0.53417   0.00005   0.00000   0.00163   0.00174   0.53591
    X6       -1.29048   0.00002   0.00000  -0.00674  -0.00595  -1.29642
    Y6       -2.47628   0.00003   0.00000  -0.01255  -0.01275  -2.48903
    Z6       -2.96239   0.00000   0.00000   0.00429   0.00325  -2.95913
    X7        1.80391   0.00004   0.00000   0.00229   0.00269   1.80660
    Y7       -3.20576   0.00003   0.00000   0.01976   0.01818  -3.18758
    Z7       -2.85390  -0.00000   0.00000  -0.00418  -0.00260  -2.85650
    X8       -0.03309  -0.00005   0.00000  -0.00835  -0.01039  -0.04348
    Y8       -0.38469   0.00000   0.00000  -0.00249  -0.00329  -0.38798
    Z8        1.50999  -0.00003   0.00000   0.00130   0.00135   1.51134
    X9        1.74118   0.00001   0.00000   0.01075   0.00768   1.74886
    Y9       -3.28550  -0.00002   0.00000   0.00949   0.00790  -3.27760
    Z9        1.21259  -0.00001   0.00000  -0.00367  -0.00215   1.21044
         Item               Value     Threshold  Converged?
 Maximum Force            0.000092     0.000450     YES
 RMS     Force            0.000030     0.000300     YES
 Maximum Displacement     0.018180     0.001800     NO 
 RMS     Displacement     0.007282     0.001200     NO 
 Predicted change in Energy=-1.020797D-06
 GradGradGradGradGradGradGradGradGradGradGradGradGradGradGradGradGradGrad

 Leave Link  103 at Tue Jul 12 18:30:56 2022, MaxMem=   805306368 cpu:         0.0
 (Enter /Local/ce_dana/g09/l9999.exe)

 Test job not archived.
 1\1\GINC-TECH-WN191\Freq\UwB97XD\def2TZVP\H5N4(2)\JOMAVE\12-Jul-2022\0
 \\#P guess=read uwb97xd/def2tzvp freq IOp(7/33=1) scf=(tight, direct) 
 integral=(grid=ultrafine, Acc2E=12) IOp(2/9=2000) scf=xqc\\TS3\\0,2\N,
 0.038668,1.014728,1.033134\N,-0.199284,1.546037,-0.021424\H,-0.162373,
 2.580426,0.070922\N,0.186694,-1.21526,-1.069735\N,0.033936,-1.391931,0
 .282669\H,-0.682891,-1.31039,-1.567627\H,0.954589,-1.696416,-1.51022\H
 ,-0.01751,-0.20357,0.799051\H,0.921394,-1.738612,0.641673\\Version=ES6
 4L-G09RevD.01\State=2-A\HF=-221.8758957\S2=0.761332\S2-1=0.\S2A=0.7500
 65\RMSD=5.435e-09\RMSF=3.011e-05\ZeroPoint=0.0659539\Thermal=0.0717576
 \Dipole=0.4768598,-0.2782235,-0.7164042\DipoleDeriv=-0.1440686,-0.3913
 936,-0.1046871,-0.0874419,1.0858432,0.3566703,0.1242085,-1.410981,-0.6
 53489,-0.2411349,0.3839872,0.0849114,0.0274644,-0.1910285,-0.0930792,-
 0.1326922,1.6882885,0.2919349,0.2300105,-0.038099,0.0000084,0.011475,-
 0.2485037,0.0114042,0.0108605,-0.2586576,0.197381,-0.163049,0.1253932,
 0.2099027,-0.143208,0.4199399,0.4146929,0.1331018,-1.266754,-0.806457,
 -0.162018,-0.4037186,-0.0933069,-0.0873296,0.1082119,0.3074583,-0.1342
 851,1.6492235,0.5796146,0.1311371,0.090225,0.0158541,-0.0005173,-0.074
 2561,-0.2002196,0.0014771,-0.0012243,0.1448074,0.1800116,-0.0480003,-0
 .0515881,0.1129884,0.1974957,-0.1154631,-0.0048075,0.0129983,0.1164266
 ,0.1543907,0.2977847,0.0479636,0.1176716,-1.539038,-0.6706587,0.011313
 4,-0.417238,-0.0291612,0.0147206,-0.0161785,-0.109058,0.0488974,0.2413
 356,-0.010805,-0.0091764,0.0043445,0.1589427\Polar=25.9006534,-5.88889
 06,90.7795093,0.4162103,15.9589161,43.5227069\PG=C01 [X(H5N4)]\NImag=1
 \\0.05599282,-0.05131135,0.29615628,0.13483453,-0.22960892,0.64377701,
 -0.01522892,0.04765053,-0.13453918,0.05183970,0.05742241,-0.21026586,0
 .25221187,-0.04178963,0.57277752,-0.13299596,0.21009969,-0.58227808,0.
 13783488,-0.20600602,0.62234985,-0.01615837,0.01464204,0.00185549,-0.0
 2029661,-0.02462495,-0.00720403,0.02019040,0.00784024,-0.03848403,0.03
 239487,-0.01843235,-0.31992716,-0.05558851,0.00975139,0.35331098,0.000
 54032,0.06892963,-0.01549257,-0.00735062,-0.08365639,-0.03980374,0.010
 45673,0.01908171,0.05676488,0.00275498,-0.00437754,0.00358720,-0.00130
 408,0.00132973,-0.00528236,-0.00071401,0.00087053,0.00011284,0.7577536
 3,0.00681392,-0.02744135,0.02570053,-0.00506469,0.00721225,-0.03172152
 ,-0.00071438,0.00013484,0.00279617,-0.16397896,0.14881797,-0.00796991,
 0.04226116,-0.03741368,0.00793189,-0.00609481,0.04058042,-0.00066859,-
 0.00191221,-0.00225147,0.04086763,0.10441952,0.62116309,0.00544120,0.0
 0864126,-0.00783134,0.00282733,-0.00328651,0.00909586,-0.00096447,-0.0
 0117075,0.00065941,-0.10167762,0.02979833,-0.00929600,0.44244739,0.003
 03195,-0.11432797,0.00131019,-0.00442259,0.00973148,-0.03405324,-0.000
 96693,-0.00286192,0.00640914,0.02121198,-0.05097546,0.07555989,-0.1453
 7510,0.15971272,0.01419350,-0.09258806,0.05250574,-0.01312983,0.015820
 49,-0.06274410,0.00025004,-0.00119063,0.00668798,0.04103349,-0.0080409
 0,-0.29127559,0.09535995,-0.09372419,0.43346526,0.00056978,-0.00238946
 ,0.00307855,-0.00079386,0.00081944,-0.00296347,0.00015676,0.00016913,0
 .00032358,-0.37026574,-0.01560008,-0.16037363,0.01365158,-0.00257632,0
 .00132537,0.37301361,-0.00254127,0.00968321,-0.01056755,0.00235072,-0.
 00238371,0.01102830,-0.00000380,-0.00017281,-0.00045178,-0.05057368,-0
 .01043559,-0.04734725,0.00774837,0.00181045,0.01599417,0.02550871,0.01
 639694,-0.00007437,-0.00071859,0.00010654,0.00038076,0.00003257,-0.000
 34795,-0.00008823,0.00017345,0.00007215,-0.15176213,-0.02316567,-0.139
 69844,-0.03343634,0.00036671,-0.02871160,0.16936501,0.02156991,0.16653
 999,-0.00066022,0.00325697,-0.00398069,0.00106479,-0.00001840,0.003762
 16,-0.00017217,-0.00008637,-0.00018896,-0.28717300,0.15338033,0.108474
 03,0.00184692,0.00139711,0.00669789,-0.01791034,0.01689099,0.01611653,
 0.29901777,0.00031889,0.00118465,-0.00159605,0.00029920,-0.00010698,0.
 00180923,-0.00022743,-0.00028659,-0.00029145,0.18804869,-0.10675812,-0
 .09867903,-0.01245141,0.00107589,0.01339727,-0.00916449,-0.00182420,0.
 00236891,-0.16611575,0.10722710,-0.00024906,-0.00256901,0.00114394,-0.
 00008131,-0.00027619,-0.00076437,0.00006312,-0.00010333,0.00002537,0.1
 1060379,-0.07882724,-0.12391362,0.02831038,-0.02080934,-0.02765164,-0.
 01405381,0.01079605,0.01062744,-0.12652819,0.08535948,0.14000974,-0.03
 297327,-0.02282932,0.00559298,-0.01952157,0.01250168,-0.00665644,0.018
 32834,0.00104544,-0.00407723,-0.00157753,0.00044776,0.00687840,-0.0252
 2753,-0.01308410,-0.01618774,-0.00027753,0.00029563,-0.00095486,0.0005
 5662,0.00039402,0.00135884,0.06353959,-0.01962782,0.08390254,-0.068613
 27,0.01913491,-0.05663756,0.10333480,0.00205333,0.00787699,-0.01222919
 ,0.00216621,0.04373505,-0.06953404,0.00438325,0.06039282,0.10823827,0.
 00465201,-0.01602126,0.00123791,-0.00685188,-0.00130779,0.00728025,0.0
 0394167,-0.11436448,-0.00714836,0.00605910,-0.06228141,0.00921063,0.02
 745089,0.02368704,-0.00485489,0.00698600,-0.00572759,0.00601188,-0.006
 59982,-0.03768869,-0.00548674,0.03761121,0.00151463,0.00100568,-0.0050
 7355,-0.00106165,-0.00250039,-0.00123239,-0.00099585,0.00737023,-0.070
 95928,0.07764115,0.00026200,0.00671688,-0.00259756,0.00141322,-0.00235
 377,0.00440936,-0.00036988,0.00001274,-0.00047607,0.00220337,-0.005082
 24,0.01415617,-0.33834480,0.14078401,-0.12954266,0.00185573,0.00032432
 ,0.00045363,0.00342963,-0.00110173,0.00057625,-0.00284712,-0.00985168,
 -0.00360804,0.33239785,-0.00194697,-0.00040748,-0.00123168,0.00027391,
 -0.00039997,0.00109727,0.00009073,0.00040971,-0.00058785,0.00530303,-0
 .00428959,0.00132677,0.11171255,-0.06455800,0.04209357,-0.00141893,0.0
 0294698,-0.00186520,-0.00185300,0.00079604,-0.00085066,0.01728722,-0.0
 0757629,0.00575784,-0.12944853,0.07307861,-0.00113068,-0.00186499,-0.0
 0006748,-0.00025723,0.00051758,-0.00067907,0.00019036,0.00015866,-0.00
 027499,-0.04517234,0.01543894,-0.02950201,-0.07737519,0.02732961,-0.08
 379067,0.00229271,0.00405170,-0.00752649,-0.00185236,-0.00113597,0.001
 51899,0.00667582,0.00124453,0.00491239,0.11662891,-0.04574008,0.115409
 34\\0.00000961,-0.00000694,-0.00000352,-0.00004365,0.00000904,-0.00000
 421,0.00000531,0.00000597,0.00001551,0.00009171,0.00004117,0.00000237,
 -0.00004260,-0.00000199,-0.00005212,-0.00001748,-0.00003157,-0.0000013
 3,-0.00003666,-0.00002789,0.00000153,0.00004866,-0.00000312,0.00003162
 ,-0.00001489,0.00001533,0.00001015\\\@


 GARLIC THEN HAVE POWER TO SAVE FROM DEATH
 BEAR WITH IT THOUGH IT MAKETH UNSAVORY BREATH,
 AND SCORN NOT GARLIC LIKE SOME THAT THINK
 IT ONLY MAKETH MEN WINK AND DRINK AND STINK.
   --  SIR JOHN HARRINGTON,
       "THE ENGLISHMAN'S DOCTOR", 1609
 Job cpu time:       0 days  0 hours 25 minutes 32.2 seconds.
 File lengths (MBytes):  RWF=     42 Int=      0 D2E=      0 Chk=      4 Scr=      1
 Normal termination of Gaussian 09 at Tue Jul 12 18:30:56 2022.
