 Entering Gaussian System, Link 0=/Local/ce_dana/g09/g09
 Initial command:
 /Local/ce_dana/g09/l1.exe "/storage/ce_dana/alongd/scratch/g09/Gau-38569.inp" -scrdir="/storage/ce_dana/alongd/scratch/g09/"
 Entering Link 1 = /Local/ce_dana/g09/l1.exe PID=     38570.
  
 Copyright (c) 1988,1990,1992,1993,1995,1998,2003,2009,2013,
            Gaussian, Inc.  All Rights Reserved.
  
 This is part of the Gaussian(R) 09 program.  It is based on
 the Gaussian(R) 03 system (copyright 2003, Gaussian, Inc.),
 the Gaussian(R) 98 system (copyright 1998, Gaussian, Inc.),
 the Gaussian(R) 94 system (copyright 1995, Gaussian, Inc.),
 the Gaussian 92(TM) system (copyright 1992, Gaussian, Inc.),
 the Gaussian 90(TM) system (copyright 1990, Gaussian, Inc.),
 the Gaussian 88(TM) system (copyright 1988, Gaussian, Inc.),
 the Gaussian 86(TM) system (copyright 1986, Carnegie Mellon
 University), and the Gaussian 82(TM) system (copyright 1983,
 Carnegie Mellon University). Gaussian is a federally registered
 trademark of Gaussian, Inc.
  
 This software contains proprietary and confidential information,
 including trade secrets, belonging to Gaussian, Inc.
  
 This software is provided under written license and may be
 used, copied, transmitted, or stored only in accord with that
 written license.
  
 The following legend is applicable only to US Government
 contracts under FAR:
  
                    RESTRICTED RIGHTS LEGEND
  
 Use, reproduction and disclosure by the US Government is
 subject to restrictions as set forth in subparagraphs (a)
 and (c) of the Commercial Computer Software - Restricted
 Rights clause in FAR 52.227-19.
  
 Gaussian, Inc.
 340 Quinnipiac St., Bldg. 40, Wallingford CT 06492
  
  
 ---------------------------------------------------------------
 Warning -- This program may not be used in any manner that
 competes with the business of Gaussian, Inc. or will provide
 assistance to any competitor of Gaussian, Inc.  The licensee
 of this program is prohibited from giving any competitor of
 Gaussian, Inc. access to this program.  By using this program,
 the user acknowledges that Gaussian, Inc. is engaged in the
 business of creating and licensing software in the field of
 computational chemistry and represents and warrants to the
 licensee that it is not a competitor of Gaussian, Inc. and that
 it will not use this program in any manner prohibited above.
 ---------------------------------------------------------------
  

 Cite this work as:
 Gaussian 09, Revision D.01,
 M. J. Frisch, G. W. Trucks, H. B. Schlegel, G. E. Scuseria, 
 M. A. Robb, J. R. Cheeseman, G. Scalmani, V. Barone, B. Mennucci, 
 G. A. Petersson, H. Nakatsuji, M. Caricato, X. Li, H. P. Hratchian, 
 A. F. Izmaylov, J. Bloino, G. Zheng, J. L. Sonnenberg, M. Hada, 
 M. Ehara, K. Toyota, R. Fukuda, J. Hasegawa, M. Ishida, T. Nakajima, 
 Y. Honda, O. Kitao, H. Nakai, T. Vreven, J. A. Montgomery, Jr., 
 J. E. Peralta, F. Ogliaro, M. Bearpark, J. J. Heyd, E. Brothers, 
 K. N. Kudin, V. N. Staroverov, T. Keith, R. Kobayashi, J. Normand, 
 K. Raghavachari, A. Rendell, J. C. Burant, S. S. Iyengar, J. Tomasi, 
 M. Cossi, N. Rega, J. M. Millam, M. Klene, J. E. Knox, J. B. Cross, 
 V. Bakken, C. Adamo, J. Jaramillo, R. Gomperts, R. E. Stratmann, 
 O. Yazyev, A. J. Austin, R. Cammi, C. Pomelli, J. W. Ochterski, 
 R. L. Martin, K. Morokuma, V. G. Zakrzewski, G. A. Voth, 
 P. Salvador, J. J. Dannenberg, S. Dapprich, A. D. Daniels, 
 O. Farkas, J. B. Foresman, J. V. Ortiz, J. Cioslowski, 
 and D. J. Fox, Gaussian, Inc., Wallingford CT, 2013.
 
 ******************************************
 Gaussian 09:  ES64L-G09RevD.01 24-Apr-2013
                22-May-2022 
 ******************************************
 %chk=check.chk
 %mem=7168mb
 %NProcShared=10
 Will use up to   10 processors via shared memory.
 ----------------------------------------------------------------------
 #P guess=read uhf/3-21g freq IOp(7/33=1) scf=(tight, direct) integral=
 (grid=ultrafine, Acc2E=12) IOp(2/9=2000) scf=xqc
 ----------------------------------------------------------------------
 1/10=4,30=1,38=1/1,3;
 2/9=2000,12=2,17=6,18=5,40=1/2;
 3/5=5,11=2,16=1,25=1,30=1,71=2,75=-5,116=2,140=1/1,2,3;
 4/5=1/1;
 5/5=2,8=3,13=1,32=2,38=6,87=12,98=1/2,8;
 8/6=4,10=90,11=11,87=12/1;
 10/13=10,15=4,87=12/2;
 11/6=3,8=1,9=11,15=111,16=1,87=12/1,2,10;
 10/6=1,87=12/2;
 6/7=2,8=2,9=2,10=2,18=1,28=1/1;
 7/8=1,10=1,25=1,33=1,87=12/1,2,3,16;
 1/10=4,30=1/3;
 99//99;
 Leave Link    1 at Sun May 22 09:31:48 2022, MaxMem=   939524096 cpu:         0.1
 (Enter /Local/ce_dana/g09/l101.exe)
 ---
 TS0
 ---
 Symbolic Z-matrix:
 Charge =  0 Multiplicity = 2
 C                     1.06984   0.74493  -1.14325 
 C                     0.07473  -0.29599  -0.71363 
 C                    -0.85156   0.00364   0.43913 
 H                     1.44278   0.72347  -2.1473 
 H                     1.13021   1.65811  -0.58519 
 H                     1.36783  -0.3404   -0.44646 
 H                    -0.22514  -1.01456  -1.4517 
 H                    -1.28956  -0.90278   0.84031 
 H                    -1.66065   0.65931   0.12291 
 H                    -0.32096   0.50338   1.2435 
 
 NAtoms=     10 NQM=       10 NQMF=       0 NMMI=      0 NMMIF=      0
                NMic=       0 NMicF=      0.
                    Isotopes and Nuclear Properties:
 (Nuclear quadrupole moments (NQMom) in fm**2, nuclear magnetic moments (NMagM)
  in nuclear magnetons)

  Atom         1           2           3           4           5           6           7           8           9          10
 IAtWgt=          12          12          12           1           1           1           1           1           1           1
 AtmWgt=  12.0000000  12.0000000  12.0000000   1.0078250   1.0078250   1.0078250   1.0078250   1.0078250   1.0078250   1.0078250
 NucSpn=           0           0           0           1           1           1           1           1           1           1
 AtZEff=   0.0000000   0.0000000   0.0000000   0.0000000   0.0000000   0.0000000   0.0000000   0.0000000   0.0000000   0.0000000
 NQMom=    0.0000000   0.0000000   0.0000000   0.0000000   0.0000000   0.0000000   0.0000000   0.0000000   0.0000000   0.0000000
 NMagM=    0.0000000   0.0000000   0.0000000   2.7928460   2.7928460   2.7928460   2.7928460   2.7928460   2.7928460   2.7928460
 AtZNuc=   6.0000000   6.0000000   6.0000000   1.0000000   1.0000000   1.0000000   1.0000000   1.0000000   1.0000000   1.0000000
 Leave Link  101 at Sun May 22 09:31:48 2022, MaxMem=   939524096 cpu:         0.2
 (Enter /Local/ce_dana/g09/l103.exe)

 GradGradGradGradGradGradGradGradGradGradGradGradGradGradGradGradGradGrad
 Berny optimization.
 Initialization pass.
 Trust Radius=3.00D-01 FncErr=1.00D-07 GrdErr=1.00D-07
 Number of steps in this run=      2 maximum allowed number of steps=      2.
 GradGradGradGradGradGradGradGradGradGradGradGradGradGradGradGradGradGrad

 Leave Link  103 at Sun May 22 09:31:48 2022, MaxMem=   939524096 cpu:         0.0
 (Enter /Local/ce_dana/g09/l202.exe)
                          Input orientation:                          
 ---------------------------------------------------------------------
 Center     Atomic      Atomic             Coordinates (Angstroms)
 Number     Number       Type             X           Y           Z
 ---------------------------------------------------------------------
      1          6           0        1.069836    0.744932   -1.143254
      2          6           0        0.074733   -0.295991   -0.713630
      3          6           0       -0.851562    0.003636    0.439126
      4          1           0        1.442781    0.723474   -2.147298
      5          1           0        1.130213    1.658108   -0.585190
      6          1           0        1.367829   -0.340403   -0.446464
      7          1           0       -0.225144   -1.014555   -1.451703
      8          1           0       -1.289561   -0.902781    0.840309
      9          1           0       -1.660651    0.659309    0.122912
     10          1           0       -0.320960    0.503380    1.243496
 ---------------------------------------------------------------------
                    Distance matrix (angstroms):
                    1          2          3          4          5
     1  C    0.000000
     2  C    1.502773   0.000000
     3  C    2.597155   1.508856   0.000000
     4  H    1.071286   2.228513   3.531539   0.000000
     5  H    1.071901   2.224643   2.777397   1.847003   0.000000
     6  H    1.323733   1.321154   2.414193   2.007558   2.017363
     7  H    2.206334   1.072852   2.237040   2.507304   3.119449
     8  H    3.495173   2.155045   1.083689   4.363049   3.800724
     9  H    3.010991   2.150339   1.088358   3.845681   3.047610
    10  H    2.772947   2.150793   1.085492   3.828408   2.604495
                    6          7          8          9         10
     6  H    0.000000
     7  H    2.000637   0.000000
     8  H    3.005624   2.529584   0.000000
     9  H    3.239646   2.709597   1.758548   0.000000
    10  H    2.533761   3.094738   1.754433   1.753509   0.000000
 Stoichiometry    C3H7(2)
 Framework group  C1[X(C3H7)]
 Deg. of freedom    24
 Full point group                 C1      NOp   1
 Largest Abelian subgroup         C1      NOp   1
 Largest concise Abelian subgroup C1      NOp   1
                         Standard orientation:                         
 ---------------------------------------------------------------------
 Center     Atomic      Atomic             Coordinates (Angstroms)
 Number     Number       Type             X           Y           Z
 ---------------------------------------------------------------------
      1          6           0       -1.317288   -0.260819   -0.032638
      2          6           0       -0.041482    0.531329    0.023478
      3          6           0        1.279070   -0.197050   -0.023973
      4          1           0       -2.209628    0.216415   -0.384249
      5          1           0       -1.256223   -1.330754   -0.054542
      6          1           0       -0.820483    0.291170    1.063155
      7          1           0       -0.088157    1.550626   -0.307983
      8          1           0        2.089909    0.431147    0.325727
      9          1           0        1.509031   -0.512144   -1.040023
     10          1           0        1.253746   -1.087218    0.596716
 ---------------------------------------------------------------------
 Rotational constants (GHZ):     37.1245643      8.5777127      7.5881046
 Leave Link  202 at Sun May 22 09:31:48 2022, MaxMem=   939524096 cpu:         0.0
 (Enter /Local/ce_dana/g09/l301.exe)
 Standard basis: 3-21G (6D, 7F)
 Ernie: Thresh=  0.10000D-02 Tol=  0.10000D-05 Strict=F.
 There are    41 symmetry adapted cartesian basis functions of A   symmetry.
 There are    41 symmetry adapted basis functions of A   symmetry.
    41 basis functions,    66 primitive gaussians,    41 cartesian basis functions
    13 alpha electrons       12 beta electrons
       nuclear repulsion energy        76.0975267631 Hartrees.
 IExCor=    0 DFT=F Ex=HF Corr=None ExCW=0 ScaHFX=  1.000000
 ScaDFX=  1.000000  1.000000  1.000000  1.000000 ScalE2=  1.000000  1.000000
 IRadAn=      5 IRanWt=     -1 IRanGd=            0 ICorTp=0 IEmpDi=  4
 NAtoms=   10 NActive=   10 NUniq=   10 SFac= 1.00D+00 NAtFMM=   60 NAOKFM=F Big=F
 Integral buffers will be    131072 words long.
 Raffenetti 2 integral format.
 Two-electron integral symmetry is turned on.
 Leave Link  301 at Sun May 22 09:31:48 2022, MaxMem=   939524096 cpu:         0.1
 (Enter /Local/ce_dana/g09/l302.exe)
 NPDir=0 NMtPBC=     1 NCelOv=     1 NCel=       1 NClECP=     1 NCelD=      1
         NCelK=      1 NCelE2=     1 NClLst=     1 CellRange=     0.0.
 One-electron integrals computed using PRISM.
 NBasis=    41 RedAO= T EigKep=  1.56D-02  NBF=    41
 NBsUse=    41 1.00D-06 EigRej= -1.00D+00 NBFU=    41
 Leave Link  302 at Sun May 22 09:31:48 2022, MaxMem=   939524096 cpu:         0.7
 (Enter /Local/ce_dana/g09/l303.exe)
 DipDrv:  MaxL=1.
 Leave Link  303 at Sun May 22 09:31:49 2022, MaxMem=   939524096 cpu:         0.1
 (Enter /Local/ce_dana/g09/l401.exe)
 Initial guess from the checkpoint file:  "check.chk"
 B after Tr=     0.000000    0.000000   -0.000000
         Rot=    1.000000    0.000000   -0.000000   -0.000000 Ang=   0.00 deg.
 Guess basis will be translated and rotated to current coordinates.
 JPrj=2 DoOrth=T DoCkMO=T.
 Initial guess <Sx>= 0.0000 <Sy>= 0.0000 <Sz>= 0.5000 <S**2>= 0.8059 S= 0.5276
 Leave Link  401 at Sun May 22 09:31:49 2022, MaxMem=   939524096 cpu:         0.2
 (Enter /Local/ce_dana/g09/l502.exe)
 UHF open shell SCF:
 Using DIIS extrapolation, IDIIS=  1040.
 Integral symmetry usage will be decided dynamically.
 Keep R1 and R2 ints in memory in canonical form, NReq=1569039.
 IVT=       11725 IEndB=       11725 NGot=   939524096 MDV=   938770190
 LenX=   938770190 LenY=   938768068
 Requested convergence on RMS density matrix=1.00D-08 within  64 cycles.
 Requested convergence on MAX density matrix=1.00D-06.
 Requested convergence on             energy=1.00D-06.
 No special actions if energy rises.
 FoFCou: FMM=F IPFlag=           0 FMFlag=           0 FMFlg1=           0
         NFxFlg=           0 DoJE=F BraDBF=F KetDBF=F FulRan=T
         wScrn=  0.000000 ICntrl=     600 IOpCl=  0 I1Cent=           0 NGrid=           0
         NMat0=    1 NMatS0=    861 NMatT0=    0 NMatD0=    1 NMtDS0=    0 NMtDT0=    0
 Symmetry not used in FoFCou.

 Cycle   1  Pass 1  IDiag  1:
 E= -116.887377316338    
 DIIS: error= 9.49D-08 at cycle   1 NSaved=   1.
 NSaved= 1 IEnMin= 1 EnMin= -116.887377316338     IErMin= 1 ErrMin= 9.49D-08
 ErrMax= 9.49D-08  0.00D+00 EMaxC= 1.00D-01 BMatC= 1.78D-12 BMatP= 1.78D-12
 IDIUse=1 WtCom= 1.00D+00 WtEn= 0.00D+00
 Coeff-Com:  0.100D+01
 Coeff:      0.100D+01
 Gap=     0.520 Goal=   None    Shift=    0.000
 Gap=     0.581 Goal=   None    Shift=    0.000
 RMSDP=1.88D-08 MaxDP=2.01D-07              OVMax= 2.32D-07

 Cycle   2  Pass 1  IDiag  1:
 E= -116.887377316338     Delta-E=        0.000000000000 Rises=F Damp=F
 DIIS: error= 4.14D-08 at cycle   2 NSaved=   2.
 NSaved= 2 IEnMin= 1 EnMin= -116.887377316338     IErMin= 2 ErrMin= 4.14D-08
 ErrMax= 4.14D-08  0.00D+00 EMaxC= 1.00D-01 BMatC= 1.34D-13 BMatP= 1.78D-12
 IDIUse=1 WtCom= 1.00D+00 WtEn= 0.00D+00
 Coeff-Com: -0.191D+00 0.119D+01
 Coeff:     -0.191D+00 0.119D+01
 Gap=     0.520 Goal=   None    Shift=    0.000
 Gap=     0.581 Goal=   None    Shift=    0.000
 RMSDP=1.03D-08 MaxDP=1.61D-07 DE= 3.98D-13 OVMax= 1.83D-07

 Cycle   3  Pass 1  IDiag  1:
 E= -116.887377316338     Delta-E=       -0.000000000000 Rises=F Damp=F
 DIIS: error= 2.91D-08 at cycle   3 NSaved=   3.
 NSaved= 3 IEnMin= 1 EnMin= -116.887377316338     IErMin= 3 ErrMin= 2.91D-08
 ErrMax= 2.91D-08  0.00D+00 EMaxC= 1.00D-01 BMatC= 2.45D-14 BMatP= 1.34D-13
 IDIUse=1 WtCom= 1.00D+00 WtEn= 0.00D+00
 Coeff-Com: -0.476D-01 0.244D-01 0.102D+01
 Coeff:     -0.476D-01 0.244D-01 0.102D+01
 Gap=     0.520 Goal=   None    Shift=    0.000
 Gap=     0.581 Goal=   None    Shift=    0.000
 RMSDP=6.65D-09 MaxDP=9.47D-08 DE=-1.42D-13 OVMax= 1.19D-07

 SCF Done:  E(UHF) =  -116.887377316     A.U. after    3 cycles
            NFock=  3  Conv=0.67D-08     -V/T= 2.0015
 <Sx>= 0.0000 <Sy>= 0.0000 <Sz>= 0.5000 <S**2>= 0.8059 S= 0.5276
 <L.S>=  0.00000000000    
 KE= 1.167128830347D+02 PE=-4.233674487243D+02 EE= 1.136696616101D+02
 Annihilation of the first spin contaminant:
 S**2 before annihilation     0.8059,   after     0.7507
 Leave Link  502 at Sun May 22 09:31:49 2022, MaxMem=   939524096 cpu:         0.7
 (Enter /Local/ce_dana/g09/l508.exe)
 QCSCF skips out because SCF is already converged.
 Leave Link  508 at Sun May 22 09:31:49 2022, MaxMem=   939524096 cpu:         0.0
 (Enter /Local/ce_dana/g09/l801.exe)
 Range of M.O.s used for correlation:     1    41
 NBasis=    41 NAE=    13 NBE=    12 NFC=     0 NFV=     0
 NROrb=     41 NOA=    13 NOB=    12 NVA=    28 NVB=    29
 Leave Link  801 at Sun May 22 09:31:49 2022, MaxMem=   939524096 cpu:         0.0
 (Enter /Local/ce_dana/g09/l1002.exe)
 Minotr:  UHF open shell wavefunction.
          Direct CPHF calculation.
          Differentiating once with respect to electric field.
                with respect to dipole field.
          Electric field/nuclear overlap derivatives assumed to be zero.
          Requested convergence is 1.0D-08 RMS, and 1.0D-07 maximum.
          Secondary convergence is 1.0D-12 RMS, and 1.0D-12 maximum.
          NewPWx=F KeepS1=T KeepF1=T KeepIn=T MapXYZ=F SortEE=F KeepMc=T.
          MDV=     939523930 using IRadAn=       1.
 Keep R1 and R2 ints in memory in canonical form, NReq=1562667.
 FoFCou: FMM=F IPFlag=           0 FMFlag=           0 FMFlg1=           0
         NFxFlg=           0 DoJE=F BraDBF=F KetDBF=F FulRan=T
         wScrn=  0.000000 ICntrl=     600 IOpCl=  0 I1Cent=           0 NGrid=           0
         NMat0=    1 NMatS0=    861 NMatT0=    0 NMatD0=    1 NMtDS0=    0 NMtDT0=    0
 Symmetry not used in FoFCou.
          Solving linear equations simultaneously, MaxMat=       0.
          There are     3 degrees of freedom in the 1st order CPHF.  IDoFFX=0 NUNeed=     3.
      3 vectors produced by pass  0 Test12= 2.37D-14 3.33D-08 XBig12= 1.68D+01 1.52D+00.
 AX will form     3 AO Fock derivatives at one time.
      3 vectors produced by pass  1 Test12= 2.37D-14 3.33D-08 XBig12= 5.82D-01 1.36D-01.
      3 vectors produced by pass  2 Test12= 2.37D-14 3.33D-08 XBig12= 8.78D-02 1.62D-01.
      3 vectors produced by pass  3 Test12= 2.37D-14 3.33D-08 XBig12= 5.22D-03 3.34D-02.
      3 vectors produced by pass  4 Test12= 2.37D-14 3.33D-08 XBig12= 1.51D-04 4.07D-03.
      3 vectors produced by pass  5 Test12= 2.37D-14 3.33D-08 XBig12= 7.05D-06 9.57D-04.
      3 vectors produced by pass  6 Test12= 2.37D-14 3.33D-08 XBig12= 1.44D-07 6.54D-05.
      3 vectors produced by pass  7 Test12= 2.37D-14 3.33D-08 XBig12= 3.03D-09 1.40D-05.
      3 vectors produced by pass  8 Test12= 2.37D-14 3.33D-08 XBig12= 7.33D-11 1.89D-06.
      3 vectors produced by pass  9 Test12= 2.37D-14 3.33D-08 XBig12= 1.27D-12 1.68D-07.
      1 vectors produced by pass 10 Test12= 2.37D-14 3.33D-08 XBig12= 2.63D-14 2.86D-08.
 InvSVY:  IOpt=1 It=  1 EMax= 2.22D-15
 Solved reduced A of dimension    31 with     3 vectors.
 End of Minotr F.D. properties file   721 does not exist.
 End of Minotr F.D. properties file   722 does not exist.
 End of Minotr F.D. properties file   788 does not exist.
 Leave Link 1002 at Sun May 22 09:31:49 2022, MaxMem=   939524096 cpu:         0.9
 (Enter /Local/ce_dana/g09/l1101.exe)
 Using compressed storage, NAtomX=    10.
 Will process     11 centers per pass.
 Leave Link 1101 at Sun May 22 09:31:49 2022, MaxMem=   939524096 cpu:         2.2
 (Enter /Local/ce_dana/g09/l1102.exe)
 Symmetrizing basis deriv contribution to polar:
 IMax=3 JMax=2 DiffMx= 0.00D+00
 Leave Link 1102 at Sun May 22 09:31:49 2022, MaxMem=   939524096 cpu:         0.1
 (Enter /Local/ce_dana/g09/l1110.exe)
 Forming Gx(P) for the SCF density, NAtomX=    10.
 Integral derivatives from FoFJK, PRISM(SPDF).
 Do as many integral derivatives as possible in FoFJK.
 G2DrvN: MDV=     939523912.
 G2DrvN: will do    11 centers at a time, making    1 passes.
 PxScal for G2LodP:  IOpCl= 1 ISclPx=1 IMOff=     1 NMtTot=     4 NTT=     861 ScalPx= 3.74D+00
 Calling FoFCou, ICntrl=  3107 FMM=F I1Cent=   0 AccDes= 1.00D-12.
 FoFJK:  IHMeth= 1 ICntrl=    3107 DoSepK=F KAlg= 0 I1Cent=   0 FoldK=F
 IRaf=         0 NMat=   1 IRICut=       1 DoRegI=T DoRafI=F ISym2E= 0.
 FoFCou: FMM=F IPFlag=           0 FMFlag=      100000 FMFlg1=           0
         NFxFlg=           0 DoJE=F BraDBF=F KetDBF=F FulRan=T
         wScrn=  0.000000 ICntrl=    3107 IOpCl=  1 I1Cent=           0 NGrid=           0
         NMat0=    1 NMatS0=      1 NMatT0=    0 NMatD0=    4 NMtDS0=    3 NMtDT0=    0
 Symmetry not used in FoFCou.
 End of G2Drv F.D. properties file   721 does not exist.
 End of G2Drv F.D. properties file   722 does not exist.
 End of G2Drv F.D. properties file   788 does not exist.
 Leave Link 1110 at Sun May 22 09:31:50 2022, MaxMem=   939524096 cpu:         1.2
 (Enter /Local/ce_dana/g09/l1002.exe)
 Minotr:  UHF open shell wavefunction.
          IDoAtm=1111111111
          Direct CPHF calculation.
          Differentiating once with respect to electric field.
                with respect to dipole field.
          Differentiating once with respect to nuclear coordinates.
          Requested convergence is 1.0D-08 RMS, and 1.0D-07 maximum.
          Secondary convergence is 1.0D-12 RMS, and 1.0D-12 maximum.
          NewPWx=T KeepS1=F KeepF1=F KeepIn=T MapXYZ=F SortEE=F KeepMc=T.
          MDV=     939523910 using IRadAn=       1.
 Keep R1 and R2 ints in memory in canonical form, NReq=1562897.
 FoFCou: FMM=F IPFlag=           0 FMFlag=           0 FMFlg1=           0
         NFxFlg=           0 DoJE=F BraDBF=F KetDBF=F FulRan=T
         wScrn=  0.000000 ICntrl=     600 IOpCl=  0 I1Cent=           0 NGrid=           0
         NMat0=    1 NMatS0=    861 NMatT0=    0 NMatD0=    1 NMtDS0=    0 NMtDT0=    0
 Symmetry not used in FoFCou.
          Solving linear equations simultaneously, MaxMat=       0.
          There are    33 degrees of freedom in the 1st order CPHF.  IDoFFX=5 NUNeed=    33.
 Will reuse    3 saved solutions.
     27 vectors produced by pass  0 Test12= 2.16D-15 3.03D-09 XBig12= 8.00D-02 1.15D-01.
 AX will form    27 AO Fock derivatives at one time.
     27 vectors produced by pass  1 Test12= 2.16D-15 3.03D-09 XBig12= 3.06D-03 1.76D-02.
     27 vectors produced by pass  2 Test12= 2.16D-15 3.03D-09 XBig12= 4.30D-05 2.14D-03.
     27 vectors produced by pass  3 Test12= 2.16D-15 3.03D-09 XBig12= 1.08D-06 2.25D-04.
     27 vectors produced by pass  4 Test12= 2.16D-15 3.03D-09 XBig12= 1.80D-08 2.11D-05.
     27 vectors produced by pass  5 Test12= 2.16D-15 3.03D-09 XBig12= 1.47D-10 1.95D-06.
     27 vectors produced by pass  6 Test12= 2.16D-15 3.03D-09 XBig12= 1.37D-12 1.61D-07.
      9 vectors produced by pass  7 Test12= 2.16D-15 3.03D-09 XBig12= 1.03D-14 1.41D-08.
 InvSVY:  IOpt=1 It=  1 EMax= 2.44D-15
 Solved reduced A of dimension   198 with    27 vectors.
 FullF1:  Do perturbations    1 to     3.
 Isotropic polarizability for W=    0.000000       30.14 Bohr**3.
 FullF1:  Do perturbations    1 to     6.
 End of Minotr F.D. properties file   721 does not exist.
 End of Minotr F.D. properties file   722 does not exist.
 End of Minotr F.D. properties file   788 does not exist.
 Leave Link 1002 at Sun May 22 09:31:50 2022, MaxMem=   939524096 cpu:         1.8
 (Enter /Local/ce_dana/g09/l601.exe)
 Copying SCF densities to generalized density rwf, IOpCl= 1 IROHF=0.

 **********************************************************************

            Population analysis using the SCF density.

 **********************************************************************

 Orbital symmetries:
 Alpha Orbitals:
       Occupied  (A) (A) (A) (A) (A) (A) (A) (A) (A) (A) (A) (A)
                 (A)
       Virtual   (A) (A) (A) (A) (A) (A) (A) (A) (A) (A) (A) (A)
                 (A) (A) (A) (A) (A) (A) (A) (A) (A) (A) (A) (A)
                 (A) (A) (A) (A)
 Beta  Orbitals:
       Occupied  (A) (A) (A) (A) (A) (A) (A) (A) (A) (A) (A) (A)
       Virtual   (A) (A) (A) (A) (A) (A) (A) (A) (A) (A) (A) (A)
                 (A) (A) (A) (A) (A) (A) (A) (A) (A) (A) (A) (A)
                 (A) (A) (A) (A) (A)
 The electronic state is 2-A.
 Alpha  occ. eigenvalues --  -11.17893 -11.16801 -11.15721  -1.08899  -0.94609
 Alpha  occ. eigenvalues --   -0.79124  -0.65039  -0.61020  -0.57415  -0.53476
 Alpha  occ. eigenvalues --   -0.50528  -0.45993  -0.26145
 Alpha virt. eigenvalues --    0.25853   0.29467   0.31698   0.32111   0.35821
 Alpha virt. eigenvalues --    0.36026   0.36523   0.45764   0.49257   0.87149
 Alpha virt. eigenvalues --    0.93166   0.94783   0.98702   0.99680   1.04128
 Alpha virt. eigenvalues --    1.10290   1.13851   1.26703   1.28197   1.33596
 Alpha virt. eigenvalues --    1.34737   1.37933   1.39583   1.42061   1.53931
 Alpha virt. eigenvalues --    1.88621   1.93147   2.26473
  Beta  occ. eigenvalues --  -11.16278 -11.15903 -11.15271  -1.04683  -0.92600
  Beta  occ. eigenvalues --   -0.74174  -0.63001  -0.58482  -0.55970  -0.52454
  Beta  occ. eigenvalues --   -0.49631  -0.40415
  Beta virt. eigenvalues --    0.17713   0.27330   0.30272   0.32371   0.33285
  Beta virt. eigenvalues --    0.36153   0.37141   0.38268   0.47942   0.50854
  Beta virt. eigenvalues --    0.87388   0.93981   0.95778   1.00242   1.05357
  Beta virt. eigenvalues --    1.09594   1.11539   1.15814   1.26540   1.29032
  Beta virt. eigenvalues --    1.34573   1.35539   1.38081   1.40305   1.42537
  Beta virt. eigenvalues --    1.54879   1.90304   1.95646   2.27450
          Condensed to atoms (all electrons):
               1          2          3          4          5          6
     1  C    5.769875   0.072408  -0.066848   0.374288   0.376537   0.062620
     2  C    0.072408   5.857310   0.234130  -0.036774  -0.039073   0.089390
     3  C   -0.066848   0.234130   5.316861   0.001983  -0.000665  -0.008820
     4  H    0.374288  -0.036774   0.001983   0.453588  -0.014475  -0.001885
     5  H    0.376537  -0.039073  -0.000665  -0.014475   0.454434  -0.001315
     6  H    0.062620   0.089390  -0.008820  -0.001885  -0.001315   0.596545
     7  H   -0.031853   0.382351  -0.025984  -0.001444   0.001455  -0.001461
     8  H    0.003288  -0.043870   0.380231  -0.000038  -0.000022  -0.001888
     9  H   -0.001167  -0.054215   0.373331   0.000020   0.000796   0.001707
    10  H    0.002895  -0.050197   0.382638  -0.000015   0.000700  -0.000813
               7          8          9         10
     1  C   -0.031853   0.003288  -0.001167   0.002895
     2  C    0.382351  -0.043870  -0.054215  -0.050197
     3  C   -0.025984   0.380231   0.373331   0.382638
     4  H   -0.001444  -0.000038   0.000020  -0.000015
     5  H    0.001455  -0.000022   0.000796   0.000700
     6  H   -0.001461  -0.001888   0.001707  -0.000813
     7  H    0.448616  -0.001729  -0.000607   0.002113
     8  H   -0.001729   0.508772  -0.028066  -0.024517
     9  H   -0.000607  -0.028066   0.528287  -0.029140
    10  H    0.002113  -0.024517  -0.029140   0.513711
          Atomic-Atomic Spin Densities.
               1          2          3          4          5          6
     1  C    1.102043  -0.359961   0.010716  -0.020883  -0.021646   0.023918
     2  C   -0.359961   1.153716  -0.052621   0.005417   0.006326   0.037565
     3  C    0.010716  -0.052621  -0.092224  -0.000417  -0.000111  -0.000188
     4  H   -0.020883   0.005417  -0.000417  -0.040659   0.002438  -0.000110
     5  H   -0.021646   0.006326  -0.000111   0.002438  -0.042402  -0.000257
     6  H    0.023918   0.037565  -0.000188  -0.000110  -0.000257  -0.335258
     7  H    0.007682  -0.022176   0.003417  -0.000487  -0.000484  -0.001792
     8  H    0.000085  -0.004371   0.006636   0.000001  -0.000016   0.000812
     9  H    0.001595  -0.017297   0.002432   0.000079   0.000508  -0.000309
    10  H    0.003075  -0.009264   0.009240  -0.000036  -0.000778  -0.000619
               7          8          9         10
     1  C    0.007682   0.000085   0.001595   0.003075
     2  C   -0.022176  -0.004371  -0.017297  -0.009264
     3  C    0.003417   0.006636   0.002432   0.009240
     4  H   -0.000487   0.000001   0.000079  -0.000036
     5  H   -0.000484  -0.000016   0.000508  -0.000778
     6  H   -0.001792   0.000812  -0.000309  -0.000619
     7  H   -0.037734   0.000621  -0.001358   0.000203
     8  H    0.000621   0.004042  -0.002727   0.000749
     9  H   -0.001358  -0.002727   0.072446  -0.007607
    10  H    0.000203   0.000749  -0.007607   0.020028
 Mulliken charges and spin densities:
               1          2
     1  C   -0.562043   0.746625
     2  C   -0.411460   0.737333
     3  C   -0.586858  -0.113118
     4  H    0.224751  -0.054658
     5  H    0.221627  -0.056420
     6  H    0.265920  -0.276238
     7  H    0.228541  -0.052107
     8  H    0.207841   0.005832
     9  H    0.209055   0.047761
    10  H    0.202625   0.014990
 Sum of Mulliken charges =   0.00000   1.00000
 Mulliken charges and spin densities with hydrogens summed into heavy atoms:
               1          2
     1  C   -0.115664   0.635547
     2  C    0.083002   0.408988
     3  C    0.032663  -0.044535
 APT charges:
               1
     1  C   -0.159532
     2  C   -0.041798
     3  C    0.110486
     4  H    0.047619
     5  H    0.051601
     6  H    0.030380
     7  H    0.020702
     8  H   -0.015144
     9  H   -0.034470
    10  H   -0.009844
 Sum of APT charges =   0.00000
 APT charges with hydrogens summed into heavy atoms:
               1
     1  C   -0.060311
     2  C    0.009283
     3  C    0.051028
 Electronic spatial extent (au):  <R**2>=            214.9409
 Charge=              0.0000 electrons
 Dipole moment (field-independent basis, Debye):
    X=              0.0986    Y=              0.0387    Z=              0.0928  Tot=              0.1408
 Quadrupole moment (field-independent basis, Debye-Ang):
   XX=            -21.2913   YY=            -20.4950   ZZ=            -22.5210
   XY=             -0.4015   XZ=              0.2091   YZ=             -0.3850
 Traceless Quadrupole moment (field-independent basis, Debye-Ang):
   XX=              0.1445   YY=              0.9408   ZZ=             -1.0852
   XY=             -0.4015   XZ=              0.2091   YZ=             -0.3850
 Octapole moment (field-independent basis, Debye-Ang**2):
  XXX=              0.5577  YYY=             -0.3664  ZZZ=             -0.4663  XYY=             -0.3011
  XXY=              1.4263  XXZ=             -1.5565  XZZ=              1.2891  YZZ=             -0.3406
  YYZ=             -0.7218  XYZ=             -0.0488
 Hexadecapole moment (field-independent basis, Debye-Ang**3):
 XXXX=           -196.0626 YYYY=            -54.3194 ZZZZ=            -36.3105 XXXY=             -1.0990
 XXXZ=              5.9862 YYYX=              1.0294 YYYZ=             -2.2752 ZZZX=             -0.8493
 ZZZY=             -0.1530 XXYY=            -42.2865 XXZZ=            -40.8789 YYZZ=            -16.4712
 XXYZ=              0.4786 YYXZ=              0.9085 ZZXY=             -1.4018
 N-N= 7.609752676312D+01 E-N=-4.233674488025D+02  KE= 1.167128830347D+02
  Exact polarizability:  36.991   2.714  29.536   0.442  -0.131  23.881
 Approx polarizability:  27.909   2.484  25.071   0.216  -0.016  21.040
                          Isotropic Fermi Contact Couplings
        Atom                 a.u.       MegaHertz       Gauss      10(-4) cm-1
     1  C(13)              0.15310     172.11624      61.41535      57.41180
     2  C(13)              0.17138     192.66809      68.74876      64.26716
     3  C(13)             -0.02671     -30.02958     -10.71530     -10.01679
     4  H(1)              -0.01256     -56.12464     -20.02667     -18.72116
     5  H(1)              -0.01304     -58.28889     -20.79892     -19.44308
     6  H(1)              -0.07210    -322.27115    -114.99436    -107.49808
     7  H(1)              -0.01179     -52.68833     -18.80050     -17.57493
     8  H(1)               0.00212       9.48911       3.38595       3.16522
     9  H(1)               0.01559      69.66856      24.85947      23.23893
    10  H(1)               0.00532      23.79354       8.49012       7.93667
 --------------------------------------------------------
       Center         ----  Spin Dipole Couplings  ----
                      3XX-RR        3YY-RR        3ZZ-RR
 --------------------------------------------------------
     1   Atom       -0.301248     -0.289807      0.591055
     2   Atom       -0.318987     -0.299243      0.618230
     3   Atom        0.013087      0.001345     -0.014431
     4   Atom        0.030507     -0.026975     -0.003532
     5   Atom       -0.048366      0.059429     -0.011063
     6   Atom        0.037905     -0.045503      0.007598
     7   Atom       -0.049053      0.053925     -0.004872
     8   Atom        0.014473     -0.009300     -0.005173
     9   Atom        0.010738     -0.000966     -0.009773
    10   Atom        0.005971      0.000697     -0.006668
 --------------------------------------------------------
                        XY            XZ            YZ
 --------------------------------------------------------
     1   Atom       -0.022085     -0.108704      0.123400
     2   Atom       -0.017373     -0.083992      0.128652
     3   Atom       -0.003713      0.000117      0.000702
     4   Atom       -0.041248      0.021255     -0.007072
     5   Atom       -0.004020     -0.003522      0.002047
     6   Atom        0.081846     -0.011109      0.018329
     7   Atom       -0.003103     -0.002738     -0.022693
     8   Atom       -0.003912      0.000862     -0.001125
     9   Atom       -0.006755     -0.004741      0.000820
    10   Atom       -0.011359      0.005204     -0.000008
 --------------------------------------------------------


 ---------------------------------------------------------------------------------
              Anisotropic Spin Dipole Couplings in Principal Axis System
 ---------------------------------------------------------------------------------

       Atom             a.u.   MegaHertz   Gauss  10(-4) cm-1        Axes

              Baa    -0.3187   -42.764   -15.259   -14.264  0.8551  0.5174  0.0320
     1 C(13)  Bbb    -0.3026   -40.609   -14.490   -13.546 -0.5045  0.8449 -0.1780
              Bcc     0.6213    83.372    29.749    27.810 -0.1191  0.1361  0.9835
 
              Baa    -0.3293   -44.185   -15.766   -14.738  0.9030  0.4292  0.0218
     2 C(13)  Bbb    -0.3143   -42.172   -15.048   -14.067 -0.4205  0.8929 -0.1611
              Bcc     0.6435    86.357    30.814    28.805 -0.0886  0.1363  0.9867
 
              Baa    -0.0145    -1.941    -0.693    -0.647 -0.0106 -0.0468  0.9988
     3 C(13)  Bbb     0.0003     0.041     0.015     0.014  0.2782  0.9593  0.0479
              Bcc     0.0142     1.900     0.678     0.634  0.9605 -0.2784 -0.0029
 
              Baa    -0.0488   -26.049    -9.295    -8.689  0.4780  0.8740 -0.0878
     4 H(1)   Bbb    -0.0110    -5.846    -2.086    -1.950 -0.2512  0.2318  0.9398
              Bcc     0.0598    31.895    11.381    10.639  0.8417 -0.4271  0.3303
 
              Baa    -0.0488   -26.053    -9.296    -8.690  0.9952  0.0352  0.0909
     5 H(1)   Bbb    -0.0108    -5.771    -2.059    -1.925 -0.0897 -0.0341  0.9954
              Bcc     0.0596    31.824    11.356    10.615 -0.0382  0.9988  0.0308
 
              Baa    -0.0999   -53.318   -19.025   -17.785 -0.5123  0.8363 -0.1955
     6 H(1)   Bbb     0.0119     6.333     2.260     2.112 -0.1033  0.1660  0.9807
              Bcc     0.0881    46.985    16.765    15.672  0.8526  0.5226  0.0013
 
              Baa    -0.0494   -26.379    -9.413    -8.799  0.9951  0.0487  0.0859
     7 H(1)   Bbb    -0.0123    -6.542    -2.334    -2.182 -0.0970  0.3187  0.9429
              Bcc     0.0617    32.921    11.747    10.981 -0.0186  0.9466 -0.3219
 
              Baa    -0.0101    -5.400    -1.927    -1.801  0.1474  0.9697  0.1948
     8 H(1)   Bbb    -0.0050    -2.685    -0.958    -0.896 -0.0803 -0.1845  0.9795
              Bcc     0.0152     8.085     2.885     2.697  0.9858 -0.1600  0.0507
 
              Baa    -0.0109    -5.799    -2.069    -1.934  0.2381  0.0822  0.9678
     9 H(1)   Bbb    -0.0038    -2.050    -0.731    -0.684  0.3688  0.9141 -0.1684
              Bcc     0.0147     7.849     2.801     2.618  0.8985 -0.3970 -0.1873
 
              Baa    -0.0111    -5.916    -2.111    -1.973 -0.5496 -0.5294  0.6463
    10 H(1)   Bbb    -0.0047    -2.489    -0.888    -0.830  0.2862  0.6074  0.7410
              Bcc     0.0158     8.405     2.999     2.804  0.7848 -0.5923  0.1824
 

 ---------------------------------------------------------------------------------

 No NMR shielding tensors so no spin-rotation constants.
 Leave Link  601 at Sun May 22 09:31:50 2022, MaxMem=   939524096 cpu:         1.6
 (Enter /Local/ce_dana/g09/l701.exe)
 Compute integral second derivatives.
 ... and contract with generalized density number  0.
 Entering OneElI...
 Calculate overlap and kinetic energy integrals
    NBasis =  41  MinDer = 2  MaxDer = 2
 Requested accuracy = 0.1000D-14
 PrsmSu:  NPrtUS=  10 ThrOK=T IAlg=1 NPAlg=1 LenDen=           0.
 Prism:   IPart=     0 DynPar=F LinDyn=F Incr=           1.
 PRISM was handed    93943551 working-precision words and   276 shell-pairs
 PRISM was handed    93943551 working-precision words and   276 shell-pairs
 PRISM was handed    93943551 working-precision words and   276 shell-pairs
 PRISM was handed    93943551 working-precision words and   276 shell-pairs
 PRISM was handed    93943551 working-precision words and   276 shell-pairs
 PRISM was handed    93943551 working-precision words and   276 shell-pairs
 PRISM was handed    93943551 working-precision words and   276 shell-pairs
 PRISM was handed    93943551 working-precision words and   276 shell-pairs
 PRISM was handed    93943551 working-precision words and   276 shell-pairs
 PRISM was handed    93943551 working-precision words and   276 shell-pairs
 IPart=  0 NShTot=          34 NBatch=          15 AvBLen=         2.3
 IPart=  7 NShTot=          24 NBatch=          10 AvBLen=         2.4
 IPart=  8 NShTot=          23 NBatch=           9 AvBLen=         2.6
 IPart=  9 NShTot=          20 NBatch=           8 AvBLen=         2.5
 IPart=  6 NShTot=          25 NBatch=          11 AvBLen=         2.3
 IPart=  1 NShTot=          33 NBatch=          15 AvBLen=         2.2
 IPart=  2 NShTot=          30 NBatch=          14 AvBLen=         2.1
 IPart=  3 NShTot=          29 NBatch=          13 AvBLen=         2.2
 IPart=  5 NShTot=          29 NBatch=          13 AvBLen=         2.2
 IPart=  4 NShTot=          29 NBatch=          13 AvBLen=         2.2
 PrSmSu:  NxtVal=             11.
 Entering OneElI...
 Calculate potential energy integrals
    NBasis =  41  MinDer = 2  MaxDer = 2
 Requested accuracy = 0.1000D-14
 PrsmSu:  NPrtUS=  10 ThrOK=T IAlg=1 NPAlg=1 LenDen=           0.
 Prism:   IPart=     0 DynPar=F LinDyn=F Incr=           2.
 PRISM was handed    93943930 working-precision words and   275 shell-pairs
 PRISM was handed    93943930 working-precision words and   275 shell-pairs
 PRISM was handed    93943930 working-precision words and   275 shell-pairs
 PRISM was handed    93943930 working-precision words and   275 shell-pairs
 PRISM was handed    93943930 working-precision words and   275 shell-pairs
 PRISM was handed    93943930 working-precision words and   275 shell-pairs
 PRISM was handed    93943930 working-precision words and   275 shell-pairs
 PRISM was handed    93943930 working-precision words and   275 shell-pairs
 PRISM was handed    93943930 working-precision words and   275 shell-pairs
 PRISM was handed    93943930 working-precision words and   275 shell-pairs
 IPart=  0 NShTot=         360 NBatch=          36 AvBLen=        10.0
 IPart=  5 NShTot=         270 NBatch=          27 AvBLen=        10.0
 IPart=  7 NShTot=         250 NBatch=          25 AvBLen=        10.0
 IPart=  4 NShTot=         280 NBatch=          28 AvBLen=        10.0
 IPart=  9 NShTot=         210 NBatch=          21 AvBLen=        10.0
 IPart=  2 NShTot=         290 NBatch=          29 AvBLen=        10.0
 IPart=  1 NShTot=         310 NBatch=          31 AvBLen=        10.0
 IPart=  3 NShTot=         280 NBatch=          28 AvBLen=        10.0
 IPart=  8 NShTot=         240 NBatch=          24 AvBLen=        10.0
 IPart=  6 NShTot=         260 NBatch=          26 AvBLen=        10.0
 PrSmSu:  NxtVal=             21.
 Polarizability after L701:
                1             2             3 
      1  0.369911D+02
      2  0.271426D+01  0.295357D+02
      3  0.441882D+00 -0.131326D+00  0.238810D+02
 Dipole Derivatives after L701:
                 1             2             3             4             5 
      1  -0.167248D+00 -0.302234D-01  0.280101D+00  0.814713D-01 -0.178097D-01
      2  -0.146000D-01  0.443450D-01  0.835065D-01  0.452208D-02  0.131322D-01
      3   0.217162D+00  0.520147D-01 -0.355693D+00 -0.113891D+00 -0.146881D+00
                 6             7             8             9            10 
      1  -0.180326D+00  0.101269D+00 -0.167494D-01  0.781733D-01 -0.501604D-01
      2  -0.212541D+00  0.259055D-01  0.639650D-01  0.621947D-01  0.352425D-01
      3  -0.219998D+00 -0.193971D-01  0.480060D-01  0.166224D+00 -0.726652D-01
                11            12            13            14            15 
      1   0.471954D-01 -0.120385D+00  0.640598D-01 -0.128418D-01 -0.780022D-01
      2   0.262435D-01  0.737723D-02  0.344968D-01 -0.785107D-01 -0.192165D-01
      3   0.160819D-01  0.166775D+00 -0.465325D-01  0.315019D-02  0.169255D+00
                16            17            18            19            20 
      1   0.445268D-01  0.188409D-02 -0.780565D-02 -0.643925D-02  0.208985D-01
      2  -0.218450D-01  0.450217D-01 -0.136385D-01  0.289066D-01 -0.823623D-01
      3   0.366565D-02 -0.109918D-01  0.159022D-02  0.736322D-02  0.625237D-01
                21            22            23            24            25 
      1   0.307665D-01 -0.103654D+00 -0.102130D+00 -0.622213D-01 -0.195027D-01
      2   0.108994D+00 -0.782850D-01  0.176838D-02 -0.517094D-01  0.794744D-02
      3   0.150908D+00 -0.453857D-01 -0.511420D-01  0.564524D-01  0.377230D-01
                26            27            28            29            30 
      1   0.734803D-01  0.763291D-01  0.556775D-01  0.362964D-01 -0.166295D-01
      2   0.503012D-01 -0.716738D-01 -0.222909D-01 -0.839041D-01  0.106707D+00
      3  -0.726279D-01 -0.134208D+00  0.319578D-01  0.998659D-01 -0.130487D-02
 Hessian after L701:
                1             2             3             4             5 
      1  0.461182D+01
      2 -0.447989D+00  0.532445D+01
      3 -0.102594D+01 -0.327110D+00  0.696071D+01
      4 -0.112926D+01  0.829954D+00 -0.261614D-01  0.463255D+01
      5  0.691598D+00 -0.229420D+01  0.169439D+00  0.331586D-01  0.623682D+01
      6 -0.120388D+00  0.137746D+00 -0.171865D+01  0.717786D+00  0.665917D+00
      7  0.236271D-01 -0.663372D-01 -0.821893D-01 -0.775209D+00 -0.120924D+01
      8  0.867515D-01 -0.876110D-01  0.715935D-02 -0.128617D+01 -0.267135D+01
      9 -0.852718D-02  0.264680D-01 -0.999475D-01 -0.355575D-01  0.106602D-01
     10 -0.988363D+00 -0.708198D+00  0.451105D+00 -0.932375D-01 -0.403499D-01
     11 -0.683209D+00 -0.205664D+01 -0.228576D+00 -0.594248D-01  0.735310D-01
     12  0.463795D+00 -0.219905D+00 -0.219246D+01  0.197096D-01 -0.309251D-01
     13 -0.249775D+01  0.336536D-01 -0.188107D-01 -0.445332D-02 -0.142218D+00
     14 -0.490864D-01 -0.497520D+00 -0.269296D-01 -0.769387D-01 -0.236344D-01
     15  0.109030D-02 -0.117537D-01 -0.242725D+01 -0.185871D-02  0.304271D-01
     16 -0.178969D+00  0.485026D+00  0.706459D+00  0.168350D+00  0.424820D+00
     17  0.494072D+00 -0.324795D+00  0.478912D+00  0.397027D+00 -0.695138D+00
     18  0.653233D+00  0.454153D+00 -0.510144D+00 -0.738073D+00 -0.351342D+00
     19 -0.160518D-01 -0.939455D-01 -0.180771D-01 -0.259063D+01 -0.848474D-01
     20 -0.811482D-01 -0.175102D-01 -0.735851D-01 -0.978072D-01 -0.722346D+00
     21 -0.722436D-03 -0.537902D-01  0.618927D-01  0.215242D-01 -0.490696D+00
     22  0.818547D-01  0.258386D-01  0.101724D-01 -0.122924D+00  0.372362D-01
     23  0.340299D-01 -0.233549D-01  0.436498D-02  0.480050D-01  0.109955D+00
     24  0.200113D-01  0.360971D-02 -0.220350D-01  0.184310D-01  0.213672D-01
     25  0.202190D-01 -0.100792D-01 -0.388551D-02 -0.822813D-01  0.123411D+00
     26  0.748104D-02 -0.175667D-01  0.249081D-02  0.981732D-01  0.365137D-01
     27 -0.968606D-02  0.139604D-01 -0.114721D-01  0.456349D-01 -0.272575D-01
     28  0.728685D-01 -0.479239D-01  0.733102D-02 -0.290794D-02  0.166432D+00
     29 -0.525004D-01 -0.525811D-02 -0.616432D-02  0.114024D+00 -0.501601D-01
     30  0.271372D-01 -0.233772D-01 -0.406373D-01 -0.214348D-01  0.241026D-02
                6             7             8             9            10 
      6  0.764429D+01
      7 -0.652393D-02  0.685667D+01
      8  0.126364D-01  0.593201D+00  0.804767D+01
      9 -0.327245D+01  0.294859D-01  0.396176D-01  0.836846D+01
     10  0.372340D-01  0.681090D-01 -0.119203D-01  0.132905D-01  0.973943D+00
     11 -0.186369D-01 -0.219476D-01 -0.257165D-01 -0.556074D-02  0.725437D+00
     12  0.660498D-01  0.172813D-01  0.538180D-03 -0.191460D-01 -0.489687D+00
     13  0.238533D-01  0.284077D-01  0.291745D-01  0.914189D-03  0.143172D-01
     14  0.525219D-01  0.458850D-01  0.117639D-01  0.352078D-02  0.262512D-01
     15  0.558641D-01 -0.183752D-02 -0.989805D-04 -0.343908D-01 -0.383242D-02
     16 -0.722904D+00 -0.490439D-01 -0.554760D-03 -0.415988D-01  0.924546D-02
     17 -0.376798D+00  0.167358D-01 -0.268944D-01 -0.675753D-02  0.598033D-03
     18 -0.733991D+00  0.767515D-02  0.401575D-02  0.520245D-01 -0.712784D-02
     19  0.302495D-01 -0.371017D-01  0.645610D-01 -0.132185D-01 -0.224248D-03
     20 -0.469926D+00  0.518788D-01  0.463183D-01 -0.211491D-01  0.141870D-01
     21 -0.242378D+01 -0.634183D-02 -0.242563D-01  0.239475D-01 -0.220637D-02
     22  0.153424D-01 -0.128800D+01  0.794763D+00  0.453480D+00  0.496653D-02
     23  0.210573D-01  0.776859D+00 -0.189137D+01  0.309328D+00  0.446579D-02
     24  0.781906D-01  0.445485D+00  0.310333D+00 -0.224325D+01  0.284145D-02
     25  0.612348D-01 -0.230475D+01 -0.162453D+00 -0.467965D+00  0.663031D-02
     26 -0.136950D-01 -0.145742D+00 -0.224024D+01  0.526104D+00 -0.284537D-02
     27  0.184583D+00 -0.431293D+00  0.534588D+00 -0.866765D+00 -0.727904D-02
     28 -0.358836D-01 -0.252270D+01 -0.107351D+00  0.696962D-01  0.461299D-02
     29 -0.108228D-01 -0.412923D-01 -0.116257D+01 -0.882231D+00 -0.762520D-02
     30  0.119910D+00  0.282586D-01 -0.884533D+00 -0.190848D+01  0.566222D-02
               11            12            13            14            15 
     11  0.204340D+01
     12  0.227124D+00  0.212787D+01
     13  0.642415D-01 -0.140253D-03  0.243942D+01
     14 -0.283222D-01  0.780732D-02  0.554403D-03  0.499510D+00
     15  0.270076D-01  0.260131D-01  0.216169D-02 -0.231081D-01  0.238829D+01
     16 -0.109274D-01 -0.151508D-01 -0.492488D-02  0.108682D-01  0.433219D-02
     17 -0.170237D-02  0.141537D-01 -0.142136D-02  0.385337D-02 -0.194742D-01
     18 -0.193270D-02 -0.404985D-02 -0.374193D-02 -0.263352D-02  0.482450D-02
     19 -0.387278D-02 -0.279871D-03 -0.702388D-02  0.114168D-01  0.124691D-02
     20 -0.559655D-02  0.287649D-02  0.115014D-01  0.455535D-01 -0.165744D-02
     21  0.141275D-02 -0.165603D-02 -0.407753D-02 -0.101196D-01 -0.579507D-02
     22 -0.383273D-02  0.284763D-02  0.254223D-02  0.934129D-02  0.467281D-03
     23 -0.172941D-02  0.703589D-03  0.245032D-02  0.512619D-02  0.436735D-03
     24 -0.961363D-03 -0.235872D-03  0.611836D-03  0.256342D-02 -0.171033D-02
     25 -0.326438D-02 -0.383370D-03  0.139734D-01  0.114651D-01 -0.743363D-02
     26 -0.304165D-03  0.944666D-04  0.464788D-02 -0.332363D-02 -0.909101D-03
     27  0.374589D-02 -0.244747D-02 -0.963298D-02 -0.116015D-01 -0.929581D-03
     28 -0.319988D-02  0.200785D-02  0.154944D-01  0.102431D-01  0.566391D-02
     29  0.307982D-02 -0.246766D-02 -0.258449D-02 -0.130070D-01 -0.869928D-03
     30 -0.362275D-02  0.646817D-04  0.886236D-02  0.797886D-02 -0.491053D-02
               16            17            18            19            20 
     16  0.627093D-01
     17 -0.899148D+00  0.104058D+01
     18  0.955743D-01 -0.113179D+00  0.117585D+01
     19 -0.356490D-02 -0.471677D-02  0.266902D-02  0.266164D+01
     20  0.809050D-02  0.102120D-01  0.305861D-02  0.127161D+00  0.598212D+00
     21 -0.798564D-02  0.160680D-01 -0.164451D-02 -0.863089D-02  0.574902D+00
     22 -0.159810D-01  0.115637D-02  0.828660D-02 -0.171974D-02 -0.770896D-02
     23  0.456141D-03  0.268342D-02  0.728276D-03  0.420991D-02 -0.467813D-02
     24  0.415366D-02  0.842219D-03  0.239710D-02  0.214181D-03 -0.410913D-02
     25  0.145658D-01 -0.381345D-02 -0.201372D-01 -0.308128D-03 -0.563094D-02
     26 -0.109126D-01 -0.680430D-02  0.791058D-02 -0.365478D-02  0.675829D-02
     27 -0.251879D-01  0.638069D-02  0.147176D-01 -0.271132D-02  0.115906D-01
     28 -0.238755D-02 -0.488960D-03  0.164173D-02 -0.501339D-02 -0.205234D-01
     29 -0.771825D-02 -0.199306D-02 -0.778925D-03 -0.163115D-01  0.430765D-01
     30  0.230798D-02 -0.147601D-03  0.176728D-04  0.853802D-02 -0.220011D-01
               21            22            23            24            25 
     21  0.235086D+01
     22  0.220425D-02  0.125623D+01
     23  0.243816D-02 -0.753174D+00  0.188010D+01
     24  0.155077D-03 -0.452670D+00 -0.265126D+00  0.218167D+01
     25 -0.106860D-02  0.593972D-01 -0.332603D-01 -0.743924D-01  0.220717D+01
     26  0.912643D-03 -0.321051D-01  0.327454D-02 -0.104445D+00  0.999214D-01
     27 -0.296274D-02 -0.558596D-01 -0.782089D-01 -0.584111D-01  0.475873D+00
     28  0.730483D-02  0.236410D-01 -0.840419D-01  0.353138D-01  0.653845D-01
     29 -0.168715D-01 -0.715142D-01 -0.800106D-01  0.359267D-01 -0.162960D-01
     30 -0.101448D-02  0.157286D-01  0.427856D-02  0.632301D-01  0.381578D-01
               26            27            28            29            30 
     26  0.215573D+01
     27 -0.510894D+00  0.868761D+00
     28 -0.149640D-01  0.201422D-01  0.235101D+01
     29  0.659545D-01  0.576960D-01  0.101818D+00  0.120089D+01
     30  0.924304D-01 -0.125073D+00 -0.113218D+00  0.826583D+00  0.189689D+01
 Leave Link  701 at Sun May 22 09:31:51 2022, MaxMem=   939524096 cpu:         3.9
 (Enter /Local/ce_dana/g09/l702.exe)
 L702 exits ... SP integral derivatives will be done elsewhere.
 Leave Link  702 at Sun May 22 09:31:51 2022, MaxMem=   939524096 cpu:         0.1
 (Enter /Local/ce_dana/g09/l703.exe)
 Compute integral second derivatives, UseDBF=F ICtDFT=           0.
 Integral derivatives from FoFJK, PRISM(SPDF).
 ICntrl=    100127.
 Calling FoFJK, ICntrl=    100127 FMM=F ISym2X=0 I1Cent= 0 IOpClX= 1 NMat=1 NMatS=1 NMatT=0.
 FoFJK:  IHMeth= 1 ICntrl=  100127 DoSepK=F KAlg= 0 I1Cent=   0 FoldK=F
 IRaf=         0 NMat=   1 IRICut=       1 DoRegI=T DoRafI=F ISym2E= 0.
 FoFCou: FMM=F IPFlag=           0 FMFlag=      100000 FMFlg1=         800
         NFxFlg=           0 DoJE=F BraDBF=F KetDBF=F FulRan=T
         wScrn=  0.000000 ICntrl=  100127 IOpCl=  1 I1Cent=           0 NGrid=           0
         NMat0=    1 NMatS0=      1 NMatT0=    0 NMatD0=    1 NMtDS0=    0 NMtDT0=    0
 Symmetry not used in FoFCou.
 FoFCou:  KetSym=F NOpSet=  1 NOpAb=1 NOp=  1.
 FoFCou:  CnvScl= 1.00D+00 Thresh= 1.00D-12 IAcrcy=      10.
 PrismS was handed   939501310 working-precision words and   275 shell-pairs
 FoFCou: LinMIO=F DoNuc=F BraDBF=F KetDBF=F HaveP=T PDBF=F HaveZ=T HaveW=F
         NIJTC =       3 NIJTAt=       0 NIJTCD=       0 NIJTT =       3
         IJTBeg=       1 IJTEnd=       3 KLTBeg=       1 KLTEnd=       3
         IPTBeg=       1 IPTEnd=       3 IPTBCv=       1 IPTECv=       3
         IZTBeg=       1 IZTEnd=       3 IZTBCv=       1 IZTECv=       3
         IWTBeg=       4 IWTEnd=       3 IWTBCv=       4 IWTECv=       3
         INTBeg=       1 INTEnd=       0 IFTBCv=       1 IFTECv=       3
 NCel replicated for PrismC:     1
 CoulSu:  IncDef=  1024 NBBP=          37950 NTPThr=   100 NPartT=   10 Incr=          37 LDynOK=F.
 CoulSu:  NPrtUS=  10 ThrOK=T IAlg=1 NPAlg=1 LenDen=           0 LWGrdD=           0 DoCopy=F.
 Enter PrismC: JobTyp=22 DoJE=F Cont=F.
 Enter PrismC: JobTyp=22 DoJE=F Cont=F.
 Enter PrismC: JobTyp=22 DoJE=F Cont=F.
 PrismC was handed    93943499 working-precision words and   275 shell-pairs
 Enter PrismC: JobTyp=22 DoJE=F Cont=F.
 Enter PrismC: JobTyp=22 DoJE=F Cont=F.
 PrismC was handed    93943499 working-precision words and   275 shell-pairs
 Enter PrismC: JobTyp=22 DoJE=F Cont=F.
 PrismC was handed    93943499 working-precision words and   275 shell-pairs
 Enter PrismC: JobTyp=22 DoJE=F Cont=F.
 PrismC:  IPart=     0 DynPar=F LinDyn=F Incr=          37 UseFst=F UseS4=T IGathr=2.
 PrismC was handed    93943499 working-precision words and   275 shell-pairs
 Enter PrismC: JobTyp=22 DoJE=F Cont=F.
 PrismC was handed    93943499 working-precision words and   275 shell-pairs
 PrismC was handed    93943499 working-precision words and   275 shell-pairs
 PrismC was handed    93943499 working-precision words and   275 shell-pairs
 Enter PrismC: JobTyp=22 DoJE=F Cont=F.
 PrismC was handed    93943499 working-precision words and   275 shell-pairs
 PrismC was handed    93943499 working-precision words and   275 shell-pairs
 Enter PrismC: JobTyp=22 DoJE=F Cont=F.
 PrismC was handed    93943499 working-precision words and   275 shell-pairs
 IPart=  0 NShTot=        3733 NShNF=        3733 NShFF=           0 NBatch=         140 AvBLen=        26.7
 IPart=  9 NShTot=        3592 NShNF=        3592 NShFF=           0 NBatch=         136 AvBLen=        26.4
 IPart=  8 NShTot=        3603 NShNF=        3603 NShFF=           0 NBatch=         136 AvBLen=        26.5
 IPart=  7 NShTot=        3597 NShNF=        3597 NShFF=           0 NBatch=         136 AvBLen=        26.4
 IPart=  6 NShTot=        3607 NShNF=        3607 NShFF=           0 NBatch=         135 AvBLen=        26.7
 IPart=  1 NShTot=        3600 NShNF=        3600 NShFF=           0 NBatch=         137 AvBLen=        26.3
 IPart=  3 NShTot=        3607 NShNF=        3607 NShFF=           0 NBatch=         140 AvBLen=        25.8
 IPart=  2 NShTot=        3631 NShNF=        3631 NShFF=           0 NBatch=         139 AvBLen=        26.1
 IPart=  5 NShTot=        3596 NShNF=        3596 NShFF=           0 NBatch=         137 AvBLen=        26.2
 IPart=  4 NShTot=        3618 NShNF=        3618 NShFF=           0 NBatch=         139 AvBLen=        26.0
 CoulSu:  NxtVal=            371.
 Polarizability after L703:
                1             2             3 
      1  0.369911D+02
      2  0.271426D+01  0.295357D+02
      3  0.441882D+00 -0.131326D+00  0.238810D+02
 Dipole Derivatives after L703:
                 1             2             3             4             5 
      1  -0.167248D+00 -0.302234D-01  0.280101D+00  0.814713D-01 -0.178097D-01
      2  -0.146000D-01  0.443450D-01  0.835065D-01  0.452208D-02  0.131322D-01
      3   0.217162D+00  0.520147D-01 -0.355693D+00 -0.113891D+00 -0.146881D+00
                 6             7             8             9            10 
      1  -0.180326D+00  0.101269D+00 -0.167494D-01  0.781733D-01 -0.501604D-01
      2  -0.212541D+00  0.259055D-01  0.639650D-01  0.621947D-01  0.352425D-01
      3  -0.219998D+00 -0.193971D-01  0.480060D-01  0.166224D+00 -0.726652D-01
                11            12            13            14            15 
      1   0.471954D-01 -0.120385D+00  0.640598D-01 -0.128418D-01 -0.780022D-01
      2   0.262435D-01  0.737723D-02  0.344968D-01 -0.785107D-01 -0.192165D-01
      3   0.160819D-01  0.166775D+00 -0.465325D-01  0.315019D-02  0.169255D+00
                16            17            18            19            20 
      1   0.445268D-01  0.188409D-02 -0.780565D-02 -0.643925D-02  0.208985D-01
      2  -0.218450D-01  0.450217D-01 -0.136385D-01  0.289066D-01 -0.823623D-01
      3   0.366565D-02 -0.109918D-01  0.159022D-02  0.736322D-02  0.625237D-01
                21            22            23            24            25 
      1   0.307665D-01 -0.103654D+00 -0.102130D+00 -0.622213D-01 -0.195027D-01
      2   0.108994D+00 -0.782850D-01  0.176838D-02 -0.517094D-01  0.794744D-02
      3   0.150908D+00 -0.453857D-01 -0.511420D-01  0.564524D-01  0.377230D-01
                26            27            28            29            30 
      1   0.734803D-01  0.763291D-01  0.556775D-01  0.362964D-01 -0.166295D-01
      2   0.503012D-01 -0.716738D-01 -0.222909D-01 -0.839041D-01  0.106707D+00
      3  -0.726279D-01 -0.134208D+00  0.319578D-01  0.998659D-01 -0.130487D-02
 Hessian after L703:
                1             2             3             4             5 
      1  0.571929D+00
      2 -0.791680D-01  0.648805D+00
      3  0.676993D-01 -0.107208D+00  0.202254D-01
      4 -0.246587D+00 -0.127560D+00 -0.116917D+00  0.470680D+00
      5 -0.898136D-01 -0.154740D+00 -0.223795D-01 -0.212117D-01  0.646347D+00
      6  0.353931D-01  0.677318D-01  0.136883D+00  0.897029D-01 -0.775664D-01
      7 -0.231511D-01  0.151422D-01  0.974458D-03 -0.186700D+00  0.470238D-01
      8 -0.235155D-01  0.117682D-01 -0.420895D-02  0.520483D-01 -0.130507D+00
      9 -0.626700D-02  0.124417D-01 -0.295025D-02  0.614075D-02 -0.192688D-02
     10 -0.279368D+00  0.116689D+00 -0.989813D-01 -0.202253D-01  0.162219D-01
     11  0.124507D+00 -0.129135D+00  0.482653D-01 -0.193402D-01  0.838704D-02
     12 -0.987096D-01  0.599005D-01 -0.651248D-01  0.510848D-02 -0.124461D-01
     13 -0.620183D-01  0.258966D-01 -0.117585D-01  0.187370D-02 -0.330698D-01
     14  0.200089D-01 -0.381575D+00 -0.653356D-02  0.153154D-02 -0.129294D-01
     15 -0.552263D-03 -0.104384D-01 -0.264690D-01 -0.879331D-02  0.684241D-02
     16  0.413025D-01  0.756842D-01  0.154624D+00  0.854638D-01  0.378882D-01
     17  0.403173D-01  0.181341D-01  0.874489D-01  0.745811D-01 -0.658855D-03
     18 -0.742619D-02 -0.118682D-01 -0.656414D-01  0.282638D-01  0.539642D-02
     19 -0.854966D-03 -0.302461D-01  0.705383D-02 -0.622515D-01  0.163890D-01
     20  0.300014D-02 -0.150951D-01  0.218800D-02  0.108518D-01 -0.343657D+00
     21  0.803512D-02 -0.116184D-01  0.270047D-02 -0.942838D-02  0.107272D+00
     22 -0.414734D-02  0.555588D-02 -0.175818D-02 -0.275952D-01 -0.218942D-01
     23  0.268579D-02 -0.242786D-02  0.125282D-03  0.189175D-01  0.143985D-01
     24  0.143101D-02  0.105700D-03  0.123506D-02  0.285333D-02  0.157192D-02
     25  0.120606D-02 -0.255436D-02 -0.912986D-03 -0.137835D-01  0.149606D-01
     26  0.182610D-02  0.272678D-02  0.163517D-02  0.918532D-02 -0.789692D-02
     27  0.151791D-02  0.115995D-02  0.382820D-03  0.289119D-02 -0.253297D-02
     28  0.168861D-02  0.561109D-03 -0.230280D-04 -0.875383D-03  0.335059D-01
     29  0.151740D-03  0.153862D-02  0.667091D-03  0.996600D-03 -0.187433D-01
     30 -0.112137D-02 -0.206976D-03 -0.124088D-02  0.178549D-03 -0.423110D-02
                6             7             8             9            10 
      6  0.862474D-01
      7  0.122941D-02  0.547948D+00
      8  0.978607D-02  0.611525D-01  0.604247D+00
      9 -0.732201D-01  0.133683D-01 -0.105143D-01  0.595473D+00
     10 -0.555619D-02 -0.235157D-02 -0.515464D-02 -0.283607D-02  0.294490D+00
     11 -0.688172D-02 -0.128565D-02 -0.276599D-02 -0.867845D-03 -0.127143D+00
     12 -0.133050D-04  0.342022D-02  0.820011D-03  0.117598D-02  0.101740D+00
     13  0.135632D-02  0.226062D-02 -0.217743D-03  0.123613D-02  0.285527D-02
     14  0.197064D-02  0.108898D-02  0.961190D-03  0.131564D-02 -0.262047D-02
     15 -0.484100D-02 -0.127661D-02 -0.100581D-02  0.212353D-02  0.108431D-02
     16 -0.129728D+00 -0.522789D-02  0.601336D-02  0.130055D-01  0.444396D-02
     17 -0.910405D-01  0.625614D-04  0.550455D-03 -0.106092D-01  0.106100D-02
     18 -0.857714D-01 -0.797623D-03 -0.175683D-03  0.380746D-02  0.269144D-02
     19  0.800942D-03  0.335421D-02  0.282507D-01 -0.132207D-01  0.111041D-02
     20  0.101005D+00 -0.324006D-02 -0.824849D-02  0.504660D-02 -0.342152D-04
     21 -0.660396D-01  0.589892D-03 -0.428501D-02  0.346528D-02  0.149320D-02
     22 -0.757743D-02 -0.210058D+00 -0.120597D+00 -0.677083D-01 -0.155597D-02
     23  0.727192D-02 -0.123944D+00 -0.157619D+00 -0.533631D-01  0.890175D-03
     24 -0.120522D-03 -0.684675D-01 -0.533185D-01 -0.884687D-01  0.226030D-03
     25  0.347934D-01 -0.667480D-01  0.124910D-01  0.510903D-01  0.273132D-03
     26 -0.199085D-01  0.122757D-01 -0.780353D-01 -0.715644D-01  0.143780D-04
     27  0.331604D-02  0.462594D-01 -0.681922D-01 -0.292701D+00  0.188584D-03
     28 -0.204149D-01 -0.593258D-01 -0.104713D-01  0.519102D-02  0.327639D-03
     29  0.763206D-02 -0.827624D-02 -0.240352D+00  0.130042D+00  0.759418D-04
     30  0.355988D-02  0.470004D-02  0.131094D+00 -0.148705D+00 -0.499223D-04
               11            12            13            14            15 
     11  0.127448D+00
     12 -0.549709D-01  0.606712D-01
     13  0.265458D-01  0.370945D-02  0.594518D-01
     14 -0.721082D-02 -0.173131D-02 -0.198095D-01  0.399463D+00
     15  0.127422D-01  0.262417D-02  0.629870D-02  0.481976D-02  0.215976D-01
     16 -0.229845D-02 -0.141407D-01  0.441130D-03  0.277064D-02  0.170984D-02
     17  0.127167D-02  0.921426D-02  0.285349D-02 -0.677600D-04 -0.153899D-01
     18  0.889549D-03 -0.578121D-03  0.153181D-02  0.275394D-02  0.472729D-02
     19  0.230105D-03 -0.147207D-02 -0.461966D-02 -0.173291D-02  0.199333D-02
     20  0.110460D-02 -0.918338D-03 -0.277132D-02  0.613297D-04  0.173563D-02
     21  0.101906D-02  0.145990D-02 -0.223746D-02 -0.222139D-02  0.606563D-03
     22 -0.975328D-03  0.578556D-03  0.467745D-03  0.164380D-03 -0.918370D-04
     23  0.586115D-03 -0.354376D-03  0.190253D-03  0.229433D-03  0.156416D-04
     24  0.000000D+00  0.224124D-04 -0.739221D-04 -0.118201D-03 -0.209639D-03
     25 -0.513656D-04 -0.359791D-03 -0.271259D-03 -0.750688D-03 -0.137547D-03
     26  0.479473D-04  0.296018D-03  0.111711D-03  0.241107D-03  0.483877D-03
     27  0.155142D-03 -0.475039D-04  0.488599D-03  0.862188D-04 -0.978827D-04
     28 -0.189350D-03  0.125640D-03 -0.441056D-03 -0.650869D-03 -0.234607D-03
     29  0.266532D-03  0.190267D-03  0.270557D-03  0.826512D-03  0.194573D-03
     30 -0.349891D-03 -0.189905D-03 -0.551125D-03 -0.341734D-03 -0.616795D-04
               16            17            18            19            20 
     16 -0.128254D+00
     17 -0.120008D+00 -0.198552D-01
     18 -0.216872D-01  0.456735D-02  0.140894D+00
     19  0.189811D-02 -0.159457D-02 -0.191743D-02  0.652035D-01
     20  0.280968D-02  0.349726D-02 -0.158810D-02 -0.130822D-01  0.361565D+00
     21 -0.286825D-02  0.153416D-01  0.000000D+00  0.557898D-02 -0.106449D+00
     22  0.754627D-03 -0.433536D-03 -0.135285D-03  0.116920D-02  0.477802D-03
     23  0.556592D-04  0.275753D-03 -0.103758D-03 -0.104809D-02  0.800510D-03
     24 -0.645415D-03  0.298559D-03  0.774127D-03 -0.238097D-03  0.224957D-03
     25 -0.922618D-03  0.297756D-02 -0.109847D-02  0.378445D-03  0.338003D-04
     26 -0.143588D-02 -0.205051D-02  0.586264D-03 -0.368247D-03 -0.262866D-03
     27 -0.158967D-02 -0.290819D-03  0.114357D-02  0.560959D-03 -0.496966D-03
     28  0.998723D-04  0.182701D-03  0.575117D-03 -0.538774D-02  0.195463D-02
     29 -0.147985D-02 -0.109696D-02 -0.457812D-03  0.320237D-02  0.234153D-03
     30  0.131971D-02  0.459752D-03  0.643744D-03  0.860241D-03 -0.747606D-03
               21            22            23            24            25 
     21  0.574361D-01
     22 -0.369262D-03  0.234652D+00
     23  0.171415D-03  0.133521D+00  0.169606D+00
     24 -0.104348D-03  0.748513D-01  0.609884D-01  0.905325D-01
     25 -0.759106D-03  0.679965D-02 -0.739801D-02 -0.286878D-01  0.736997D-01
     26  0.509119D-03  0.474602D-02 -0.686731D-02 -0.231699D-01 -0.197214D-01
     27 -0.391352D-04  0.155309D-02 -0.304846D-02 -0.119459D-01 -0.557648D-01
     28 -0.347326D-04 -0.486143D-03 -0.238702D-01  0.187511D-01 -0.631642D-03
     29  0.260122D-03 -0.565067D-03 -0.189818D-01  0.134180D-01  0.128268D-04
     30  0.514354D-03  0.657401D-03 -0.117030D-01  0.828495D-02  0.183682D-02
               26            27            28            29            30 
     26  0.817748D-01
     27  0.794337D-01  0.322637D+00
     28 -0.663377D-02  0.389473D-02  0.650316D-01
     29  0.103223D-01 -0.627362D-02  0.561113D-02  0.265986D+00
     30  0.316986D-01 -0.226479D-01 -0.783034D-02 -0.145672D+00  0.159842D+00
 Leave Link  703 at Sun May 22 09:31:51 2022, MaxMem=   939524096 cpu:         1.1
 (Enter /Local/ce_dana/g09/l716.exe)
 FrcOut:
 IF    =    54 IFX   =    84 IFXYZ =   114
 IFFX  =   144 IFFFX =   609 IFLen =    30
 IFFLen=   465 IFFFLn=     0 IEDerv=   609
 LEDerv=  1493 IFroze=  2446 ICStrt=  6009
 Dipole        = 3.87810806D-02 1.52315538D-02 3.64913677D-02
 DipoleDeriv   =-1.67247842D-01-1.46000125D-02 2.17162164D-01
                -3.02234214D-02 4.43449528D-02 5.20146561D-02
                 2.80100645D-01 8.35064875D-02-3.55693384D-01
                 8.14713334D-02 4.52207726D-03-1.13891262D-01
                -1.78096895D-02 1.31321671D-02-1.46880669D-01
                -1.80326209D-01-2.12541358D-01-2.19997832D-01
                 1.01268968D-01 2.59054898D-02-1.93971077D-02
                -1.67494184D-02 6.39650300D-02 4.80060484D-02
                 7.81733458D-02 6.21946778D-02 1.66224261D-01
                -5.01603943D-02 3.52425037D-02-7.26651875D-02
                 4.71954358D-02 2.62435237D-02 1.60818913D-02
                -1.20384845D-01 7.37723064D-03 1.66774822D-01
                 6.40598258D-02 3.44967868D-02-4.65325145D-02
                -1.28417829D-02-7.85106532D-02 3.15019258D-03
                -7.80021554D-02-1.92164843D-02 1.69255137D-01
                 4.45268069D-02-2.18449717D-02 3.66564860D-03
                 1.88408831D-03 4.50217154D-02-1.09918057D-02
                -7.80565265D-03-1.36385043D-02 1.59021823D-03
                -6.43924983D-03 2.89066394D-02 7.36321614D-03
                 2.08985168D-02-8.23622597D-02 6.25236890D-02
                 3.07665020D-02 1.08994065D-01 1.50907595D-01
                -1.03654265D-01-7.82850374D-02-4.53857033D-02
                -1.02130385D-01 1.76837852D-03-5.11420459D-02
                -6.22212820D-02-5.17094078D-02 5.64524393D-02
                -1.95027172D-02 7.94743947D-03 3.77229623D-02
                 7.34802598D-02 5.03012365D-02-7.26278707D-02
                 7.63291253D-02-7.16737713D-02-1.34208388D-01
                 5.56775346D-02-2.22909149D-02 3.19577839D-02
                 3.62963965D-02-8.39040912D-02 9.98659143D-02
                -1.66294736D-02 1.06707065D-01-1.30486936D-03
 Polarizability= 3.69910518D+01 2.71425906D+00 2.95356745D+01
                 4.41882400D-01-1.31326306D-01 2.38810118D+01
 PolarDeriv    =-3.34200317D+00-4.02728783D+00-3.27745042D-01
                 2.62497720D+00 9.06338661D-01 5.50265612D-02
                -4.54668109D+00-7.57330391D-01 2.78862333D+00
                 1.69950488D+00 3.66840043D-01-5.77287582D-01
                 2.50628439D+00 7.62931224D-01 1.68327550D+00
                 2.51459595D+00 2.13526373D-01-2.77295000D+00
                 2.39726778D+00 3.03231749D+00 1.46126437D+00
                 2.65632448D+00 2.39271241D+00 1.08162547D+00
                 2.57592301D+00 2.02257226D+00-2.54713543D+00
                 2.40239524D+00 1.84801413D+00-3.20988468D-01
                 3.88575652D+00 1.32116690D+00 2.54768832D+00
                -1.72505657D+00-1.43942410D+00-2.58074356D+00
                -2.44201718D+00-2.31981464D+00 1.83437325D-01
                 2.47820438D-02-1.41422817D+00-1.32033295D+00
                -2.65233897D+00-2.28522266D+00 2.27860999D+00
                -1.85950672D+00-2.19640239D+00 2.56872728D+00
                -6.71333616D-01-1.23941126D+00-2.89972247D+00
                -3.60400498D+00 2.68707615D+00 3.52775954D+00
                -7.75352204D+00 1.79183266D+00-7.83304056D-01
                -1.76286455D+00 2.19928393D-01-4.24284511D-01
                 2.20602920D+00-2.36164774D+00 9.45702121D-01
                 5.35708036D-01-7.89169316D-01 3.31596422D-01
                -2.37649670D+00 2.17291432D-01-4.62361788D-01
                -2.07676180D+00 1.15811877D+00-1.09367124D+00
                -7.72917649D-01-1.46026224D+00 1.41431067D-01
                -4.14322706D-01 5.15323273D-02-7.24659229D-02
                -8.28490333D-01-1.22092538D+00-7.76003808D+00
                -2.95723688D-02-1.30258830D-01-9.12698067D-02
                -8.94193052D-01-1.34521674D-01-5.90808273D-01
                 1.95793223D-02-1.63233220D+00 2.75865002D-01
                 1.35223750D+00 5.69437387D-01-1.22056165D+00
                -2.74021989D+00-3.11082504D+00-9.78675908D-01
                 1.30814786D+00-8.57185326D-01 3.03159632D-01
                -3.96735656D+00 9.28906107D-01-5.19910586D-02
                -1.56293934D+00-1.55456711D+00-9.53773325D-02
                -1.37931187D+00 5.68898006D-01 7.23487574D+00
                 3.90537658D-01 1.54849961D+00-3.12907120D-01
                -6.00406463D-01 9.32593031D-03 8.54091752D-02
                 3.41303930D-01-1.42475306D-01 8.26930889D+00
                -2.63051610D-02-1.69420522D+00 4.40205385D-01
                -5.92103417D-01-4.45908285D-01-2.27255782D+00
                -4.80509812D-01 2.16147196D+00-1.00076065D+00
                 7.04023381D+00 2.89784451D+00 6.68802772D-01
                 1.52612759D+00 4.79055634D-01 5.50208676D-01
                 2.35536367D+00 2.68976522D+00 2.95433155D+00
                 5.20390551D-01 1.37910858D+00-5.37325688D-04
                 1.19729932D+00 5.12073883D-01 7.42171234D-01
                 2.73774582D+00 9.69706656D-01 1.16553259D+00
                 2.93419813D+00-4.78361820D-01 1.58524771D-01
                -2.91207438D+00 4.87763495D-01 8.17210208D-01
                -3.91481724D-01 1.62341433D+00-1.80468938D+00
                 9.96565402D-01-2.16325291D+00-1.15683040D+00
                -2.21495147D+00 8.98331432D-01-1.84380904D-01
                 2.92966423D+00-1.82019435D+00-7.41102220D+00
                 1.95985161D-01-1.55420513D+00 3.10575603D-02
                 1.59767667D+00-2.16036404D-02 2.06279204D-01
                -3.67775544D-01 1.28903500D+00-5.42787262D+00
                -2.71823300D-01 2.45041981D+00-1.14162444D+00
                 7.22677367D-01-3.37386536D-01 1.53207354D+00
                 1.06405971D+00-2.86684726D+00 2.65511478D+00
 HyperPolar    = 5.03152652D+00 1.54706726D+01 9.91928293D-01
                -9.10718066D+00-2.31430574D+01 4.03096311D-01
                -5.06054506D+00 5.97464870D+00-6.14985968D+00
                 9.23236102D+00
 VibFq2-Diag1:  N=     30 IV=          11 MDV=   939514366 NE2=    31317145
 Full mass-weighted force constant matrix:
 Low frequencies ----2494.2651   -1.0869   -0.0010   -0.0001    0.0004    1.9432
 Low frequencies ---    4.4109  203.3341  396.3851
 OrtVCM:  Ph=1 IPass= 1 DotMx1= 0.00D+00
 OrtVCM:  IS=    1 I=    1 IndO=    1 Dot= 1.00D+00 DotN= 1.00D+00 ElMax1= 5.28D-01 ElMax1N= 5.28D-01
 OrtVCM:  Ph=2 NNew=    0 IAdd=    2 IPass= 1 DotMx2= 0.00D+00
 OrtVCM:  IS=    1 I=    2 IndO=    2 Dot= 1.00D+00 DotN= 1.00D+00 ElMax1= 5.28D-01 ElMax1N= 5.28D-01
 OrtVCM:  Ph=2 NNew=    0 IAdd=    3 IPass= 1 DotMx2= 0.00D+00
 OrtVCM:  IS=    1 I=    3 IndO=    3 Dot= 1.00D+00 DotN= 1.00D+00 ElMax1= 5.28D-01 ElMax1N= 5.28D-01
 OrtVCM:  Ph=2 NNew=    0 IAdd=    4 IPass= 1 DotMx2= 9.02D-17
 OrtVCM:  IS=    1 I=    4 IndO=    4 Dot= 1.00D+00 DotN= 1.00D+00 ElMax1= 4.90D-01 ElMax1N= 4.90D-01
 OrtVCM:  Ph=2 NNew=    0 IAdd=    5 IPass= 1 DotMx2= 1.32D-16
 OrtVCM:  IS=    1 I=    5 IndO=    5 Dot= 1.00D+00 DotN= 1.00D+00 ElMax1= 5.91D-01 ElMax1N= 5.91D-01
 OrtVCM:  Ph=2 NNew=    0 IAdd=    6 IPass= 1 DotMx2= 7.63D-17
 OrtVCM:  IS=    1 I=    6 IndO=    6 Dot= 1.00D+00 DotN= 1.00D+00 ElMax1= 5.54D-01 ElMax1N= 5.54D-01
 OrtVCM:  Ph=1 IPass= 1 DotMx1= 5.91D-01
 OrtVCM:  Ph=1 IPass= 2 DotMx1= 2.39D-16
 OrtVCM:  IS=    1 I=    1 IndO=    7 Dot= 7.08D-01 DotN= 7.08D-01 ElMax1= 7.08D-01 ElMax1N= 7.08D-01
 OrtVCM:  Ph=2 NNew=    0 IAdd=    2 IPass= 1 DotMx2= 7.58D-02
 OrtVCM:  Ph=2 NNew=    0 IAdd=    2 IPass= 2 DotMx2= 1.11D-17
 OrtVCM:  IS=    1 I=    2 IndO=    8 Dot= 4.07D-01 DotN= 4.07D-01 ElMax1= 4.07D-01 ElMax1N= 4.07D-01
 OrtVCM:  Ph=2 NNew=    0 IAdd=    3 IPass= 1 DotMx2= 9.90D-03
 OrtVCM:  Ph=2 NNew=    0 IAdd=    3 IPass= 2 DotMx2= 3.88D-18
 OrtVCM:  IS=    1 I=    3 IndO=    9 Dot= 3.13D-01 DotN= 3.13D-01 ElMax1= 3.13D-01 ElMax1N= 3.13D-01
 OrtVCM:  Ph=2 NNew=    0 IAdd=    4 IPass= 1 DotMx2= 3.01D-01
 OrtVCM:  Ph=2 NNew=    0 IAdd=    4 IPass= 2 DotMx2= 3.38D-17
 OrtVCM:  IS=    1 I=    4 IndO=   10 Dot= 5.57D-01 DotN= 5.57D-01 ElMax1= 5.57D-01 ElMax1N= 5.57D-01
 OrtVCM:  Ph=2 NNew=    0 IAdd=    5 IPass= 1 DotMx2= 4.47D-01
 OrtVCM:  Ph=2 NNew=    0 IAdd=    5 IPass= 2 DotMx2= 9.71D-17
 OrtVCM:  IS=    1 I=    5 IndO=   11 Dot= 5.11D-01 DotN= 5.11D-01 ElMax1= 5.11D-01 ElMax1N= 5.11D-01
 OrtVCM:  Ph=2 NNew=    0 IAdd=    6 IPass= 1 DotMx2= 2.97D-01
 OrtVCM:  Ph=2 NNew=    0 IAdd=    6 IPass= 2 DotMx2= 6.25D-17
 OrtVCM:  IS=    1 I=    6 IndO=   12 Dot= 3.93D-01 DotN= 3.93D-01 ElMax1= 3.93D-01 ElMax1N= 3.93D-01
 OrtVCM:  Ph=2 NNew=    0 IAdd=    7 IPass= 1 DotMx2= 4.61D-01
 OrtVCM:  Ph=2 NNew=    0 IAdd=    7 IPass= 2 DotMx2= 6.94D-17
 OrtVCM:  IS=    1 I=    7 IndO=   13 Dot= 3.69D-01 DotN= 3.69D-01 ElMax1= 3.69D-01 ElMax1N= 3.69D-01
 OrtVCM:  Ph=2 NNew=    0 IAdd=    8 IPass= 1 DotMx2= 3.30D-01
 OrtVCM:  Ph=2 NNew=    0 IAdd=    8 IPass= 2 DotMx2= 3.82D-17
 OrtVCM:  IS=    1 I=    8 IndO=   14 Dot= 2.84D-01 DotN= 2.84D-01 ElMax1= 2.84D-01 ElMax1N= 2.84D-01
 OrtVCM:  Ph=2 NNew=    0 IAdd=    9 IPass= 1 DotMx2= 2.61D-01
 OrtVCM:  Ph=2 NNew=    0 IAdd=    9 IPass= 2 DotMx2= 3.12D-17
 OrtVCM:  IS=    1 I=    9 IndO=   15 Dot= 2.72D-01 DotN= 2.72D-01 ElMax1= 2.72D-01 ElMax1N= 2.72D-01
 OrtVCM:  Ph=2 NNew=    0 IAdd=   10 IPass= 1 DotMx2= 2.98D-01
 OrtVCM:  Ph=2 NNew=    0 IAdd=   10 IPass= 2 DotMx2= 2.78D-17
 OrtVCM:  IS=    1 I=   10 IndO=   16 Dot= 8.44D-01 DotN= 8.44D-01 ElMax1= 8.44D-01 ElMax1N= 8.44D-01
 OrtVCM:  Ph=2 NNew=    0 IAdd=   11 IPass= 1 DotMx2= 3.70D-01
 OrtVCM:  Ph=2 NNew=    0 IAdd=   11 IPass= 2 DotMx2= 2.78D-17
 OrtVCM:  IS=    1 I=   11 IndO=   17 Dot= 5.92D-01 DotN= 5.92D-01 ElMax1= 5.92D-01 ElMax1N= 5.92D-01
 OrtVCM:  Ph=2 NNew=    0 IAdd=   12 IPass= 1 DotMx2= 4.21D-01
 OrtVCM:  Ph=2 NNew=    0 IAdd=   12 IPass= 2 DotMx2= 1.67D-16
 OrtVCM:  IS=    1 I=   12 IndO=   18 Dot= 5.63D-01 DotN= 5.63D-01 ElMax1= 5.63D-01 ElMax1N= 5.63D-01
 OrtVCM:  Ph=2 NNew=    0 IAdd=   13 IPass= 1 DotMx2= 3.13D-01
 OrtVCM:  Ph=2 NNew=    0 IAdd=   13 IPass= 2 DotMx2= 5.55D-17
 OrtVCM:  IS=    1 I=   13 IndO=   19 Dot= 7.31D-01 DotN= 7.31D-01 ElMax1= 7.31D-01 ElMax1N= 7.31D-01
 OrtVCM:  Ph=2 NNew=    0 IAdd=   14 IPass= 1 DotMx2= 3.77D-01
 OrtVCM:  Ph=2 NNew=    0 IAdd=   14 IPass= 2 DotMx2= 1.80D-16
 OrtVCM:  IS=    1 I=   14 IndO=   20 Dot= 6.04D-01 DotN= 6.04D-01 ElMax1= 6.04D-01 ElMax1N= 6.04D-01
 OrtVCM:  Ph=2 NNew=    0 IAdd=   15 IPass= 1 DotMx2= 4.75D-01
 OrtVCM:  Ph=2 NNew=    0 IAdd=   15 IPass= 2 DotMx2= 1.11D-16
 OrtVCM:  IS=    1 I=   15 IndO=   21 Dot= 4.26D-01 DotN= 4.26D-01 ElMax1= 4.26D-01 ElMax1N= 4.26D-01
 OrtVCM:  Ph=2 NNew=    0 IAdd=   16 IPass= 1 DotMx2= 2.91D-01
 OrtVCM:  Ph=2 NNew=    0 IAdd=   16 IPass= 2 DotMx2= 1.05D-16
 OrtVCM:  IS=    1 I=   16 IndO=   22 Dot= 6.86D-01 DotN= 6.86D-01 ElMax1= 6.86D-01 ElMax1N= 6.86D-01
 OrtVCM:  Ph=2 NNew=    0 IAdd=   17 IPass= 1 DotMx2= 3.84D-01
 OrtVCM:  Ph=2 NNew=    0 IAdd=   17 IPass= 2 DotMx2= 1.80D-16
 OrtVCM:  IS=    1 I=   17 IndO=   23 Dot= 4.49D-01 DotN= 4.49D-01 ElMax1= 4.49D-01 ElMax1N= 4.49D-01
 OrtVCM:  Ph=2 NNew=    0 IAdd=   18 IPass= 1 DotMx2= 4.37D-01
 OrtVCM:  Ph=2 NNew=    0 IAdd=   18 IPass= 2 DotMx2= 1.39D-16
 OrtVCM:  IS=    1 I=   18 IndO=   24 Dot= 4.27D-01 DotN= 4.27D-01 ElMax1= 4.27D-01 ElMax1N= 4.27D-01
 OrtVCM:  Ph=2 NNew=    0 IAdd=   19 IPass= 1 DotMx2= 3.08D-01
 OrtVCM:  Ph=2 NNew=    0 IAdd=   19 IPass= 2 DotMx2= 9.71D-17
 OrtVCM:  IS=    1 I=   19 IndO=   25 Dot= 4.23D-01 DotN= 4.23D-01 ElMax1= 4.23D-01 ElMax1N= 4.23D-01
 OrtVCM:  Ph=2 NNew=    0 IAdd=   20 IPass= 1 DotMx2= 4.33D-01
 OrtVCM:  Ph=2 NNew=    0 IAdd=   20 IPass= 2 DotMx2= 8.97D-17
 OrtVCM:  IS=    1 I=   20 IndO=   26 Dot= 3.10D-01 DotN= 3.10D-01 ElMax1= 3.10D-01 ElMax1N= 3.10D-01
 OrtVCM:  Ph=2 NNew=    0 IAdd=   21 IPass= 1 DotMx2= 4.86D-01
 OrtVCM:  Ph=2 NNew=    0 IAdd=   21 IPass= 2 DotMx2= 1.08D-16
 OrtVCM:  IS=    1 I=   21 IndO=   27 Dot= 1.84D-01 DotN= 1.84D-01 ElMax1= 2.29D-01 ElMax1N= 2.29D-01
 OrtVCM:  Ph=2 NNew=    0 IAdd=   22 IPass= 1 DotMx2= 5.02D-01
 OrtVCM:  Ph=2 NNew=    0 IAdd=   22 IPass= 2 DotMx2= 1.39D-16
 OrtVCM:  IS=    1 I=   22 IndO=   28 Dot= 1.52D-01 DotN= 1.52D-01 ElMax1= 2.67D-01 ElMax1N= 2.67D-01
 OrtVCM:  Ph=2 NNew=    0 IAdd=   23 IPass= 1 DotMx2= 6.86D-01
 OrtVCM:  Ph=2 NNew=    0 IAdd=   23 IPass= 2 DotMx2= 1.01D-16
 OrtVCM:  IS=    1 I=   23 IndO=    0 Dot= 1.78D-03 DotN= 1.78D-03 ElMax1= 2.49D-02 ElMax1N= 2.49D-02
 OrtVCM:  Ph=2 NNew=    0 IAdd=   24 IPass= 1 DotMx2= 4.87D-01
 OrtVCM:  Ph=2 NNew=    0 IAdd=   24 IPass= 2 DotMx2= 1.39D-16
 OrtVCM:  IS=    1 I=   24 IndO=   29 Dot= 3.47D-01 DotN= 3.47D-01 ElMax1= 3.47D-01 ElMax1N= 3.47D-01
 SchOr2:  IPass= 1 Test2A= 1.00D-01 IOff=     0 NDo=    24 NNew=    23
 OrtVCM:  Ph=1 IPass= 1 DotMx1= 5.33D-01
 OrtVCM:  Ph=1 IPass= 2 DotMx1= 2.74D-16
 OrtVCM:  IS=    1 I=    1 IndO=   30 Dot= 1.06D-02 DotN= 1.06D-02 ElMax1= 6.79D-02 ElMax1N= 6.79D-02
 SchOr2:  IPass= 1 Test2A= 1.00D-01 IOff=    24 NDo=     1 NNew=     1
 VibFq2-Diag2:  N=     24 IV=          11 MDV=   939514366 NE2=    39146431
 ******    1 imaginary frequencies (negative Signs) ****** 
 Dipole derivatives wrt mode   1:  2.19012D-01 -4.13592D-01  3.57814D-01
 Polarizability derivatives wrt mode          1
                 1             2             3 
      1   0.536631D+00 -0.169846D-01 -0.129190D+01
      2  -0.169846D-01 -0.254348D+00 -0.614717D+00
      3  -0.129190D+01 -0.614717D+00 -0.143320D+00
 Vibrational polarizability contributions from mode   1       0.0002075       0.0007399       0.0005538
 IFr=  0 A012= 0.29D-01 0.40D+02 0.67D+01 Act= 0.47D+02 DepolP= 0.75D+00 DepolU= 0.86D+00
 Dipole derivatives wrt mode   2:  2.83894D-01 -4.77752D-02 -5.21024D-02
 Polarizability derivatives wrt mode          2
                 1             2             3 
      1   0.958593D-01  0.722455D-01 -0.888874D-01
      2   0.722455D-01 -0.440323D-01 -0.123059D+00
      3  -0.888874D-01 -0.123059D+00  0.411317D-02
 Vibrational polarizability contributions from mode   2       0.0524595       0.0014857       0.0017670
 IFr=  0 A012= 0.47D-02 0.61D+00 0.10D+00 Act= 0.72D+00 DepolP= 0.72D+00 DepolU= 0.84D+00
 Dipole derivatives wrt mode   3: -7.33927D-01 -4.49123D-01 -8.10743D-01
 Polarizability derivatives wrt mode          3
                 1             2             3 
      1  -0.320175D+00  0.281135D-01  0.997244D-02
      2   0.281135D-01  0.510727D-01  0.718579D-01
      3   0.997244D-02  0.718579D-01 -0.170614D-01
 Vibrational polarizability contributions from mode   3       0.0922580       0.0345485       0.1125808
 IFr=  0 A012= 0.12D+00 0.11D+01 0.18D+00 Act= 0.14D+01 DepolP= 0.43D+00 DepolU= 0.60D+00
 Dipole derivatives wrt mode   4:  3.78976D-01  5.63173D-01  1.73690D+00
 Polarizability derivatives wrt mode          4
                 1             2             3 
      1   0.676282D-01 -0.493903D-01 -0.171075D+00
      2  -0.493903D-01  0.903182D-02  0.141129D+00
      3  -0.171075D+00  0.141129D+00 -0.177297D+00
 Vibrational polarizability contributions from mode   4       0.0229937       0.0507773       0.4829889
 IFr=  0 A012= 0.15D-01 0.13D+01 0.21D+00 Act= 0.15D+01 DepolP= 0.71D+00 DepolU= 0.83D+00
 Dipole derivatives wrt mode   5:  6.68549D-01  1.38487D+00  6.27082D+00
 Polarizability derivatives wrt mode          5
                 1             2             3 
      1   0.783519D-01 -0.625563D-01 -0.857117D-01
      2  -0.625563D-01 -0.282763D-01  0.105520D+00
      3  -0.857117D-01  0.105520D+00 -0.215331D+00
 Vibrational polarizability contributions from mode   5       0.0196948       0.0845094       1.7327364
 IFr=  0 A012= 0.41D-01 0.88D+00 0.15D+00 Act= 0.11D+01 DepolP= 0.60D+00 DepolU= 0.75D+00
[...]
     11  0.196848D-01  0.103482D-03 -0.338637D-02 -0.951323D-03  0.112158D-01
     12  0.950286D-03 -0.118770D-02  0.107063D-02  0.106513D-02 -0.123273D+00
     13 -0.224534D-01  0.225295D-02  0.107023D-02 -0.111962D-02  0.143911D-02
     14 -0.707141D-02 -0.829254D-03  0.158325D-02 -0.188455D-02 -0.467551D-03
     15  0.148117D-04  0.100244D-02  0.417487D-03  0.150914D-02 -0.272255D-02
     16  0.925439D-02 -0.585905D-02  0.568572D-02  0.793688D-03  0.695591D-02
     17  0.354256D-01  0.166179D-02 -0.506142D-03  0.446393D-02 -0.111276D-03
     18 -0.458318D-01  0.127931D-01 -0.875044D-02  0.549521D-02 -0.117794D-01
     19 -0.585923D-01  0.114755D-01  0.150144D-01  0.172809D-01  0.126269D-02
     20 -0.149973D+00 -0.296861D-02 -0.712461D-03 -0.119125D-02  0.119771D-02
     21 -0.208212D+00 -0.108449D-01 -0.136424D-01 -0.121920D-01 -0.928472D-03
     22  0.756915D-02 -0.101339D+00 -0.928240D-01  0.394632D-01 -0.120915D-02
     23 -0.525952D-02 -0.952036D-01 -0.259109D+00  0.859145D-01  0.458903D-03
     24 -0.105886D-01  0.386605D-01  0.835746D-01 -0.956975D-01  0.140491D-02
     25 -0.126952D-03 -0.201751D+00  0.116812D+00 -0.642150D-01  0.176398D-03
     26 -0.146263D-02  0.116362D+00 -0.154320D+00  0.519576D-01  0.418411D-04
     27  0.743724D-02 -0.592704D-01  0.487788D-01 -0.814123D-01 -0.473752D-03
     28  0.231747D-01 -0.126844D+00 -0.658920D-01 -0.101998D+00  0.641774D-04
     29 -0.666954D-02 -0.641541D-01 -0.114957D+00 -0.920076D-01  0.234783D-04
     30 -0.229780D-01 -0.100337D+00 -0.913841D-01 -0.206581D+00 -0.135574D-03
               11            12            13            14            15 
     11  0.507343D-01
     12  0.143500D-01  0.355287D+00
     13  0.955016D-02  0.399825D-02  0.368680D-01
     14  0.548178D-02  0.342430D-02  0.290627D-01  0.299502D+00
     15 -0.269322D-01 -0.865227D-02 -0.428452D-02  0.159560D+00  0.144142D+00
     16 -0.538174D-02  0.340472D-02  0.213985D-02 -0.149194D-02  0.251806D-02
     17  0.334276D-02 -0.397521D-02  0.971298D-02 -0.222694D-02  0.541753D-02
     18  0.629965D-02 -0.516117D-02  0.747815D-02 -0.796473D-02  0.518775D-02
     19 -0.132122D-02  0.122666D-02 -0.247607D-02  0.137179D-03  0.721588D-03
     20  0.125790D-02  0.483245D-03 -0.505390D-02 -0.138666D-02  0.767135D-03
     21 -0.792115D-03  0.115432D-02  0.286247D-02  0.252930D-02 -0.890345D-04
     22 -0.715015D-03  0.191375D-03  0.284750D-03  0.335500D-03 -0.189650D-03
     23  0.269358D-03 -0.724227D-04  0.277175D-03  0.183981D-03 -0.124576D-05
     24  0.864875D-03 -0.765063D-05 -0.228901D-03  0.116914D-03  0.188081D-04
     25 -0.184143D-03  0.581653D-05 -0.456226D-03 -0.630104D-03  0.150164D-04
     26  0.187047D-03 -0.139916D-03 -0.416099D-04  0.251371D-03 -0.328406D-03
     27  0.694380D-04 -0.898695D-04 -0.249762D-03  0.608339D-03  0.768191D-04
     28  0.284952D-03 -0.260715D-03  0.107107D-03 -0.169132D-03 -0.569245D-04
     29  0.106046D-03 -0.136033D-03 -0.100819D-03  0.336330D-03  0.224061D-03
     30  0.419794D-03  0.234044D-03  0.477951D-03  0.119672D-02 -0.119661D-03
               16            17            18            19            20 
     16 -0.762375D-02
     17 -0.153284D+00 -0.522735D-01
     18  0.774159D-01  0.311118D-01  0.526829D-01
     19  0.250756D-02 -0.917570D-02 -0.674709D-02  0.737241D-01
     20  0.351074D-02  0.761916D-02  0.474849D-02  0.784728D-01  0.197829D+00
     21  0.451949D-03 -0.495437D-02 -0.473095D-02  0.518099D-01  0.164119D+00
     22  0.109451D-02 -0.432418D-03 -0.479265D-03  0.824753D-03  0.409652D-03
     23 -0.140971D-03  0.302605D-03  0.192467D-04 -0.416612D-03  0.602628D-03
     24  0.279390D-03 -0.108135D-04  0.407392D-03 -0.106986D-02 -0.153113D-03
     25  0.139881D-02  0.125652D-02  0.186075D-02  0.254999D-03  0.348636D-04
     26 -0.220692D-02 -0.120905D-02  0.360758D-03 -0.174055D-03 -0.269395D-03
     27  0.118028D-03 -0.197515D-02 -0.201931D-02 -0.104036D-02  0.256717D-03
     28 -0.713436D-03 -0.529930D-03  0.486126D-03 -0.265765D-02  0.440144D-03
     29 -0.597734D-03 -0.753916D-03  0.436542D-04  0.101819D-02  0.976282D-03
     30 -0.641261D-03 -0.165483D-02  0.111401D-02  0.329877D-02  0.539018D-03
               21            22            23            24            25 
     21  0.212652D+00
     22 -0.302443D-03  0.109937D+00
     23  0.884556D-03  0.103859D+00  0.282467D+00
     24  0.437983D-03 -0.487657D-01 -0.939077D-01  0.102385D+00
     25  0.535009D-03  0.134206D-01 -0.939669D-02  0.471791D-02  0.223107D+00
     26 -0.368564D-03  0.255117D-01 -0.205009D-01  0.111789D-01 -0.134506D+00
     27  0.908398D-04 -0.106616D-01  0.775339D-02 -0.493320D-02  0.650632D-01
     28  0.378614D-02 -0.853690D-02 -0.622540D-02 -0.114423D-01 -0.154496D-01
     29 -0.113481D-02 -0.166892D-01 -0.151052D-01 -0.258001D-01  0.123274D-01
     30 -0.295786D-02  0.771834D-02  0.621480D-02  0.124591D-01 -0.707917D-02
               26            27            28            29            30 
     26  0.165562D+00
     27 -0.547383D-01  0.894421D-01
     28 -0.142059D-01 -0.217455D-01  0.139651D+00
     29  0.119738D-01  0.187425D-01  0.703053D-01  0.122683D+00
     30 -0.515713D-02 -0.948150D-02  0.109475D+00  0.106116D+00  0.228525D+00
 Final forces over variables, Energy=-1.16887377D+02:
  3.13508162D-06-1.08537414D-05-4.00861788D-06-1.99787186D-06
 -8.22099333D-07 8.84489850D-06 2.61029156D-06 8.48019212D-07
  3.99243738D-06-1.74839782D-06 1.23424335D-05-8.03156027D-06
  8.76246448D-07 1.84013974D-07-7.13680634D-06-2.93491258D-06
  4.82675428D-06 3.45476789D-06-1.78629642D-06-1.79464046D-06
 -4.72447676D-06-8.83498712D-06 2.55501955D-06 6.32575263D-06
 -3.99217213D-06 3.03786050D-06 7.34051759D-06-1.75808016D-06
  2.24940772D-06-2.19884182D-06
 Leave Link  716 at Sun May 22 09:31:51 2022, MaxMem=   939524096 cpu:         0.1
 (Enter /Local/ce_dana/g09/l103.exe)

 GradGradGradGradGradGradGradGradGradGradGradGradGradGradGradGradGradGrad
 Berny optimization.
 Search for a local minimum.
 Step number   1 out of a maximum of    2
 All quantities printed in internal units (Hartrees-Bohrs-Radians)
 Second derivative matrix not updated -- analytic derivatives used.
 ITU=  0
     Eigenvalues ---   -0.44867   0.00183   0.00829   0.01262   0.03181
     Eigenvalues ---    0.04910   0.06108   0.06783   0.08358   0.09193
     Eigenvalues ---    0.11055   0.12479   0.14159   0.16965   0.17563
     Eigenvalues ---    0.23298   0.27603   0.41782   0.60983   0.77610
     Eigenvalues ---    0.82307   0.86502   0.94141   1.06496
 Eigenvalue     1 is  -4.49D-01 should be greater than     0.000000 Eigenvector:
                          Y6        X6        X2        Y1        Z6
   1                    0.58890   0.51514  -0.37390  -0.28496  -0.21273
                          Z1        X1        Z2        Y2        Y7
   1                    0.21133   0.17031  -0.12170   0.08060  -0.06507
 Angle between quadratic step and forces=  83.51 degrees.
 Linear search not attempted -- first point.
 TrRot=  0.000002 -0.000004 -0.000001  0.000002  0.000004  0.000002
 Variable       Old X    -DE/DX   Delta X   Delta X   Delta X     New X
                                 (Linear)    (Quad)   (Total)
    X1        2.02170   0.00000   0.00000  -0.00007  -0.00009   2.02161
    Y1        1.40772   0.00001   0.00000   0.00004   0.00004   1.40776
    Z1       -2.16044  -0.00000   0.00000  -0.00006  -0.00006  -2.16050
    X2        0.14122  -0.00001   0.00000   0.00005   0.00005   0.14128
    Y2       -0.55934  -0.00001   0.00000  -0.00006  -0.00006  -0.55940
    Z2       -1.34857  -0.00001   0.00000   0.00004   0.00004  -1.34853
    X3       -1.60922  -0.00000   0.00000   0.00001   0.00002  -1.60920
    Y3        0.00687   0.00000   0.00000  -0.00000  -0.00001   0.00686
    Z3        0.82983   0.00000   0.00000   0.00000   0.00001   0.82983
    X4        2.72646  -0.00000   0.00000  -0.00005  -0.00007   2.72639
    Y4        1.36717   0.00000   0.00000  -0.00000   0.00001   1.36717
    Z4       -4.05781   0.00001   0.00000  -0.00003  -0.00004  -4.05785
    X5        2.13579  -0.00000   0.00000  -0.00021  -0.00023   2.13557
    Y5        3.13337  -0.00001   0.00000   0.00008   0.00008   3.13345
    Z5       -1.10585  -0.00000   0.00000  -0.00014  -0.00015  -1.10600
    X6        2.58482   0.00001   0.00000   0.00011   0.00011   2.58493
    Y6       -0.64327  -0.00000   0.00000   0.00011   0.00011  -0.64315
    Z6       -0.84369   0.00000   0.00000   0.00008   0.00007  -0.84363
    X7       -0.42546   0.00000   0.00000   0.00016   0.00016  -0.42530
    Y7       -1.91723   0.00000   0.00000  -0.00018  -0.00019  -1.91742
    Z7       -2.74332   0.00001   0.00000   0.00015   0.00015  -2.74317
    X8       -2.43692   0.00000   0.00000  -0.00035  -0.00034  -2.43726
    Y8       -1.70601   0.00000   0.00000   0.00007   0.00006  -1.70595
    Z8        1.58795  -0.00000   0.00000  -0.00027  -0.00026   1.58769
    X9       -3.13818   0.00000   0.00000   0.00030   0.00030  -3.13788
    Y9        1.24591  -0.00000   0.00000   0.00036   0.00034   1.24626
    Z9        0.23227   0.00000   0.00000   0.00006   0.00007   0.23234
   X10       -0.60653  -0.00000   0.00000   0.00008   0.00009  -0.60644
   Y10        0.95125  -0.00000   0.00000  -0.00038  -0.00039   0.95086
   Z10        2.34987  -0.00000   0.00000   0.00018   0.00018   2.35005
         Item               Value     Threshold  Converged?
 Maximum Force            0.000012     0.000450     YES
 RMS     Force            0.000005     0.000300     YES
 Maximum Displacement     0.000385     0.001800     YES
 RMS     Displacement     0.000165     0.001200     YES
 Predicted change in Energy=-1.471078D-09
 Optimization completed.
    -- Stationary point found.
 GradGradGradGradGradGradGradGradGradGradGradGradGradGradGradGradGradGrad

 Leave Link  103 at Sun May 22 09:31:51 2022, MaxMem=   939524096 cpu:         0.0
 (Enter /Local/ce_dana/g09/l9999.exe)

 Test job not archived.
 1\1\GINC-TECH-WN175\Freq\UHF\3-21G\C3H7(2)\ALONGD\22-May-2022\0\\#P gu
 ess=read uhf/3-21g freq IOp(7/33=1) scf=(tight, direct) integral=(grid
 =ultrafine, Acc2E=12) IOp(2/9=2000) scf=xqc\\TS0\\0,2\C,1.069836,0.744
 932,-1.143254\C,0.074733,-0.295991,-0.71363\C,-0.851562,0.003636,0.439
 126\H,1.442781,0.723474,-2.147298\H,1.130213,1.658108,-0.58519\H,1.367
 829,-0.340403,-0.446464\H,-0.225144,-1.014555,-1.451703\H,-1.289561,-0
 .902781,0.840309\H,-1.660651,0.659309,0.122912\H,-0.32096,0.50338,1.24
 3496\\Version=ES64L-G09RevD.01\State=2-A\HF=-116.8873773\S2=0.805897\S
 2-1=0.\S2A=0.750741\RMSD=6.653e-09\RMSF=5.199e-06\ZeroPoint=0.08959\Th
 ermal=0.0938895\Dipole=-0.0061669,-0.0392822,0.0385547\DipoleDeriv=-0.
 5054911,0.0414735,-0.0805534,0.0829019,0.0511007,0.0353965,-0.1332173,
 0.0088017,-0.0242058,0.117879,0.1920443,-0.0649876,0.1046937,-0.199229
 5,0.1580693,-0.0349377,0.1843469,-0.0440438,0.0931173,-0.0595731,0.051
 7591,-0.0279826,0.1365427,-0.0504822,-0.0470686,-0.0783367,0.1017982,0
 .1462228,-0.0379024,0.0807788,-0.0598462,0.0531764,-0.0078882,0.124744
 7,0.0011272,-0.0565413,0.1727281,-0.0131561,0.0428737,-0.0714001,-0.03
 65711,-0.0549242,0.0432941,-0.0733364,0.0186473,0.0278274,0.0084992,-0
 .0250236,0.0155215,0.0223782,0.0120317,-0.0054598,0.0284516,0.0409332,
 0.0345662,-0.0961948,0.0372859,-0.0605821,0.0479568,-0.0999606,0.02587
 95,-0.1370142,-0.0204169,0.0137148,-0.0660446,0.0638882,-0.0892436,-0.
 0869363,0.0862598,0.0677587,0.0689629,0.027788,-0.1076319,0.0835435,-0
 .0012708,0.1431045,-0.0127796,0.0177216,-0.0054813,0.0648454,0.0170016
 ,0.0070674,-0.0526895,-0.1047503,-0.0371672,0.0243616,-0.0962237,-0.03
 55123,-0.0678484,-0.0609604\Polar=31.157775,5.0344647,30.1947088,-4.84
 31377,-0.9532327,29.0552543\PolarDeriv=2.8848522,4.1345042,1.8230844,-
 1.4885054,-0.8872867,-0.8325245,6.2443283,0.6951278,-2.2867862,-0.3882
 462,-1.312897,-1.6206711,-2.2794851,-0.3480927,-0.4006075,-2.1477587,-
 0.6458222,2.463182,2.6925203,0.8715519,-3.4855887,-0.3651778,3.9401247
 ,-0.2701613,-0.2936458,-2.6891633,-2.6561077,2.3492198,3.3334291,0.213
 3934,2.0316407,2.2538509,3.1671616,-0.6122763,1.0531143,0.3433743,4.10
 61302,-1.9507466,1.3149367,-0.4726299,-2.5103287,-3.0495478,-2.508401,
 3.5291234,1.9795249,-2.5015584,-2.8800617,-0.3977541,0.4251045,-2.2425
 223,-1.4562316,-0.8711442,-0.7067007,-2.3074,1.8185939,-0.0846236,0.38
 50257,-2.5088294,-0.2304869,1.4219787,0.1067798,1.1534297,0.7990453,-0
 .0830883,-1.4628128,0.1799525,-1.7246082,-0.654527,-0.2131907,3.186854
 8,0.7407591,-7.7356694,0.187615,1.3533776,0.0788106,0.8548235,-0.17388
 75,0.4256673,0.7943328,1.5128868,6.493965,-0.10567,1.8473198,0.8872058
 ,0.0830522,0.359799,1.7528583,0.7990189,2.1176118,1.3229825,-0.8834808
 ,-3.9675775,3.1909918,1.781098,-1.6726523,1.845245,-6.100811,2.3615048
 ,0.9609805,-0.4876831,-1.5450235,1.5782065,2.0710459,-0.4721423,-1.777
 899,2.613957,-0.3769051,1.7844333,-1.3670137,-1.8988744,-1.2237098,-1.
 1825012,-0.5935907,-1.1112013,-0.6081267,-0.884017,-4.0251987,-0.50281
 36,-2.8577093,-1.4947953,-0.126712,-1.0980968,-2.553719,-1.1087101,-2.
 8669723,-4.0743649,-3.3876661,-2.4239863,-1.2039824,1.5648979,1.054384
 7,-0.0509124,-1.0111094,-2.5533428,-5.9474257,1.3643768,2.3201889,-1.1
 373373,0.3892717,1.1545008,1.0568023,-1.3424598,-2.5545366,2.9067197,-
 7.9311983,2.6644117,-1.0453156,0.0877517,0.3776305,-0.0501188,2.784180
 8,-3.5443156,2.8221146,0.0078759,0.019993,0.5472383,-0.7419641,0.61070
 39,-0.1192804,-1.8885206,1.544052,-0.9900191,1.8796473,1.3019629,0.165
 7474,1.7290725,0.6960929,1.6715753,0.5924722,0.4187663,1.8598879,0.347
 5872,2.5375735,1.2445614,-0.1273457,0.4365266,0.5441061,1.371039,1.695
 3995,6.2867615\HyperPolar=-32.3197391,-7.4139687,-6.3712328,10.4988206
 ,7.7022199,-1.9426557,3.614584,17.2024542,1.8913675,-15.4868134\PG=C01
  [X(C3H7)]\NImag=1\\0.26621537,0.18126620,0.42179634,-0.20105712,0.214
 53635,0.55294817,-0.05789423,-0.27023340,0.16468501,0.22350571,-0.1155
 6831,-0.14651116,0.00409333,0.16852247,0.47926181,0.07400830,-0.020396
 73,-0.06003878,-0.12353487,0.17072430,0.50050653,-0.01252215,0.0005270
 0,0.01045364,-0.13197941,0.00474088,0.06446338,0.56818723,-0.01619619,
 0.00712580,0.03056844,0.00297679,-0.09718750,-0.03500186,0.03976016,0.
 62147034,0.00411323,-0.00821602,-0.00893677,0.05936425,-0.02245410,-0.
 16126016,0.04426718,-0.01563116,0.55801045,-0.07409746,-0.01664197,0.1
 0962054,-0.00955983,0.01069007,0.02623759,-0.00162035,-0.00640702,0.00
 205022,0.07658851,-0.00455756,-0.05475083,-0.01301294,-0.00899473,-0.0
 0324201,0.01968485,0.00010348,-0.00338637,-0.00095132,0.01121582,0.050
 73432,0.11587310,-0.01639708,-0.34477993,0.00002197,0.00139249,0.00095
 029,-0.00118770,0.00107063,0.00106513,-0.12327348,0.01435000,0.3552871
 0,-0.03926507,-0.02219554,0.01351936,-0.00089437,-0.02228138,-0.022453
 37,0.00225295,0.00107023,-0.00111962,0.00143911,0.00955016,0.00399825,
 0.03686797,-0.02259613,-0.28870792,-0.15051459,-0.00335129,-0.01501715
 ,-0.00707141,-0.00082925,0.00158325,-0.00188455,-0.00046755,0.00548178
 ,0.00342430,0.02906271,0.29950196,0.00028017,-0.15027733,-0.14208884,0
 .00271637,0.01115329,0.00001481,0.00100244,0.00041749,0.00150914,-0.00
 272255,-0.02693221,-0.00865227,-0.00428452,0.15955969,0.14414247,-0.07
 435626,0.14065275,-0.09359490,0.07445585,0.01325406,0.00925439,-0.0058
 5905,0.00568572,0.00079369,0.00695591,-0.00538174,0.00340472,0.0021398
 5,-0.00149194,0.00251806,-0.00762375,-0.02313105,0.07529547,-0.0638485
 4,0.17403306,-0.02959048,0.03542565,0.00166179,-0.00050614,0.00446393,
 -0.00011128,0.00334276,-0.00397521,0.00971298,-0.00222694,0.00541753,-
 0.15328397,-0.05227347,0.00407543,-0.03206442,-0.00714400,-0.08510370,
 0.00619599,-0.04583182,0.01279310,-0.00875044,0.00549521,-0.01177944,0
 .00629965,-0.00516117,0.00747815,-0.00796473,0.00518775,0.07741593,0.0
 3111180,0.05268289,-0.00843278,-0.01392439,-0.00688815,-0.07648314,-0.
 06963059,-0.05859227,0.01147551,0.01501436,0.01728086,0.00126269,-0.00
 132122,0.00122666,-0.00247607,0.00013718,0.00072159,0.00250756,-0.0091
 7570,-0.00674709,0.07372414,-0.00184002,-0.01866361,-0.01959637,-0.074
 20341,-0.18725299,-0.14997309,-0.00296861,-0.00071246,-0.00119125,0.00
 119771,0.00125790,0.00048325,-0.00505390,-0.00138666,0.00076714,0.0035
 1074,0.00761916,0.00474849,0.07847283,0.19782915,0.00320918,0.01279041
 ,0.01384677,-0.05057878,-0.15943121,-0.20821153,-0.01084491,-0.0136424
 2,-0.01219204,-0.00092847,-0.00079212,0.00115432,0.00286247,0.00252930
 ,-0.00008903,0.00045195,-0.00495437,-0.00473095,0.05180986,0.16411922,
 0.21265150,-0.00092711,0.00133702,0.00545651,-0.01354930,-0.02079273,0
 .00756915,-0.10133921,-0.09282399,0.03946323,-0.00120915,-0.00071502,0
 .00019137,0.00028475,0.00033550,-0.00018965,0.00109451,-0.00043242,-0.
 00047927,0.00082475,0.00040965,-0.00030244,0.10993706,0.00117553,0.000
 06881,-0.00154558,0.00561227,0.01082062,-0.00525952,-0.09520363,-0.259
 10929,0.08591446,0.00045890,0.00026936,-0.00007242,0.00027717,0.000183
 98,-0.00000125,-0.00014097,0.00030261,0.00001925,-0.00041661,0.0006026
 3,0.00088456,0.10385943,0.28246745,0.00145230,-0.00307819,-0.00448184,
 0.01499173,0.02721465,-0.01058857,0.03866053,0.08357462,-0.09569751,0.
 00140491,0.00086487,-0.00000765,-0.00022890,0.00011691,0.00001881,0.00
 027939,-0.00001081,0.00040739,-0.00106986,-0.00015311,0.00043798,-0.04
 876566,-0.09390768,0.10238544,0.00029697,-0.00232567,-0.00077653,-0.02
 099749,0.01661157,-0.00012695,-0.20175150,0.11681189,-0.06421503,0.000
 17640,-0.00018414,0.00000582,-0.00045623,-0.00063010,0.00001502,0.0013
 9881,0.00125652,0.00186075,0.00025500,0.00003486,0.00053501,0.01342059
 ,-0.00939669,0.00471791,0.22310702,0.00124697,0.00312947,-0.00130222,0
 .00797125,-0.00480410,-0.00146263,0.11636226,-0.15432029,0.05195757,0.
 00004184,0.00018705,-0.00013992,-0.00004161,0.00025137,-0.00032841,-0.
 00220692,-0.00120905,0.00036076,-0.00017405,-0.00026939,-0.00036856,0.
 02551174,-0.02050095,0.01117886,-0.13450559,0.16556212,-0.00107105,0.0
 0222950,0.00088922,0.02933123,-0.02172521,0.00743724,-0.05927045,0.048
 77882,-0.08141229,-0.00047375,0.00006944,-0.00008987,-0.00024976,0.000
 60834,0.00007682,0.00011803,-0.00197515,-0.00201931,-0.00104036,0.0002
 5672,0.00009084,-0.01066159,0.00775339,-0.00493320,0.06506319,-0.05473
 832,0.08944206,0.00098272,0.00153799,-0.00141835,0.01339623,0.01445396
 ,0.02317466,-0.12684402,-0.06589197,-0.10199801,0.00006418,0.00028495,
 -0.00026071,0.00010711,-0.00016913,-0.00005692,-0.00071344,-0.00052993
 ,0.00048613,-0.00265765,0.00044014,0.00378614,-0.00853690,-0.00622540,
 -0.01144234,-0.01544957,-0.01420588,-0.02174548,0.13965134,0.00020055,
 0.00121764,0.00062212,-0.00233302,-0.00647705,-0.00666954,-0.06415409,
 -0.11495734,-0.09200756,0.00002348,0.00010605,-0.00013603,-0.00010082,
 0.00033633,0.00022406,-0.00059773,-0.00075392,0.00004365,0.00101819,0.
 00097628,-0.00113481,-0.01668919,-0.01510522,-0.02580012,0.01232735,0.
 01197378,0.01874247,0.07030527,0.12268345,-0.00088355,0.00087351,-0.00
 021401,-0.01189321,-0.01716352,-0.02297801,-0.10033721,-0.09138412,-0.
 20658117,-0.00013557,0.00041979,0.00023404,0.00047795,0.00119672,-0.00
 011966,-0.00064126,-0.00165483,0.00111401,0.00329877,0.00053902,-0.002
 95786,0.00771834,0.00621480,0.01245915,-0.00707917,-0.00515713,-0.0094
 8150,0.10947491,0.10611575,0.22852501\\-0.00000314,-0.00001234,0.00000
 472,0.00001085,0.00000803,0.00000883,0.00000401,-0.00000088,-0.0000025
 6,0.00000200,-0.00000018,-0.00000633,0.00000082,0.00000714,0.00000399,
 -0.00000884,0.00000293,-0.00000304,-0.00000261,-0.00000483,-0.00000734
 ,-0.00000085,-0.00000345,0.00000176,-0.00000399,0.00000179,-0.00000225
 ,0.00000175,0.00000179,0.00000220\\\@


 THE ... SCIENTISTS WERE WRONG ... THE MOST PERSISTENT PRINCIPLES 
 OF THE UNIVERSE WERE ACCIDENT AND ERROR.

                          -- FRANK HERBERT IN DUNE
 Job cpu time:       0 days  0 hours  0 minutes 15.8 seconds.
 File lengths (MBytes):  RWF=      8 Int=      0 D2E=      0 Chk=      1 Scr=      1
 Normal termination of Gaussian 09 at Sun May 22 09:31:51 2022.
