 Entering Gaussian System, Link 0=g16
 Initial command:
 /opt/g16/l1.exe "/scratch/alongd/g16/a4383-34557/Gau-28245.inp" -scrdir="/scratch/alongd/g16/a4383-34557/"
 Entering Link 1 = /opt/g16/l1.exe PID=     28247.
  
 Copyright (c) 1988-2017, Gaussian, Inc.  All Rights Reserved.
  
 This is part of the Gaussian(R) 16 program.  It is based on
 the Gaussian(R) 09 system (copyright 2009, Gaussian, Inc.),
 the Gaussian(R) 03 system (copyright 2003, Gaussian, Inc.),
 the Gaussian(R) 98 system (copyright 1998, Gaussian, Inc.),
 the Gaussian(R) 94 system (copyright 1995, Gaussian, Inc.),
 the Gaussian 92(TM) system (copyright 1992, Gaussian, Inc.),
 the Gaussian 90(TM) system (copyright 1990, Gaussian, Inc.),
 the Gaussian 88(TM) system (copyright 1988, Gaussian, Inc.),
 the Gaussian 86(TM) system (copyright 1986, Carnegie Mellon
 University), and the Gaussian 82(TM) system (copyright 1983,
 Carnegie Mellon University). Gaussian is a federally registered
 trademark of Gaussian, Inc.
  
 This software contains proprietary and confidential information,
 including trade secrets, belonging to Gaussian, Inc.
  
 This software is provided under written license and may be
 used, copied, transmitted, or stored only in accord with that
 written license.
  
 The following legend is applicable only to US Government
 contracts under FAR:
  
                    RESTRICTED RIGHTS LEGEND
  
 Use, reproduction and disclosure by the US Government is
 subject to restrictions as set forth in subparagraphs (a)
 and (c) of the Commercial Computer Software - Restricted
 Rights clause in FAR 52.227-19.
  
 Gaussian, Inc.
 340 Quinnipiac St., Bldg. 40, Wallingford CT 06492
  
  
 ---------------------------------------------------------------
 Warning -- This program may not be used in any manner that
 competes with the business of Gaussian, Inc. or will provide
 assistance to any competitor of Gaussian, Inc.  The licensee
 of this program is prohibited from giving any competitor of
 Gaussian, Inc. access to this program.  By using this program,
 the user acknowledges that Gaussian, Inc. is engaged in the
 business of creating and licensing software in the field of
 computational chemistry and represents and warrants to the
 licensee that it is not a competitor of Gaussian, Inc. and that
 it will not use this program in any manner prohibited above.
 ---------------------------------------------------------------
  

 Cite this work as:
 Gaussian 16, Revision B.01,
 M. J. Frisch, G. W. Trucks, H. B. Schlegel, G. E. Scuseria, 
 M. A. Robb, J. R. Cheeseman, G. Scalmani, V. Barone, 
 G. A. Petersson, H. Nakatsuji, X. Li, M. Caricato, A. V. Marenich, 
 J. Bloino, B. G. Janesko, R. Gomperts, B. Mennucci, H. P. Hratchian, 
 J. V. Ortiz, A. F. Izmaylov, J. L. Sonnenberg, D. Williams-Young, 
 F. Ding, F. Lipparini, F. Egidi, J. Goings, B. Peng, A. Petrone, 
 T. Henderson, D. Ranasinghe, V. G. Zakrzewski, J. Gao, N. Rega, 
 G. Zheng, W. Liang, M. Hada, M. Ehara, K. Toyota, R. Fukuda, 
 J. Hasegawa, M. Ishida, T. Nakajima, Y. Honda, O. Kitao, H. Nakai, 
 T. Vreven, K. Throssell, J. A. Montgomery, Jr., J. E. Peralta, 
 F. Ogliaro, M. J. Bearpark, J. J. Heyd, E. N. Brothers, K. N. Kudin, 
 V. N. Staroverov, T. A. Keith, R. Kobayashi, J. Normand, 
 K. Raghavachari, A. P. Rendell, J. C. Burant, S. S. Iyengar, 
 J. Tomasi, M. Cossi, J. M. Millam, M. Klene, C. Adamo, R. Cammi, 
 J. W. Ochterski, R. L. Martin, K. Morokuma, O. Farkas, 
 J. B. Foresman, and D. J. Fox, Gaussian, Inc., Wallingford CT, 2016.
 
 ******************************************
 Gaussian 16:  ES64L-G16RevB.01 20-Dec-2017
                 2-Mar-2020 
 ******************************************
 %chk=check.chk
 %mem=14336mb
 %NProcShared=36
 Will use up to   36 processors via shared memory.
 ----------------------------------------------------------------------
 #P opt=(tight) guess=read uwb97xd/def2tzvp scf=(tight, direct) integra
 l=(grid=ultrafine, Acc2E=12) scf=xqc iop(2/9=2000)
 ----------------------------------------------------------------------
 1/7=10,18=20,19=15,26=4,38=1/1,3;
 2/9=2000,12=2,17=6,18=5,40=1/2;
 3/5=44,7=101,11=2,25=1,27=12,30=1,71=1,74=-58,75=-5,116=2/1,2,3;
 4/5=1/1;
 5/5=2,8=3,13=1,32=2,38=6,87=12/2,8;
 6/7=2,8=2,9=2,10=2,28=1,87=12/1;
 7/87=12/1,2,3,16;
 1/7=10,18=20,19=15,26=4/3(2);
 2/9=2000/2;
 99//99;
 2/9=2000/2;
 3/5=44,7=101,11=2,25=1,27=12,30=1,71=1,74=-58,75=-5,116=2/1,2,3;
 4/5=5,16=3,69=1/1;
 5/5=2,8=3,13=1,32=2,38=5,87=12/2,8;
 7/87=12/1,2,3,16;
 1/7=10,18=20,19=15,26=4/3(-5);
 2/9=2000/2;
 6/7=2,8=2,9=2,10=2,19=2,28=1,87=12/1;
 99/9=1/99;
 Leave Link    1 at Mon Mar  2 00:30:15 2020, MaxMem=  1879048192 cpu:               5.3 elap:               0.2
 (Enter /opt/g16/l101.exe)
 ----
 name
 ----
 Symbolic Z-matrix:
 Charge =  0 Multiplicity = 3
 N                     2.24798   0.72541  -0.05194 
 C                     1.01999   0.22569  -0.02633 
 C                    -0.07972   1.13427   0.03286 
 C                    -1.38044   0.69179   0.06231 
 C                     0.7165   -1.18106  -0.05432 
 C                    -1.66641  -0.68099   0.03467 
 C                    -0.58725  -1.5356   -0.02243 
 H                     0.15552   2.18989   0.05363 
 H                    -2.19515   1.40392   0.10721 
 H                     1.52393  -1.90308  -0.09926 
 H                    -2.68696  -1.04015   0.05745 
 H                     2.93199  -0.03009  -0.09385 
 
 ITRead=  0  0  0  0  0  0  0  0  0  0  0  0
 MicOpt= -1 -1 -1 -1 -1 -1 -1 -1 -1 -1 -1 -1
 NAtoms=     12 NQM=       12 NQMF=       0 NMMI=      0 NMMIF=      0
                NMic=       0 NMicF=      0.
                    Isotopes and Nuclear Properties:
 (Nuclear quadrupole moments (NQMom) in fm**2, nuclear magnetic moments (NMagM)
  in nuclear magnetons)

  Atom         1           2           3           4           5           6           7           8           9          10
 IAtWgt=          14          12          12          12          12          12          12           1           1           1
 AtmWgt=  14.0030740  12.0000000  12.0000000  12.0000000  12.0000000  12.0000000  12.0000000   1.0078250   1.0078250   1.0078250
 NucSpn=           2           0           0           0           0           0           0           1           1           1
 AtZEff=  -0.0000000  -0.0000000  -0.0000000  -0.0000000  -0.0000000  -0.0000000  -0.0000000  -0.0000000  -0.0000000  -0.0000000
 NQMom=    2.0440000   0.0000000   0.0000000   0.0000000   0.0000000   0.0000000   0.0000000   0.0000000   0.0000000   0.0000000
 NMagM=    0.4037610   0.0000000   0.0000000   0.0000000   0.0000000   0.0000000   0.0000000   2.7928460   2.7928460   2.7928460
 AtZNuc=   7.0000000   6.0000000   6.0000000   6.0000000   6.0000000   6.0000000   6.0000000   1.0000000   1.0000000   1.0000000

  Atom        11          12
 IAtWgt=           1           1
 AtmWgt=   1.0078250   1.0078250
 NucSpn=           1           1
 AtZEff=  -0.0000000  -0.0000000
 NQMom=    0.0000000   0.0000000
 NMagM=    2.7928460   2.7928460
 AtZNuc=   1.0000000   1.0000000
 Leave Link  101 at Mon Mar  2 00:30:16 2020, MaxMem=  1879048192 cpu:              25.7 elap:               0.7
 (Enter /opt/g16/l103.exe)

 GradGradGradGradGradGradGradGradGradGradGradGradGradGradGradGradGradGrad
 Berny optimization.
 Initialization pass.
                           ----------------------------
                           !    Initial Parameters    !
                           ! (Angstroms and Degrees)  !
 --------------------------                            --------------------------
 ! Name  Definition              Value          Derivative Info.                !
 --------------------------------------------------------------------------------
 ! R1    R(1,2)                  1.326          estimate D2E/DX2                !
 ! R2    R(1,12)                 1.02           estimate D2E/DX2                !
 ! R3    R(2,3)                  1.4277         estimate D2E/DX2                !
 ! R4    R(2,5)                  1.4394         estimate D2E/DX2                !
 ! R5    R(3,4)                  1.3742         estimate D2E/DX2                !
 ! R6    R(3,8)                  1.0817         estimate D2E/DX2                !
 ! R7    R(4,6)                  1.4025         estimate D2E/DX2                !
 ! R8    R(4,9)                  1.083          estimate D2E/DX2                !
 ! R9    R(5,7)                  1.3515         estimate D2E/DX2                !
 ! R10   R(5,10)                 1.0841         estimate D2E/DX2                !
 ! R11   R(6,7)                  1.3778         estimate D2E/DX2                !
 ! R12   R(6,11)                 1.0822         estimate D2E/DX2                !
 ! A1    A(2,1,12)             110.0402         estimate D2E/DX2                !
 ! A2    A(1,2,3)              118.3129         estimate D2E/DX2                !
 ! A3    A(1,2,5)              124.2772         estimate D2E/DX2                !
 ! A4    A(3,2,5)              117.4099         estimate D2E/DX2                !
 ! A5    A(2,3,4)              121.6707         estimate D2E/DX2                !
 ! A6    A(2,3,8)              117.0215         estimate D2E/DX2                !
 ! A7    A(4,3,8)              121.3079         estimate D2E/DX2                !
 ! A8    A(3,4,6)              120.5121         estimate D2E/DX2                !
 ! A9    A(3,4,9)              120.0792         estimate D2E/DX2                !
 ! A10   A(6,4,9)              119.4086         estimate D2E/DX2                !
 ! A11   A(2,5,7)              117.344          estimate D2E/DX2                !
 ! A12   A(2,5,10)             119.648          estimate D2E/DX2                !
 ! A13   A(7,5,10)             123.008          estimate D2E/DX2                !
 ! A14   A(4,6,7)              116.6315         estimate D2E/DX2                !
 ! A15   A(4,6,11)             121.1138         estimate D2E/DX2                !
 ! A16   A(7,6,11)             122.2547         estimate D2E/DX2                !
 ! A17   A(5,7,6)              126.4318         estimate D2E/DX2                !
 ! D1    D(12,1,2,3)           179.9999         estimate D2E/DX2                !
 ! D2    D(12,1,2,5)             0.0            estimate D2E/DX2                !
 ! D3    D(1,2,3,4)           -180.0            estimate D2E/DX2                !
 ! D4    D(1,2,3,8)              0.0001         estimate D2E/DX2                !
 ! D5    D(5,2,3,4)             -0.0001         estimate D2E/DX2                !
 ! D6    D(5,2,3,8)           -180.0            estimate D2E/DX2                !
 ! D7    D(1,2,5,7)            180.0            estimate D2E/DX2                !
 ! D8    D(1,2,5,10)             0.0            estimate D2E/DX2                !
 ! D9    D(3,2,5,7)              0.0001         estimate D2E/DX2                !
 ! D10   D(3,2,5,10)          -179.9999         estimate D2E/DX2                !
 ! D11   D(2,3,4,6)              0.0001         estimate D2E/DX2                !
 ! D12   D(2,3,4,9)           -180.0            estimate D2E/DX2                !
 ! D13   D(8,3,4,6)            180.0            estimate D2E/DX2                !
 ! D14   D(8,3,4,9)              0.0            estimate D2E/DX2                !
 ! D15   D(3,4,6,7)              0.0            estimate D2E/DX2                !
 ! D16   D(3,4,6,11)          -180.0            estimate D2E/DX2                !
 ! D17   D(9,4,6,7)            180.0            estimate D2E/DX2                !
 ! D18   D(9,4,6,11)             0.0            estimate D2E/DX2                !
 ! D19   D(2,5,7,6)             -0.0001         estimate D2E/DX2                !
 ! D20   D(10,5,7,6)           180.0            estimate D2E/DX2                !
 ! D21   D(4,6,7,5)              0.0001         estimate D2E/DX2                !
 ! D22   D(11,6,7,5)           180.0            estimate D2E/DX2                !
 --------------------------------------------------------------------------------
 Trust Radius=3.00D-01 FncErr=1.00D-07 GrdErr=1.00D-06 EigMax=2.50D+02 EigMin=1.00D-04
 Number of steps in this run=     61 maximum allowed number of steps=    100.
 GradGradGradGradGradGradGradGradGradGradGradGradGradGradGradGradGradGrad

 Leave Link  103 at Mon Mar  2 00:30:16 2020, MaxMem=  1879048192 cpu:               1.4 elap:               0.0
 (Enter /opt/g16/l202.exe)
                          Input orientation:                          
 ---------------------------------------------------------------------
 Center     Atomic      Atomic             Coordinates (Angstroms)
 Number     Number       Type             X           Y           Z
 ---------------------------------------------------------------------
      1          7           0        2.247982    0.725409   -0.051939
      2          6           0        1.019995    0.225688   -0.026334
      3          6           0       -0.079720    1.134270    0.032864
      4          6           0       -1.380435    0.691794    0.062308
      5          6           0        0.716502   -1.181063   -0.054323
      6          6           0       -1.666407   -0.680988    0.034671
      7          6           0       -0.587250   -1.535604   -0.022431
      8          1           0        0.155518    2.189895    0.053629
      9          1           0       -2.195149    1.403924    0.107207
     10          1           0        1.523934   -1.903078   -0.099255
     11          1           0       -2.686962   -1.040155    0.057452
     12          1           0        2.931994   -0.030093   -0.093850
 ---------------------------------------------------------------------
                    Distance matrix (angstroms):
                    1          2          3          4          5
     1  N    0.000000
     2  C    1.326020   0.000000
     3  C    2.364858   1.427725   0.000000
     4  C    3.630371   2.446871   1.374231   0.000000
     5  C    2.445419   1.439389   2.449967   2.813955   0.000000
     6  C    4.160276   2.835937   2.410963   1.402524   2.436442
     7  C    3.626512   2.384408   2.718248   2.365930   1.351475
     8  H    2.556222   2.147516   1.081717   2.145585   3.419022
     9  H    4.497457   3.426839   2.133842   1.083007   3.896917
    10  H    2.726798   2.188816   3.437244   3.898054   1.084099
    11  H    5.242409   3.918024   3.395061   2.169489   3.408213
    12  H    1.020006   1.930213   3.231442   4.375220   2.496938
                    6          7          8          9         10
     6  C    0.000000
     7  C    1.377755   0.000000
     8  H    3.400256   3.799583   0.000000
     9  H    2.152136   3.353054   2.479164   0.000000
    10  H    3.419023   2.144303   4.318375   4.981011   0.000000
    11  H    1.082152   2.158852   4.302665   2.493567   4.301260
    12  H    4.646017   3.828413   3.557937   5.327703   2.343232
                   11         12
    11  H    0.000000
    12  H    5.711023   0.000000
 Stoichiometry    C6H5N(3)
 Framework group  C1[X(C6H5N)]
 Deg. of freedom    30
 Full point group                 C1      NOp   1
 Largest Abelian subgroup         C1      NOp   1
 Largest concise Abelian subgroup C1      NOp   1
                         Standard orientation:                         
 ---------------------------------------------------------------------
 Center     Atomic      Atomic             Coordinates (Angstroms)
 Number     Number       Type             X           Y           Z
 ---------------------------------------------------------------------
      1          7           0        2.289923   -0.284303    0.000000
      2          6           0        0.982451   -0.063291    0.000000
      3          6           0        0.105278   -1.189775   -0.000000
      4          6           0       -1.260821   -1.040485    0.000000
      5          6           0        0.381371    1.244585   -0.000000
      6          6           0       -1.837433    0.238026   -0.000000
      7          6           0       -0.968647    1.307335    0.000000
      8          1           0        0.563650   -2.169575    0.000000
      9          1           0       -1.902216   -1.913134    0.000000
     10          1           0        1.013514    2.125304   -0.000001
     11          1           0       -2.911886    0.366876    0.000000
     12          1           0        2.794283    0.602282   -0.000000
 ---------------------------------------------------------------------
 Rotational constants (GHZ):           6.0070057           2.8165413           1.9174805
 Leave Link  202 at Mon Mar  2 00:30:16 2020, MaxMem=  1879048192 cpu:               3.8 elap:               0.1
 (Enter /opt/g16/l301.exe)
 Standard basis: def2TZVP (5D, 7F)
 Ernie: Thresh=  0.10000D-02 Tol=  0.10000D-05 Strict=F.
 There are   282 symmetry adapted cartesian basis functions of A   symmetry.
 There are   247 symmetry adapted basis functions of A   symmetry.
   247 basis functions,   397 primitive gaussians,   282 cartesian basis functions
    25 alpha electrons       23 beta electrons
       nuclear repulsion energy       252.4278041844 Hartrees.
 IExCor= 4639 DFT=T Ex+Corr=wB97XD ExCW=0 ScaHFX=  1.000000
 ScaDFX=  1.000000  1.000000  1.000000  1.000000 ScalE2=  1.000000  1.000000
 IRadAn=      5 IRanWt=     -1 IRanGd=            0 ICorTp=0 IEmpDi=121
 HFx  wShort=  0.000000 wLong=  0.200000 cFull=  0.222036 cShort=  0.000000 cLong=  0.777964
 DFx  wShort=  0.000000 wLong=  0.200000 cFull=  0.000000 cShort=  0.000000 cLong=  1.000000
 NAtoms=   12 NActive=   12 NUniq=   12 SFac= 1.00D+00 NAtFMM=   60 NAOKFM=F Big=F
 Integral buffers will be    131072 words long.
 Raffenetti 2 integral format.
 Two-electron integral symmetry is turned on.
 R6Disp:  Grimme-D2 Dispersion energy=       -0.0042565945 Hartrees.
 Nuclear repulsion after empirical dispersion term =      252.4235475899 Hartrees.
 Leave Link  301 at Mon Mar  2 00:30:16 2020, MaxMem=  1879048192 cpu:               4.1 elap:               0.1
 (Enter /opt/g16/l302.exe)
 NPDir=0 NMtPBC=     1 NCelOv=     1 NCel=       1 NClECP=     1 NCelD=      1
         NCelK=      1 NCelE2=     1 NClLst=     1 CellRange=     0.0.
 One-electron integrals computed using PRISM.
 One-electron integral symmetry used in STVInt
   1 Symmetry operations used in ECPInt.
 ECPInt:  NShTT=    4753 NPrTT=   14704 LenC2=    4700 LenP2D=   12021.
 LDataN:  DoStor=T MaxTD1= 6 Len=  172
 NBasis=   247 RedAO= T EigKep=  1.73D-05  NBF=   247
 NBsUse=   247 1.00D-06 EigRej= -1.00D+00 NBFU=   247
 Precomputing XC quadrature grid using
 IXCGrd= 4 IRadAn=           5 IRanWt=          -1 IRanGd=           0 AccXCQ= 1.00D-12.
 Generated NRdTot=       0 NPtTot=           0 NUsed=           0 NTot=          32
 NSgBfM=   281   281   281   281   281 MxSgAt=    12 MxSgA2=    12.
 Leave Link  302 at Mon Mar  2 00:30:16 2020, MaxMem=  1879048192 cpu:              13.9 elap:               0.4
 (Enter /opt/g16/l303.exe)
 DipDrv:  MaxL=1.
 Leave Link  303 at Mon Mar  2 00:30:17 2020, MaxMem=  1879048192 cpu:               7.6 elap:               0.2
 (Enter /opt/g16/l401.exe)
 Initial guess from the checkpoint file:  "check.chk"
 B after Tr=    -0.000000    0.000000    0.000000
         Rot=   -0.000000    0.729482    0.684000    0.000000 Ang= 180.00 deg.
 Guess basis will be translated and rotated to current coordinates.
 JPrj=2 DoOrth=T DoCkMO=T.
 Initial guess <Sx>= 0.0000 <Sy>= 0.0000 <Sz>= 1.0000 <S**2>= 2.0414 S= 1.0137
 Leave Link  401 at Mon Mar  2 00:30:17 2020, MaxMem=  1879048192 cpu:              22.4 elap:               0.7
 (Enter /opt/g16/l502.exe)
 Integral symmetry usage will be decided dynamically.
 UHF open shell SCF:
 Using DIIS extrapolation, IDIIS=  1040.
 NGot=  1879048192 LenX=  1878876442 LenY=  1878796477
 Requested convergence on RMS density matrix=1.00D-08 within  32 cycles.
 Requested convergence on MAX density matrix=1.00D-06.
 Requested convergence on             energy=1.00D-06.
 No special actions if energy rises.
 Fock matrices will be formed incrementally for  20 cycles.

 Cycle   1  Pass 1  IDiag  1:
 FoFJK:  IHMeth= 1 ICntrl=       0 DoSepK=T KAlg= 0 I1Cent=           0 FoldK=F
 IRaf=         1 NMat=       1 IRICut=       1 DoRegI=T DoRafI=F ISym2E= 0 IDoP0=0 IntGTp=1.
 FoFCou: FMM=F IPFlag=           0 FMFlag=      100000 FMFlg1=           0
         NFxFlg=           0 DoJE=T BraDBF=F KetDBF=F FulRan=T
         wScrn=  0.000000 ICntrl=       500 IOpCl=  0 I1Cent=           0 NGrid=           0
         NMat0=    1 NMatS0=      1 NMatT0=    0 NMatD0=    1 NMtDS0=    0 NMtDT0=    0
 Symmetry not used in FoFCou.
 E= -286.262049492368    
 DIIS: error= 7.67D-06 at cycle   1 NSaved=   1.
 NSaved= 1 IEnMin= 1 EnMin= -286.262049492368     IErMin= 1 ErrMin= 7.67D-06
 ErrMax= 7.67D-06  0.00D+00 EMaxC= 1.00D-01 BMatC= 3.09D-08 BMatP= 3.09D-08
 IDIUse=1 WtCom= 1.00D+00 WtEn= 0.00D+00
 Coeff-Com:  0.100D+01
 Coeff:      0.100D+01
 Gap=     0.339 Goal=   None    Shift=    0.000
 Gap=     0.287 Goal=   None    Shift=    0.000
 RMSDP=1.23D-06 MaxDP=3.05D-05              OVMax= 1.94D-05

 Cycle   2  Pass 1  IDiag  1:
 RMSU=  1.23D-06    CP:  1.00D+00
 E= -286.262049499041     Delta-E=       -0.000000006673 Rises=F Damp=F
 DIIS: error= 1.04D-06 at cycle   2 NSaved=   2.
 NSaved= 2 IEnMin= 2 EnMin= -286.262049499041     IErMin= 2 ErrMin= 1.04D-06
 ErrMax= 1.04D-06  0.00D+00 EMaxC= 1.00D-01 BMatC= 7.30D-10 BMatP= 3.09D-08
 IDIUse=1 WtCom= 1.00D+00 WtEn= 0.00D+00
 Coeff-Com: -0.133D+00 0.113D+01
 Coeff:     -0.133D+00 0.113D+01
 Gap=     0.339 Goal=   None    Shift=    0.000
 Gap=     0.287 Goal=   None    Shift=    0.000
 RMSDP=1.47D-07 MaxDP=3.72D-06 DE=-6.67D-09 OVMax= 4.81D-06

 Cycle   3  Pass 1  IDiag  1:
 RMSU=  7.38D-08    CP:  1.00D+00  1.10D+00
 E= -286.262049499291     Delta-E=       -0.000000000250 Rises=F Damp=F
 DIIS: error= 3.21D-07 at cycle   3 NSaved=   3.
 NSaved= 3 IEnMin= 3 EnMin= -286.262049499291     IErMin= 3 ErrMin= 3.21D-07
 ErrMax= 3.21D-07  0.00D+00 EMaxC= 1.00D-01 BMatC= 7.39D-11 BMatP= 7.30D-10
 IDIUse=1 WtCom= 1.00D+00 WtEn= 0.00D+00
 Coeff-Com: -0.360D-01 0.230D+00 0.806D+00
 Coeff:     -0.360D-01 0.230D+00 0.806D+00
 Gap=     0.339 Goal=   None    Shift=    0.000
 Gap=     0.287 Goal=   None    Shift=    0.000
 RMSDP=2.75D-08 MaxDP=1.15D-06 DE=-2.50D-10 OVMax= 2.04D-06

 Cycle   4  Pass 1  IDiag  1:
 RMSU=  2.73D-08    CP:  1.00D+00  1.10D+00  1.01D+00
 E= -286.262049499306     Delta-E=       -0.000000000015 Rises=F Damp=F
 DIIS: error= 2.44D-07 at cycle   4 NSaved=   4.
 NSaved= 4 IEnMin= 4 EnMin= -286.262049499306     IErMin= 4 ErrMin= 2.44D-07
 ErrMax= 2.44D-07  0.00D+00 EMaxC= 1.00D-01 BMatC= 2.91D-11 BMatP= 7.39D-11
 IDIUse=1 WtCom= 1.00D+00 WtEn= 0.00D+00
 Coeff-Com:  0.772D-02-0.101D+00 0.376D+00 0.718D+00
 Coeff:      0.772D-02-0.101D+00 0.376D+00 0.718D+00
 Gap=     0.339 Goal=   None    Shift=    0.000
 Gap=     0.287 Goal=   None    Shift=    0.000
 RMSDP=1.50D-08 MaxDP=1.01D-06 DE=-1.52D-11 OVMax= 1.32D-06

 Cycle   5  Pass 1  IDiag  1:
 RMSU=  1.03D-08    CP:  1.00D+00  1.10D+00  1.14D+00  8.32D-01
 E= -286.262049499316     Delta-E=       -0.000000000010 Rises=F Damp=F
 DIIS: error= 7.66D-08 at cycle   5 NSaved=   5.
 NSaved= 5 IEnMin= 5 EnMin= -286.262049499316     IErMin= 5 ErrMin= 7.66D-08
 ErrMax= 7.66D-08  0.00D+00 EMaxC= 1.00D-01 BMatC= 1.45D-12 BMatP= 2.91D-11
 IDIUse=1 WtCom= 1.00D+00 WtEn= 0.00D+00
 Coeff-Com:  0.466D-02-0.443D-01 0.254D-01 0.179D+00 0.835D+00
 Coeff:      0.466D-02-0.443D-01 0.254D-01 0.179D+00 0.835D+00
 Gap=     0.339 Goal=   None    Shift=    0.000
 Gap=     0.287 Goal=   None    Shift=    0.000
 RMSDP=5.27D-09 MaxDP=2.32D-07 DE=-9.78D-12 OVMax= 3.76D-07

 SCF Done:  E(UwB97XD) =  -286.262049499     A.U. after    5 cycles
            NFock=  5  Conv=0.53D-08     -V/T= 2.0046
 <Sx>= 0.0000 <Sy>= 0.0000 <Sz>= 1.0000 <S**2>= 2.0414 S= 1.0137
 <L.S>= 0.000000000000E+00
 KE= 2.849389981206D+02 PE=-1.169845726530D+03 EE= 3.462211313201D+02
 Annihilation of the first spin contaminant:
 S**2 before annihilation     2.0414,   after     2.0006
 Leave Link  502 at Mon Mar  2 00:31:30 2020, MaxMem=  1879048192 cpu:            2593.2 elap:              72.1
 (Enter /opt/g16/l508.exe)
 QCSCF skips out because SCF is already converged.
 Leave Link  508 at Mon Mar  2 00:31:30 2020, MaxMem=  1879048192 cpu:               1.6 elap:               0.1
 (Enter /opt/g16/l601.exe)
 Copying SCF densities to generalized density rwf, IOpCl= 1 IROHF=0.

 **********************************************************************

            Population analysis using the SCF Density.

 **********************************************************************

 Orbital symmetries:
 Alpha Orbitals:
       Occupied  (A) (A) (A) (A) (A) (A) (A) (A) (A) (A) (A) (A)
                 (A) (A) (A) (A) (A) (A) (A) (A) (A) (A) (A) (A)
                 (A)
       Virtual   (A) (A) (A) (A) (A) (A) (A) (A) (A) (A) (A) (A)
                 (A) (A) (A) (A) (A) (A) (A) (A) (A) (A) (A) (A)
                 (A) (A) (A) (A) (A) (A) (A) (A) (A) (A) (A) (A)
                 (A) (A) (A) (A) (A) (A) (A) (A) (A) (A) (A) (A)
                 (A) (A) (A) (A) (A) (A) (A) (A) (A) (A) (A) (A)
                 (A) (A) (A) (A) (A) (A) (A) (A) (A) (A) (A) (A)
                 (A) (A) (A) (A) (A) (A) (A) (A) (A) (A) (A) (A)
                 (A) (A) (A) (A) (A) (A) (A) (A) (A) (A) (A) (A)
                 (A) (A) (A) (A) (A) (A) (A) (A) (A) (A) (A) (A)
                 (A) (A) (A) (A) (A) (A) (A) (A) (A) (A) (A) (A)
                 (A) (A) (A) (A) (A) (A) (A) (A) (A) (A) (A) (A)
                 (A) (A) (A) (A) (A) (A) (A) (A) (A) (A) (A) (A)
                 (A) (A) (A) (A) (A) (A) (A) (A) (A) (A) (A) (A)
                 (A) (A) (A) (A) (A) (A) (A) (A) (A) (A) (A) (A)
                 (A) (A) (A) (A) (A) (A) (A) (A) (A) (A) (A) (A)
                 (A) (A) (A) (A) (A) (A) (A) (A) (A) (A) (A) (A)
                 (A) (A) (A) (A) (A) (A) (A) (A) (A) (A) (A) (A)
                 (A) (A) (A) (A) (A) (A) (A) (A) (A) (A) (A) (A)
                 (A) (A) (A) (A) (A) (A)
 Beta  Orbitals:
       Occupied  (A) (A) (A) (A) (A) (A) (A) (A) (A) (A) (A) (A)
                 (A) (A) (A) (A) (A) (A) (A) (A) (A) (A) (A)
       Virtual   (A) (A) (A) (A) (A) (A) (A) (A) (A) (A) (A) (A)
                 (A) (A) (A) (A) (A) (A) (A) (A) (A) (A) (A) (A)
                 (A) (A) (A) (A) (A) (A) (A) (A) (A) (A) (A) (A)
                 (A) (A) (A) (A) (A) (A) (A) (A) (A) (A) (A) (A)
                 (A) (A) (A) (A) (A) (A) (A) (A) (A) (A) (A) (A)
                 (A) (A) (A) (A) (A) (A) (A) (A) (A) (A) (A) (A)
                 (A) (A) (A) (A) (A) (A) (A) (A) (A) (A) (A) (A)
                 (A) (A) (A) (A) (A) (A) (A) (A) (A) (A) (A) (A)
                 (A) (A) (A) (A) (A) (A) (A) (A) (A) (A) (A) (A)
                 (A) (A) (A) (A) (A) (A) (A) (A) (A) (A) (A) (A)
                 (A) (A) (A) (A) (A) (A) (A) (A) (A) (A) (A) (A)
                 (A) (A) (A) (A) (A) (A) (A) (A) (A) (A) (A) (A)
                 (A) (A) (A) (A) (A) (A) (A) (A) (A) (A) (A) (A)
                 (A) (A) (A) (A) (A) (A) (A) (A) (A) (A) (A) (A)
                 (A) (A) (A) (A) (A) (A) (A) (A) (A) (A) (A) (A)
                 (A) (A) (A) (A) (A) (A) (A) (A) (A) (A) (A) (A)
                 (A) (A) (A) (A) (A) (A) (A) (A) (A) (A) (A) (A)
                 (A) (A) (A) (A) (A) (A) (A) (A) (A) (A) (A) (A)
                 (A) (A) (A) (A) (A) (A) (A) (A)
 The electronic state is 3-A.
 Alpha  occ. eigenvalues --  -14.43892 -10.33901 -10.32607 -10.31945 -10.31346
 Alpha  occ. eigenvalues --  -10.31016 -10.30612  -1.02842  -0.96406  -0.87139
 Alpha  occ. eigenvalues --   -0.83702  -0.72336  -0.68699  -0.62673  -0.59347
 Alpha  occ. eigenvalues --   -0.55545  -0.53935  -0.50458  -0.49441  -0.46610
 Alpha  occ. eigenvalues --   -0.42895  -0.39410  -0.36554  -0.32908  -0.29790
 Alpha virt. eigenvalues --    0.04110   0.06244   0.12147   0.13139   0.16354
 Alpha virt. eigenvalues --    0.17583   0.18720   0.19898   0.21059   0.24512
 Alpha virt. eigenvalues --    0.26703   0.27424   0.28055   0.29880   0.30527
 Alpha virt. eigenvalues --    0.31556   0.32851   0.34315   0.34833   0.36523
 Alpha virt. eigenvalues --    0.39336   0.39995   0.40204   0.40844   0.42139
 Alpha virt. eigenvalues --    0.44757   0.46667   0.46966   0.47007   0.49349
 Alpha virt. eigenvalues --    0.49620   0.49946   0.50971   0.53055   0.55209
 Alpha virt. eigenvalues --    0.55760   0.56261   0.57785   0.59256   0.60818
 Alpha virt. eigenvalues --    0.65410   0.68547   0.69329   0.70286   0.73948
 Alpha virt. eigenvalues --    0.74495   0.75823   0.77512   0.80966   0.81016
 Alpha virt. eigenvalues --    0.83031   0.86855   0.87929   0.88852   0.94115
 Alpha virt. eigenvalues --    0.94552   0.95687   1.07064   1.07574   1.07641
 Alpha virt. eigenvalues --    1.09531   1.14165   1.14471   1.14868   1.18822
 Alpha virt. eigenvalues --    1.20285   1.25820   1.26569   1.28927   1.29774
 Alpha virt. eigenvalues --    1.31910   1.34747   1.35138   1.36979   1.41525
 Alpha virt. eigenvalues --    1.45616   1.46081   1.48228   1.53122   1.54078
 Alpha virt. eigenvalues --    1.54861   1.55926   1.57020   1.60821   1.62410
 Alpha virt. eigenvalues --    1.64460   1.68069   1.68966   1.72606   1.74006
 Alpha virt. eigenvalues --    1.76139   1.76345   1.80021   1.84285   1.85497
 Alpha virt. eigenvalues --    1.89875   1.93020   1.96087   2.00681   2.02456
 Alpha virt. eigenvalues --    2.04110   2.07360   2.08136   2.14668   2.16447
 Alpha virt. eigenvalues --    2.19607   2.21154   2.25445   2.27403   2.27571
 Alpha virt. eigenvalues --    2.31448   2.35991   2.41347   2.43054   2.45879
 Alpha virt. eigenvalues --    2.48497   2.57145   2.60283   2.61526   2.64374
 Alpha virt. eigenvalues --    2.64448   2.68892   2.70161   2.71059   2.72243
 Alpha virt. eigenvalues --    2.75325   2.75490   2.75706   2.81800   2.82031
 Alpha virt. eigenvalues --    2.82600   2.86263   2.86649   2.86862   2.89284
 Alpha virt. eigenvalues --    2.92237   2.95091   2.96391   3.03101   3.04108
 Alpha virt. eigenvalues --    3.05019   3.09379   3.12414   3.14668   3.15641
 Alpha virt. eigenvalues --    3.18011   3.18595   3.20363   3.22673   3.23556
 Alpha virt. eigenvalues --    3.27867   3.28097   3.29116   3.33582   3.34921
 Alpha virt. eigenvalues --    3.39800   3.40574   3.41202   3.42716   3.43422
 Alpha virt. eigenvalues --    3.44219   3.50985   3.53041   3.54826   3.55140
 Alpha virt. eigenvalues --    3.57126   3.58027   3.58493   3.67098   3.71498
 Alpha virt. eigenvalues --    3.71801   3.74696   3.80055   3.84984   3.89809
 Alpha virt. eigenvalues --    4.01674   4.02741   4.03982   4.06808   4.09398
 Alpha virt. eigenvalues --    4.11408   4.13585   4.18623   4.21914   4.27438
 Alpha virt. eigenvalues --    4.30182   4.30699   4.32627   4.34189   4.35757
 Alpha virt. eigenvalues --    4.50763   4.52930   4.63768   4.67952   4.69331
 Alpha virt. eigenvalues --    4.69475   4.72840   4.76514   4.81512   4.84699
 Alpha virt. eigenvalues --    4.91113   4.91272   4.99963   5.03764   5.15427
 Alpha virt. eigenvalues --    5.18623   5.28472   5.30527   5.33645   5.38753
 Alpha virt. eigenvalues --    5.50240   5.56214   5.64604   5.73362   6.05096
 Alpha virt. eigenvalues --   22.15227  22.58734  22.64991  22.77322  22.90961
 Alpha virt. eigenvalues --   23.27652  32.12149
  Beta  occ. eigenvalues --  -14.42823 -10.34034 -10.31557 -10.31470 -10.31095
  Beta  occ. eigenvalues --  -10.31047 -10.30301  -1.01039  -0.94350  -0.85633
  Beta  occ. eigenvalues --   -0.81739  -0.71499  -0.66772  -0.61559  -0.58230
  Beta  occ. eigenvalues --   -0.54369  -0.53188  -0.48295  -0.48234  -0.45664
  Beta  occ. eigenvalues --   -0.37951  -0.36394  -0.34590
  Beta virt. eigenvalues --   -0.05939  -0.02909   0.05842   0.09722   0.12431
  Beta virt. eigenvalues --    0.13299   0.16549   0.17798   0.18956   0.20081
  Beta virt. eigenvalues --    0.22272   0.25102   0.26763   0.27929   0.28295
  Beta virt. eigenvalues --    0.30034   0.31222   0.31737   0.33665   0.35046
  Beta virt. eigenvalues --    0.35542   0.36832   0.39924   0.40291   0.40667
  Beta virt. eigenvalues --    0.41587   0.42539   0.45209   0.47283   0.47574
  Beta virt. eigenvalues --    0.47818   0.49643   0.50166   0.51498   0.51565
  Beta virt. eigenvalues --    0.53351   0.55405   0.56393   0.56793   0.58715
  Beta virt. eigenvalues --    0.60091   0.61107   0.65733   0.68771   0.70042
  Beta virt. eigenvalues --    0.70892   0.74272   0.75420   0.76697   0.78168
  Beta virt. eigenvalues --    0.81233   0.81770   0.84249   0.87957   0.89090
  Beta virt. eigenvalues --    0.89168   0.95192   0.95288   0.96159   1.07884
  Beta virt. eigenvalues --    1.08422   1.09153   1.10240   1.15284   1.15360
  Beta virt. eigenvalues --    1.15491   1.20459   1.21212   1.26883   1.27055
  Beta virt. eigenvalues --    1.29382   1.30629   1.32626   1.35474   1.36122
  Beta virt. eigenvalues --    1.37970   1.42125   1.46285   1.46993   1.49557
  Beta virt. eigenvalues --    1.54458   1.54873   1.56470   1.56882   1.57915
  Beta virt. eigenvalues --    1.61380   1.63716   1.65081   1.68881   1.69503
  Beta virt. eigenvalues --    1.73295   1.74654   1.76918   1.77109   1.81762
  Beta virt. eigenvalues --    1.85106   1.86489   1.90430   1.93469   1.96804
  Beta virt. eigenvalues --    2.01578   2.03363   2.04773   2.08247   2.08640
  Beta virt. eigenvalues --    2.15357   2.17334   2.20207   2.22121   2.26203
  Beta virt. eigenvalues --    2.28660   2.29920   2.32032   2.36695   2.42262
  Beta virt. eigenvalues --    2.44136   2.48180   2.49367   2.58006   2.61311
  Beta virt. eigenvalues --    2.62225   2.65196   2.66019   2.69733   2.70705
  Beta virt. eigenvalues --    2.71508   2.72746   2.76172   2.76575   2.76593
  Beta virt. eigenvalues --    2.82569   2.83268   2.83541   2.87181   2.87192
  Beta virt. eigenvalues --    2.88247   2.90120   2.92889   2.95515   2.97304
  Beta virt. eigenvalues --    3.04697   3.04821   3.05753   3.10769   3.14045
  Beta virt. eigenvalues --    3.15783   3.16363   3.19167   3.19546   3.22158
  Beta virt. eigenvalues --    3.23294   3.25568   3.28950   3.28989   3.30067
  Beta virt. eigenvalues --    3.34495   3.36056   3.40540   3.41635   3.42712
  Beta virt. eigenvalues --    3.43696   3.45012   3.45813   3.52686   3.54365
  Beta virt. eigenvalues --    3.56514   3.56659   3.59065   3.59361   3.59803
  Beta virt. eigenvalues --    3.68446   3.72827   3.72986   3.76216   3.81643
  Beta virt. eigenvalues --    3.86346   3.90794   4.02403   4.04377   4.04915
  Beta virt. eigenvalues --    4.08444   4.10473   4.12410   4.15043   4.19684
  Beta virt. eigenvalues --    4.23388   4.28479   4.30863   4.32046   4.33565
  Beta virt. eigenvalues --    4.36389   4.37484   4.52863   4.54563   4.66084
  Beta virt. eigenvalues --    4.69897   4.70391   4.71465   4.76089   4.78403
  Beta virt. eigenvalues --    4.83374   4.85852   4.92223   4.94959   5.03065
  Beta virt. eigenvalues --    5.04510   5.16823   5.20149   5.29511   5.32870
  Beta virt. eigenvalues --    5.34787   5.39652   5.51384   5.57193   5.65732
  Beta virt. eigenvalues --    5.74425   6.05735  22.16036  22.59589  22.65641
  Beta virt. eigenvalues --   22.77951  22.91253  23.27703  32.13539
          Condensed to atoms (all electrons):
               1          2          3          4          5          6
     1  N    6.542801   0.572721  -0.064663   0.002927  -0.125502  -0.003010
     2  C    0.572721   4.686672   0.437855  -0.022275   0.330827  -0.042493
     3  C   -0.064663   0.437855   4.973625   0.518435  -0.008079  -0.011862
     4  C    0.002927  -0.022275   0.518435   4.853400  -0.055384   0.435632
     5  C   -0.125502   0.330827  -0.008079  -0.055384   5.379261  -0.000812
     6  C   -0.003010  -0.042493  -0.011862   0.435632  -0.000812   4.918208
     7  C    0.027663   0.044750  -0.066502   0.004902   0.320303   0.475697
     8  H    0.010444  -0.036294   0.415979  -0.049648   0.017851   0.010897
     9  H   -0.000038   0.009989  -0.048119   0.433322  -0.004283  -0.051633
    10  H   -0.003809  -0.047344   0.005410  -0.000950   0.411352   0.004122
    11  H   -0.000001  -0.002013   0.005809  -0.046822   0.007823   0.425111
    12  H    0.356256  -0.086266   0.011900  -0.000154  -0.026703  -0.000846
               7          8          9         10         11         12
     1  N    0.027663   0.010444  -0.000038  -0.003809  -0.000001   0.356256
     2  C    0.044750  -0.036294   0.009989  -0.047344  -0.002013  -0.086266
     3  C   -0.066502   0.415979  -0.048119   0.005410   0.005809   0.011900
     4  C    0.004902  -0.049648   0.433322  -0.000950  -0.046822  -0.000154
     5  C    0.320303   0.017851  -0.004283   0.411352   0.007823  -0.026703
     6  C    0.475697   0.010897  -0.051633   0.004122   0.425111  -0.000846
     7  C    5.197064  -0.007240   0.010096  -0.020850  -0.039431   0.009979
     8  H   -0.007240   0.506810  -0.007216  -0.000111  -0.000029  -0.001530
     9  H    0.010096  -0.007216   0.528443   0.000053  -0.004386   0.000034
    10  H   -0.020850  -0.000111   0.000053   0.510328  -0.000065   0.002406
    11  H   -0.039431  -0.000029  -0.004386  -0.000065   0.507617  -0.000007
    12  H    0.009979  -0.001530   0.000034   0.002406  -0.000007   0.527424
          Atomic-Atomic Spin Densities.
               1          2          3          4          5          6
     1  N    0.686737  -0.026364  -0.028216   0.000522  -0.024602  -0.000006
     2  C   -0.026364  -0.102091   0.003940   0.008280   0.043745  -0.004022
     3  C   -0.028216   0.003940   0.289867  -0.004641   0.022515  -0.009246
     4  C    0.000522   0.008280  -0.004641  -0.096175   0.000651   0.017839
     5  C   -0.024602   0.043745   0.022515   0.000651   0.190927  -0.005776
     6  C   -0.000006  -0.004022  -0.009246   0.017839  -0.005776   0.297346
     7  C    0.005936  -0.008831  -0.020346  -0.008852  -0.007236  -0.005201
     8  H   -0.001482   0.000110   0.002539  -0.000963   0.000778   0.000532
     9  H    0.000128   0.001571  -0.005419   0.000638  -0.001697  -0.005837
    10  H    0.003338  -0.006763  -0.001362   0.000263   0.000077  -0.001680
    11  H    0.000028   0.000815  -0.001208  -0.003871  -0.003290   0.006307
    12  H   -0.000721   0.000573   0.001222   0.000067  -0.002168  -0.000073
               7          8          9         10         11         12
     1  N    0.005936  -0.001482   0.000128   0.003338   0.000028  -0.000721
     2  C   -0.008831   0.000110   0.001571  -0.006763   0.000815   0.000573
     3  C   -0.020346   0.002539  -0.005419  -0.001362  -0.001208   0.001222
     4  C   -0.008852  -0.000963   0.000638   0.000263  -0.003871   0.000067
     5  C   -0.007236   0.000778  -0.001697   0.000077  -0.003290  -0.002168
     6  C   -0.005201   0.000532  -0.005837  -0.001680   0.006307  -0.000073
     7  C    0.839455  -0.002267   0.004877   0.000685  -0.003051   0.000374
     8  H   -0.002267  -0.006343  -0.001339  -0.000094  -0.000082  -0.000047
     9  H    0.004877  -0.001339   0.020756   0.000032   0.001827   0.000008
    10  H    0.000685  -0.000094   0.000032   0.017038   0.000077   0.001671
    11  H   -0.003051  -0.000082   0.001827   0.000077   0.008353   0.000004
    12  H    0.000374  -0.000047   0.000008   0.001671   0.000004  -0.016305
 Mulliken charges and spin densities:
               1          2
     1  N   -0.315789   0.615299
     2  C    0.153871  -0.089037
     3  C   -0.169788   0.249647
     4  C   -0.073384  -0.086243
     5  C   -0.246654   0.213925
     6  C   -0.159010   0.290182
     7  C    0.043568   0.795543
     8  H    0.140088  -0.008658
     9  H    0.133738   0.015545
    10  H    0.139457   0.013283
    11  H    0.146394   0.005907
    12  H    0.207509  -0.015395
 Sum of Mulliken charges =  -0.00000   2.00000
 Mulliken charges and spin densities with hydrogens summed into heavy atoms:
               1          2
     1  N   -0.108281   0.599905
     2  C    0.153871  -0.089037
     3  C   -0.029700   0.240989
     4  C    0.060354  -0.070697
     5  C   -0.107197   0.227208
     6  C   -0.012616   0.296089
     7  C    0.043568   0.795543
 Electronic spatial extent (au):  <R**2>=            621.9389
 Charge=             -0.0000 electrons
 Dipole moment (field-independent basis, Debye):
    X=             -1.5355    Y=              0.6237    Z=              0.0000  Tot=              1.6573
 Quadrupole moment (field-independent basis, Debye-Ang):
   XX=            -39.3784   YY=            -38.1002   ZZ=            -43.5621
   XY=              6.7050   XZ=             -0.0000   YZ=             -0.0000
 Traceless Quadrupole moment (field-independent basis, Debye-Ang):
   XX=              0.9685   YY=              2.2467   ZZ=             -3.2152
   XY=              6.7050   XZ=             -0.0000   YZ=             -0.0000
 Octapole moment (field-independent basis, Debye-Ang**2):
  XXX=            -14.5062  YYY=             -7.1775  ZZZ=             -0.0000  XYY=              3.2251
  XXY=             11.5996  XXZ=              0.0000  XZZ=              2.6285  YZZ=             -0.4740
  YYZ=             -0.0000  XYZ=             -0.0000
 Hexadecapole moment (field-independent basis, Debye-Ang**3):
 XXXX=           -499.2742 YYYY=           -269.7029 ZZZZ=            -49.0288 XXXY=             46.3960
 XXXZ=             -0.0000 YYYX=             20.9603 YYYZ=             -0.0000 ZZZX=             -0.0000
 ZZZY=             -0.0000 XXYY=           -132.8201 XXZZ=           -102.1851 YYZZ=            -60.9835
 XXYZ=             -0.0000 YYXZ=             -0.0000 ZZXY=              1.6622
 N-N= 2.524235475899D+02 E-N=-1.169845723337D+03  KE= 2.849389981206D+02
                          Isotropic Fermi Contact Couplings
        Atom                 a.u.       MegaHertz       Gauss      10(-4) cm-1
     1  N(14)              0.05438       8.78520       3.13478       2.93043
     2  C(13)              0.00132       0.74227       0.26486       0.24759
     3  C(13)              0.01192       6.69998       2.39072       2.23487
     4  C(13)              0.02392      13.44315       4.79685       4.48415
     5  C(13)              0.02359      13.25829       4.73089       4.42249
     6  C(13)              0.03526      19.81804       7.07157       6.61059
     7  C(13)              0.29967     168.44425      60.10510      56.18695
     8  H(1)              -0.00355      -7.92822      -2.82899      -2.64457
     9  H(1)               0.00564      12.60625       4.49822       4.20499
    10  H(1)               0.00824      18.41909       6.57239       6.14395
    11  H(1)               0.00501      11.19149       3.99340       3.73308
    12  H(1)              -0.00792     -17.70259      -6.31672      -5.90495
 --------------------------------------------------------
       Center         ----  Spin Dipole Couplings  ----
                      3XX-RR        3YY-RR        3ZZ-RR
 --------------------------------------------------------
     1   Atom       -0.668983     -0.695535      1.364519
     2   Atom        0.095602      0.127302     -0.222904
     3   Atom       -0.155471     -0.143542      0.299013
     4   Atom        0.052235      0.124228     -0.176463
     5   Atom       -0.046055     -0.150754      0.196809
     6   Atom       -0.186142     -0.112336      0.298478
     7   Atom       -0.214286      0.798247     -0.583961
     8   Atom       -0.011682      0.018955     -0.007273
     9   Atom        0.003390      0.007451     -0.010841
    10   Atom        0.014333      0.001780     -0.016113
    11   Atom        0.039339     -0.026735     -0.012604
    12   Atom       -0.022893      0.038178     -0.015284
 --------------------------------------------------------
                        XY            XZ            YZ
 --------------------------------------------------------
     1   Atom       -0.029689      0.000001      0.000000
     2   Atom       -0.055260      0.000000     -0.000000
     3   Atom       -0.004517     -0.000000     -0.000000
     4   Atom       -0.035517     -0.000000      0.000000
     5   Atom       -0.037218     -0.000000      0.000000
     6   Atom        0.044335      0.000000     -0.000000
     7   Atom       -0.580324      0.000000     -0.000000
     8   Atom       -0.012077      0.000000     -0.000000
     9   Atom       -0.001077     -0.000000     -0.000000
    10   Atom        0.022452     -0.000000     -0.000000
    11   Atom        0.010410     -0.000000     -0.000000
    12   Atom        0.059015      0.000000     -0.000000
 --------------------------------------------------------


 ---------------------------------------------------------------------------------
              Anisotropic Spin Dipole Couplings in Principal Axis System
 ---------------------------------------------------------------------------------

       Atom             a.u.   MegaHertz   Gauss  10(-4) cm-1        Axes

              Baa    -0.7148   -27.568    -9.837    -9.196  0.5440  0.8391 -0.0000
     1 N(14)  Bbb    -0.6497   -25.059    -8.942    -8.359  0.8391 -0.5440 -0.0000
              Bcc     1.3645    52.626    18.778    17.554  0.0000  0.0000  1.0000
 
              Baa    -0.2229   -29.912   -10.673    -9.977 -0.0000  0.0000  1.0000
     2 C(13)  Bbb     0.0540     7.241     2.584     2.415  0.7987  0.6018 -0.0000
              Bcc     0.1689    22.670     8.089     7.562 -0.6018  0.7987 -0.0000
 
              Baa    -0.1570   -21.066    -7.517    -7.027  0.9479  0.3184  0.0000
     3 C(13)  Bbb    -0.1420   -19.058    -6.800    -6.357 -0.3184  0.9479  0.0000
              Bcc     0.2990    40.125    14.317    13.384 -0.0000 -0.0000  1.0000
 
              Baa    -0.1765   -23.680    -8.449    -7.899  0.0000 -0.0000  1.0000
     4 C(13)  Bbb     0.0377     5.054     1.803     1.686  0.9252  0.3796 -0.0000
              Bcc     0.1388    18.626     6.646     6.213 -0.3796  0.9252  0.0000
 
              Baa    -0.1626   -21.824    -7.787    -7.280  0.3041  0.9526 -0.0000
     5 C(13)  Bbb    -0.0342    -4.586    -1.636    -1.530  0.9526 -0.3041  0.0000
              Bcc     0.1968    26.410     9.424     8.809 -0.0000  0.0000  1.0000
 
              Baa    -0.2069   -27.767    -9.908    -9.262  0.9055 -0.4244 -0.0000
     6 C(13)  Bbb    -0.0916   -12.286    -4.384    -4.098  0.4244  0.9055 -0.0000
              Bcc     0.2985    40.053    14.292    13.360  0.0000  0.0000  1.0000
 
              Baa    -0.5840   -78.362   -27.961   -26.139  0.0000  0.0000  1.0000
     7 C(13)  Bbb    -0.4781   -64.161   -22.894   -21.402  0.9103  0.4139 -0.0000
              Bcc     1.0621   142.523    50.856    47.541 -0.4139  0.9103 -0.0000
 
              Baa    -0.0159    -8.468    -3.021    -2.825  0.9448  0.3277  0.0000
     8 H(1)   Bbb    -0.0073    -3.880    -1.385    -1.294 -0.0000  0.0000  1.0000
              Bcc     0.0231    12.348     4.406     4.119 -0.3277  0.9448 -0.0000
 
              Baa    -0.0108    -5.784    -2.064    -1.929  0.0000  0.0000  1.0000
     9 H(1)   Bbb     0.0031     1.666     0.594     0.556  0.9704  0.2415 -0.0000
              Bcc     0.0077     4.118     1.469     1.374 -0.2415  0.9704 -0.0000
 
              Baa    -0.0161    -8.597    -3.068    -2.868  0.0000 -0.0000  1.0000
    10 H(1)   Bbb    -0.0153    -8.140    -2.904    -2.715 -0.6045  0.7966  0.0000
              Bcc     0.0314    16.737     5.972     5.583  0.7966  0.6045 -0.0000
 
              Baa    -0.0283   -15.119    -5.395    -5.043 -0.1520  0.9884  0.0000
    11 H(1)   Bbb    -0.0126    -6.725    -2.400    -2.243  0.0000 -0.0000  1.0000
              Bcc     0.0409    21.844     7.794     7.286  0.9884  0.1520 -0.0000
 
              Baa    -0.0588   -31.375   -11.195   -10.466  0.8543 -0.5198 -0.0000
    12 H(1)   Bbb    -0.0153    -8.155    -2.910    -2.720  0.0000 -0.0000  1.0000
              Bcc     0.0741    39.530    14.105    13.186  0.5198  0.8543 -0.0000
 

 ---------------------------------------------------------------------------------

 No NMR shielding tensors so no spin-rotation constants.
 Leave Link  601 at Mon Mar  2 00:31:31 2020, MaxMem=  1879048192 cpu:              55.5 elap:               1.6
 (Enter /opt/g16/l701.exe)
 ... and contract with generalized density number  0.
 Compute integral first derivatives.
 R6Disp: Adding Grimme-D2 dispersion energy 1st derivatives to the gradient.
   1 Symmetry operations used in ECPInt.
 ECPInt:  NShTT=    4753 NPrTT=   14704 LenC2=    4700 LenP2D=   12021.
 LDataN:  DoStor=T MaxTD1= 7 Len=  274
 Leave Link  701 at Mon Mar  2 00:31:33 2020, MaxMem=  1879048192 cpu:              39.4 elap:               1.2
 (Enter /opt/g16/l702.exe)
 L702 exits ... SP integral derivatives will be done elsewhere.
 Leave Link  702 at Mon Mar  2 00:31:33 2020, MaxMem=  1879048192 cpu:               3.7 elap:               0.1
 (Enter /opt/g16/l703.exe)
 Integral derivatives from FoFJK, PRISM(SPDF).
 Compute integral first derivatives, UseDBF=F ICtDFT=           0.
 Calling FoFJK, ICntrl=      2127 FMM=F ISym2X=0 I1Cent= 0 IOpClX= 1 NMat=1 NMatS=1 NMatT=0.
 FoFJK:  IHMeth= 1 ICntrl=    2127 DoSepK=T KAlg= 0 I1Cent=           0 FoldK=F
 IRaf=         1 NMat=       1 IRICut=       1 DoRegI=T DoRafI=F ISym2E= 0 IDoP0=0 IntGTp=1.
 FoFCou: FMM=F IPFlag=           0 FMFlag=      100000 FMFlg1=         800
         NFxFlg=           0 DoJE=F BraDBF=F KetDBF=F FulRan=T
         wScrn=  0.000000 ICntrl=      2527 IOpCl=  0 I1Cent=           0 NGrid=           0
         NMat0=    1 NMatS0=      1 NMatT0=    0 NMatD0=    1 NMtDS0=    0 NMtDT0=    0
 Symmetry not used in FoFCou.
 Leave Link  703 at Mon Mar  2 00:31:47 2020, MaxMem=  1879048192 cpu:             502.6 elap:              14.1
 (Enter /opt/g16/l716.exe)
 Dipole        =-6.04111896D-01 2.45376975D-01 2.87602009D-08
 ***** Axes restored to original set *****
 -------------------------------------------------------------------
 Center     Atomic                   Forces (Hartrees/Bohr)
 Number     Number              X              Y              Z
 -------------------------------------------------------------------
      1        7          -0.000110663   -0.000013541    0.000003111
      2        6           0.000123371    0.000185514    0.000001267
      3        6           0.000137365   -0.000015393   -0.000004948
      4        6           0.000059704    0.000003576   -0.000001725
      5        6          -0.000093729   -0.000265013   -0.000004200
      6        6           0.000001672   -0.000083324   -0.000002391
      7        6           0.000035950    0.000067361    0.000000739
      8        1          -0.000024096    0.000051556    0.000002173
      9        1          -0.000025795    0.000030519    0.000001641
     10        1           0.000044172    0.000027077   -0.000000690
     11        1          -0.000026421    0.000005043    0.000000998
     12        1          -0.000121529    0.000006626    0.000004024
 -------------------------------------------------------------------
 Cartesian Forces:  Max     0.000265013 RMS     0.000074477
 Leave Link  716 at Mon Mar  2 00:31:47 2020, MaxMem=  1879048192 cpu:               4.0 elap:               0.1
 (Enter /opt/g16/l103.exe)

 GradGradGradGradGradGradGradGradGradGradGradGradGradGradGradGradGradGrad
 Berny optimization.
 FormGI is forming the generalized inverse of G from B-inverse, IUseBI=4.
 Internal  Forces:  Max     0.000217659 RMS     0.000055306
 Search for a local minimum.
 Step number   1 out of a maximum of   61
 All quantities printed in internal units (Hartrees-Bohrs-Radians)
 RMS Force = .55306D-04 SwitMx=.10000D-02 MixMth= 2
 Mixed Optimization -- En-DIIS/RFO-DIIS
 Second derivative matrix not updated -- first step.
 ITU=  0
     Eigenvalues ---    0.01695   0.01898   0.01963   0.02073   0.02155
     Eigenvalues ---    0.02201   0.02289   0.02451   0.02670   0.16000
     Eigenvalues ---    0.16000   0.16000   0.16000   0.16000   0.22000
     Eigenvalues ---    0.23249   0.23450   0.25000   0.35504   0.35633
     Eigenvalues ---    0.35736   0.35788   0.38150   0.40161   0.43997
     Eigenvalues ---    0.44337   0.47441   0.49312   0.53635   0.60456
 RFO step:  Lambda=-5.01979823D-07 EMin= 1.69459922D-02
 Linear search not attempted -- first point.
 Iteration  1 RMS(Cart)=  0.00035203 RMS(Int)=  0.00000012
 Iteration  2 RMS(Cart)=  0.00000011 RMS(Int)=  0.00000000
 ITry= 1 IFail=0 DXMaxC= 1.94D-03 DCOld= 1.00D+10 DXMaxT= 3.00D-01 DXLimC= 3.00D+00 Rises=F
 Variable       Old X    -DE/DX   Delta X   Delta X   Delta X     New X
                                 (Linear)    (Quad)   (Total)
    R1        2.50581  -0.00022   0.00000  -0.00036  -0.00036   2.50545
    R2        1.92753  -0.00009   0.00000  -0.00020  -0.00020   1.92734
    R3        2.69801  -0.00009   0.00000  -0.00022  -0.00022   2.69779
    R4        2.72005   0.00018   0.00000   0.00045   0.00045   2.72051
    R5        2.59692   0.00000   0.00000   0.00001   0.00001   2.59693
    R6        2.04415   0.00005   0.00000   0.00013   0.00013   2.04428
    R7        2.65039   0.00007   0.00000   0.00016   0.00016   2.65054
    R8        2.04659   0.00004   0.00000   0.00011   0.00011   2.04670
    R9        2.55392  -0.00005   0.00000  -0.00009  -0.00009   2.55383
   R10        2.04865   0.00001   0.00000   0.00004   0.00004   2.04869
   R11        2.60358  -0.00001   0.00000  -0.00002  -0.00002   2.60356
   R12        2.04497   0.00002   0.00000   0.00007   0.00007   2.04504
    A1        1.92056  -0.00016   0.00000  -0.00103  -0.00103   1.91953
    A2        2.06495  -0.00005   0.00000  -0.00019  -0.00019   2.06475
    A3        2.16905  -0.00001   0.00000  -0.00004  -0.00004   2.16901
    A4        2.04919   0.00005   0.00000   0.00023   0.00023   2.04942
    A5        2.12355  -0.00005   0.00000  -0.00022  -0.00022   2.12333
    A6        2.04241   0.00006   0.00000   0.00033   0.00033   2.04274
    A7        2.11722  -0.00001   0.00000  -0.00011  -0.00011   2.11711
    A8        2.10333   0.00003   0.00000   0.00014   0.00014   2.10348
    A9        2.09578  -0.00002   0.00000  -0.00011  -0.00011   2.09567
   A10        2.08407  -0.00001   0.00000  -0.00003  -0.00003   2.08404
   A11        2.04804  -0.00004   0.00000  -0.00017  -0.00017   2.04787
   A12        2.08825  -0.00003   0.00000  -0.00023  -0.00023   2.08802
   A13        2.14689   0.00007   0.00000   0.00040   0.00040   2.14730
   A14        2.03560  -0.00000   0.00000  -0.00001  -0.00001   2.03560
   A15        2.11383  -0.00001   0.00000  -0.00008  -0.00008   2.11375
   A16        2.13375   0.00001   0.00000   0.00009   0.00009   2.13383
   A17        2.20665   0.00000   0.00000   0.00002   0.00002   2.20668
    D1        3.14159   0.00000   0.00000   0.00000   0.00000  -3.14159
    D2        0.00000  -0.00000   0.00000  -0.00000  -0.00000  -0.00000
    D3       -3.14159  -0.00000   0.00000  -0.00000  -0.00000   3.14159
    D4        0.00000  -0.00000   0.00000  -0.00000  -0.00000  -0.00000
    D5       -0.00000   0.00000   0.00000   0.00000   0.00000   0.00000
    D6       -3.14159   0.00000   0.00000   0.00000   0.00000  -3.14159
    D7        3.14159   0.00000   0.00000   0.00000   0.00000  -3.14159
    D8       -0.00000   0.00000   0.00000   0.00000   0.00000   0.00000
    D9        0.00000  -0.00000   0.00000  -0.00000  -0.00000  -0.00000
   D10       -3.14159  -0.00000   0.00000  -0.00000  -0.00000   3.14159
   D11        0.00000  -0.00000   0.00000  -0.00000  -0.00000  -0.00000
   D12       -3.14159  -0.00000   0.00000  -0.00000  -0.00000   3.14159
   D13        3.14159   0.00000   0.00000   0.00000   0.00000   3.14159
   D14       -0.00000   0.00000   0.00000   0.00000   0.00000  -0.00000
   D15       -0.00000   0.00000   0.00000   0.00000   0.00000   0.00000
   D16       -3.14159  -0.00000   0.00000  -0.00000  -0.00000   3.14159
   D17        3.14159   0.00000   0.00000   0.00000   0.00000  -3.14159
   D18        0.00000  -0.00000   0.00000  -0.00000  -0.00000  -0.00000
   D19       -0.00000   0.00000   0.00000   0.00000   0.00000   0.00000
   D20        3.14159   0.00000   0.00000   0.00000   0.00000   3.14159
   D21        0.00000  -0.00000   0.00000  -0.00000  -0.00000   0.00000
   D22        3.14159   0.00000   0.00000   0.00000   0.00000  -3.14159
         Item               Value     Threshold  Converged?
 Maximum Force            0.000218     0.000015     NO 
 RMS     Force            0.000055     0.000010     NO 
 Maximum Displacement     0.001942     0.000060     NO 
 RMS     Displacement     0.000352     0.000040     NO 
 Predicted change in Energy=-2.509899D-07
 Lowest energy point so far.  Saving SCF results.
 GradGradGradGradGradGradGradGradGradGradGradGradGradGradGradGradGradGrad

 Leave Link  103 at Mon Mar  2 00:31:51 2020, MaxMem=  1879048192 cpu:             141.3 elap:               4.2
 (Enter /opt/g16/l202.exe)
                          Input orientation:                          
 ---------------------------------------------------------------------
 Center     Atomic      Atomic             Coordinates (Angstroms)
 Number     Number       Type             X           Y           Z
 ---------------------------------------------------------------------
      1          7           0        2.247739    0.725535   -0.051928
      2          6           0        1.019971    0.225784   -0.026330
      3          6           0       -0.079553    1.134412    0.032862
      4          6           0       -1.380223    0.691794    0.062301
      5          6           0        0.716594   -1.181238   -0.054331
      6          6           0       -1.666257   -0.681061    0.034664
      7          6           0       -0.587129   -1.535700   -0.022437
      8          1           0        0.155464    2.190154    0.053638
      9          1           0       -2.194982    1.403961    0.107203
     10          1           0        1.524298   -1.902983   -0.099264
     11          1           0       -2.686886   -1.040122    0.057451
     12          1           0        2.930966   -0.030537   -0.093829
 ---------------------------------------------------------------------
                    Distance matrix (angstroms):
                    1          2          3          4          5
     1  N    0.000000
     2  C    1.325829   0.000000
     3  C    2.364458   1.427607   0.000000
     4  C    3.629917   2.446620   1.374234   0.000000
     5  C    2.445444   1.439629   2.450243   2.813982   0.000000
     6  C    4.159974   2.835825   2.411135   1.402607   2.436407
     7  C    3.626367   2.384452   2.718491   2.365989   1.351427
     8  H    2.556143   2.147677   1.081784   2.145576   3.419476
     9  H    4.497039   3.426639   2.133828   1.083066   3.897002
    10  H    2.726668   2.188907   3.437378   3.898103   1.084121
    11  H    5.242140   3.917948   3.395200   2.169544   3.408238
    12  H    1.019902   1.929291   3.230540   4.374071   2.495820
                    6          7          8          9         10
     6  C    0.000000
     7  C    1.377747   0.000000
     8  H    3.400427   3.799898   0.000000
     9  H    2.152238   3.353149   2.479025   0.000000
    10  H    3.419162   2.144510   4.318664   4.981119   0.000000
    11  H    1.082186   2.158925   4.302750   2.493589   4.301529
    12  H    4.644799   3.827219   3.557616   5.326683   2.341965
                   11         12
    11  H    0.000000
    12  H    5.709852   0.000000
 Stoichiometry    C6H5N(3)
 Framework group  C1[X(C6H5N)]
 Deg. of freedom    30
 Full point group                 C1      NOp   1
 RotChk:  IX=0 Diff= 1.61D-04
 Largest Abelian subgroup         C1      NOp   1
 Largest concise Abelian subgroup C1      NOp   1
                         Standard orientation:                         
 ---------------------------------------------------------------------
 Center     Atomic      Atomic             Coordinates (Angstroms)
 Number     Number       Type             X           Y           Z
 ---------------------------------------------------------------------
      1          7           0        2.289702   -0.284223    0.000000
      2          6           0        0.982411   -0.063283   -0.000000
      3          6           0        0.105563   -1.189871    0.000000
      4          6           0       -1.260539   -1.040588    0.000000
      5          6           0        0.381236    1.244815    0.000000
      6          6           0       -1.837374    0.237915    0.000000
      7          6           0       -0.968743    1.307339    0.000000
      8          1           0        0.563857   -2.169780    0.000000
      9          1           0       -1.901871   -1.913356   -0.000000
     10          1           0        1.013603    2.125401    0.000000
     11          1           0       -2.911891    0.366523   -0.000000
     12          1           0        2.793070    0.602806    0.000000
 ---------------------------------------------------------------------
 Rotational constants (GHZ):           6.0060572           2.8170434           1.9176166
 Leave Link  202 at Mon Mar  2 00:31:51 2020, MaxMem=  1879048192 cpu:               4.0 elap:               0.1
 (Enter /opt/g16/l301.exe)
 Standard basis: def2TZVP (5D, 7F)
 Ernie: Thresh=  0.10000D-02 Tol=  0.10000D-05 Strict=F.
 There are   282 symmetry adapted cartesian basis functions of A   symmetry.
 There are   247 symmetry adapted basis functions of A   symmetry.
   247 basis functions,   397 primitive gaussians,   282 cartesian basis functions
    25 alpha electrons       23 beta electrons
       nuclear repulsion energy       252.4321634602 Hartrees.
 IExCor= 4639 DFT=T Ex+Corr=wB97XD ExCW=0 ScaHFX=  1.000000
 ScaDFX=  1.000000  1.000000  1.000000  1.000000 ScalE2=  1.000000  1.000000
 IRadAn=      5 IRanWt=     -1 IRanGd=            0 ICorTp=0 IEmpDi=121
 HFx  wShort=  0.000000 wLong=  0.200000 cFull=  0.222036 cShort=  0.000000 cLong=  0.777964
 DFx  wShort=  0.000000 wLong=  0.200000 cFull=  0.000000 cShort=  0.000000 cLong=  1.000000
 NAtoms=   12 NActive=   12 NUniq=   12 SFac= 1.00D+00 NAtFMM=   60 NAOKFM=F Big=F
 Integral buffers will be    131072 words long.
 Raffenetti 2 integral format.
 Two-electron integral symmetry is turned on.
 R6Disp:  Grimme-D2 Dispersion energy=       -0.0042567156 Hartrees.
 Nuclear repulsion after empirical dispersion term =      252.4279067446 Hartrees.
 Leave Link  301 at Mon Mar  2 00:31:52 2020, MaxMem=  1879048192 cpu:               4.2 elap:               0.1
 (Enter /opt/g16/l302.exe)
 NPDir=0 NMtPBC=     1 NCelOv=     1 NCel=       1 NClECP=     1 NCelD=      1
         NCelK=      1 NCelE2=     1 NClLst=     1 CellRange=     0.0.
 One-electron integrals computed using PRISM.
 One-electron integral symmetry used in STVInt
   1 Symmetry operations used in ECPInt.
 ECPInt:  NShTT=    4753 NPrTT=   14704 LenC2=    4700 LenP2D=   12021.
 LDataN:  DoStor=T MaxTD1= 6 Len=  172
 NBasis=   247 RedAO= T EigKep=  1.73D-05  NBF=   247
 NBsUse=   247 1.00D-06 EigRej= -1.00D+00 NBFU=   247
 Precomputing XC quadrature grid using
 IXCGrd= 4 IRadAn=           5 IRanWt=          -1 IRanGd=           0 AccXCQ= 1.00D-12.
 Generated NRdTot=       0 NPtTot=           0 NUsed=           0 NTot=          32
 NSgBfM=   281   281   281   281   281 MxSgAt=    12 MxSgA2=    12.
 Leave Link  302 at Mon Mar  2 00:31:52 2020, MaxMem=  1879048192 cpu:              16.2 elap:               0.5
 (Enter /opt/g16/l303.exe)
 DipDrv:  MaxL=1.
 Leave Link  303 at Mon Mar  2 00:31:52 2020, MaxMem=  1879048192 cpu:              10.0 elap:               0.3
 (Enter /opt/g16/l401.exe)
 Initial guess from the checkpoint file:  "check.chk"
 B after Tr=    -0.000000   -0.000000   -0.000000
         Rot=    1.000000   -0.000000   -0.000000   -0.000045 Ang=  -0.01 deg.
 Guess basis will be translated and rotated to current coordinates.
 JPrj=2 DoOrth=T DoCkMO=T.
 Initial guess <Sx>= 0.0000 <Sy>= 0.0000 <Sz>= 1.0000 <S**2>= 2.0414 S= 1.0137
 Leave Link  401 at Mon Mar  2 00:31:56 2020, MaxMem=  1879048192 cpu:             115.2 elap:               3.4
 (Enter /opt/g16/l502.exe)
 Integral symmetry usage will be decided dynamically.
 UHF open shell SCF:
 Using DIIS extrapolation, IDIIS=  1040.
 NGot=  1879048192 LenX=  1878876442 LenY=  1878796477
 Requested convergence on RMS density matrix=1.00D-08 within  32 cycles.
 Requested convergence on MAX density matrix=1.00D-06.
 Requested convergence on             energy=1.00D-06.
 No special actions if energy rises.
 Fock matrices will be formed incrementally for  20 cycles.

 Cycle   1  Pass 1  IDiag  1:
 FoFJK:  IHMeth= 1 ICntrl=       0 DoSepK=T KAlg= 0 I1Cent=           0 FoldK=F
 IRaf=         1 NMat=       1 IRICut=       1 DoRegI=T DoRafI=F ISym2E= 0 IDoP0=0 IntGTp=1.
 FoFCou: FMM=F IPFlag=           0 FMFlag=      100000 FMFlg1=           0
         NFxFlg=           0 DoJE=T BraDBF=F KetDBF=F FulRan=T
         wScrn=  0.000000 ICntrl=       500 IOpCl=  0 I1Cent=           0 NGrid=           0
         NMat0=    1 NMatS0=      1 NMatT0=    0 NMatD0=    1 NMtDS0=    0 NMtDT0=    0
 Symmetry not used in FoFCou.
 E= -286.262049582706    
 DIIS: error= 1.96D-05 at cycle   1 NSaved=   1.
 NSaved= 1 IEnMin= 1 EnMin= -286.262049582706     IErMin= 1 ErrMin= 1.96D-05
 ErrMax= 1.96D-05  0.00D+00 EMaxC= 1.00D-01 BMatC= 5.44D-07 BMatP= 5.44D-07
 IDIUse=1 WtCom= 1.00D+00 WtEn= 0.00D+00
 Coeff-Com:  0.100D+01
 Coeff:      0.100D+01
 Gap=     0.881 Goal=   None    Shift=    0.000
 Gap=     0.920 Goal=   None    Shift=    0.000
 RMSDP=3.03D-06 MaxDP=1.53D-04              OVMax= 1.16D-04

 Cycle   2  Pass 1  IDiag  1:
 RMSU=  3.01D-06    CP:  1.00D+00
 E= -286.262049709646     Delta-E=       -0.000000126940 Rises=F Damp=F
 DIIS: error= 7.04D-06 at cycle   2 NSaved=   2.
 NSaved= 2 IEnMin= 2 EnMin= -286.262049709646     IErMin= 2 ErrMin= 7.04D-06
 ErrMax= 7.04D-06  0.00D+00 EMaxC= 1.00D-01 BMatC= 3.56D-08 BMatP= 5.44D-07
 IDIUse=1 WtCom= 1.00D+00 WtEn= 0.00D+00
 Coeff-Com:  0.237D-01 0.976D+00
 Coeff:      0.237D-01 0.976D+00
 Gap=     0.339 Goal=   None    Shift=    0.000
 Gap=     0.287 Goal=   None    Shift=    0.000
 RMSDP=8.94D-07 MaxDP=3.97D-05 DE=-1.27D-07 OVMax= 9.69D-05

 Cycle   3  Pass 1  IDiag  1:
 RMSU=  8.83D-07    CP:  1.00D+00  1.01D+00
 E= -286.262049716734     Delta-E=       -0.000000007089 Rises=F Damp=F
 DIIS: error= 1.26D-05 at cycle   3 NSaved=   3.
 NSaved= 3 IEnMin= 3 EnMin= -286.262049716734     IErMin= 2 ErrMin= 7.04D-06
 ErrMax= 1.26D-05  0.00D+00 EMaxC= 1.00D-01 BMatC= 2.92D-08 BMatP= 3.56D-08
 IDIUse=1 WtCom= 1.00D+00 WtEn= 0.00D+00
 Coeff-Com: -0.489D-01 0.489D+00 0.560D+00
 Coeff:     -0.489D-01 0.489D+00 0.560D+00
 Gap=     0.339 Goal=   None    Shift=    0.000
 Gap=     0.287 Goal=   None    Shift=    0.000
 RMSDP=5.02D-07 MaxDP=3.50D-05 DE=-7.09D-09 OVMax= 5.70D-05

 Cycle   4  Pass 1  IDiag  1:
 RMSU=  2.94D-07    CP:  1.00D+00  1.10D+00  6.65D-01
 E= -286.262049724364     Delta-E=       -0.000000007630 Rises=F Damp=F
 DIIS: error= 2.78D-06 at cycle   4 NSaved=   4.
 NSaved= 4 IEnMin= 4 EnMin= -286.262049724364     IErMin= 4 ErrMin= 2.78D-06
 ErrMax= 2.78D-06  0.00D+00 EMaxC= 1.00D-01 BMatC= 1.48D-09 BMatP= 2.92D-08
 IDIUse=1 WtCom= 1.00D+00 WtEn= 0.00D+00
 Coeff-Com: -0.497D-02-0.575D-01 0.844D-01 0.978D+00
 Coeff:     -0.497D-02-0.575D-01 0.844D-01 0.978D+00
 Gap=     0.339 Goal=   None    Shift=    0.000
 Gap=     0.287 Goal=   None    Shift=    0.000
 RMSDP=1.97D-07 MaxDP=1.13D-05 DE=-7.63D-09 OVMax= 3.46D-05

 Cycle   5  Pass 1  IDiag  1:
 RMSU=  1.13D-07    CP:  1.00D+00  1.09D+00  8.31D-01  1.18D+00
 E= -286.262049725957     Delta-E=       -0.000000001593 Rises=F Damp=F
 DIIS: error= 2.93D-06 at cycle   5 NSaved=   5.
 NSaved= 5 IEnMin= 5 EnMin= -286.262049725957     IErMin= 4 ErrMin= 2.78D-06
 ErrMax= 2.93D-06  0.00D+00 EMaxC= 1.00D-01 BMatC= 4.66D-10 BMatP= 1.48D-09
 IDIUse=1 WtCom= 1.00D+00 WtEn= 0.00D+00
 Coeff-Com:  0.801D-02-0.103D+00-0.686D-01 0.200D+00 0.964D+00
 Coeff:      0.801D-02-0.103D+00-0.686D-01 0.200D+00 0.964D+00
 Gap=     0.339 Goal=   None    Shift=    0.000
 Gap=     0.287 Goal=   None    Shift=    0.000
 RMSDP=1.10D-07 MaxDP=4.24D-06 DE=-1.59D-09 OVMax= 2.83D-05

 Cycle   6  Pass 1  IDiag  1:
 RMSU=  5.04D-08    CP:  1.00D+00  1.09D+00  8.92D-01  1.37D+00  1.52D+00
 E= -286.262049726757     Delta-E=       -0.000000000800 Rises=F Damp=F
 DIIS: error= 1.69D-06 at cycle   6 NSaved=   6.
 NSaved= 6 IEnMin= 6 EnMin= -286.262049726757     IErMin= 6 ErrMin= 1.69D-06
 ErrMax= 1.69D-06  0.00D+00 EMaxC= 1.00D-01 BMatC= 2.27D-10 BMatP= 4.66D-10
 IDIUse=1 WtCom= 1.00D+00 WtEn= 0.00D+00
 Coeff-Com:  0.487D-02 0.369D-02-0.484D-01-0.488D+00 0.247D+00 0.128D+01
 Coeff:      0.487D-02 0.369D-02-0.484D-01-0.488D+00 0.247D+00 0.128D+01
 Gap=     0.339 Goal=   None    Shift=    0.000
 Gap=     0.287 Goal=   None    Shift=    0.000
 RMSDP=1.26D-07 MaxDP=5.38D-06 DE=-8.00D-10 OVMax= 3.24D-05

 Cycle   7  Pass 1  IDiag  1:
 RMSU=  4.15D-08    CP:  1.00D+00  1.08D+00  9.64D-01  1.49D+00  2.22D+00
                    CP:  1.92D+00
 E= -286.262049727306     Delta-E=       -0.000000000549 Rises=F Damp=F
 DIIS: error= 8.15D-07 at cycle   7 NSaved=   7.
 NSaved= 7 IEnMin= 7 EnMin= -286.262049727306     IErMin= 7 ErrMin= 8.15D-07
 ErrMax= 8.15D-07  0.00D+00 EMaxC= 1.00D-01 BMatC= 4.05D-11 BMatP= 2.27D-10
 IDIUse=1 WtCom= 1.00D+00 WtEn= 0.00D+00
 Coeff-Com: -0.227D-02 0.317D-01 0.265D-01-0.985D-01-0.251D+00-0.717D-02
 Coeff-Com:  0.130D+01
 Coeff:     -0.227D-02 0.317D-01 0.265D-01-0.985D-01-0.251D+00-0.717D-02
 Coeff:      0.130D+01
 Gap=     0.339 Goal=   None    Shift=    0.000
 Gap=     0.287 Goal=   None    Shift=    0.000
 RMSDP=6.44D-08 MaxDP=2.55D-06 DE=-5.49D-10 OVMax= 1.87D-05

 Cycle   8  Pass 1  IDiag  1:
 RMSU=  1.72D-08    CP:  1.00D+00  1.08D+00  9.87D-01  1.51D+00  2.51D+00
                    CP:  2.60D+00  1.79D+00
 E= -286.262049727425     Delta-E=       -0.000000000119 Rises=F Damp=F
 DIIS: error= 2.72D-07 at cycle   8 NSaved=   8.
 NSaved= 8 IEnMin= 8 EnMin= -286.262049727425     IErMin= 8 ErrMin= 2.72D-07
 ErrMax= 2.72D-07  0.00D+00 EMaxC= 1.00D-01 BMatC= 1.02D-11 BMatP= 4.05D-11
 IDIUse=1 WtCom= 1.00D+00 WtEn= 0.00D+00
 Coeff-Com: -0.145D-02 0.765D-02 0.184D-01 0.627D-01-0.100D+00-0.242D+00
 Coeff-Com:  0.370D+00 0.885D+00
 Coeff:     -0.145D-02 0.765D-02 0.184D-01 0.627D-01-0.100D+00-0.242D+00
 Coeff:      0.370D+00 0.885D+00
 Gap=     0.339 Goal=   None    Shift=    0.000
 Gap=     0.287 Goal=   None    Shift=    0.000
 RMSDP=1.79D-08 MaxDP=6.14D-07 DE=-1.19D-10 OVMax= 3.47D-06

 Cycle   9  Pass 1  IDiag  1:
 RMSU=  6.97D-09    CP:  1.00D+00  1.08D+00  9.92D-01  1.50D+00  2.54D+00
                    CP:  2.74D+00  2.08D+00  1.35D+00
 E= -286.262049727438     Delta-E=       -0.000000000013 Rises=F Damp=F
 DIIS: error= 1.77D-07 at cycle   9 NSaved=   9.
 NSaved= 9 IEnMin= 9 EnMin= -286.262049727438     IErMin= 9 ErrMin= 1.77D-07
 ErrMax= 1.77D-07  0.00D+00 EMaxC= 1.00D-01 BMatC= 2.28D-12 BMatP= 1.02D-11
 IDIUse=1 WtCom= 1.00D+00 WtEn= 0.00D+00
 Coeff-Com:  0.615D-03-0.970D-02-0.649D-02 0.324D-01 0.710D-01-0.197D-01
 Coeff-Com: -0.373D+00 0.350D-01 0.127D+01
 Coeff:      0.615D-03-0.970D-02-0.649D-02 0.324D-01 0.710D-01-0.197D-01
 Coeff:     -0.373D+00 0.350D-01 0.127D+01
 Gap=     0.339 Goal=   None    Shift=    0.000
 Gap=     0.287 Goal=   None    Shift=    0.000
 RMSDP=1.17D-08 MaxDP=4.82D-07 DE=-1.30D-11 OVMax= 2.49D-06

 Cycle  10  Pass 1  IDiag  1:
 RMSU=  4.50D-09    CP:  1.00D+00  1.08D+00  9.95D-01  1.50D+00  2.54D+00
                    CP:  2.81D+00  2.23D+00  1.68D+00  1.71D+00
 E= -286.262049727443     Delta-E=       -0.000000000005 Rises=F Damp=F
 DIIS: error= 6.35D-08 at cycle  10 NSaved=  10.
 NSaved=10 IEnMin=10 EnMin= -286.262049727443     IErMin=10 ErrMin= 6.35D-08
 ErrMax= 6.35D-08  0.00D+00 EMaxC= 1.00D-01 BMatC= 4.64D-13 BMatP= 2.28D-12
 IDIUse=1 WtCom= 1.00D+00 WtEn= 0.00D+00
 Coeff-Com:  0.299D-03-0.230D-02-0.405D-02-0.640D-02 0.240D-01 0.436D-01
 Coeff-Com: -0.106D+00-0.150D+00 0.130D+00 0.107D+01
 Coeff:      0.299D-03-0.230D-02-0.405D-02-0.640D-02 0.240D-01 0.436D-01
 Coeff:     -0.106D+00-0.150D+00 0.130D+00 0.107D+01
 Gap=     0.339 Goal=   None    Shift=    0.000
 Gap=     0.287 Goal=   None    Shift=    0.000
 RMSDP=4.46D-09 MaxDP=1.71D-07 DE=-4.66D-12 OVMax= 9.18D-07

 SCF Done:  E(UwB97XD) =  -286.262049727     A.U. after   10 cycles
            NFock= 10  Conv=0.45D-08     -V/T= 2.0046
 <Sx>= 0.0000 <Sy>= 0.0000 <Sz>= 1.0000 <S**2>= 2.0414 S= 1.0137
 <L.S>= 0.000000000000E+00
 KE= 2.849393533096D+02 PE=-1.169854387656D+03 EE= 3.462250778740D+02
 Annihilation of the first spin contaminant:
 S**2 before annihilation     2.0414,   after     2.0006
 Leave Link  502 at Mon Mar  2 00:34:25 2020, MaxMem=  1879048192 cpu:            5345.7 elap:             149.1
 (Enter /opt/g16/l508.exe)
 QCSCF skips out because SCF is already converged.
 Leave Link  508 at Mon Mar  2 00:34:25 2020, MaxMem=  1879048192 cpu:               2.3 elap:               0.1
 (Enter /opt/g16/l701.exe)
 ... and contract with generalized density number  0.
 Compute integral first derivatives.
 R6Disp: Adding Grimme-D2 dispersion energy 1st derivatives to the gradient.
   1 Symmetry operations used in ECPInt.
 ECPInt:  NShTT=    4753 NPrTT=   14704 LenC2=    4700 LenP2D=   12021.
 LDataN:  DoStor=T MaxTD1= 7 Len=  274
 Leave Link  701 at Mon Mar  2 00:34:26 2020, MaxMem=  1879048192 cpu:              36.0 elap:               1.1
 (Enter /opt/g16/l702.exe)
 L702 exits ... SP integral derivatives will be done elsewhere.
 Leave Link  702 at Mon Mar  2 00:34:26 2020, MaxMem=  1879048192 cpu:               3.2 elap:               0.1
 (Enter /opt/g16/l703.exe)
 Integral derivatives from FoFJK, PRISM(SPDF).
 Compute integral first derivatives, UseDBF=F ICtDFT=           0.
 Calling FoFJK, ICntrl=      2127 FMM=F ISym2X=0 I1Cent= 0 IOpClX= 1 NMat=1 NMatS=1 NMatT=0.
 FoFJK:  IHMeth= 1 ICntrl=    2127 DoSepK=T KAlg= 0 I1Cent=           0 FoldK=F
 IRaf=         1 NMat=       1 IRICut=       1 DoRegI=T DoRafI=F ISym2E= 0 IDoP0=0 IntGTp=1.
 FoFCou: FMM=F IPFlag=           0 FMFlag=      100000 FMFlg1=         800
         NFxFlg=           0 DoJE=F BraDBF=F KetDBF=F FulRan=T
         wScrn=  0.000000 ICntrl=      2527 IOpCl=  0 I1Cent=           0 NGrid=           0
         NMat0=    1 NMatS0=      1 NMatT0=    0 NMatD0=    1 NMtDS0=    0 NMtDT0=    0
 Symmetry not used in FoFCou.
 Leave Link  703 at Mon Mar  2 00:34:41 2020, MaxMem=  1879048192 cpu:             520.2 elap:              14.5
 (Enter /opt/g16/l716.exe)
 Dipole        =-6.04656951D-01 2.45198547D-01-6.06788991D-08
 ***** Axes restored to original set *****
 -------------------------------------------------------------------
 Center     Atomic                   Forces (Hartrees/Bohr)
 Number     Number              X              Y              Z
 -------------------------------------------------------------------
      1        7          -0.000021103   -0.000054237   -0.000000756
      2        6           0.000030278    0.000107829    0.000001793
      3        6          -0.000011698   -0.000009203    0.000000191
      4        6          -0.000007420    0.000006298    0.000000407
      5        6          -0.000058597   -0.000104118   -0.000000886
      6        6          -0.000015688   -0.000001518    0.000000469
      7        6           0.000044564    0.000028673   -0.000000646
      8        1          -0.000010450   -0.000005431    0.000000184
      9        1          -0.000005301   -0.000002354    0.000000093
     10        1           0.000012683    0.000020285    0.000000139
     11        1           0.000000086    0.000007629    0.000000191
     12        1           0.000042648    0.000006146   -0.000001180
 -------------------------------------------------------------------
 Cartesian Forces:  Max     0.000107829 RMS     0.000031730
 Leave Link  716 at Mon Mar  2 00:34:41 2020, MaxMem=  1879048192 cpu:               5.3 elap:               0.2
 (Enter /opt/g16/l103.exe)

 GradGradGradGradGradGradGradGradGradGradGradGradGradGradGradGradGradGrad
 Berny optimization.
 Using GEDIIS/GDIIS optimizer.
 FormGI is forming the generalized inverse of G from B-inverse, IUseBI=4.
 Internal  Forces:  Max     0.000069277 RMS     0.000017374
 Search for a local minimum.
 Step number   2 out of a maximum of   61
 All quantities printed in internal units (Hartrees-Bohrs-Radians)
 RMS Force = .17374D-04 SwitMx=.10000D-02 MixMth= 2
 Mixed Optimization -- En-DIIS/RFO-DIIS
 Swapping is turned off.
 Update second derivatives using D2CorX and points    1    2
 DE= -2.28D-07 DEPred=-2.51D-07 R= 9.09D-01
 Trust test= 9.09D-01 RLast= 1.45D-03 DXMaxT set to 3.00D-01
 ITU=  0  0
     Eigenvalues ---    0.01695   0.01898   0.01963   0.02073   0.02155
     Eigenvalues ---    0.02201   0.02289   0.02451   0.02670   0.14323
     Eigenvalues ---    0.16000   0.16000   0.16000   0.19056   0.22062
     Eigenvalues ---    0.22994   0.23832   0.26781   0.34442   0.35516
     Eigenvalues ---    0.35712   0.35756   0.36204   0.40936   0.43604
     Eigenvalues ---    0.45455   0.47416   0.49524   0.53186   0.60915
 En-DIIS/RFO-DIIS/Sim-DIIS IScMMF=       -3 using points:     2    1
 RFO step:  Lambda=-4.85807945D-08.
 NNeg= 0 NGDIIS= 2 SimSw=  2.50D-03 Rises=F DC= -2.28D-07 SmlDif=  1.00D-05
 NRisDI= 0 DoIntr=F SqrtH=F CThrHd= 10.0 CDAdj=  3.0
 RMS Error=  0.6787987896D-04 NUsed= 2 OKEnD=F EnDIS=F
 InvSVX:  RCond= 2.37D-06 Info=           0 Equed=N FErr=  1.10D-15 BErr=  2.86D-17
 DidBck=F Rises=F RFO-DIIS coefs:    0.95805    0.04195
 Iteration  1 RMS(Cart)=  0.00008034 RMS(Int)=  0.00000001
 Iteration  2 RMS(Cart)=  0.00000001 RMS(Int)=  0.00000000
 ITry= 1 IFail=0 DXMaxC= 3.85D-04 DCOld= 1.00D+10 DXMaxT= 3.00D-01 DXLimC= 3.00D+00 Rises=F
 Variable       Old X    -DE/DX   Delta X   Delta X   Delta X     New X
                                 (Linear)    (Quad)   (Total)
    R1        2.50545   0.00000   0.00002  -0.00005  -0.00003   2.50542
    R2        1.92734   0.00002   0.00001   0.00002   0.00003   1.92737
    R3        2.69779   0.00002   0.00001   0.00002   0.00003   2.69782
    R4        2.72051   0.00006  -0.00002   0.00020   0.00018   2.72069
    R5        2.59693   0.00001  -0.00000   0.00001   0.00001   2.59694
    R6        2.04428  -0.00001  -0.00001  -0.00000  -0.00001   2.04427
    R7        2.65054  -0.00001  -0.00001   0.00001   0.00000   2.65054
    R8        2.04670   0.00000  -0.00000   0.00002   0.00002   2.04671
    R9        2.55383  -0.00003   0.00000  -0.00007  -0.00007   2.55376
   R10        2.04869  -0.00000  -0.00000  -0.00000  -0.00001   2.04869
   R11        2.60356   0.00001   0.00000   0.00002   0.00002   2.60359
   R12        2.04504  -0.00000  -0.00000   0.00000  -0.00000   2.04504
    A1        1.91953   0.00007   0.00004   0.00025   0.00029   1.91982
    A2        2.06475   0.00004   0.00001   0.00012   0.00013   2.06488
    A3        2.16901  -0.00002   0.00000  -0.00008  -0.00008   2.16893
    A4        2.04942  -0.00002  -0.00001  -0.00003  -0.00004   2.04938
    A5        2.12333   0.00001   0.00001   0.00002   0.00003   2.12336
    A6        2.04274   0.00000  -0.00001   0.00008   0.00006   2.04281
    A7        2.11711  -0.00001   0.00000  -0.00009  -0.00009   2.11702
    A8        2.10348  -0.00000  -0.00001   0.00001   0.00000   2.10348
    A9        2.09567   0.00001   0.00000   0.00002   0.00003   2.09570
   A10        2.08404  -0.00000   0.00000  -0.00003  -0.00003   2.08401
   A11        2.04787  -0.00000   0.00001  -0.00004  -0.00003   2.04783
   A12        2.08802  -0.00002   0.00001  -0.00016  -0.00015   2.08786
   A13        2.14730   0.00003  -0.00002   0.00021   0.00019   2.14749
   A14        2.03560  -0.00000   0.00000  -0.00002  -0.00002   2.03558
   A15        2.11375  -0.00001   0.00000  -0.00004  -0.00004   2.11371
   A16        2.13383   0.00001  -0.00000   0.00006   0.00006   2.13389
[...]
 Alpha virt. eigenvalues --    2.48486   2.57153   2.60280   2.61517   2.64357
 Alpha virt. eigenvalues --    2.64451   2.68888   2.70152   2.71059   2.72233
 Alpha virt. eigenvalues --    2.75323   2.75489   2.75698   2.81794   2.82018
 Alpha virt. eigenvalues --    2.82602   2.86264   2.86651   2.86859   2.89268
 Alpha virt. eigenvalues --    2.92239   2.95117   2.96397   3.03097   3.04108
 Alpha virt. eigenvalues --    3.05019   3.09386   3.12426   3.14669   3.15626
 Alpha virt. eigenvalues --    3.18007   3.18598   3.20368   3.22666   3.23552
 Alpha virt. eigenvalues --    3.27865   3.28092   3.29105   3.33609   3.34917
 Alpha virt. eigenvalues --    3.39797   3.40576   3.41196   3.42703   3.43415
 Alpha virt. eigenvalues --    3.44216   3.50994   3.53037   3.54827   3.55130
 Alpha virt. eigenvalues --    3.57129   3.58022   3.58482   3.67089   3.71506
 Alpha virt. eigenvalues --    3.71794   3.74684   3.80033   3.84954   3.89808
 Alpha virt. eigenvalues --    4.01674   4.02744   4.03965   4.06811   4.09392
 Alpha virt. eigenvalues --    4.11374   4.13547   4.18626   4.21920   4.27429
 Alpha virt. eigenvalues --    4.30153   4.30696   4.32611   4.34226   4.35770
 Alpha virt. eigenvalues --    4.50765   4.52983   4.63782   4.67955   4.69325
 Alpha virt. eigenvalues --    4.69463   4.72855   4.76504   4.81505   4.84705
 Alpha virt. eigenvalues --    4.91147   4.91286   4.99961   5.03765   5.15461
 Alpha virt. eigenvalues --    5.18627   5.28484   5.30560   5.33640   5.38748
 Alpha virt. eigenvalues --    5.50232   5.56225   5.64628   5.73324   6.05145
 Alpha virt. eigenvalues --   22.15253  22.58704  22.64980  22.77304  22.90973
 Alpha virt. eigenvalues --   23.27653  32.12162
  Beta  occ. eigenvalues --  -14.42819 -10.34034 -10.31559 -10.31471 -10.31096
  Beta  occ. eigenvalues --  -10.31050 -10.30302  -1.01046  -0.94352  -0.85633
  Beta  occ. eigenvalues --   -0.81737  -0.71500  -0.66767  -0.61557  -0.58233
  Beta  occ. eigenvalues --   -0.54366  -0.53185  -0.48295  -0.48235  -0.45668
  Beta  occ. eigenvalues --   -0.37954  -0.36398  -0.34593
  Beta virt. eigenvalues --   -0.05940  -0.02908   0.05841   0.09725   0.12430
  Beta virt. eigenvalues --    0.13297   0.16547   0.17802   0.18956   0.20082
  Beta virt. eigenvalues --    0.22269   0.25103   0.26761   0.27929   0.28295
  Beta virt. eigenvalues --    0.30031   0.31222   0.31736   0.33665   0.35045
  Beta virt. eigenvalues --    0.35540   0.36832   0.39927   0.40290   0.40665
  Beta virt. eigenvalues --    0.41587   0.42538   0.45207   0.47286   0.47571
  Beta virt. eigenvalues --    0.47818   0.49641   0.50168   0.51500   0.51563
  Beta virt. eigenvalues --    0.53344   0.55405   0.56396   0.56792   0.58714
  Beta virt. eigenvalues --    0.60095   0.61107   0.65734   0.68763   0.70039
  Beta virt. eigenvalues --    0.70893   0.74266   0.75421   0.76691   0.78169
  Beta virt. eigenvalues --    0.81233   0.81768   0.84245   0.87965   0.89087
  Beta virt. eigenvalues --    0.89165   0.95193   0.95288   0.96164   1.07881
  Beta virt. eigenvalues --    1.08425   1.09152   1.10237   1.15282   1.15361
  Beta virt. eigenvalues --    1.15492   1.20458   1.21207   1.26880   1.27048
  Beta virt. eigenvalues --    1.29379   1.30627   1.32621   1.35472   1.36124
  Beta virt. eigenvalues --    1.37969   1.42113   1.46289   1.46994   1.49546
  Beta virt. eigenvalues --    1.54461   1.54872   1.56459   1.56887   1.57914
  Beta virt. eigenvalues --    1.61382   1.63716   1.65086   1.68889   1.69496
  Beta virt. eigenvalues --    1.73287   1.74651   1.76919   1.77111   1.81754
  Beta virt. eigenvalues --    1.85096   1.86487   1.90442   1.93467   1.96807
  Beta virt. eigenvalues --    2.01585   2.03360   2.04767   2.08234   2.08634
  Beta virt. eigenvalues --    2.15349   2.17335   2.20205   2.22123   2.26202
  Beta virt. eigenvalues --    2.28651   2.29926   2.32031   2.36701   2.42264
  Beta virt. eigenvalues --    2.44141   2.48186   2.49357   2.58015   2.61307
  Beta virt. eigenvalues --    2.62216   2.65179   2.66022   2.69730   2.70698
  Beta virt. eigenvalues --    2.71506   2.72739   2.76170   2.76572   2.76586
  Beta virt. eigenvalues --    2.82556   2.83261   2.83541   2.87185   2.87192
  Beta virt. eigenvalues --    2.88245   2.90103   2.92891   2.95542   2.97310
  Beta virt. eigenvalues --    3.04693   3.04823   3.05751   3.10777   3.14056
  Beta virt. eigenvalues --    3.15783   3.16351   3.19166   3.19549   3.22162
  Beta virt. eigenvalues --    3.23286   3.25565   3.28948   3.28983   3.30058
  Beta virt. eigenvalues --    3.34522   3.36053   3.40538   3.41635   3.42708
  Beta virt. eigenvalues --    3.43681   3.45011   3.45805   3.52698   3.54358
  Beta virt. eigenvalues --    3.56505   3.56656   3.59067   3.59357   3.59799
  Beta virt. eigenvalues --    3.68433   3.72836   3.72980   3.76206   3.81621
  Beta virt. eigenvalues --    3.86314   3.90792   4.02403   4.04378   4.04898
  Beta virt. eigenvalues --    4.08445   4.10465   4.12379   4.15006   4.19685
  Beta virt. eigenvalues --    4.23396   4.28470   4.30834   4.32045   4.33549
  Beta virt. eigenvalues --    4.36425   4.37498   4.52865   4.54613   4.66096
  Beta virt. eigenvalues --    4.69898   4.70385   4.71454   4.76101   4.78391
  Beta virt. eigenvalues --    4.83366   4.85858   4.92256   4.94971   5.03059
  Beta virt. eigenvalues --    5.04513   5.16852   5.20158   5.29521   5.32900
  Beta virt. eigenvalues --    5.34781   5.39647   5.51375   5.57205   5.65756
  Beta virt. eigenvalues --    5.74387   6.05784  22.16062  22.59559  22.65631
  Beta virt. eigenvalues --   22.77933  22.91265  23.27703  32.13550
          Condensed to atoms (all electrons):
               1          2          3          4          5          6
     1  N    6.542523   0.572788  -0.064685   0.002930  -0.125427  -0.003006
     2  C    0.572788   4.686689   0.437864  -0.022416   0.330984  -0.042410
     3  C   -0.064685   0.437864   4.973700   0.518454  -0.008085  -0.011856
     4  C    0.002930  -0.022416   0.518454   4.853354  -0.055242   0.435679
     5  C   -0.125427   0.330984  -0.008085  -0.055242   5.378880  -0.000914
     6  C   -0.003006  -0.042410  -0.011856   0.435679  -0.000914   4.918261
     7  C    0.027656   0.044484  -0.066401   0.004768   0.320640   0.475696
     8  H    0.010426  -0.036263   0.415984  -0.049632   0.017821   0.010891
     9  H   -0.000038   0.009989  -0.048113   0.433288  -0.004279  -0.051625
    10  H   -0.003803  -0.047351   0.005409  -0.000949   0.411319   0.004117
    11  H   -0.000001  -0.002013   0.005805  -0.046821   0.007823   0.425115
    12  H    0.356310  -0.086363   0.011907  -0.000158  -0.026709  -0.000846
               7          8          9         10         11         12
     1  N    0.027656   0.010426  -0.000038  -0.003803  -0.000001   0.356310
     2  C    0.044484  -0.036263   0.009989  -0.047351  -0.002013  -0.086363
     3  C   -0.066401   0.415984  -0.048113   0.005409   0.005805   0.011907
     4  C    0.004768  -0.049632   0.433288  -0.000949  -0.046821  -0.000158
     5  C    0.320640   0.017821  -0.004279   0.411319   0.007823  -0.026709
     6  C    0.475696   0.010891  -0.051625   0.004117   0.425115  -0.000846
     7  C    5.196892  -0.007233   0.010093  -0.020800  -0.039430   0.009995
     8  H   -0.007233   0.506791  -0.007218  -0.000111  -0.000030  -0.001529
     9  H    0.010093  -0.007218   0.528467   0.000053  -0.004386   0.000034
    10  H   -0.020800  -0.000111   0.000053   0.510295  -0.000064   0.002415
    11  H   -0.039430  -0.000030  -0.004386  -0.000064   0.507596  -0.000007
    12  H    0.009995  -0.001529   0.000034   0.002415  -0.000007   0.527507
          Atomic-Atomic Spin Densities.
               1          2          3          4          5          6
     1  N    0.686158  -0.026364  -0.028227   0.000520  -0.024600  -0.000005
     2  C   -0.026364  -0.101987   0.003979   0.008277   0.043782  -0.004002
     3  C   -0.028227   0.003979   0.290100  -0.004618   0.022509  -0.009294
     4  C    0.000520   0.008277  -0.004618  -0.096344   0.000675   0.017862
     5  C   -0.024600   0.043782   0.022509   0.000675   0.191041  -0.005829
     6  C   -0.000005  -0.004002  -0.009294   0.017862  -0.005829   0.297747
     7  C    0.005942  -0.008889  -0.020316  -0.008881  -0.007214  -0.005216
     8  H   -0.001480   0.000107   0.002535  -0.000961   0.000779   0.000532
     9  H    0.000128   0.001570  -0.005411   0.000631  -0.001696  -0.005831
    10  H    0.003341  -0.006785  -0.001361   0.000262   0.000066  -0.001678
    11  H    0.000028   0.000814  -0.001207  -0.003875  -0.003293   0.006309
    12  H   -0.000718   0.000556   0.001221   0.000067  -0.002173  -0.000073
               7          8          9         10         11         12
     1  N    0.005942  -0.001480   0.000128   0.003341   0.000028  -0.000718
     2  C   -0.008889   0.000107   0.001570  -0.006785   0.000814   0.000556
     3  C   -0.020316   0.002535  -0.005411  -0.001361  -0.001207   0.001221
     4  C   -0.008881  -0.000961   0.000631   0.000262  -0.003875   0.000067
     5  C   -0.007214   0.000779  -0.001696   0.000066  -0.003293  -0.002173
     6  C   -0.005216   0.000532  -0.005831  -0.001678   0.006309  -0.000073
     7  C    0.839363  -0.002269   0.004875   0.000697  -0.003051   0.000378
     8  H   -0.002269  -0.006340  -0.001340  -0.000094  -0.000082  -0.000048
     9  H    0.004875  -0.001340   0.020759   0.000032   0.001827   0.000008
    10  H    0.000697  -0.000094   0.000032   0.017057   0.000077   0.001677
    11  H   -0.003051  -0.000082   0.001827   0.000077   0.008344   0.000004
    12  H    0.000378  -0.000048   0.000008   0.001677   0.000004  -0.016271
 Mulliken charges and spin densities:
               1          2
     1  N   -0.315673   0.614723
     2  C    0.154017  -0.088942
     3  C   -0.169984   0.249909
     4  C   -0.073256  -0.086384
     5  C   -0.246809   0.214049
     6  C   -0.159100   0.290521
     7  C    0.043641   0.795420
     8  H    0.140102  -0.008660
     9  H    0.133736   0.015551
    10  H    0.139471   0.013290
    11  H    0.146412   0.005896
    12  H    0.207444  -0.015372
 Sum of Mulliken charges =  -0.00000   2.00000
 Mulliken charges and spin densities with hydrogens summed into heavy atoms:
               1          2
     1  N   -0.108229   0.599351
     2  C    0.154017  -0.088942
     3  C   -0.029883   0.241249
     4  C    0.060479  -0.070834
     5  C   -0.107338   0.227339
     6  C   -0.012688   0.296417
     7  C    0.043641   0.795420
 Electronic spatial extent (au):  <R**2>=            621.9160
 Charge=             -0.0000 electrons
 Dipole moment (field-independent basis, Debye):
    X=             -1.5366    Y=              0.6230    Z=              0.0000  Tot=              1.6581
 Quadrupole moment (field-independent basis, Debye-Ang):
   XX=            -39.3849   YY=            -38.0985   ZZ=            -43.5622
   XY=              6.7048   XZ=             -0.0000   YZ=              0.0000
 Traceless Quadrupole moment (field-independent basis, Debye-Ang):
   XX=              0.9636   YY=              2.2500   ZZ=             -3.2136
   XY=              6.7048   XZ=             -0.0000   YZ=              0.0000
 Octapole moment (field-independent basis, Debye-Ang**2):
  XXX=            -14.5351  YYY=             -7.1858  ZZZ=              0.0000  XYY=              3.2321
  XXY=             11.5969  XXZ=              0.0000  XZZ=              2.6285  YZZ=             -0.4743
  YYZ=              0.0000  XYZ=              0.0000
 Hexadecapole moment (field-independent basis, Debye-Ang**3):
 XXXX=           -499.3125 YYYY=           -269.7383 ZZZZ=            -49.0288 XXXY=             46.3803
 XXXZ=             -0.0000 YYYX=             20.9607 YYYZ=              0.0000 ZZZX=             -0.0000
 ZZZY=              0.0000 XXYY=           -132.8072 XXZZ=           -102.1734 YYZZ=            -60.9914
 XXYZ=             -0.0000 YYXZ=             -0.0000 ZZXY=              1.6613
 N-N= 2.524252851209D+02 E-N=-1.169849007496D+03  KE= 2.849391499434D+02
                          Isotropic Fermi Contact Couplings
        Atom                 a.u.       MegaHertz       Gauss      10(-4) cm-1
     1  N(14)              0.05430       8.77303       3.13044       2.92637
     2  C(13)              0.00135       0.75874       0.27074       0.25309
     3  C(13)              0.01194       6.70864       2.39381       2.23776
     4  C(13)              0.02389      13.42595       4.79071       4.47841
     5  C(13)              0.02357      13.25088       4.72824       4.42002
     6  C(13)              0.03527      19.82366       7.07358       6.61246
     7  C(13)              0.29945     168.32086      60.06107      56.14580
     8  H(1)              -0.00355      -7.93278      -2.83061      -2.64609
     9  H(1)               0.00564      12.61104       4.49993       4.20659
    10  H(1)               0.00824      18.41602       6.57130       6.14292
    11  H(1)               0.00500      11.18006       3.98932       3.72927
    12  H(1)              -0.00791     -17.67526      -6.30697      -5.89583
 --------------------------------------------------------
       Center         ----  Spin Dipole Couplings  ----
                      3XX-RR        3YY-RR        3ZZ-RR
 --------------------------------------------------------
     1   Atom       -0.668334     -0.694926      1.363260
     2   Atom        0.095583      0.127389     -0.222972
     3   Atom       -0.155635     -0.143701      0.299336
     4   Atom        0.052331      0.124312     -0.176643
     5   Atom       -0.046106     -0.150866      0.196972
     6   Atom       -0.186377     -0.112594      0.298971
     7   Atom       -0.214022      0.798087     -0.584065
     8   Atom       -0.011709      0.018979     -0.007270
     9   Atom        0.003392      0.007452     -0.010844
    10   Atom        0.014340      0.001764     -0.016104
    11   Atom        0.039362     -0.026761     -0.012600
    12   Atom       -0.022960      0.038239     -0.015278
 --------------------------------------------------------
                        XY            XZ            YZ
 --------------------------------------------------------
     1   Atom       -0.029705      0.000000     -0.000000
     2   Atom       -0.055302     -0.000000      0.000000
     3   Atom       -0.004518      0.000000     -0.000000
     4   Atom       -0.035549     -0.000000     -0.000000
     5   Atom       -0.037173     -0.000000     -0.000000
     6   Atom        0.044322      0.000000      0.000000
     7   Atom       -0.580528     -0.000000      0.000000
     8   Atom       -0.012090      0.000000     -0.000000
     9   Atom       -0.001086      0.000000     -0.000000
    10   Atom        0.022459      0.000000      0.000000
    11   Atom        0.010413     -0.000000      0.000000
    12   Atom        0.058915      0.000000     -0.000000
 --------------------------------------------------------


 ---------------------------------------------------------------------------------
              Anisotropic Spin Dipole Couplings in Principal Axis System
 ---------------------------------------------------------------------------------

       Atom             a.u.   MegaHertz   Gauss  10(-4) cm-1        Axes

              Baa    -0.7142   -27.544    -9.828    -9.188  0.5438  0.8392 -0.0000
     1 N(14)  Bbb    -0.6491   -25.034    -8.933    -8.350  0.8392 -0.5438 -0.0000
              Bcc     1.3633    52.578    18.761    17.538  0.0000 -0.0000  1.0000
 
              Baa    -0.2230   -29.921   -10.676    -9.980  0.0000 -0.0000  1.0000
     2 C(13)  Bbb     0.0539     7.239     2.583     2.415  0.7989  0.6015  0.0000
              Bcc     0.1690    22.682     8.094     7.566 -0.6015  0.7989  0.0000
 
              Baa    -0.1572   -21.088    -7.525    -7.034  0.9480  0.3184 -0.0000
     3 C(13)  Bbb    -0.1422   -19.080    -6.808    -6.364 -0.3184  0.9480  0.0000
              Bcc     0.2993    40.168    14.333    13.399  0.0000 -0.0000  1.0000
 
              Baa    -0.1766   -23.704    -8.458    -7.907  0.0000  0.0000  1.0000
     4 C(13)  Bbb     0.0377     5.064     1.807     1.689  0.9251  0.3798 -0.0000
              Bcc     0.1389    18.640     6.651     6.218 -0.3798  0.9251 -0.0000
 
              Baa    -0.1627   -21.835    -7.791    -7.283  0.3037  0.9528  0.0000
     5 C(13)  Bbb    -0.0343    -4.597    -1.640    -1.533  0.9528 -0.3037  0.0000
              Bcc     0.1970    26.432     9.432     8.817 -0.0000 -0.0000  1.0000
 
              Baa    -0.2072   -27.798    -9.919    -9.272  0.9055 -0.4244 -0.0000
     6 C(13)  Bbb    -0.0918   -12.321    -4.397    -4.110  0.4244  0.9055 -0.0000
              Bcc     0.2990    40.119    14.315    13.382  0.0000  0.0000  1.0000
 
              Baa    -0.5841   -78.376   -27.966   -26.143 -0.0000 -0.0000  1.0000
     7 C(13)  Bbb    -0.4781   -64.156   -22.893   -21.400  0.9102  0.4141  0.0000
              Bcc     1.0622   142.532    50.859    47.544 -0.4141  0.9102  0.0000
 
              Baa    -0.0159    -8.483    -3.027    -2.830  0.9448  0.3275 -0.0000
     8 H(1)   Bbb    -0.0073    -3.879    -1.384    -1.294  0.0000  0.0000  1.0000
              Bcc     0.0232    12.362     4.411     4.123 -0.3275  0.9448 -0.0000
 
              Baa    -0.0108    -5.786    -2.065    -1.930 -0.0000  0.0000  1.0000
     9 H(1)   Bbb     0.0031     1.665     0.594     0.555  0.9700  0.2432 -0.0000
              Bcc     0.0077     4.122     1.471     1.375 -0.2432  0.9700 -0.0000
 
              Baa    -0.0161    -8.592    -3.066    -2.866  0.0000 -0.0000  1.0000
    10 H(1)   Bbb    -0.0153    -8.148    -2.907    -2.718 -0.6043  0.7967  0.0000
              Bcc     0.0314    16.740     5.973     5.584  0.7967  0.6043  0.0000
 
              Baa    -0.0284   -15.133    -5.400    -5.048 -0.1520  0.9884 -0.0000
    11 H(1)   Bbb    -0.0126    -6.723    -2.399    -2.243  0.0000  0.0000  1.0000
              Bcc     0.0410    21.856     7.799     7.290  0.9884  0.1520 -0.0000
 
              Baa    -0.0587   -31.345   -11.185   -10.456  0.8547 -0.5192 -0.0000
    12 H(1)   Bbb    -0.0153    -8.152    -2.909    -2.719  0.0000 -0.0000  1.0000
              Bcc     0.0740    39.497    14.094    13.175  0.5192  0.8547 -0.0000
 

 ---------------------------------------------------------------------------------

 No NMR shielding tensors so no spin-rotation constants.
 Leave Link  601 at Mon Mar  2 00:39:49 2020, MaxMem=  1879048192 cpu:              14.5 elap:               0.4
 (Enter /opt/g16/l9999.exe)

 Test job not archived.
 1\1\GINC-NODE08\FOpt\UwB97XD\def2TZVP\C6H5N1(3)\ALONGD\02-Mar-2020\0\\
 #P opt=(tight) guess=read uwb97xd/def2tzvp scf=(tight, direct) integra
 l=(grid=ultrafine, Acc2E=12) scf=xqc iop(2/9=2000)\\name\\0,3\N,2.2477
 981322,0.7253752749,-0.0519339315\C,1.0200060796,0.2258278445,-0.02633
 00676\C,-0.0795746507,1.1344159992,0.0328629098\C,-1.3802563118,0.6917
 947711,0.0623022573\C,0.7165396785,-1.1813287297,-0.0543313945\C,-1.66
 63013878,-0.6810465899,0.0346659098\C,-0.5871411314,-1.5356816605,-0.0
 224362096\H,0.1553065752,2.1901783924,0.0536433617\H,-2.195040483,1.40
 39394065,0.1072038096\H,1.5244011113,-1.9028804323,-0.0992650019\H,-2.
 686946356,-1.0400449103,0.0574547285\H,2.9312107442,-0.0305503662,-0.0
 938373641\\Version=ES64L-G16RevB.01\State=3-A\HF=-286.2620498\S2=2.041
 438\S2-1=0.\S2A=2.000641\RMSD=4.943e-09\RMSF=3.797e-06\Dipole=-0.53685
 6,-0.3705315,0.0071276\Quadrupole=2.8637545,-0.4891383,-2.3746161,-4.7
 110129,-0.2926883,0.2003165\PG=C01 [X(C6H5N1)]\\@


 EXPERIENCE IS THE FRUIT OF THE TREE OF ERRORS.
 Job cpu time:       0 days  5 hours 39 minutes 59.5 seconds.
 Elapsed time:       0 days  0 hours  9 minutes 32.8 seconds.
 File lengths (MBytes):  RWF=     62 Int=      0 D2E=      0 Chk=      7 Scr=      1
 Normal termination of Gaussian 16 at Mon Mar  2 00:39:49 2020.
