      -----------------------------------------------------------      
     |                   =====================                   |     
     |                           x T B                           |     
     |                   =====================                   |     
     |                         S. Grimme                         |     
     |          Mulliken Center for Theoretical Chemistry        |     
     |                    University of Bonn                     |     
      -----------------------------------------------------------      

   * xtb version 6.5.1 (b24c23e) compiled by 'conda@728c89f4b128' on 2022-07-12

   xtb is free software: you can redistribute it and/or modify it under
   the terms of the GNU Lesser General Public License as published by
   the Free Software Foundation, either version 3 of the License, or
   (at your option) any later version.
   
   xtb is distributed in the hope that it will be useful,
   but WITHOUT ANY WARRANTY; without even the implied warranty of
   MERCHANTABILITY or FITNESS FOR A PARTICULAR PURPOSE.  See the
   GNU Lesser General Public License for more details.
   
   Cite this work as:
   * C. Bannwarth, E. Caldeweyher, S. Ehlert, A. Hansen, P. Pracht,
     J. Seibert, S. Spicher, S. Grimme, WIREs Comput. Mol. Sci., 2020, 11,
     e01493. DOI: 10.1002/wcms.1493
   
   for GFN2-xTB:
   * C. Bannwarth, S. Ehlert and S. Grimme., J. Chem. Theory Comput., 2019,
     15, 1652-1671. DOI: 10.1021/acs.jctc.8b01176
   for GFN1-xTB:
   * S. Grimme, C. Bannwarth, P. Shushkov, J. Chem. Theory Comput., 2017,
     13, 1989-2009. DOI: 10.1021/acs.jctc.7b00118
   for GFN0-xTB:
   * P. Pracht, E. Caldeweyher, S. Ehlert, S. Grimme, ChemRxiv, 2019, preprint.
     DOI: 10.26434/chemrxiv.8326202.v1
   for GFN-FF:
   * S. Spicher and S. Grimme, Angew. Chem. Int. Ed., 2020, 59, 15665-15673.
     DOI: 10.1002/anie.202004239
   
   for ALPB and GBSA implicit solvation:
   * S. Ehlert, M. Stahn, S. Spicher, S. Grimme, J. Chem. Theory Comput.,
     2021, 17, 4250-4261. DOI: 10.1021/acs.jctc.1c00471
   
   for DFT-D4:
   * E. Caldeweyher, C. Bannwarth and S. Grimme, J. Chem. Phys., 2017,
     147, 034112. DOI: 10.1063/1.4993215
   * E. Caldeweyher, S. Ehlert, A. Hansen, H. Neugebauer, S. Spicher,
     C. Bannwarth and S. Grimme, J. Chem. Phys., 2019, 150, 154122.
     DOI: 10.1063/1.5090222
   * E. Caldeweyher, J.-M. Mewes, S. Ehlert and S. Grimme, Phys. Chem. Chem. Phys.
     2020, 22, 8499-8512. DOI: 10.1039/D0CP00502A
   
   for sTDA-xTB:
   * S. Grimme and C. Bannwarth, J. Chem. Phys., 2016, 145, 054103.
     DOI: 10.1063/1.4959605
   
   in the mass-spec context:
   * V. Asgeirsson, C. Bauer and S. Grimme, Chem. Sci., 2017, 8, 4879.
     DOI: 10.1039/c7sc00601b
   * J. Koopman and S. Grimme, ACS Omega 2019, 4, 12, 15120-15133.
     DOI: 10.1021/acsomega.9b02011
   
   for metadynamics refer to:
   * S. Grimme, J. Chem. Theory Comput., 2019, 155, 2847-2862
     DOI: 10.1021/acs.jctc.9b00143
   
   for SPH calculations refer to:
   * S. Spicher and S. Grimme, J. Chem. Theory Comput., 2021, 17, 1701-1714
     DOI: 10.1021/acs.jctc.0c01306
   
   with help from (in alphabetical order)
   P. Atkinson, C. Bannwarth, F. Bohle, G. Brandenburg, E. Caldeweyher
   M. Checinski, S. Dohm, S. Ehlert, S. Ehrlich, I. Gerasimov, C. Hölzer
   A. Katbashev, J. Koopman, C. Lavigne, S. Lehtola, F. März, M. Müller,
   F. Musil, H. Neugebauer, J. Pisarek, C. Plett, P. Pracht, F. Pultar,
   J. Seibert, P. Shushkov, S. Spicher, M. Stahn, M. Steiner, T. Strunk,
   J. Stückrath, T. Rose, and J. Unsleber
   
 * started run on 2022/07/25 at 07:28:42.236     

           -------------------------------------------------
          |                Calculation Setup                |
           -------------------------------------------------

          program call               : xtb input.in --opt
          coordinate file            : input.in
          omp threads                :                    24

   ID    Z sym.   atoms
    1    6 c      1, 2
    2    8 o      3
    3    1 h      4-9
constraining angle 5 1 2 3 to  180.0000000°, actual value:  180.0000000°

           -------------------------------------------------
          |                 G F N 2 - x T B                 |
           -------------------------------------------------

        Reference                      10.1021/acs.jctc.8b01176
      * Hamiltonian:
        H0-scaling (s, p, d)           1.850000    2.230000    2.230000
        zeta-weighting                 0.500000
      * Dispersion:
        s8                             2.700000
        a1                             0.520000
        a2                             5.000000
        s9                             5.000000
      * Repulsion:
        kExp                           1.500000    1.000000
        rExp                           1.000000
      * Coulomb:
        alpha                          2.000000
        third order                    shell-resolved
        anisotropic                    true
        a3                             3.000000
        a5                             4.000000
        cn-shift                       1.200000
        cn-exp                         4.000000
        max-rad                        5.000000


          ...................................................
          :                      SETUP                      :
          :.................................................:
          :  # basis functions                  18          :
          :  # atomic orbitals                  18          :
          :  # shells                           12          :
          :  # electrons                        20          :
          :  max. iterations                   250          :
          :  Hamiltonian                  GFN2-xTB          :
          :  restarted?                      false          :
          :  GBSA solvation                  false          :
          :  PC potential                    false          :
          :  electronic temp.          300.0000000     K    :
          :  accuracy                    1.0000000          :
          :  -> integral cutoff          0.2500000E+02      :
          :  -> integral neglect         0.1000000E-07      :
          :  -> SCF convergence          0.1000000E-05 Eh   :
          :  -> wf. convergence          0.1000000E-03 e    :
          :  Broyden damping             0.4000000          :
          ...................................................

 iter      E             dE          RMSdq      gap      omega  full diag
   1    -11.4942960 -0.114943E+02  0.381E+00   12.89       0.0  T
   2    -11.5154120 -0.211160E-01  0.206E+00   12.52       1.0  T
   3    -11.5158794 -0.467428E-03  0.803E-01   12.58       1.0  T
   4    -11.5160584 -0.178983E-03  0.132E-01   12.59       1.0  T
   5    -11.5160733 -0.148494E-04  0.718E-02   12.60       1.0  T
   6    -11.5160744 -0.110263E-05  0.106E-02   12.61       3.1  T
   7    -11.5160745 -0.105003E-06  0.305E-03   12.61      10.9  T
   8    -11.5160745 -0.664320E-08  0.935E-04   12.61      35.7  T
   9    -11.5160745 -0.806951E-09  0.135E-04   12.61     247.1  T

   *** convergence criteria satisfied after 9 iterations ***

         #    Occupation            Energy/Eh            Energy/eV
      -------------------------------------------------------------
         1        2.0000           -0.6854356             -18.6517
       ...           ...                  ...                  ...
         4        2.0000           -0.5675876             -15.4448
         5        2.0000           -0.5313030             -14.4575
         6        2.0000           -0.5066089             -13.7855
         7        2.0000           -0.4649086             -12.6508
         8        2.0000           -0.4590813             -12.4922
         9        2.0000           -0.4513597             -12.2821
        10        2.0000           -0.4083081             -11.1106 (HOMO)
        11                          0.0550797               1.4988 (LUMO)
        12                          0.1376734               3.7463
        13                          0.1425714               3.8796
        14                          0.1559598               4.2439
        15                          0.1832977               4.9878
       ...                                ...                  ...
        18                          0.2764710               7.5232
      -------------------------------------------------------------
                  HL-Gap            0.4633878 Eh           12.6094 eV
             Fermi-level           -0.1766142 Eh           -4.8059 eV

 SCC (total)                   0 d,  0 h,  0 min,  0.408 sec
 SCC setup                      ...        0 min,  0.007 sec (  1.699%)
 Dispersion                     ...        0 min,  0.010 sec (  2.546%)
 classical contributions        ...        0 min,  0.015 sec (  3.584%)
 integral evaluation            ...        0 min,  0.032 sec (  7.820%)
 iterations                     ...        0 min,  0.274 sec ( 67.303%)
 molecular gradient             ...        0 min,  0.069 sec ( 16.985%)
 printout                       ...        0 min,  0.000 sec (  0.054%)

         :::::::::::::::::::::::::::::::::::::::::::::::::::::
         ::                     SUMMARY                     ::
         :::::::::::::::::::::::::::::::::::::::::::::::::::::
         :: total energy             -11.391617470053 Eh    ::
         :: gradient norm              0.014927039081 Eh/a0 ::
         :: HOMO-LUMO gap             12.609422773205 eV    ::
         ::.................................................::
         :: SCC energy               -11.516074489321 Eh    ::
         :: -> isotropic ES            0.025665109810 Eh    ::
         :: -> anisotropic ES          0.002890348356 Eh    ::
         :: -> anisotropic XC          0.002017171777 Eh    ::
         :: -> dispersion             -0.002778910909 Eh    ::
         :: repulsion energy           0.124456574037 Eh    ::
         :: add. restraining           0.000000000000 Eh    ::
         :: total charge              -0.000000000000 e     ::
         :::::::::::::::::::::::::::::::::::::::::::::::::::::

      ----------------------------------------------------------- 
     |                   =====================                   |
     |                        A N C O P T                        |
     |                   =====================                   |
     |               Approximate Normal Coordinate               |
     |                Rational Function Optimizer                |
      ----------------------------------------------------------- 

          ...................................................
          :                      SETUP                      :
          :.................................................:
          :   optimization level            normal          :
          :   max. optcycles                   200          :
          :   ANC micro-cycles                  20          :
          :   degrees of freedom                21          :
          :.................................................:
          :   RF solver                   davidson          :
          :   write xtbopt.log                true          :
          :   linear?                        false          :
          :   energy convergence         0.5000000E-05 Eh   :
          :   grad. convergence          0.1000000E-02 Eh/α :
          :   maximium RF displ.         1.0000000          :
          :   Hlow (freq-cutoff)         0.1000000E-01      :
          :   Hmax (freq-cutoff)         5.0000000          :
          :   S6 in model hess.         20.0000000          :
          ...................................................

generating ANC from model Hessian ...
Using Lindh-Hessian (1995)
 Shifting diagonal of input Hessian by    0.0000000000000000     
 Lowest  eigenvalues of input Hessian
    0.000000    0.000000    0.000000    0.000000    0.000000    0.000000
    0.019430    0.027693    0.030429    0.053688    0.058601    0.077165
    0.085341    0.094159    0.136370    0.150633    0.160271    0.161215
 Highest eigenvalues
    1.075855    1.114157    1.177990    1.224501    1.308569    1.507450


........................................................................
.............................. CYCLE    1 ..............................
........................................................................
   1    -11.5160745 -0.115161E+02  0.236E-05   12.61       0.0  T
   2    -11.5160745 -0.215117E-11  0.842E-06   12.61    3958.3  T
   3    -11.5160745 -0.692779E-13  0.451E-06   12.61    7392.6  T
     SCC iter.                  ...        0 min,  0.091 sec
     gradient                   ...        0 min,  0.078 sec
 * total energy  :   -11.3916175 Eh     change       -0.1032063E-10 Eh
   gradient norm :     0.0149266 Eh/α   predicted     0.0000000E+00 (-100.00%)
   displ. norm   :     0.0515256 α      lambda       -0.3983202E-03
   maximum displ.:     0.0342399 α      in ANC's #5, #2, #13, ...

........................................................................
.............................. CYCLE    2 ..............................
........................................................................
   1    -11.5135251 -0.115135E+02  0.709E-02   12.53       0.0  T
   2    -11.5135256 -0.491702E-06  0.416E-02   12.53       1.0  T
   3    -11.5135257 -0.903270E-07  0.439E-03   12.53       7.6  T
   4    -11.5135257 -0.367667E-07  0.177E-03   12.53      18.9  T
   5    -11.5135257 -0.208244E-08  0.645E-04   12.53      51.7  T
   6    -11.5135257 -0.257559E-09  0.116E-04   12.53     286.8  T
     SCC iter.                  ...        0 min,  0.182 sec
     gradient                   ...        0 min,  0.085 sec
 * total energy  :   -11.3918492 Eh     change       -0.2317715E-03 Eh
   gradient norm :     0.0045173 Eh/α   predicted    -0.1996887E-03 ( -13.84%)
   displ. norm   :     0.0094990 α      lambda       -0.3026927E-04
   maximum displ.:     0.0045162 α      in ANC's #13, #5, #15, ...

........................................................................
.............................. CYCLE    3 ..............................
........................................................................
   1    -11.5128361 -0.115128E+02  0.178E-02   12.53       0.0  T
   2    -11.5128361 -0.571094E-07  0.104E-02   12.53       3.2  T
   3    -11.5128361 -0.727196E-08  0.113E-03   12.53      29.4  T
   4    -11.5128361 -0.144994E-08  0.296E-04   12.53     112.8  T
   5    -11.5128361 -0.443414E-10  0.139E-04   12.53     239.1  T
     SCC iter.                  ...        0 min,  0.158 sec
     gradient                   ...        0 min,  0.080 sec
 * total energy  :   -11.3918662 Eh     change       -0.1692065E-04 Eh
   gradient norm :     0.0011743 Eh/α   predicted    -0.1513383E-04 ( -10.56%)
   displ. norm   :     0.0034017 α      lambda       -0.1656516E-05
   maximum displ.:     0.0022173 α      in ANC's #5, #19, #6, ...

........................................................................
.............................. CYCLE    4 ..............................
........................................................................
   1    -11.5128754 -0.115129E+02  0.697E-03   12.55       0.0  T
   2    -11.5128754 -0.215656E-07  0.408E-03   12.55       8.2  T
   3    -11.5128754 -0.720865E-09  0.738E-04   12.55      45.1  T
   4    -11.5128754 -0.147136E-09  0.125E-04   12.55     265.7  T
     SCC iter.                  ...        0 min,  0.120 sec
     gradient                   ...        0 min,  0.079 sec
 * total energy  :   -11.3918673 Eh     change       -0.1145143E-05 Eh
   gradient norm :     0.0003542 Eh/α   predicted    -0.8305822E-06 ( -27.47%)
   displ. norm   :     0.0008406 α      lambda       -0.1624676E-06
   maximum displ.:     0.0005591 α      in ANC's #15, #2, #13, ...

   *** GEOMETRY OPTIMIZATION CONVERGED AFTER 4 ITERATIONS ***

------------------------------------------------------------------------
 total energy gain   :        -0.0002498 Eh       -0.1568 kcal/mol
 total RMSD          :         0.0179104 a0        0.0095 Å
 total power (kW/mol):        -0.1639869 (step)   -0.6718 (real)
------------------------------------------------------------------------

 ANCopt (total)                0 d,  0 h,  0 min,  0.976 sec
 optimizer setup                ...        0 min,  0.000 sec (  0.009%)
 model hessian                  ...        0 min,  0.005 sec (  0.541%)
 ANC generation                 ...        0 min,  0.003 sec (  0.278%)
 coordinate transformation      ...        0 min,  0.000 sec (  0.001%)
 single point calculation       ...        0 min,  0.957 sec ( 98.054%)
 optimization log               ...        0 min,  0.000 sec (  0.049%)
 hessian update                 ...        0 min,  0.010 sec (  1.023%)
 rational function              ...        0 min,  0.000 sec (  0.021%)

================
 final structure:
================
$coord
    2.22716417783919E+00   -7.74226309354596E-01    3.96086366366859E-12      c
   -3.62410240738260E-03    1.03755113129951E+00   -1.49897057950958E-10      c
   -2.25603059865115E+00   -3.96319879745599E-01   -3.39906376506730E-10      o
   -3.68458064367152E+00    7.28934158523884E-01    5.70982938659863E-10      h
    3.98995904648892E+00    2.77449050380237E-01    1.36597302614910E-10      h
    2.14757917937338E+00   -1.97122831569401E+00    1.66585312167063E+00      h
    2.14757917967332E+00   -1.97122831581915E+00   -1.66585312165550E+00      h
    7.54104961646126E-02    2.25461532474913E+00    1.68394291467875E+00      h
    7.54104963244549E-02    2.25461532495996E+00   -1.68394291491562E+00      h
$eht charge=0 unpaired=0
$periodic 0
$end

 Bond Distances (Angstroems)
 ---------------------------
C1-C2=1.5208         C1-H5=1.0862         C1-H6=1.0863         C1-H7=1.0863         C2-C1=1.5208         C2-O3=1.4129         
C2-H8=1.1003         C2-H9=1.1003         O3-C2=1.4129         O3-H4=0.9623         H4-O3=0.9623         H5-C1=1.0862         
H6-C1=1.0863         H7-C1=1.0863         H8-C2=1.1003         H9-C2=1.1003         
 C  H  Rav=1.0919 sigma=0.0069  Rmin=1.0862  Rmax=1.1003     5
 C  C  Rav=1.5208 sigma=0.0000  Rmin=1.5208  Rmax=1.5208     1
 O  H  Rav=0.9623 sigma=0.0000  Rmin=0.9623  Rmax=0.9623     1
 O  C  Rav=1.4129 sigma=0.0000  Rmin=1.4129  Rmax=1.4129     1

 selected bond angles (degree)
 --------------------
H5-C1-C2=110.10                H6-C1-C2=109.73                H6-C1-H5=109.39                H7-C1-C2=109.73                
H7-C1-H5=109.39                H7-C1-H6=108.48                O3-C2-C1=108.44                H8-C2-C1=109.85                
H8-C2-O3=110.27                H9-C2-C1=109.85                H9-C2-O3=110.27                H9-C2-H8=108.17                
H4-O3-C2=109.29                

 selected dihedral angles (degree)
 ---------------------------------
O3-C2-C1-H5=180.00            O3-C2-C1-H6=300.45            O3-C2-C1-H7= 59.55            H8-C2-C1-H5=300.57            
H8-C2-C1-H6= 61.02            H8-C2-C1-H7=180.12            H9-C2-C1-H5= 59.43            H9-C2-C1-H6=179.88            
H9-C2-C1-H7=298.98            H4-O3-C2-C1=180.00            H4-O3-C2-H8= 59.69            H4-O3-C2-H9=300.31            
           -------------------------------------------------
          |                Final Singlepoint                |
           -------------------------------------------------

          ...................................................
          :                      SETUP                      :
          :.................................................:
          :  # basis functions                  18          :
          :  # atomic orbitals                  18          :
          :  # shells                           12          :
          :  # electrons                        20          :
          :  max. iterations                   250          :
          :  Hamiltonian                  GFN2-xTB          :
          :  restarted?                      false          :
          :  GBSA solvation                  false          :
          :  PC potential                    false          :
          :  electronic temp.          300.0000000     K    :
          :  accuracy                    1.0000000          :
          :  -> integral cutoff          0.2500000E+02      :
          :  -> integral neglect         0.1000000E-07      :
          :  -> SCF convergence          0.1000000E-05 Eh   :
          :  -> wf. convergence          0.1000000E-03 e    :
          :  Broyden damping             0.4000000          :
          ...................................................

 iter      E             dE          RMSdq      gap      omega  full diag
   1    -11.5128754 -0.115129E+02  0.306E-05   12.55       0.0  T
   2    -11.5128754 -0.985878E-12  0.167E-05   12.55    1995.9  T
   3    -11.5128754 -0.373035E-13  0.679E-06   12.55    4911.1  T

   *** convergence criteria satisfied after 3 iterations ***

         #    Occupation            Energy/Eh            Energy/eV
      -------------------------------------------------------------
         1        2.0000           -0.6851652             -18.6443
       ...           ...                  ...                  ...
         4        2.0000           -0.5670535             -15.4303
         5        2.0000           -0.5305711             -14.4376
         6        2.0000           -0.5061095             -13.7719
         7        2.0000           -0.4657768             -12.6744
         8        2.0000           -0.4595403             -12.5047
         9        2.0000           -0.4503709             -12.2552
        10        2.0000           -0.4079553             -11.1010 (HOMO)
        11                          0.0531324               1.4458 (LUMO)
        12                          0.1261371               3.4324
        13                          0.1319477               3.5905
        14                          0.1526981               4.1551
        15                          0.1818551               4.9485
       ...                                ...                  ...
        18                          0.2708807               7.3710
      -------------------------------------------------------------
                  HL-Gap            0.4610876 Eh           12.5468 eV
             Fermi-level           -0.1774115 Eh           -4.8276 eV

 SCC (total)                   0 d,  0 h,  0 min,  0.158 sec
 SCC setup                      ...        0 min,  0.000 sec (  0.092%)
 Dispersion                     ...        0 min,  0.000 sec (  0.030%)
 classical contributions        ...        0 min,  0.000 sec (  0.013%)
 integral evaluation            ...        0 min,  0.000 sec (  0.091%)
 iterations                     ...        0 min,  0.085 sec ( 53.884%)
 molecular gradient             ...        0 min,  0.072 sec ( 45.790%)
 printout                       ...        0 min,  0.000 sec (  0.091%)

         :::::::::::::::::::::::::::::::::::::::::::::::::::::
         ::                     SUMMARY                     ::
         :::::::::::::::::::::::::::::::::::::::::::::::::::::
         :: total energy             -11.391867307337 Eh    ::
         :: gradient norm              0.000354486158 Eh/a0 ::
         :: HOMO-LUMO gap             12.546833378223 eV    ::
         ::.................................................::
         :: SCC energy               -11.512875423348 Eh    ::
         :: -> isotropic ES            0.025665855384 Eh    ::
         :: -> anisotropic ES          0.002863155725 Eh    ::
         :: -> anisotropic XC          0.002110740619 Eh    ::
         :: -> dispersion             -0.002776385424 Eh    ::
         :: repulsion energy           0.121007662721 Eh    ::
         :: add. restraining           0.000000000000 Eh    ::
         :: total charge               0.000000000000 e     ::
         :::::::::::::::::::::::::::::::::::::::::::::::::::::

========================================================================
 RELAXED SCAN
------------------------------------------------------------------------
 output written to xtbscan.log
 scaning constraint 1
... step 1 ...
 current energy:         -11.39186731
    bias energy:           0.00000000
unbiased energy:         -11.39186731
... step 2 ...
 current energy:         -11.39135838
    bias energy:           0.00050893
unbiased energy:         -11.39186731
... step 3 ...
 current energy:         -11.39145118
    bias energy:           0.00008304
unbiased energy:         -11.39153422
... step 4 ...
 current energy:         -11.39096101
    bias energy:           0.00015394
unbiased energy:         -11.39111495
... step 5 ...
 current energy:         -11.39033676
    bias energy:           0.00021338
unbiased energy:         -11.39055014
... step 6 ...
 current energy:         -11.38965430
    bias energy:           0.00022415
unbiased energy:         -11.38987845
... step 7 ...
 current energy:         -11.38903243
    bias energy:           0.00013918
unbiased energy:         -11.38917161
... step 8 ...
 current energy:         -11.38864942
    bias energy:           0.00001863
unbiased energy:         -11.38866805
... step 9 ...
 current energy:         -11.38867779
    bias energy:           0.00003205
unbiased energy:         -11.38870984
... step 10 ...
 current energy:         -11.38911094
    bias energy:           0.00016829
unbiased energy:         -11.38927922
... step 11 ...
 current energy:         -11.38976742
    bias energy:           0.00024485
unbiased energy:         -11.39001227
... step 12 ...
 current energy:         -11.39046413
    bias energy:           0.00022299
unbiased energy:         -11.39068712
... step 13 ...
 current energy:         -11.39107977
    bias energy:           0.00015162
unbiased energy:         -11.39123139
... step 14 ...
 current energy:         -11.39154264
    bias energy:           0.00006928
unbiased energy:         -11.39161192
... step 15 ...
 current energy:         -11.39180902
    bias energy:           0.00001332
unbiased energy:         -11.39182234
... step 16 ...
 current energy:         -11.39185845
    bias energy:           0.00000237
unbiased energy:         -11.39186081
... step 17 ...
 current energy:         -11.39168668
    bias energy:           0.00003663
unbiased energy:         -11.39172330
... step 18 ...
 current energy:         -11.39130799
    bias energy:           0.00010661
unbiased energy:         -11.39141460
... step 19 ...
 current energy:         -11.39075428
    bias energy:           0.00018555
unbiased energy:         -11.39093983
... step 20 ...
 current energy:         -11.39008405
    bias energy:           0.00024128
unbiased energy:         -11.39032533
... step 21 ...
 current energy:         -11.38939190
    bias energy:           0.00021085
unbiased energy:         -11.38960275
... step 22 ...
 current energy:         -11.38883092
    bias energy:           0.00008867
unbiased energy:         -11.38891959
... step 23 ...
 current energy:         -11.38860554
    bias energy:           0.00000000
unbiased energy:         -11.38860554
... step 24 ...
 current energy:         -11.38883094
    bias energy:           0.00009140
unbiased energy:         -11.38892234
... step 25 ...
 current energy:         -11.38939102
    bias energy:           0.00021481
unbiased energy:         -11.38960583
... step 26 ...
 current energy:         -11.39008373
    bias energy:           0.00024350
unbiased energy:         -11.39032723
... step 27 ...
 current energy:         -11.39075489
    bias energy:           0.00019227
unbiased energy:         -11.39094715
... step 28 ...
 current energy:         -11.39130794
    bias energy:           0.00011210
unbiased energy:         -11.39142004
... step 29 ...
 current energy:         -11.39168674
    bias energy:           0.00003937
unbiased energy:         -11.39172611
... step 30 ...
 current energy:         -11.39185813
    bias energy:           0.00000215
unbiased energy:         -11.39186028
... step 31 ...
 current energy:         -11.39180892
    bias energy:           0.00001173
unbiased energy:         -11.39182065
... step 32 ...
 current energy:         -11.39154253
    bias energy:           0.00006474
unbiased energy:         -11.39160727
... step 33 ...
 current energy:         -11.39107983
    bias energy:           0.00014321
unbiased energy:         -11.39122304
... step 34 ...
 current energy:         -11.39046425
    bias energy:           0.00022179
unbiased energy:         -11.39068603
... step 35 ...
 current energy:         -11.38976803
    bias energy:           0.00024060
unbiased energy:         -11.39000863
... step 36 ...
 current energy:         -11.38911217
    bias energy:           0.00016368
unbiased energy:         -11.38927584
... step 37 ...
 current energy:         -11.38867823
    bias energy:           0.00003103
unbiased energy:         -11.38870926
... step 38 ...
 current energy:         -11.38864898
    bias energy:           0.00001971
unbiased energy:         -11.38866869
... step 39 ...
 current energy:         -11.38903109
    bias energy:           0.00014294
unbiased energy:         -11.38917403
... step 40 ...
 current energy:         -11.38965359
    bias energy:           0.00022764
unbiased energy:         -11.38988123
... step 41 ...
 current energy:         -11.39033718
    bias energy:           0.00022132
unbiased energy:         -11.39055850
... step 42 ...
 current energy:         -11.39096079
    bias energy:           0.00016068
unbiased energy:         -11.39112147
... step 43 ...
 current energy:         -11.39145085
    bias energy:           0.00008255
unbiased energy:         -11.39153341
... step 44 ...
 current energy:         -11.39176125
    bias energy:           0.00002034
unbiased energy:         -11.39178159
... step 45 ...
 current energy:         -11.39186711
    bias energy:           0.00000002
unbiased energy:         -11.39186713
           -------------------------------------------------
          |                Property Printout                |
           -------------------------------------------------

    * Orbital Energies and Occupations

         #    Occupation            Energy/Eh            Energy/eV
      -------------------------------------------------------------
         1        2.0000           -0.6852077             -18.6454
         2        2.0000           -0.6262812             -17.0420
         3        2.0000           -0.5795247             -15.7697
         4        2.0000           -0.5670885             -15.4313
         5        2.0000           -0.5306106             -14.4386
         6        2.0000           -0.5061358             -13.7727
         7        2.0000           -0.4657819             -12.6746
         8        2.0000           -0.4595459             -12.5049
         9        2.0000           -0.4503556             -12.2548
        10        2.0000           -0.4079418             -11.1007 (HOMO)
        11                          0.0533448               1.4516 (LUMO)
        12                          0.1265071               3.4424
        13                          0.1321728               3.5966
        14                          0.1528422               4.1590
        15                          0.1820541               4.9539
        16                          0.2123785               5.7791
        17                          0.2644648               7.1965
        18                          0.2710574               7.3758
      -------------------------------------------------------------
                  HL-Gap            0.4612867 Eh           12.5522 eV
             Fermi-level           -0.1772985 Eh           -4.8245 eV

     #   Z          covCN         q      C6AA      α(0)
     1   6 c        3.751    -0.111    22.677     6.791
     2   6 c        3.672     0.092    19.280     6.293
     3   8 o        1.656    -0.442    21.675     6.285
     4   1 h        0.805     0.283     0.776     1.384
     5   1 h        0.925     0.039     2.461     2.453
     6   1 h        0.925     0.055     2.264     2.353
     7   1 h        0.925     0.055     2.263     2.353
     8   1 h        0.923     0.015     2.818     2.625
     9   1 h        0.923     0.015     2.816     2.625

 Mol. C6AA /au·bohr⁶  :        509.090704
 Mol. C8AA /au·bohr⁸  :      10109.664593
 Mol. α(0) /au        :         33.161249


Wiberg/Mayer (AO) data.
largest (>0.10) Wiberg bond orders for each atom

 ---------------------------------------------------------------------------
     #   Z sym  total        # sym  WBO       # sym  WBO       # sym  WBO
 ---------------------------------------------------------------------------
     1   6 c    3.994 --     2 c    1.018     5 h    0.986     6 h    0.986
                             7 h    0.986
     2   6 c    3.958 --     1 c    1.018     3 o    0.994     8 h    0.973
                             9 h    0.973
     3   8 o    1.951 --     2 c    0.994     4 h    0.907
     4   1 h    0.920 --     3 o    0.907
     5   1 h    0.998 --     1 c    0.986
     6   1 h    0.997 --     1 c    0.986
     7   1 h    0.997 --     1 c    0.986
     8   1 h    1.000 --     2 c    0.973
     9   1 h    1.000 --     2 c    0.973
 ---------------------------------------------------------------------------

Topologies differ in total number of bonds
Writing topology from bond orders to xtbtopo.mol

molecular dipole:
                 x           y           z       tot (Debye)
 q only:       -0.263      -0.221      -0.267
   full:       -0.498      -0.252      -0.385       1.724
molecular quadrupole (traceless):
                xx          xy          yy          xz          yz          zz
 q only:        1.893      -2.186      -0.625      -0.352      -0.705      -1.268
  q+dip:        2.378      -2.454      -1.172      -0.601      -1.858      -1.206
   full:        2.492      -2.804      -0.985      -0.541      -1.403      -1.507

           -------------------------------------------------
          |                Geometry Summary                 |
           -------------------------------------------------

      molecular mass/u    :       46.0685212
   center of mass at/Å    :        0.1671445       0.3708934       0.1601289
  moments of inertia/u·Å² :        0.1418445E+02   0.5398545E+02   0.6183673E+02
rotational constants/cm⁻¹ :        0.1188459E+01   0.3122625E+00   0.2726152E+00

 * 8 selected distances

     #   Z          #   Z                                           value/Å
     1   6 c        2   6 c                                       1.5205259 (max)
     2   6 c        3   8 o                                       1.4127061
     3   8 o        4   1 h                                       0.9621656 (min)
     1   6 c        5   1 h                                       1.0862193
     1   6 c        6   1 h                                       1.0862625
     1   6 c        7   1 h                                       1.0862740
     2   6 c        8   1 h                                       1.1000890
     2   6 c        9   1 h                                       1.1001682

 * 4 distinct bonds (by element types)

   Z      Z             #   av. dist./Å        max./Å        min./Å
   1 H    6 C           5     1.0918026     1.1001682     1.0862193
   6 C    6 C           1     1.5205259     1.5205259     1.5205259
   1 H    8 O           1     0.9621656     0.9621656     0.9621656
   6 C    8 O           1     1.4127061     1.4127061     1.4127061


optimized geometry written to: xtbopt.in


           -------------------------------------------------
          | TOTAL ENERGY              -11.391867307337 Eh   |
          | GRADIENT NORM               0.000354486158 Eh/α |
          | HOMO-LUMO GAP              12.552249160832 eV   |
           -------------------------------------------------

------------------------------------------------------------------------
 * finished run on 2022/07/25 at 07:30:06.605     
------------------------------------------------------------------------
 total:
 * wall-time:     0 d,  0 h,  1 min, 24.369 sec
 *  cpu-time:     0 d,  0 h, 32 min,  4.661 sec
 * ratio c/w:    22.812 speedup
 SCF:
 * wall-time:     0 d,  0 h,  0 min,  0.408 sec
 *  cpu-time:     0 d,  0 h,  0 min,  9.554 sec
 * ratio c/w:    23.438 speedup
 ANC optimizer:
 * wall-time:     0 d,  0 h,  1 min, 23.873 sec
 *  cpu-time:     0 d,  0 h, 31 min, 53.110 sec
 * ratio c/w:    22.810 speedup

