 Entering Gaussian System, Link 0=g16
 Initial command:
 /opt/g16/l1.exe "/scratch/alongd/g16/a4387-34561/Gau-31855.inp" -scrdir="/scratch/alongd/g16/a4387-34561/"
 Entering Link 1 = /opt/g16/l1.exe PID=     31857.
  
 Copyright (c) 1988-2017, Gaussian, Inc.  All Rights Reserved.
  
 This is part of the Gaussian(R) 16 program.  It is based on
 the Gaussian(R) 09 system (copyright 2009, Gaussian, Inc.),
 the Gaussian(R) 03 system (copyright 2003, Gaussian, Inc.),
 the Gaussian(R) 98 system (copyright 1998, Gaussian, Inc.),
 the Gaussian(R) 94 system (copyright 1995, Gaussian, Inc.),
 the Gaussian 92(TM) system (copyright 1992, Gaussian, Inc.),
 the Gaussian 90(TM) system (copyright 1990, Gaussian, Inc.),
 the Gaussian 88(TM) system (copyright 1988, Gaussian, Inc.),
 the Gaussian 86(TM) system (copyright 1986, Carnegie Mellon
 University), and the Gaussian 82(TM) system (copyright 1983,
 Carnegie Mellon University). Gaussian is a federally registered
 trademark of Gaussian, Inc.
  
 This software contains proprietary and confidential information,
 including trade secrets, belonging to Gaussian, Inc.
  
 This software is provided under written license and may be
 used, copied, transmitted, or stored only in accord with that
 written license.
  
 The following legend is applicable only to US Government
 contracts under FAR:
  
                    RESTRICTED RIGHTS LEGEND
  
 Use, reproduction and disclosure by the US Government is
 subject to restrictions as set forth in subparagraphs (a)
 and (c) of the Commercial Computer Software - Restricted
 Rights clause in FAR 52.227-19.
  
 Gaussian, Inc.
 340 Quinnipiac St., Bldg. 40, Wallingford CT 06492
  
  
 ---------------------------------------------------------------
 Warning -- This program may not be used in any manner that
 competes with the business of Gaussian, Inc. or will provide
 assistance to any competitor of Gaussian, Inc.  The licensee
 of this program is prohibited from giving any competitor of
 Gaussian, Inc. access to this program.  By using this program,
 the user acknowledges that Gaussian, Inc. is engaged in the
 business of creating and licensing software in the field of
 computational chemistry and represents and warrants to the
 licensee that it is not a competitor of Gaussian, Inc. and that
 it will not use this program in any manner prohibited above.
 ---------------------------------------------------------------
  

 Cite this work as:
 Gaussian 16, Revision B.01,
 M. J. Frisch, G. W. Trucks, H. B. Schlegel, G. E. Scuseria, 
 M. A. Robb, J. R. Cheeseman, G. Scalmani, V. Barone, 
 G. A. Petersson, H. Nakatsuji, X. Li, M. Caricato, A. V. Marenich, 
 J. Bloino, B. G. Janesko, R. Gomperts, B. Mennucci, H. P. Hratchian, 
 J. V. Ortiz, A. F. Izmaylov, J. L. Sonnenberg, D. Williams-Young, 
 F. Ding, F. Lipparini, F. Egidi, J. Goings, B. Peng, A. Petrone, 
 T. Henderson, D. Ranasinghe, V. G. Zakrzewski, J. Gao, N. Rega, 
 G. Zheng, W. Liang, M. Hada, M. Ehara, K. Toyota, R. Fukuda, 
 J. Hasegawa, M. Ishida, T. Nakajima, Y. Honda, O. Kitao, H. Nakai, 
 T. Vreven, K. Throssell, J. A. Montgomery, Jr., J. E. Peralta, 
 F. Ogliaro, M. J. Bearpark, J. J. Heyd, E. N. Brothers, K. N. Kudin, 
 V. N. Staroverov, T. A. Keith, R. Kobayashi, J. Normand, 
 K. Raghavachari, A. P. Rendell, J. C. Burant, S. S. Iyengar, 
 J. Tomasi, M. Cossi, J. M. Millam, M. Klene, C. Adamo, R. Cammi, 
 J. W. Ochterski, R. L. Martin, K. Morokuma, O. Farkas, 
 J. B. Foresman, and D. J. Fox, Gaussian, Inc., Wallingford CT, 2016.
 
 ******************************************
 Gaussian 16:  ES64L-G16RevB.01 20-Dec-2017
                 2-Mar-2020 
 ******************************************
 %chk=check.chk
 %mem=14336mb
 %NProcShared=36
 Will use up to   36 processors via shared memory.
 ----------------------------------------------------------------------
 #P guess=read uwb97xd/def2tzvp freq iop(7/33=1) scf=(tight, direct) in
 tegral=(grid=ultrafine, Acc2E=12) scf=xqc iop(2/9=2000)
 ----------------------------------------------------------------------
 1/10=4,30=1,38=1/1,3;
 2/9=2000,12=2,17=6,18=5,40=1/2;
 3/5=44,7=101,11=2,25=1,27=12,30=1,71=2,74=-58,75=-5,116=2,140=1/1,2,3;
 4/5=1/1;
 5/5=2,8=3,13=1,32=2,38=6,87=12,98=1/2,8;
 8/6=4,10=90,11=11,87=12/1;
 11/6=1,8=1,9=11,15=111,16=1,87=12/1,2,10;
 10/6=1,87=12/2;
 6/7=2,8=2,9=2,10=2,28=1,87=12/1;
 7/8=1,10=1,25=1,33=1,87=12/1,2,3,16;
 1/10=4,30=1/3;
 99//99;
 Leave Link    1 at Mon Mar  2 00:45:18 2020, MaxMem=  1879048192 cpu:               4.6 elap:               0.2
 (Enter /opt/g16/l101.exe)
 ----
 name
 ----
 Symbolic Z-matrix:
 Charge =  0 Multiplicity = 3
 N                     2.2905    0.41708   0.16369 
 C                     0.99678   0.17857   0.07124 
 C                     0.06212   1.25252   0.00193 
 H                     0.43688   2.26697   0.02679 
 C                    -1.28336   0.98776  -0.09419 
 C                    -1.74739  -0.32733  -0.12486 
 C                    -0.84744  -1.39097  -0.05806 
 C                     0.50398  -1.15853   0.03855 
 H                    -1.98815   1.80784  -0.14647 
 H                    -2.80895  -0.523    -0.20071 
 H                    -1.21535  -2.40882  -0.08242 
 H                     1.21393  -1.97301   0.0912 
 
 ITRead=  0  0  0  0  0  0  0  0  0  0  0  0
 MicOpt= -1 -1 -1 -1 -1 -1 -1 -1 -1 -1 -1 -1
 NAtoms=     12 NQM=       12 NQMF=       0 NMMI=      0 NMMIF=      0
                NMic=       0 NMicF=      0.
                    Isotopes and Nuclear Properties:
 (Nuclear quadrupole moments (NQMom) in fm**2, nuclear magnetic moments (NMagM)
  in nuclear magnetons)

  Atom         1           2           3           4           5           6           7           8           9          10
 IAtWgt=          14          12          12           1          12          12          12          12           1           1
 AtmWgt=  14.0030740  12.0000000  12.0000000   1.0078250  12.0000000  12.0000000  12.0000000  12.0000000   1.0078250   1.0078250
 NucSpn=           2           0           0           1           0           0           0           0           1           1
 AtZEff=  -0.0000000  -0.0000000  -0.0000000  -0.0000000  -0.0000000  -0.0000000  -0.0000000  -0.0000000  -0.0000000  -0.0000000
 NQMom=    2.0440000   0.0000000   0.0000000   0.0000000   0.0000000   0.0000000   0.0000000   0.0000000   0.0000000   0.0000000
 NMagM=    0.4037610   0.0000000   0.0000000   2.7928460   0.0000000   0.0000000   0.0000000   0.0000000   2.7928460   2.7928460
 AtZNuc=   7.0000000   6.0000000   6.0000000   1.0000000   6.0000000   6.0000000   6.0000000   6.0000000   1.0000000   1.0000000

  Atom        11          12
 IAtWgt=           1           1
 AtmWgt=   1.0078250   1.0078250
 NucSpn=           1           1
 AtZEff=  -0.0000000  -0.0000000
 NQMom=    0.0000000   0.0000000
 NMagM=    2.7928460   2.7928460
 AtZNuc=   1.0000000   1.0000000
 Leave Link  101 at Mon Mar  2 00:45:19 2020, MaxMem=  1879048192 cpu:              11.6 elap:               0.4
 (Enter /opt/g16/l103.exe)

 GradGradGradGradGradGradGradGradGradGradGradGradGradGradGradGradGradGrad
 Berny optimization.
 Initialization pass.
 Trust Radius=3.00D-01 FncErr=1.00D-07 GrdErr=1.00D-07 EigMax=2.50D+02 EigMin=1.00D-04
 Number of steps in this run=      2 maximum allowed number of steps=      2.
 GradGradGradGradGradGradGradGradGradGradGradGradGradGradGradGradGradGrad

 Leave Link  103 at Mon Mar  2 00:45:19 2020, MaxMem=  1879048192 cpu:               1.7 elap:               0.1
 (Enter /opt/g16/l202.exe)
                          Input orientation:                          
 ---------------------------------------------------------------------
 Center     Atomic      Atomic             Coordinates (Angstroms)
 Number     Number       Type             X           Y           Z
 ---------------------------------------------------------------------
      1          7           0        2.290501    0.417076    0.163687
      2          6           0        0.996775    0.178565    0.071239
      3          6           0        0.062123    1.252516    0.001925
      4          1           0        0.436883    2.266974    0.026791
      5          6           0       -1.283360    0.987761   -0.094187
      6          6           0       -1.747385   -0.327330   -0.124855
      7          6           0       -0.847437   -1.390965   -0.058056
      8          6           0        0.503978   -1.158525    0.038548
      9          1           0       -1.988149    1.807840   -0.146474
     10          1           0       -2.808945   -0.523001   -0.200713
     11          1           0       -1.215351   -2.408824   -0.082422
     12          1           0        1.213927   -1.973014    0.091195
 ---------------------------------------------------------------------
                    Distance matrix (angstroms):
                    1          2          3          4          5
     1  N    0.000000
     2  C    1.318773   0.000000
     3  C    2.385329   1.425395   0.000000
     4  H    2.622358   2.162616   1.081752   0.000000
     5  C    3.628314   2.425114   1.374648   2.147151   0.000000
     6  C    4.116056   2.797284   2.405474   3.394766   1.394892
     7  C    3.628338   2.425131   2.796228   3.877782   2.418609
     8  C    2.385339   1.425387   2.451468   3.426176   2.796201
     9  H    4.509686   3.407596   2.129324   2.474188   1.082585
    10  H    5.198161   3.879389   3.381797   4.286154   2.149688
    11  H    4.509687   3.407594   3.878719   4.960332   3.397286
    12  H    2.622365   2.162602   3.426174   4.311084   3.877757
                    6          7          8          9         10
     6  C    0.000000
     7  C    1.394879   0.000000
     8  C    2.405457   1.374657   0.000000
     9  H    2.148810   3.397263   3.878692   0.000000
    10  H    1.082105   2.149704   3.381804   2.471734   0.000000
    11  H    2.148832   1.082585   2.129313   4.287374   2.471814
    12  H    3.394749   2.147156   1.081754   4.960306   4.286169
                   11         12
    11  H    0.000000
    12  H    2.474159   0.000000
 Stoichiometry    C6H5N(3)
 Framework group  C1[X(C6H5N)]
 Deg. of freedom    30
 Full point group                 C1      NOp   1
 Largest Abelian subgroup         C1      NOp   1
 Largest concise Abelian subgroup C1      NOp   1
                         Standard orientation:                         
 ---------------------------------------------------------------------
 Center     Atomic      Atomic             Coordinates (Angstroms)
 Number     Number       Type             X           Y           Z
 ---------------------------------------------------------------------
      1          7           0        2.381988   -0.000015    0.000000
      2          6           0        1.063215   -0.000013    0.000000
      3          6           0        0.335691    1.225735   -0.000001
      4          1           0        0.888551    2.155538    0.000000
      5          6           0       -1.038859    1.209311    0.000000
      6          6           0       -1.734069    0.000010    0.000000
      7          6           0       -1.038900   -1.209299   -0.000000
      8          6           0        0.335660   -1.225733   -0.000000
      9          1           0       -1.585608    2.143686    0.000000
     10          1           0       -2.816174    0.000050    0.000000
     11          1           0       -1.585624   -2.143688    0.000000
     12          1           0        0.888507   -2.155546   -0.000000
 ---------------------------------------------------------------------
 Rotational constants (GHZ):           5.6288097           2.9354011           1.9292862
 Leave Link  202 at Mon Mar  2 00:45:19 2020, MaxMem=  1879048192 cpu:               2.7 elap:               0.1
 (Enter /opt/g16/l301.exe)
 Standard basis: def2TZVP (5D, 7F)
 Ernie: Thresh=  0.10000D-02 Tol=  0.10000D-05 Strict=F.
 There are   282 symmetry adapted cartesian basis functions of A   symmetry.
 There are   247 symmetry adapted basis functions of A   symmetry.
   247 basis functions,   397 primitive gaussians,   282 cartesian basis functions
    25 alpha electrons       23 beta electrons
       nuclear repulsion energy       252.1598876355 Hartrees.
 IExCor= 4639 DFT=T Ex+Corr=wB97XD ExCW=0 ScaHFX=  1.000000
 ScaDFX=  1.000000  1.000000  1.000000  1.000000 ScalE2=  1.000000  1.000000
 IRadAn=      5 IRanWt=     -1 IRanGd=            0 ICorTp=0 IEmpDi=121
 HFx  wShort=  0.000000 wLong=  0.200000 cFull=  0.222036 cShort=  0.000000 cLong=  0.777964
 DFx  wShort=  0.000000 wLong=  0.200000 cFull=  0.000000 cShort=  0.000000 cLong=  1.000000
 NAtoms=   12 NActive=   12 NUniq=   12 SFac= 1.00D+00 NAtFMM=   60 NAOKFM=F Big=F
 Integral buffers will be    131072 words long.
 Raffenetti 2 integral format.
 Two-electron integral symmetry is turned on.
 R6Disp:  Grimme-D2 Dispersion energy=       -0.0044060109 Hartrees.
 Nuclear repulsion after empirical dispersion term =      252.1554816246 Hartrees.
 Leave Link  301 at Mon Mar  2 00:45:19 2020, MaxMem=  1879048192 cpu:               2.5 elap:               0.1
 (Enter /opt/g16/l302.exe)
 NPDir=0 NMtPBC=     1 NCelOv=     1 NCel=       1 NClECP=     1 NCelD=      1
         NCelK=      1 NCelE2=     1 NClLst=     1 CellRange=     0.0.
 One-electron integrals computed using PRISM.
 One-electron integral symmetry used in STVInt
   1 Symmetry operations used in ECPInt.
 ECPInt:  NShTT=    4753 NPrTT=   14704 LenC2=    4702 LenP2D=   12042.
 LDataN:  DoStor=T MaxTD1= 6 Len=  172
 NBasis=   247 RedAO= T EigKep=  1.05D-05  NBF=   247
 NBsUse=   247 1.00D-06 EigRej= -1.00D+00 NBFU=   247
 Precomputing XC quadrature grid using
 IXCGrd= 4 IRadAn=           5 IRanWt=          -1 IRanGd=           0 AccXCQ= 1.00D-12.
 Generated NRdTot=       0 NPtTot=           0 NUsed=           0 NTot=          32
 NSgBfM=   281   281   281   281   281 MxSgAt=    12 MxSgA2=    12.
 Leave Link  302 at Mon Mar  2 00:45:19 2020, MaxMem=  1879048192 cpu:              12.1 elap:               0.3
 (Enter /opt/g16/l303.exe)
 DipDrv:  MaxL=1.
 Leave Link  303 at Mon Mar  2 00:45:19 2020, MaxMem=  1879048192 cpu:               3.1 elap:               0.1
 (Enter /opt/g16/l401.exe)
 Initial guess from the checkpoint file:  "check.chk"
 B after Tr=     0.000000    0.000000   -0.000000
         Rot=    0.707111   -0.000000    0.000000   -0.707103 Ang= -90.00 deg.
 Guess basis will be translated and rotated to current coordinates.
 JPrj=2 DoOrth=T DoCkMO=T.
 Initial guess <Sx>= 0.0000 <Sy>= 0.0000 <Sz>= 1.0000 <S**2>= 2.0723 S= 1.0239
 Leave Link  401 at Mon Mar  2 00:45:20 2020, MaxMem=  1879048192 cpu:              21.6 elap:               0.6
 (Enter /opt/g16/l502.exe)
 Integral symmetry usage will be decided dynamically.
 UHF open shell SCF:
 Using DIIS extrapolation, IDIIS=  1040.
 NGot=  1879048192 LenX=  1878876442 LenY=  1878796477
 Requested convergence on RMS density matrix=1.00D-08 within  32 cycles.
 Requested convergence on MAX density matrix=1.00D-06.
 Requested convergence on             energy=1.00D-06.
 No special actions if energy rises.
 Fock matrices will be formed incrementally for  20 cycles.

 Cycle   1  Pass 1  IDiag  1:
 FoFJK:  IHMeth= 1 ICntrl=       0 DoSepK=T KAlg= 0 I1Cent=           0 FoldK=F
 IRaf=         1 NMat=       1 IRICut=       1 DoRegI=T DoRafI=F ISym2E= 0 IDoP0=0 IntGTp=1.
 FoFCou: FMM=F IPFlag=           0 FMFlag=      100000 FMFlg1=           0
         NFxFlg=           0 DoJE=T BraDBF=F KetDBF=F FulRan=T
         wScrn=  0.000000 ICntrl=       500 IOpCl=  0 I1Cent=           0 NGrid=           0
         NMat0=    1 NMatS0=      1 NMatT0=    0 NMatD0=    1 NMtDS0=    0 NMtDT0=    0
 Symmetry not used in FoFCou.
 E= -286.301821787843    
 DIIS: error= 1.31D-07 at cycle   1 NSaved=   1.
 NSaved= 1 IEnMin= 1 EnMin= -286.301821787843     IErMin= 1 ErrMin= 1.31D-07
 ErrMax= 1.31D-07  0.00D+00 EMaxC= 1.00D-01 BMatC= 4.60D-12 BMatP= 4.60D-12
 IDIUse=1 WtCom= 1.00D+00 WtEn= 0.00D+00
 Coeff-Com:  0.100D+01
 Coeff:      0.100D+01
 Gap=     0.339 Goal=   None    Shift=    0.000
 Gap=     0.307 Goal=   None    Shift=    0.000
 RMSDP=2.74D-08 MaxDP=9.20D-07              OVMax= 8.73D-07

 Cycle   2  Pass 1  IDiag  1:
 RMSU=  2.74D-08    CP:  1.00D+00
 E= -286.301821787842     Delta-E=        0.000000000001 Rises=F Damp=F
 DIIS: error= 9.84D-08 at cycle   2 NSaved=   2.
 NSaved= 2 IEnMin= 1 EnMin= -286.301821787843     IErMin= 2 ErrMin= 9.84D-08
 ErrMax= 9.84D-08  0.00D+00 EMaxC= 1.00D-01 BMatC= 7.19D-13 BMatP= 4.60D-12
 IDIUse=1 WtCom= 1.00D+00 WtEn= 0.00D+00
 Coeff-Com:  0.758D-01 0.924D+00
 Coeff:      0.758D-01 0.924D+00
 Gap=     0.339 Goal=   None    Shift=    0.000
 Gap=     0.307 Goal=   None    Shift=    0.000
 RMSDP=4.30D-09 MaxDP=1.15D-07 DE= 9.09D-13 OVMax= 6.09D-07

 SCF Done:  E(UwB97XD) =  -286.301821788     A.U. after    2 cycles
            NFock=  2  Conv=0.43D-08     -V/T= 2.0047
 <Sx>= 0.0000 <Sy>= 0.0000 <Sz>= 1.0000 <S**2>= 2.0723 S= 1.0239
 <L.S>= 0.000000000000E+00
 KE= 2.849756966511D+02 PE=-1.169369995317D+03 EE= 3.459369952534D+02
 Annihilation of the first spin contaminant:
 S**2 before annihilation     2.0723,   after     2.0024
 Leave Link  502 at Mon Mar  2 00:45:49 2020, MaxMem=  1879048192 cpu:            1045.0 elap:              29.1
 (Enter /opt/g16/l508.exe)
 QCSCF skips out because SCF is already converged.
 Leave Link  508 at Mon Mar  2 00:45:49 2020, MaxMem=  1879048192 cpu:               1.5 elap:               0.1
 (Enter /opt/g16/l801.exe)
 DoSCS=F DFT=T ScalE2(SS,OS)=  1.000000  1.000000
 Range of M.O.s used for correlation:     1   247
 NBasis=   247 NAE=    25 NBE=    23 NFC=     0 NFV=     0
 NROrb=    247 NOA=    25 NOB=    23 NVA=   222 NVB=   224

 **** Warning!!: The largest alpha MO coefficient is  0.77979272D+02


 **** Warning!!: The largest beta MO coefficient is  0.77264012D+02

 Leave Link  801 at Mon Mar  2 00:45:49 2020, MaxMem=  1879048192 cpu:               3.0 elap:               0.1
 (Enter /opt/g16/l1101.exe)
 Using compressed storage, NAtomX=    12.
 Will process     13 centers per pass.
   1 Symmetry operations used in ECPInt.
 ECPInt:  NShTT=    4753 NPrTT=   14704 LenC2=    4702 LenP2D=   12042.
 LDataN:  DoStor=T MaxTD1= 7 Len=  274
 Number of processors reduced to  33 by ecpmxn.
 R6Disp: Adding Grimme-D2 dispersion energy 1st derivatives to the gradient.
 Leave Link 1101 at Mon Mar  2 00:45:50 2020, MaxMem=  1879048192 cpu:              24.4 elap:               0.7
 (Enter /opt/g16/l1102.exe)
 Symmetrizing basis deriv contribution to polar:
 IMax=3 JMax=2 DiffMx= 0.00D+00
 Leave Link 1102 at Mon Mar  2 00:45:50 2020, MaxMem=  1879048192 cpu:               7.1 elap:               0.2
 (Enter /opt/g16/l1110.exe)
 Forming Gx(P) for the SCF density, NAtomX=    12.
 Integral derivatives from FoFJK, PRISM(SPDF).
 Do as many integral derivatives as possible in FoFJK.
 G2DrvN: MDV=    1879047120.
 G2DrvN: will do    13 centers at a time, making    1 passes.
 Calling FoFCou, ICntrl=  3107 FMM=F I1Cent=   0 AccDes= 1.00D-12.
 FoFJK:  IHMeth= 1 ICntrl=    3107 DoSepK=T KAlg= 0 I1Cent=           0 FoldK=F
 IRaf=         1 NMat=       1 IRICut=       1 DoRegI=T DoRafI=F ISym2E= 0 IDoP0=0 IntGTp=1.
 FoFCou: FMM=F IPFlag=           0 FMFlag=      100000 FMFlg1=           0
         NFxFlg=           0 DoJE=F BraDBF=F KetDBF=F FulRan=T
         wScrn=  0.000000 ICntrl=      3507 IOpCl=  0 I1Cent=           0 NGrid=           0
         NMat0=    1 NMatS0=      1 NMatT0=    0 NMatD0=    1 NMtDS0=    0 NMtDT0=    0
 Symmetry not used in FoFCou.
 End of G2Drv F.D. properties file   721 does not exist.
 End of G2Drv F.D. properties file   722 does not exist.
 End of G2Drv F.D. properties file   788 does not exist.
 Leave Link 1110 at Mon Mar  2 00:46:50 2020, MaxMem=  1879048192 cpu:            2139.1 elap:              59.4
 (Enter /opt/g16/l1002.exe)
 Minotr:  UHF open shell wavefunction.
          IDoAtm=111111111111
          Direct CPHF calculation.
          Differentiating once with respect to electric field.
                with respect to dipole field.
          Differentiating once with respect to nuclear coordinates.
          Requested convergence is 1.0D-08 RMS, and 1.0D-07 maximum.
          Secondary convergence is 1.0D-12 RMS, and 1.0D-12 maximum.
          NewPWx=T KeepS1=F KeepF1=F KeepIn=T MapXYZ=F SortEE=F KeepMc=T.
         3605 words used for storage of precomputed grid.
 Two-electron integrals replicated using symmetry.
          MDV=    1879048192 using IRadAn=       1.
          Solving linear equations simultaneously, MaxMat=     360.
 FoF2E skips out because all densities are zero.
 CalDSu exits because no D1Ps are significant.
 FoFJK:  IHMeth= 1 ICntrl=       0 DoSepK=T KAlg= 0 I1Cent=           0 FoldK=F
 IRaf=         1 NMat=      36 IRICut=       1 DoRegI=T DoRafI=F ISym2E= 2 IDoP0=3 IntGTp=3.
 FoFCou: FMM=F IPFlag=           0 FMFlag=      100000 FMFlg1=           0
         NFxFlg=           0 DoJE=F BraDBF=F KetDBF=F FulRan=T
         wScrn=  0.000000 ICntrl=       500 IOpCl=  0 I1Cent=           0 NGrid=           0
         NMat0=   36 NMatS0=     36 NMatT0=    0 NMatD0=   36 NMtDS0=    0 NMtDT0=    0
 Integrals replicated using symmetry in FoFCou.
          There are    39 degrees of freedom in the 1st order CPHF.  IDoFFX=6 NUNeed=     3.
     36 vectors produced by pass  0 Test12= 2.74D-14 2.56D-09 XBig12= 1.16D+02 5.98D+00.
 AX will form    36 AO Fock derivatives at one time.
     36 vectors produced by pass  1 Test12= 2.74D-14 2.56D-09 XBig12= 1.44D+01 7.31D-01.
     36 vectors produced by pass  2 Test12= 2.74D-14 2.56D-09 XBig12= 1.23D+00 4.15D-01.
     36 vectors produced by pass  3 Test12= 2.74D-14 2.56D-09 XBig12= 2.61D-02 3.24D-02.
     36 vectors produced by pass  4 Test12= 2.74D-14 2.56D-09 XBig12= 2.62D-04 2.82D-03.
     36 vectors produced by pass  5 Test12= 2.74D-14 2.56D-09 XBig12= 2.49D-06 2.44D-04.
     36 vectors produced by pass  6 Test12= 2.74D-14 2.56D-09 XBig12= 3.06D-08 2.50D-05.
     30 vectors produced by pass  7 Test12= 2.74D-14 2.56D-09 XBig12= 4.77D-10 3.04D-06.
      9 vectors produced by pass  8 Test12= 2.74D-14 2.56D-09 XBig12= 4.99D-12 3.61D-07.
      3 vectors produced by pass  9 Test12= 2.74D-14 2.56D-09 XBig12= 4.50D-14 3.41D-08.
 InvSVY:  IOpt=1 It=  1 EMax= 3.55D-15
 Solved reduced A of dimension   294 with    39 vectors.
 FullF1:  Do perturbations      1 to       3.
 Isotropic polarizability for W=    0.000000       72.65 Bohr**3.
 End of Minotr F.D. properties file   721 does not exist.
 End of Minotr F.D. properties file   722 does not exist.
 End of Minotr F.D. properties file   788 does not exist.
 Leave Link 1002 at Mon Mar  2 00:49:57 2020, MaxMem=  1879048192 cpu:            6719.3 elap:             187.4
 (Enter /opt/g16/l601.exe)
 Copying SCF densities to generalized density rwf, IOpCl= 1 IROHF=0.

 **********************************************************************

            Population analysis using the SCF Density.

 **********************************************************************

 Orbital symmetries:
 Alpha Orbitals:
       Occupied  (A) (A) (A) (A) (A) (A) (A) (A) (A) (A) (A) (A)
                 (A) (A) (A) (A) (A) (A) (A) (A) (A) (A) (A) (A)
                 (A)
       Virtual   (A) (A) (A) (A) (A) (A) (A) (A) (A) (A) (A) (A)
                 (A) (A) (A) (A) (A) (A) (A) (A) (A) (A) (A) (A)
                 (A) (A) (A) (A) (A) (A) (A) (A) (A) (A) (A) (A)
                 (A) (A) (A) (A) (A) (A) (A) (A) (A) (A) (A) (A)
                 (A) (A) (A) (A) (A) (A) (A) (A) (A) (A) (A) (A)
                 (A) (A) (A) (A) (A) (A) (A) (A) (A) (A) (A) (A)
                 (A) (A) (A) (A) (A) (A) (A) (A) (A) (A) (A) (A)
                 (A) (A) (A) (A) (A) (A) (A) (A) (A) (A) (A) (A)
                 (A) (A) (A) (A) (A) (A) (A) (A) (A) (A) (A) (A)
                 (A) (A) (A) (A) (A) (A) (A) (A) (A) (A) (A) (A)
                 (A) (A) (A) (A) (A) (A) (A) (A) (A) (A) (A) (A)
                 (A) (A) (A) (A) (A) (A) (A) (A) (A) (A) (A) (A)
                 (A) (A) (A) (A) (A) (A) (A) (A) (A) (A) (A) (A)
                 (A) (A) (A) (A) (A) (A) (A) (A) (A) (A) (A) (A)
                 (A) (A) (A) (A) (A) (A) (A) (A) (A) (A) (A) (A)
                 (A) (A) (A) (A) (A) (A) (A) (A) (A) (A) (A) (A)
                 (A) (A) (A) (A) (A) (A) (A) (A) (A) (A) (A) (A)
                 (A) (A) (A) (A) (A) (A) (A) (A) (A) (A) (A) (A)
                 (A) (A) (A) (A) (A) (A)
 Beta  Orbitals:
       Occupied  (A) (A) (A) (A) (A) (A) (A) (A) (A) (A) (A) (A)
                 (A) (A) (A) (A) (A) (A) (A) (A) (A) (A) (A)
       Virtual   (A) (A) (A) (A) (A) (A) (A) (A) (A) (A) (A) (A)
                 (A) (A) (A) (A) (A) (A) (A) (A) (A) (A) (A) (A)
                 (A) (A) (A) (A) (A) (A) (A) (A) (A) (A) (A) (A)
                 (A) (A) (A) (A) (A) (A) (A) (A) (A) (A) (A) (A)
                 (A) (A) (A) (A) (A) (A) (A) (A) (A) (A) (A) (A)
                 (A) (A) (A) (A) (A) (A) (A) (A) (A) (A) (A) (A)
                 (A) (A) (A) (A) (A) (A) (A) (A) (A) (A) (A) (A)
                 (A) (A) (A) (A) (A) (A) (A) (A) (A) (A) (A) (A)
                 (A) (A) (A) (A) (A) (A) (A) (A) (A) (A) (A) (A)
                 (A) (A) (A) (A) (A) (A) (A) (A) (A) (A) (A) (A)
                 (A) (A) (A) (A) (A) (A) (A) (A) (A) (A) (A) (A)
                 (A) (A) (A) (A) (A) (A) (A) (A) (A) (A) (A) (A)
                 (A) (A) (A) (A) (A) (A) (A) (A) (A) (A) (A) (A)
                 (A) (A) (A) (A) (A) (A) (A) (A) (A) (A) (A) (A)
                 (A) (A) (A) (A) (A) (A) (A) (A) (A) (A) (A) (A)
                 (A) (A) (A) (A) (A) (A) (A) (A) (A) (A) (A) (A)
                 (A) (A) (A) (A) (A) (A) (A) (A) (A) (A) (A) (A)
                 (A) (A) (A) (A) (A) (A) (A) (A) (A) (A) (A) (A)
                 (A) (A) (A) (A) (A) (A) (A) (A)
 The electronic state is 3-A.
 Alpha  occ. eigenvalues --  -14.47259 -10.33047 -10.31429 -10.31427 -10.31207
 Alpha  occ. eigenvalues --  -10.30676 -10.30672  -1.03097  -0.95617  -0.87409
 Alpha  occ. eigenvalues --   -0.82714  -0.72497  -0.69053  -0.61799  -0.57536
 Alpha  occ. eigenvalues --   -0.55404  -0.53175  -0.50684  -0.49480  -0.45715
 Alpha  occ. eigenvalues --   -0.44941  -0.43080  -0.36500  -0.36466  -0.30165
 Alpha virt. eigenvalues --    0.03727   0.06481   0.11870   0.14769   0.15664
 Alpha virt. eigenvalues --    0.17507   0.18542   0.19457   0.21116   0.24586
 Alpha virt. eigenvalues --    0.27143   0.27255   0.27312   0.29394   0.30341
 Alpha virt. eigenvalues --    0.31319   0.31953   0.32773   0.34648   0.39702
 Alpha virt. eigenvalues --    0.39943   0.40126   0.41076   0.42007   0.43129
 Alpha virt. eigenvalues --    0.44195   0.47061   0.47182   0.47990   0.48259
 Alpha virt. eigenvalues --    0.49163   0.49362   0.50332   0.53330   0.54544
 Alpha virt. eigenvalues --    0.55269   0.56523   0.57960   0.59504   0.59885
 Alpha virt. eigenvalues --    0.66750   0.69149   0.70061   0.71940   0.72089
 Alpha virt. eigenvalues --    0.74319   0.76722   0.80159   0.80657   0.82741
 Alpha virt. eigenvalues --    0.83229   0.87376   0.89077   0.93162   0.93479
 Alpha virt. eigenvalues --    0.93676   0.95423   1.06358   1.07469   1.07965
 Alpha virt. eigenvalues --    1.10132   1.10389   1.13368   1.16712   1.20023
 Alpha virt. eigenvalues --    1.25165   1.25562   1.27102   1.27632   1.29012
 Alpha virt. eigenvalues --    1.32828   1.33693   1.36500   1.37052   1.38618
 Alpha virt. eigenvalues --    1.44111   1.45944   1.46699   1.52608   1.53135
 Alpha virt. eigenvalues --    1.56674   1.56701   1.58208   1.62046   1.62446
 Alpha virt. eigenvalues --    1.65122   1.69217   1.69728   1.71774   1.73679
 Alpha virt. eigenvalues --    1.76986   1.78548   1.80042   1.82912   1.83267
 Alpha virt. eigenvalues --    1.88266   1.91854   1.97842   2.00617   2.01889
 Alpha virt. eigenvalues --    2.04696   2.10614   2.14031   2.14201   2.19475
 Alpha virt. eigenvalues --    2.20109   2.23748   2.24397   2.28947   2.30669
 Alpha virt. eigenvalues --    2.32519   2.38133   2.40221   2.52353   2.53040
 Alpha virt. eigenvalues --    2.53525   2.59210   2.59604   2.65221   2.65258
 Alpha virt. eigenvalues --    2.65883   2.72371   2.73230   2.74265   2.74377
 Alpha virt. eigenvalues --    2.74916   2.75059   2.78970   2.81492   2.81533
 Alpha virt. eigenvalues --    2.82847   2.86715   2.88455   2.90925   2.91004
 Alpha virt. eigenvalues --    2.93325   2.96077   2.96493   2.96608   3.04362
 Alpha virt. eigenvalues --    3.10555   3.13430   3.15779   3.16936   3.18931
 Alpha virt. eigenvalues --    3.19254   3.20639   3.21293   3.22522   3.25783
 Alpha virt. eigenvalues --    3.27823   3.28037   3.31080   3.31448   3.36303
 Alpha virt. eigenvalues --    3.40378   3.41727   3.42654   3.44927   3.46064
 Alpha virt. eigenvalues --    3.51573   3.52675   3.52903   3.54458   3.55826
 Alpha virt. eigenvalues --    3.56051   3.62066   3.65203   3.74277   3.75862
 Alpha virt. eigenvalues --    3.76384   3.76455   3.84293   3.87249   3.91600
 Alpha virt. eigenvalues --    3.99157   3.99563   4.04144   4.06442   4.08071
 Alpha virt. eigenvalues --    4.08707   4.11497   4.11718   4.21518   4.21714
 Alpha virt. eigenvalues --    4.26351   4.28002   4.28136   4.28655   4.31094
 Alpha virt. eigenvalues --    4.37804   4.44017   4.48701   4.64344   4.64534
 Alpha virt. eigenvalues --    4.67497   4.70251   4.70916   4.79780   4.83861
 Alpha virt. eigenvalues --    4.88530   4.90727   4.91129   4.94727   4.95384
 Alpha virt. eigenvalues --    5.16846   5.31534   5.31821   5.32008   5.37094
 Alpha virt. eigenvalues --    5.39100   5.61635   5.62964   5.66312   5.99229
 Alpha virt. eigenvalues --   22.17181  22.66819  22.69080  22.79126  22.95037
 Alpha virt. eigenvalues --   23.33976  32.05886
  Beta  occ. eigenvalues --  -14.44448 -10.33406 -10.30972 -10.30970 -10.30879
  Beta  occ. eigenvalues --  -10.30844 -10.30802  -0.99788  -0.92891  -0.86835
  Beta  occ. eigenvalues --   -0.79588  -0.71710  -0.67945  -0.60870  -0.56170
  Beta  occ. eigenvalues --   -0.54867  -0.52924  -0.48484  -0.47728  -0.44571
  Beta  occ. eigenvalues --   -0.42114  -0.37946  -0.35173
  Beta virt. eigenvalues --   -0.04471  -0.00585   0.04939   0.09809   0.11957
  Beta virt. eigenvalues --    0.14778   0.15794   0.17552   0.18938   0.19552
  Beta virt. eigenvalues --    0.21750   0.24685   0.27270   0.27336   0.27677
  Beta virt. eigenvalues --    0.29361   0.30400   0.31443   0.32339   0.33806
  Beta virt. eigenvalues --    0.34847   0.39983   0.40226   0.40431   0.41996
  Beta virt. eigenvalues --    0.43287   0.43483   0.44621   0.47324   0.47682
  Beta virt. eigenvalues --    0.48332   0.48696   0.49325   0.50815   0.51755
  Beta virt. eigenvalues --    0.53655   0.54800   0.55521   0.56718   0.58207
  Beta virt. eigenvalues --    0.60153   0.61959   0.66691   0.69835   0.70520
  Beta virt. eigenvalues --    0.72473   0.72994   0.74652   0.77320   0.80454
  Beta virt. eigenvalues --    0.81062   0.82702   0.84218   0.88287   0.89600
  Beta virt. eigenvalues --    0.93808   0.94092   0.94208   0.95552   1.07010
  Beta virt. eigenvalues --    1.07475   1.09532   1.11249   1.11358   1.14014
  Beta virt. eigenvalues --    1.19296   1.21639   1.25744   1.25879   1.27411
  Beta virt. eigenvalues --    1.27957   1.29579   1.33518   1.34757   1.37667
  Beta virt. eigenvalues --    1.39190   1.39726   1.44573   1.46651   1.47437
  Beta virt. eigenvalues --    1.52886   1.53764   1.57057   1.57494   1.58916
  Beta virt. eigenvalues --    1.62605   1.63678   1.66159   1.69473   1.70129
  Beta virt. eigenvalues --    1.74104   1.74128   1.77245   1.79506   1.80679
  Beta virt. eigenvalues --    1.83407   1.84323   1.89074   1.92192   1.98138
  Beta virt. eigenvalues --    2.01838   2.03785   2.05447   2.10823   2.14564
  Beta virt. eigenvalues --    2.14698   2.20247   2.20783   2.24712   2.26950
  Beta virt. eigenvalues --    2.31195   2.33767   2.33810   2.40755   2.40802
  Beta virt. eigenvalues --    2.53374   2.54077   2.54954   2.59632   2.60383
  Beta virt. eigenvalues --    2.65355   2.65738   2.66447   2.72667   2.73648
  Beta virt. eigenvalues --    2.74493   2.74785   2.75386   2.75658   2.80272
  Beta virt. eigenvalues --    2.81950   2.81984   2.83152   2.87481   2.88887
  Beta virt. eigenvalues --    2.91193   2.91805   2.93720   2.96296   2.97141
  Beta virt. eigenvalues --    2.98148   3.05062   3.11251   3.13744   3.16178
  Beta virt. eigenvalues --    3.17441   3.19580   3.19664   3.21036   3.21882
  Beta virt. eigenvalues --    3.22958   3.26320   3.28336   3.28347   3.31668
  Beta virt. eigenvalues --    3.31866   3.37509   3.41170   3.42240   3.43118
  Beta virt. eigenvalues --    3.45309   3.46599   3.52000   3.53348   3.53457
  Beta virt. eigenvalues --    3.55090   3.56783   3.56928   3.62531   3.65382
  Beta virt. eigenvalues --    3.74727   3.77232   3.77234   3.78295   3.85581
  Beta virt. eigenvalues --    3.88861   3.99814   4.00159   4.03476   4.07237
  Beta virt. eigenvalues --    4.07451   4.10229   4.10609   4.12780   4.13650
  Beta virt. eigenvalues --    4.22451   4.23927   4.27325   4.28832   4.28882
  Beta virt. eigenvalues --    4.30193   4.31621   4.38938   4.47362   4.52618
  Beta virt. eigenvalues --    4.68095   4.68838   4.70835   4.73616   4.75695
  Beta virt. eigenvalues --    4.82072   4.84684   4.92956   4.94190   4.96033
  Beta virt. eigenvalues --    4.96977   4.97601   5.18245   5.32622   5.33681
  Beta virt. eigenvalues --    5.34757   5.38136   5.41796   5.63327   5.64729
  Beta virt. eigenvalues --    5.68890   6.01653  22.17419  22.66881  22.69693
  Beta virt. eigenvalues --   22.79501  22.94877  23.33862  32.09887
          Condensed to atoms (all electrons):
               1          2          3          4          5          6
     1  N    6.808777   0.461706  -0.064845   0.003529   0.012489  -0.002878
     2  C    0.461706   4.883124   0.253387  -0.062211   0.076876  -0.087228
     3  C   -0.064845   0.253387   5.171809   0.446657   0.357929   0.039748
     4  H    0.003529  -0.062211   0.446657   0.514696  -0.056491   0.011488
     5  C    0.012489   0.076876   0.357929  -0.056491   4.988998   0.400859
     6  C   -0.002878  -0.087228   0.039748   0.011488   0.400859   4.950346
     7  C    0.012488   0.076881  -0.113551  -0.005489   0.047024   0.400866
     8  C   -0.064843   0.253401   0.125339   0.016259  -0.113549   0.039741
     9  H   -0.000237   0.007352  -0.043205  -0.006489   0.432950  -0.049724
    10  H    0.000007  -0.002958   0.009600  -0.000053  -0.051419   0.439944
    11  H   -0.000237   0.007352  -0.002211   0.000048   0.008354  -0.049722
    12  H    0.003529  -0.062212   0.016260   0.000078  -0.005489   0.011489
               7          8          9         10         11         12
     1  N    0.012488  -0.064843  -0.000237   0.000007  -0.000237   0.003529
     2  C    0.076881   0.253401   0.007352  -0.002958   0.007352  -0.062212
     3  C   -0.113551   0.125339  -0.043205   0.009600  -0.002211   0.016260
     4  H   -0.005489   0.016259  -0.006489  -0.000053   0.000048   0.000078
     5  C    0.047024  -0.113549   0.432950  -0.051419   0.008354  -0.005489
     6  C    0.400866   0.039741  -0.049724   0.439944  -0.049722   0.011489
     7  C    4.988998   0.357923   0.008354  -0.051418   0.432951  -0.056492
     8  C    0.357923   5.171801  -0.002210   0.009600  -0.043207   0.446656
     9  H    0.008354  -0.002210   0.528584  -0.006105  -0.000142   0.000048
    10  H   -0.051418   0.009600  -0.006105   0.525790  -0.006105  -0.000053
    11  H    0.432951  -0.043207  -0.000142  -0.006105   0.528581  -0.006489
    12  H   -0.056492   0.446656   0.000048  -0.000053  -0.006489   0.514700
          Atomic-Atomic Spin Densities.
               1          2          3          4          5          6
     1  N    1.715330  -0.076544  -0.032799   0.004766   0.003580   0.001624
     2  C   -0.076544  -0.224019   0.045957   0.002588  -0.009288   0.004952
     3  C   -0.032799   0.045957   0.346313  -0.009166  -0.008170  -0.031038
     4  H    0.004766   0.002588  -0.009166  -0.012202   0.005842  -0.000533
     5  C    0.003580  -0.009288  -0.008170   0.005842  -0.146303   0.015832
     6  C    0.001624   0.004952  -0.031038  -0.000533   0.015832   0.314001
     7  C    0.003578  -0.009290   0.017839   0.000133  -0.006471   0.015835
     8  C   -0.032795   0.045961  -0.024822  -0.000774   0.017840  -0.031041
     9  H   -0.000123   0.000548   0.003062  -0.000579  -0.002360  -0.001724
    10  H    0.000003   0.000152  -0.000580   0.000003   0.001949  -0.002161
    11  H   -0.000123   0.000549  -0.000516   0.000011   0.000257  -0.001724
    12  H    0.004766   0.002588  -0.000774  -0.000094   0.000133  -0.000533
               7          8          9         10         11         12
     1  N    0.003578  -0.032795  -0.000123   0.000003  -0.000123   0.004766
     2  C   -0.009290   0.045961   0.000548   0.000152   0.000549   0.002588
     3  C    0.017839  -0.024822   0.003062  -0.000580  -0.000516  -0.000774
     4  H    0.000133  -0.000774  -0.000579   0.000003   0.000011  -0.000094
     5  C   -0.006471   0.017840  -0.002360   0.001949   0.000257   0.000133
     6  C    0.015835  -0.031041  -0.001724  -0.002161  -0.001724  -0.000533
     7  C   -0.146313  -0.008159   0.000257   0.001949  -0.002359   0.005842
     8  C   -0.008159   0.346318  -0.000516  -0.000580   0.003061  -0.009167
     9  H    0.000257  -0.000516   0.009751   0.000117  -0.000038   0.000011
    10  H    0.001949  -0.000580   0.000117  -0.012993   0.000117   0.000003
    11  H   -0.002359   0.003061  -0.000038   0.000117   0.009751  -0.000580
    12  H    0.005842  -0.009167   0.000011   0.000003  -0.000580  -0.012203
 Mulliken charges and spin densities:
               1          2
     1  N   -0.169484   1.591263
     2  C    0.194529  -0.215847
     3  C   -0.196918   0.305308
     4  H    0.137978  -0.010006
     5  C   -0.098530  -0.127158
     6  C   -0.104929   0.283488
     7  C   -0.098536  -0.127159
     8  C   -0.196910   0.305325
     9  H    0.130826   0.008406
    10  H    0.133171  -0.012020
    11  H    0.130827   0.008406
    12  H    0.137977  -0.010007
 Sum of Mulliken charges =  -0.00000   2.00000
 Mulliken charges and spin densities with hydrogens summed into heavy atoms:
               1          2
     1  N   -0.169484   1.591263
     2  C    0.194529  -0.215847
     3  C   -0.058940   0.295302
     5  C    0.032296  -0.118752
     6  C    0.028242   0.271469
     7  C    0.032291  -0.118753
     8  C   -0.058933   0.295319
 APT charges:
               1
     1  N   -0.119371
     2  C   -0.063705
     3  C    0.031427
     4  H    0.058903
     5  C   -0.074280
     6  C    0.016177
     7  C   -0.074276
     8  C    0.031428
     9  H    0.044144
    10  H    0.046504
    11  H    0.044148
    12  H    0.058900
 Sum of APT charges =  -0.00000
 APT charges with hydrogens summed into heavy atoms:
               1
     1  N   -0.119371
     2  C   -0.063705
     3  C    0.090330
     5  C   -0.030136
     6  C    0.062681
     7  C   -0.030129
     8  C    0.090328
 Electronic spatial extent (au):  <R**2>=            617.7214
 Charge=              0.0000 electrons
 Dipole moment (field-independent basis, Debye):
    X=             -3.0472    Y=              0.0000    Z=              0.0000  Tot=              3.0472
 Quadrupole moment (field-independent basis, Debye-Ang):
   XX=            -44.8395   YY=            -34.3173   ZZ=            -43.4924
   XY=              0.0000   XZ=             -0.0000   YZ=              0.0000
 Traceless Quadrupole moment (field-independent basis, Debye-Ang):
   XX=             -3.9564   YY=              6.5658   ZZ=             -2.6094
   XY=              0.0000   XZ=             -0.0000   YZ=              0.0000
 Octapole moment (field-independent basis, Debye-Ang**2):
  XXX=            -35.9668  YYY=             -0.0003  ZZZ=              0.0000  XYY=             -0.5841
  XXY=              0.0005  XXZ=             -0.0000  XZZ=              1.9753  YZZ=             -0.0000
  YYZ=              0.0000  XYZ=              0.0000
 Hexadecapole moment (field-independent basis, Debye-Ang**3):
 XXXX=           -556.0247 YYYY=           -265.0639 ZZZZ=            -48.8852 XXXY=             -0.0004
 XXXZ=             -0.0000 YYYX=              0.0007 YYYZ=              0.0000 ZZZX=              0.0000
 ZZZY=              0.0000 XXYY=           -120.8221 XXZZ=            -97.3591 YYZZ=            -64.0619
 XXYZ=              0.0000 YYXZ=             -0.0000 ZZXY=             -0.0000
 N-N= 2.521554816246D+02 E-N=-1.169369995839D+03  KE= 2.849756966511D+02
  Exact polarizability:  99.094  -0.000  77.750  -0.000  -0.000  41.095
 Approx polarizability: 111.285   0.000  86.869  -0.000  -0.000  49.865
                          Isotropic Fermi Contact Couplings
        Atom                 a.u.       MegaHertz       Gauss      10(-4) cm-1
     1  N(14)              0.11427      18.46082       6.58728       6.15787
     2  C(13)             -0.07611     -42.78375     -15.26631     -14.27112
     3  C(13)              0.09132      51.32820      18.31518      17.12124
     4  H(1)              -0.00502     -11.21510      -4.00182      -3.74095
     5  C(13)             -0.01379      -7.75356      -2.76666      -2.58631
     6  C(13)              0.02077      11.67716       4.16670       3.89508
     7  C(13)             -0.01380      -7.75431      -2.76693      -2.58656
     8  C(13)              0.09131      51.32744      18.31491      17.12099
     9  H(1)               0.00312       6.97003       2.48708       2.32495
    10  H(1)              -0.00465     -10.39246      -3.70829      -3.46655
    11  H(1)               0.00312       6.96979       2.48700       2.32487
    12  H(1)              -0.00502     -11.21574      -4.00205      -3.74117
 --------------------------------------------------------
       Center         ----  Spin Dipole Couplings  ----
                      3XX-RR        3YY-RR        3ZZ-RR
 --------------------------------------------------------
     1   Atom       -1.901367      1.456921      0.444447
     2   Atom        0.189234      0.076690     -0.265924
     3   Atom       -0.136086     -0.143408      0.279494
     4   Atom       -0.010797      0.026969     -0.016172
     5   Atom        0.100369      0.067672     -0.168041
     6   Atom       -0.163252     -0.185530      0.348782
     7   Atom        0.100368      0.067674     -0.168042
     8   Atom       -0.136097     -0.143423      0.279520
     9   Atom        0.008681     -0.001274     -0.007407
    10   Atom        0.026421     -0.025234     -0.001187
    11   Atom        0.008682     -0.001275     -0.007407
    12   Atom       -0.010797      0.026970     -0.016172
 --------------------------------------------------------
                        XY            XZ            YZ
 --------------------------------------------------------
     1   Atom       -0.000012     -0.000000     -0.000000
     2   Atom        0.000001      0.000000     -0.000000
     3   Atom       -0.059903     -0.000000     -0.000000
     4   Atom        0.003452      0.000000      0.000000
     5   Atom        0.000266     -0.000000      0.000000
     6   Atom       -0.000000      0.000000     -0.000000
     7   Atom       -0.000266     -0.000000     -0.000000
     8   Atom        0.059900     -0.000000     -0.000000
     9   Atom        0.003267     -0.000000     -0.000000
    10   Atom       -0.000002      0.000000     -0.000000
    11   Atom       -0.003267     -0.000000      0.000000
    12   Atom       -0.003453      0.000000     -0.000000
 --------------------------------------------------------


 ---------------------------------------------------------------------------------
              Anisotropic Spin Dipole Couplings in Principal Axis System
 ---------------------------------------------------------------------------------

       Atom             a.u.   MegaHertz   Gauss  10(-4) cm-1        Axes

              Baa    -1.9014   -73.332   -26.167   -24.461  1.0000  0.0000  0.0000
     1 N(14)  Bbb     0.4444    17.141     6.116     5.718 -0.0000  0.0000  1.0000
              Bcc     1.4569    56.190    20.050    18.743 -0.0000  1.0000 -0.0000
 
              Baa    -0.2659   -35.685   -12.733   -11.903 -0.0000  0.0000  1.0000
     2 C(13)  Bbb     0.0767    10.291     3.672     3.433 -0.0000  1.0000 -0.0000
              Bcc     0.1892    25.393     9.061     8.470  1.0000  0.0000  0.0000
 
              Baa    -0.1998   -26.806    -9.565    -8.942  0.6852  0.7284  0.0000
     3 C(13)  Bbb    -0.0797   -10.699    -3.818    -3.569  0.7284 -0.6852  0.0000
              Bcc     0.2795    37.505    13.383    12.510 -0.0000 -0.0000  1.0000
 
              Baa    -0.0162    -8.629    -3.079    -2.878 -0.0000 -0.0000  1.0000
     4 H(1)   Bbb    -0.0111    -5.928    -2.115    -1.977  0.9959 -0.0903  0.0000
              Bcc     0.0273    14.557     5.194     4.856  0.0903  0.9959  0.0000
 
              Baa    -0.1680   -22.550    -8.046    -7.522  0.0000 -0.0000  1.0000
     5 C(13)  Bbb     0.0677     9.081     3.240     3.029 -0.0081  1.0000  0.0000
              Bcc     0.1004    13.469     4.806     4.493  1.0000  0.0081 -0.0000
 
              Baa    -0.1855   -24.896    -8.884    -8.305  0.0000  1.0000  0.0000
     6 C(13)  Bbb    -0.1633   -21.907    -7.817    -7.307  1.0000 -0.0000 -0.0000
              Bcc     0.3488    46.803    16.701    15.612  0.0000 -0.0000  1.0000
 
              Baa    -0.1680   -22.550    -8.046    -7.522  0.0000  0.0000  1.0000
     7 C(13)  Bbb     0.0677     9.081     3.240     3.029  0.0081  1.0000 -0.0000
              Bcc     0.1004    13.469     4.806     4.493  1.0000 -0.0081 -0.0000
 
              Baa    -0.1998   -26.807    -9.566    -8.942 -0.6852  0.7284  0.0000
     8 C(13)  Bbb    -0.0797   -10.701    -3.819    -3.570  0.7284  0.6852  0.0000
              Bcc     0.2795    37.509    13.384    12.512 -0.0000 -0.0000  1.0000
 
              Baa    -0.0074    -3.952    -1.410    -1.318  0.0000  0.0000  1.0000
     9 H(1)   Bbb    -0.0023    -1.201    -0.428    -0.400 -0.2864  0.9581 -0.0000
              Bcc     0.0097     5.153     1.839     1.719  0.9581  0.2864 -0.0000
 
              Baa    -0.0252   -13.464    -4.804    -4.491  0.0000  1.0000  0.0000
    10 H(1)   Bbb    -0.0012    -0.633    -0.226    -0.211 -0.0000 -0.0000  1.0000
              Bcc     0.0264    14.097     5.030     4.702  1.0000 -0.0000  0.0000
 
              Baa    -0.0074    -3.952    -1.410    -1.318  0.0000 -0.0000  1.0000
    11 H(1)   Bbb    -0.0023    -1.201    -0.428    -0.401  0.2863  0.9581  0.0000
              Bcc     0.0097     5.153     1.839     1.719  0.9581 -0.2863 -0.0000
 
              Baa    -0.0162    -8.629    -3.079    -2.878 -0.0000  0.0000  1.0000
    12 H(1)   Bbb    -0.0111    -5.928    -2.115    -1.977  0.9959  0.0903  0.0000
              Bcc     0.0273    14.557     5.194     4.856 -0.0903  0.9959 -0.0000
 

 ---------------------------------------------------------------------------------

 No NMR shielding tensors so no spin-rotation constants.
 Leave Link  601 at Mon Mar  2 00:50:00 2020, MaxMem=  1879048192 cpu:              64.3 elap:               1.9
 (Enter /opt/g16/l701.exe)
 SCFChk:  SCF convergence  4.30D-09 required  1.00D-08
 ... and contract with generalized density number  0.
 Compute integral second derivatives.
 R6Disp: Adding Grimme-D2 dispersion energy 2nd derivatives to the Hessian.
 Entering OneElI...
 Calculate overlap and kinetic energy integrals
    NBasis = 282  MinDer = 2  MaxDer = 2
 Requested accuracy = 0.1000D-14
 PrmmSu-InSpLW:  IPartL=    0 NPrtUS=   36 NPrtUL=    1 DoSpLW=F IThBeg=    0 IThEnd=   35 NThAct=   36.
 PrSmSu:  IncTry=   512 NBBP=           4730 NTPThr=   100 NPartT=   36 Incr=           1 LDynOK=F GPUOK=F.
 PrsmSu:  NPrtUS=  36 ThrOK=T IAlg=2 LenDen=           0 ISkipM=0 DoSpLW=F IThBeg=    0 IThEnd=   35.
 Prism:   IPart=     0 DynPar=F LinDyn=F Incr=           1.
 PRISM was handed    52079467 working-precision words and  4730 shell-pairs
 PRISM was handed    52079467 working-precision words and  4730 shell-pairs
 PRISM was handed    52079467 working-precision words and  4730 shell-pairs
 PRISM was handed    52079467 working-precision words and  4730 shell-pairs
 PRISM was handed    52079467 working-precision words and  4730 shell-pairs
 PRISM was handed    52079467 working-precision words and  4730 shell-pairs
 PRISM was handed    52079467 working-precision words and  4730 shell-pairs
 PRISM was handed    52079467 working-precision words and  4730 shell-pairs
 PRISM was handed    52079467 working-precision words and  4730 shell-pairs
 PRISM was handed    52079467 working-precision words and  4730 shell-pairs
 PRISM was handed    52079467 working-precision words and  4730 shell-pairs
 PRISM was handed    52079467 working-precision words and  4730 shell-pairs
 PRISM was handed    52079467 working-precision words and  4730 shell-pairs
 PRISM was handed    52079467 working-precision words and  4730 shell-pairs
 PRISM was handed    52079467 working-precision words and  4730 shell-pairs
 PRISM was handed    52079467 working-precision words and  4730 shell-pairs
 PRISM was handed    52079467 working-precision words and  4730 shell-pairs
 PRISM was handed    52079467 working-precision words and  4730 shell-pairs
 PRISM was handed    52079467 working-precision words and  4730 shell-pairs
 PRISM was handed    52079467 working-precision words and  4730 shell-pairs
 PRISM was handed    52079467 working-precision words and  4730 shell-pairs
 PRISM was handed    52079467 working-precision words and  4730 shell-pairs
 PRISM was handed    52079467 working-precision words and  4730 shell-pairs
 PRISM was handed    52079467 working-precision words and  4730 shell-pairs
 PRISM was handed    52079467 working-precision words and  4730 shell-pairs
 PRISM was handed    52079467 working-precision words and  4730 shell-pairs
 PRISM was handed    52079467 working-precision words and  4730 shell-pairs
 PRISM was handed    52079467 working-precision words and  4730 shell-pairs
 PRISM was handed    52079467 working-precision words and  4730 shell-pairs
 PRISM was handed    52079467 working-precision words and  4730 shell-pairs
 PRISM was handed    52079467 working-precision words and  4730 shell-pairs
 PRISM was handed    52079467 working-precision words and  4730 shell-pairs
 PRISM was handed    52079467 working-precision words and  4730 shell-pairs
 PRISM was handed    52079467 working-precision words and  4730 shell-pairs
 PRISM was handed    52079467 working-precision words and  4730 shell-pairs
 PRISM was handed    52079467 working-precision words and  4730 shell-pairs
 IPart= 14 NShTot=         131 NBatch=          31 AvBLen=         4.2
 IPart=  9 NShTot=         141 NBatch=          34 AvBLen=         4.1
 IPart= 34 NShTot=         111 NBatch=          24 AvBLen=         4.6
 IPart= 31 NShTot=         114 NBatch=          25 AvBLen=         4.6
 IPart= 29 NShTot=         117 NBatch=          26 AvBLen=         4.5
 IPart= 18 NShTot=         130 NBatch=          31 AvBLen=         4.2
 IPart= 23 NShTot=         128 NBatch=          29 AvBLen=         4.4
 IPart=  5 NShTot=         148 NBatch=          39 AvBLen=         3.8
 IPart=  7 NShTot=         142 NBatch=          34 AvBLen=         4.2
 IPart= 16 NShTot=         131 NBatch=          31 AvBLen=         4.2
 IPart= 27 NShTot=         118 NBatch=          27 AvBLen=         4.4
 IPart= 19 NShTot=         130 NBatch=          31 AvBLen=         4.2
 IPart=  8 NShTot=         141 NBatch=          34 AvBLen=         4.1
 IPart= 25 NShTot=         123 NBatch=          28 AvBLen=         4.4
 IPart=  6 NShTot=         146 NBatch=          38 AvBLen=         3.8
 IPart=  3 NShTot=         151 NBatch=          42 AvBLen=         3.6
 IPart= 33 NShTot=         112 NBatch=          25 AvBLen=         4.5
 IPart= 35 NShTot=         111 NBatch=          24 AvBLen=         4.6
 IPart= 32 NShTot=         113 NBatch=          25 AvBLen=         4.5
 IPart= 30 NShTot=         116 NBatch=          26 AvBLen=         4.5
 IPart= 28 NShTot=         117 NBatch=          26 AvBLen=         4.5
 IPart= 20 NShTot=         130 NBatch=          31 AvBLen=         4.2
 IPart= 24 NShTot=         127 NBatch=          28 AvBLen=         4.5
 IPart= 26 NShTot=         121 NBatch=          28 AvBLen=         4.3
 IPart= 21 NShTot=         130 NBatch=          31 AvBLen=         4.2
 IPart= 22 NShTot=         129 NBatch=          30 AvBLen=         4.3
 IPart= 10 NShTot=         138 NBatch=          33 AvBLen=         4.2
 IPart= 13 NShTot=         135 NBatch=          33 AvBLen=         4.1
 IPart=  2 NShTot=         151 NBatch=          42 AvBLen=         3.6
 IPart= 12 NShTot=         138 NBatch=          33 AvBLen=         4.2
 IPart=  4 NShTot=         151 NBatch=          42 AvBLen=         3.6
 IPart= 17 NShTot=         131 NBatch=          31 AvBLen=         4.2
 IPart= 11 NShTot=         138 NBatch=          33 AvBLen=         4.2
 IPart= 15 NShTot=         131 NBatch=          31 AvBLen=         4.2
 IPart=  0 NShTot=         156 NBatch=          45 AvBLen=         3.5
 IPart=  1 NShTot=         153 NBatch=          43 AvBLen=         3.6
 PrSmSu:  NxtVal=             37.
 Entering OneElI...
 Calculate potential energy integrals
    NBasis = 282  MinDer = 2  MaxDer = 2
 Requested accuracy = 0.1000D-14
 PrmmSu-InSpLW:  IPartL=    0 NPrtUS=   36 NPrtUL=    1 DoSpLW=F IThBeg=    0 IThEnd=   35 NThAct=   36.
 PrSmSu:  IncTry=   512 NBBP=          55176 NTPThr=   100 NPartT=   36 Incr=          15 LDynOK=F GPUOK=F.
 PrsmSu:  NPrtUS=  36 ThrOK=T IAlg=2 LenDen=           0 ISkipM=0 DoSpLW=F IThBeg=    0 IThEnd=   35.
 Prism:   IPart=     0 DynPar=F LinDyn=F Incr=          15.
 PRISM was handed    52091886 working-precision words and  4598 shell-pairs
 PRISM was handed    52091886 working-precision words and  4598 shell-pairs
 PRISM was handed    52091886 working-precision words and  4598 shell-pairs
 PRISM was handed    52091886 working-precision words and  4598 shell-pairs
 PRISM was handed    52091886 working-precision words and  4598 shell-pairs
 PRISM was handed    52091886 working-precision words and  4598 shell-pairs
 PRISM was handed    52091886 working-precision words and  4598 shell-pairs
 PRISM was handed    52091886 working-precision words and  4598 shell-pairs
 PRISM was handed    52091886 working-precision words and  4598 shell-pairs
 PRISM was handed    52091886 working-precision words and  4598 shell-pairs
 PRISM was handed    52091886 working-precision words and  4598 shell-pairs
 PRISM was handed    52091886 working-precision words and  4598 shell-pairs
 PRISM was handed    52091886 working-precision words and  4598 shell-pairs
 PRISM was handed    52091886 working-precision words and  4598 shell-pairs
 PRISM was handed    52091886 working-precision words and  4598 shell-pairs
 PRISM was handed    52091886 working-precision words and  4598 shell-pairs
 PRISM was handed    52091886 working-precision words and  4598 shell-pairs
 PRISM was handed    52091886 working-precision words and  4598 shell-pairs
 PRISM was handed    52091886 working-precision words and  4598 shell-pairs
 PRISM was handed    52091886 working-precision words and  4598 shell-pairs
 PRISM was handed    52091886 working-precision words and  4598 shell-pairs
 PRISM was handed    52091886 working-precision words and  4598 shell-pairs
 PRISM was handed    52091886 working-precision words and  4598 shell-pairs
 PRISM was handed    52091886 working-precision words and  4598 shell-pairs
 PRISM was handed    52091886 working-precision words and  4598 shell-pairs
 PRISM was handed    52091886 working-precision words and  4598 shell-pairs
 PRISM was handed    52091886 working-precision words and  4598 shell-pairs
 PRISM was handed    52091886 working-precision words and  4598 shell-pairs
 PRISM was handed    52091886 working-precision words and  4598 shell-pairs
 PRISM was handed    52091886 working-precision words and  4598 shell-pairs
 PRISM was handed    52091886 working-precision words and  4598 shell-pairs
 PRISM was handed    52091886 working-precision words and  4598 shell-pairs
 PRISM was handed    52091886 working-precision words and  4598 shell-pairs
 PRISM was handed    52091886 working-precision words and  4598 shell-pairs
 PRISM was handed    52091886 working-precision words and  4598 shell-pairs
 PRISM was handed    52091886 working-precision words and  4598 shell-pairs
 IPart= 29 NShTot=        1368 NBatch=         114 AvBLen=        12.0
 IPart= 27 NShTot=        1380 NBatch=         115 AvBLen=        12.0
 IPart=  8 NShTot=        1668 NBatch=         139 AvBLen=        12.0
 IPart=  7 NShTot=        1668 NBatch=         139 AvBLen=        12.0
 IPart= 30 NShTot=        1356 NBatch=         113 AvBLen=        12.0
 IPart= 14 NShTot=        1548 NBatch=         129 AvBLen=        12.0
 IPart=  9 NShTot=        1632 NBatch=         136 AvBLen=        12.0
 IPart= 16 NShTot=        1512 NBatch=         126 AvBLen=        12.0
 IPart= 19 NShTot=        1476 NBatch=         123 AvBLen=        12.0
 IPart= 31 NShTot=        1356 NBatch=         113 AvBLen=        12.0
 IPart= 18 NShTot=        1476 NBatch=         123 AvBLen=        12.0
 IPart= 25 NShTot=        1404 NBatch=         117 AvBLen=        12.0
 IPart= 34 NShTot=        1332 NBatch=         111 AvBLen=        12.0
 IPart=  5 NShTot=        1740 NBatch=         145 AvBLen=        12.0
 IPart= 32 NShTot=        1332 NBatch=         111 AvBLen=        12.0
 IPart=  0 NShTot=        1920 NBatch=         160 AvBLen=        12.0
 IPart=  3 NShTot=        1800 NBatch=         150 AvBLen=        12.0
 IPart=  6 NShTot=        1716 NBatch=         143 AvBLen=        12.0
 IPart= 11 NShTot=        1608 NBatch=         134 AvBLen=        12.0
 IPart= 23 NShTot=        1428 NBatch=         119 AvBLen=        12.0
 IPart=  4 NShTot=        1764 NBatch=         147 AvBLen=        12.0
 IPart= 28 NShTot=        1368 NBatch=         114 AvBLen=        12.0
 IPart= 17 NShTot=        1488 NBatch=         124 AvBLen=        12.0
 IPart=  2 NShTot=        1836 NBatch=         153 AvBLen=        12.0
 IPart= 12 NShTot=        1608 NBatch=         134 AvBLen=        12.0
 IPart= 21 NShTot=        1440 NBatch=         120 AvBLen=        12.0
 IPart= 33 NShTot=        1332 NBatch=         111 AvBLen=        12.0
 IPart= 35 NShTot=        1332 NBatch=         111 AvBLen=        12.0
 IPart= 20 NShTot=        1452 NBatch=         121 AvBLen=        12.0
 IPart= 22 NShTot=        1428 NBatch=         119 AvBLen=        12.0
 IPart= 10 NShTot=        1620 NBatch=         135 AvBLen=        12.0
 IPart=  1 NShTot=        1872 NBatch=         156 AvBLen=        12.0
 IPart= 26 NShTot=        1392 NBatch=         116 AvBLen=        12.0
 IPart= 24 NShTot=        1416 NBatch=         118 AvBLen=        12.0
 IPart= 15 NShTot=        1524 NBatch=         127 AvBLen=        12.0
 IPart= 13 NShTot=        1584 NBatch=         132 AvBLen=        12.0
 PrSmSu:  NxtVal=            541.
   1 Symmetry operations used in ECPInt.
 ECPInt:  NShTT=    4753 NPrTT=   14704 LenC2=    4702 LenP2D=   12042.
 LDataN:  DoStor=F MaxTD1= 8 Len=  415
 LDataN:  DoStor=T MaxTD1= 8 Len=  415
 ECPSu:  NPrtUS=  36 ThrOK=T ISkipM=0 DoSpLW=F IThBeg=    0 IThEnd=   35.
 Polarizability after L701:
                1             2             3 
      1  0.990944D+02
      2 -0.409642D-04  0.777502D+02
      3 -0.141886D-05  0.000000D+00  0.410951D+02
 Dipole Derivatives after L701:
                 1             2             3             4             5 
      1   0.232382D+00  0.000000D+00  0.000000D+00 -0.522200D+00 -0.180056D-05
      2  -0.189273D-05 -0.329683D+00  0.000000D+00 -0.358566D-05  0.190235D+00
      3   0.000000D+00  0.000000D+00 -0.260811D+00  0.000000D+00  0.000000D+00
                 6             7             8             9            10 
      1   0.000000D+00  0.176725D+00 -0.236433D-01  0.000000D+00  0.404348D-01
      2   0.000000D+00  0.520418D-01  0.149702D-01  0.000000D+00 -0.506332D-01
      3   0.140851D+00  0.000000D+00  0.000000D+00 -0.974132D-01  0.000000D+00
                11            12            13            14            15 
      1  -0.283371D-01  0.000000D+00 -0.140286D+00 -0.157146D+00  0.000000D+00
      2  -0.549375D-02  0.000000D+00 -0.140448D+00  0.511779D-01  0.000000D+00
      3   0.000000D+00  0.141768D+00  0.000000D+00  0.000000D+00 -0.133731D+00
                16            17            18            19            20 
      1   0.136635D+00  0.000000D+00  0.000000D+00 -0.140275D+00  0.157146D+00
      2  -0.439999D-05  0.215493D-01  0.000000D+00  0.140446D+00  0.511737D-01
      3   0.000000D+00  0.000000D+00 -0.109654D+00  0.000000D+00  0.000000D+00
                21            22            23            24            25 
      1   0.000000D+00  0.176727D+00  0.236362D-01  0.000000D+00  0.341049D-01
      2   0.000000D+00 -0.520443D-01  0.149726D-01  0.000000D+00  0.603793D-01
      3  -0.133728D+00  0.000000D+00  0.000000D+00 -0.974143D-01  0.000000D+00
                26            27            28            29            30 
      1   0.669899D-01  0.000000D+00 -0.687930D-01  0.938602D-05  0.000000D+00
      2  -0.366271D-01  0.000000D+00  0.201811D-05  0.698509D-01  0.000000D+00
      3   0.000000D+00  0.134954D+00  0.000000D+00  0.000000D+00  0.138455D+00
                31            32            33            34            35 
      1   0.341127D-01 -0.669927D-01  0.000000D+00  0.404326D-01  0.283384D-01
      2  -0.603696D-01 -0.366246D-01  0.000000D+00  0.506354D-01 -0.550069D-02
      3   0.000000D+00  0.000000D+00  0.134955D+00  0.000000D+00  0.000000D+00
                36 
      1   0.000000D+00
      2   0.000000D+00
      3   0.141767D+00
 Hessian after L701:
                1             2             3             4             5 
      1 -0.113538D+01
      2  0.391076D-04  0.987096D+01
      3 -0.158070D-05  0.000000D+00  0.119897D+02
      4 -0.108266D+01  0.434732D-05 -0.220878D-05  0.109109D+02
      5  0.981401D-05 -0.966541D+01  0.000000D+00 -0.185972D-03  0.146477D+02
      6 -0.280115D-05  0.000000D+00 -0.113216D+02 -0.525621D-05  0.720017D-05
      7  0.587649D+00 -0.307076D+00  0.251668D-05 -0.553027D+01 -0.294222D+01
      8 -0.249075D+00  0.133134D-01  0.000000D+00 -0.329680D+01 -0.214070D+01
      9  0.330465D-05  0.000000D+00 -0.555779D-01  0.697579D-05 -0.834405D-05
     10  0.203701D-01 -0.579139D-01  0.000000D+00  0.172112D+00  0.230864D-01
     11 -0.155230D+00  0.642607D-01  0.000000D+00 -0.163558D-01 -0.206413D+00
     12  0.000000D+00  0.000000D+00 -0.591703D-01  0.000000D+00  0.000000D+00
     13  0.356630D+00 -0.153104D+00  0.000000D+00  0.281874D+00 -0.527373D+00
     14 -0.162592D+00 -0.139184D+00  0.000000D+00 -0.526029D+00 -0.153408D+00
     15 -0.102036D-05  0.000000D+00 -0.162026D+00 -0.156657D-05  0.000000D+00
     16  0.191753D+00 -0.481277D-05  0.000000D+00  0.138330D+00  0.105674D-05
     17 -0.556989D-05 -0.906314D-01  0.000000D+00 -0.355085D-05 -0.765344D-01
     18  0.000000D+00  0.000000D+00 -0.853048D-01  0.135831D-05  0.000000D+00
     19  0.356620D+00  0.153102D+00  0.000000D+00  0.281900D+00  0.527366D+00
     20  0.162589D+00 -0.139178D+00  0.000000D+00  0.526023D+00 -0.153441D+00
     21  0.000000D+00  0.000000D+00 -0.162021D+00 -0.390489D-05 -0.209573D-05
     22  0.587662D+00  0.307040D+00  0.199386D-05 -0.553018D+01  0.294241D+01
     23  0.249036D+00  0.132916D-01  0.000000D+00  0.329699D+01 -0.214094D+01
     24  0.219488D-05  0.000000D+00 -0.555720D-01  0.454278D-05  0.238626D-05
     25  0.271284D-01 -0.150950D-01  0.000000D+00  0.862359D-01 -0.100511D+00
     26 -0.384169D-01  0.726588D-02  0.000000D+00 -0.126237D+00  0.512645D-01
     27  0.000000D+00  0.000000D+00 -0.107411D-01  0.000000D+00  0.000000D+00
     28  0.427239D-01  0.000000D+00  0.000000D+00  0.134319D-01  0.000000D+00
     29 -0.190876D-05 -0.620690D-02  0.000000D+00 -0.152407D-05 -0.700319D-02
     30  0.000000D+00  0.000000D+00 -0.777925D-02  0.000000D+00  0.000000D+00
     31  0.271268D-01  0.150941D-01  0.000000D+00  0.862378D-01  0.100512D+00
     32  0.384184D-01  0.726608D-02  0.000000D+00  0.126242D+00  0.512661D-01
     33  0.000000D+00  0.000000D+00 -0.107411D-01  0.000000D+00  0.000000D+00
     34  0.203756D-01  0.579138D-01  0.000000D+00  0.172114D+00 -0.230929D-01
     35  0.155229D+00  0.642520D-01  0.000000D+00  0.163529D-01 -0.206413D+00
     36  0.000000D+00  0.000000D+00 -0.591698D-01  0.000000D+00  0.000000D+00
                6             7             8             9            10 
      6  0.287109D+02
      7  0.644516D-05  0.906190D+01
      8 -0.924836D-05  0.126378D+01  0.112950D+02
      9 -0.841890D+01 -0.392394D-05  0.248209D-05  0.234460D+02
     10  0.000000D+00 -0.351848D+01  0.128021D+01  0.176853D-05  0.340799D+01
     11  0.000000D+00  0.137751D+01 -0.203079D+01  0.314623D-05 -0.132886D+01
     12  0.148905D+00  0.144307D-05  0.242044D-05 -0.420215D+01 -0.157357D-05
     13 -0.163732D-05 -0.330233D+00  0.381243D+00 -0.885517D-05 -0.756256D-01
     14  0.000000D+00  0.719299D-01 -0.789035D+01  0.000000D+00 -0.119362D+00
     15 -0.425093D+00 -0.782793D-05  0.000000D+00 -0.998634D+01  0.000000D+00
     16  0.248095D-05  0.406601D+00  0.501981D+00  0.132128D-05  0.900833D-01
     17  0.000000D+00  0.477768D+00 -0.149879D+00  0.000000D+00  0.123336D+00
     18  0.774913D-01  0.118446D-05  0.000000D+00 -0.326317D+00  0.000000D+00
     19 -0.426705D-05 -0.220363D-01 -0.158135D-01  0.000000D+00 -0.348295D-02
     20 -0.240002D-05  0.191387D-01  0.476081D-01  0.000000D+00 -0.669897D-02
     21 -0.425104D+00  0.000000D+00  0.139924D-05  0.196679D+00  0.000000D+00
     22  0.496903D-05 -0.702712D+00  0.273870D-01  0.000000D+00 -0.582588D-01
     23  0.380237D-05 -0.273374D-01  0.549515D+00  0.236302D-05  0.796557D-01
     24 -0.841913D+01  0.000000D+00  0.365633D-05 -0.620920D+00  0.000000D+00
     25  0.000000D+00 -0.745301D-01  0.867677D-01  0.000000D+00 -0.440190D-01
     26  0.000000D+00  0.499792D-01  0.776415D-01  0.000000D+00 -0.813430D-02
     27 -0.342378D-01  0.000000D+00  0.000000D+00  0.810326D-01  0.000000D+00
     28  0.000000D+00  0.180995D+00  0.856613D-01  0.000000D+00  0.922413D-02
     29  0.000000D+00  0.612397D-01 -0.298166D-01  0.000000D+00  0.661872D-03
     30 -0.786049D-02  0.000000D+00  0.000000D+00 -0.424937D-01  0.000000D+00
     31  0.000000D+00 -0.612293D-03  0.143041D-01  0.000000D+00  0.332009D-02
     32  0.000000D+00  0.149812D-01  0.142437D-01  0.000000D+00  0.736522D-02
     33 -0.342395D-01  0.000000D+00  0.000000D+00 -0.997009D-02  0.000000D+00
     34  0.000000D+00 -0.582646D-01 -0.796510D-01  0.000000D+00 -0.322608D-02
     35  0.000000D+00 -0.596927D-01  0.244212D+00  0.000000D+00  0.664912D-02
     36  0.148908D+00  0.000000D+00  0.000000D+00 -0.610241D-01  0.000000D+00
               11            12            13            14            15 
     11  0.174826D+01
     12 -0.216192D-05  0.409743D+01
     13 -0.106636D+00  0.000000D+00  0.964837D+01
     14  0.908181D-01  0.000000D+00 -0.116365D+01  0.115697D+02
     15  0.000000D+00  0.121111D+00  0.139098D-04  0.434674D-05  0.237891D+02
     16  0.153905D+00  0.000000D+00 -0.596271D+01  0.316806D+01 -0.260638D-05
     17  0.704236D-01  0.000000D+00  0.284739D+01 -0.239016D+01 -0.222865D-05
     18  0.000000D+00 -0.451077D-01 -0.257508D-05 -0.295883D-05 -0.923189D+01
     19 -0.669238D-02  0.000000D+00 -0.417189D+00  0.127656D-01  0.000000D+00
     20 -0.145823D-01  0.000000D+00 -0.127169D-01  0.646653D+00 -0.302702D-05
     21  0.000000D+00 -0.137896D-02  0.000000D+00 -0.290855D-05 -0.364568D+00
     22  0.596997D-01  0.000000D+00 -0.220409D-01 -0.191363D-01  0.000000D+00
     23  0.244202D+00  0.000000D+00  0.158025D-01  0.476105D-01  0.000000D+00
     24  0.000000D+00 -0.610222D-01  0.000000D+00 -0.130699D-05  0.196675D+00
     25  0.726733D-02  0.000000D+00 -0.338692D+01 -0.122142D+01  0.000000D+00
     26  0.342170D-02  0.000000D+00 -0.119437D+01 -0.199466D+01  0.158400D-05
     27  0.000000D+00  0.682860D-02  0.000000D+00  0.143930D-05 -0.400144D+01
     28  0.142100D-01  0.000000D+00 -0.514948D-01 -0.112521D+00  0.000000D+00
     29  0.113978D-02  0.000000D+00 -0.133549D+00  0.467094D-01  0.000000D+00
     30  0.000000D+00 -0.170928D-02  0.000000D+00  0.000000D+00  0.104907D+00
     31  0.783046D-02  0.000000D+00 -0.371735D-01  0.652592D-01  0.000000D+00
     32  0.124837D-01  0.000000D+00  0.402609D-01  0.180829D+00  0.000000D+00
     33  0.000000D+00 -0.226665D-02  0.000000D+00  0.000000D+00 -0.391052D-01
     34 -0.664878D-02  0.000000D+00 -0.348198D-02  0.669923D-02  0.000000D+00
     35  0.167780D-01  0.000000D+00  0.669226D-02 -0.145842D-01  0.000000D+00
     36  0.000000D+00 -0.146545D-02  0.000000D+00  0.000000D+00 -0.137867D-02
               16            17            18            19            20 
     16  0.116315D+02
     17  0.928985D-04  0.940312D+01
     18  0.305229D-05 -0.615451D-05  0.230034D+02
     19 -0.596302D+01 -0.284736D+01 -0.319337D-05  0.964876D+01
     20 -0.316805D+01 -0.238998D+01  0.755693D-05  0.116367D+01  0.115693D+02
     21 -0.447894D-05  0.721400D-05 -0.923218D+01  0.585921D-05 -0.238505D-05
     22  0.406600D+00 -0.477751D+00 -0.100917D-05 -0.330256D+00 -0.719751D-01
     23 -0.501963D+00 -0.149873D+00  0.000000D+00 -0.381273D+00 -0.789021D+01
     24  0.000000D+00  0.000000D+00 -0.326295D+00  0.265071D-05  0.000000D+00
     25  0.124193D+00 -0.352036D-01  0.000000D+00 -0.371759D-01 -0.652596D-01
     26 -0.142727D-01 -0.112296D+00  0.000000D+00 -0.402567D-01  0.180831D+00
     27  0.000000D+00  0.000000D+00  0.100380D+00  0.000000D+00  0.000000D+00
     28 -0.127764D+01 -0.134738D-03  0.000000D+00 -0.514750D-01  0.112525D+00
     29 -0.119932D-03 -0.407234D+01  0.000000D+00  0.133546D+00  0.466965D-01
     30  0.000000D+00  0.000000D+00 -0.398943D+01  0.000000D+00  0.000000D+00
     31  0.124189D+00  0.352021D-01  0.000000D+00 -0.338702D+01  0.122138D+01
     32  0.142790D-01 -0.112281D+00  0.000000D+00  0.119430D+01 -0.199453D+01
     33  0.000000D+00  0.000000D+00  0.100374D+00  0.000000D+00 -0.101897D-05
     34  0.900802D-01 -0.123338D+00  0.000000D+00 -0.756272D-01  0.119370D+00
     35 -0.153907D+00  0.704277D-01  0.000000D+00  0.106646D+00  0.908132D-01
     36  0.000000D+00  0.000000D+00 -0.451099D-01  0.000000D+00  0.000000D+00
               21            22            23            24            25 
     21  0.237892D+02
     22  0.313192D-05  0.906186D+01
     23  0.000000D+00 -0.126396D+01  0.112951D+02
     24 -0.998607D+01 -0.970199D-05 -0.573450D-05  0.234459D+02
     25  0.000000D+00 -0.612359D-03 -0.143083D-01  0.000000D+00  0.331350D+01
     26  0.000000D+00 -0.149811D-01  0.142468D-01  0.000000D+00  0.139843D+01
     27 -0.391069D-01  0.000000D+00  0.000000D+00 -0.997107D-02  0.110972D-05
     28  0.000000D+00  0.180988D+00 -0.856673D-01  0.000000D+00 -0.824474D-02
     29  0.000000D+00 -0.612498D-01 -0.298104D-01  0.000000D+00 -0.262939D-01
     30  0.104903D+00  0.000000D+00  0.000000D+00 -0.424930D-01  0.000000D+00
     31  0.000000D+00 -0.745373D-01 -0.867821D-01  0.000000D+00 -0.287669D-02
     32 -0.131635D-05 -0.499881D-01  0.776370D-01  0.000000D+00 -0.653841D-02
     33 -0.400144D+01  0.000000D+00  0.000000D+00  0.810375D-01  0.000000D+00
     34  0.000000D+00 -0.351851D+01 -0.128019D+01  0.000000D+00  0.332022D-02
     35  0.000000D+00 -0.137749D+01 -0.203076D+01 -0.100992D-05 -0.783100D-02
     36  0.121114D+00  0.000000D+00  0.000000D+00 -0.420215D+01  0.000000D+00
               26            27            28            29            30 
     26  0.177790D+01
     27 -0.149094D-05  0.390420D+01
     28 -0.109174D-01  0.000000D+00  0.960513D+00
     29 -0.299001D-01  0.000000D+00  0.141168D-03  0.410929D+01
     30  0.000000D+00  0.671044D-02  0.000000D+00  0.000000D+00  0.387025D+01
     31  0.653764D-02  0.000000D+00 -0.824245D-02  0.262905D-01  0.000000D+00
     32  0.117994D-01  0.000000D+00  0.109135D-01 -0.298962D-01  0.000000D+00
     33  0.000000D+00 -0.138101D-02  0.000000D+00  0.000000D+00  0.670879D-02
     34 -0.736489D-02  0.000000D+00  0.922387D-02 -0.662774D-03  0.000000D+00
     35  0.124834D-01  0.000000D+00 -0.142100D-01  0.114109D-02  0.000000D+00
     36  0.000000D+00 -0.226658D-02  0.000000D+00  0.000000D+00 -0.170923D-02
               31            32            33            34            35 
     31  0.331361D+01
     32 -0.139837D+01  0.177776D+01
     33  0.000000D+00  0.000000D+00  0.390419D+01
     34 -0.440209D-01  0.813506D-02  0.000000D+00  0.340802D+01
     35 -0.726650D-02  0.342162D-02  0.000000D+00  0.132883D+01  0.174823D+01
     36  0.000000D+00  0.000000D+00  0.682934D-02  0.000000D+00  0.000000D+00
               36 
     36  0.409742D+01
 Leave Link  701 at Mon Mar  2 00:50:01 2020, MaxMem=  1879048192 cpu:              42.4 elap:               1.2
 (Enter /opt/g16/l702.exe)
 L702 exits ... SP integral derivatives will be done elsewhere.
 Leave Link  702 at Mon Mar  2 00:50:01 2020, MaxMem=  1879048192 cpu:               2.4 elap:               0.1
 (Enter /opt/g16/l703.exe)
 Integral derivatives from FoFJK, PRISM(SPDF).
 Compute integral second derivatives, UseDBF=F ICtDFT=           0.
 ICntrl=    100127.
 Calling FoFJK, ICntrl=    100127 FMM=F ISym2X=0 I1Cent= 0 IOpClX= 1 NMat=1 NMatS=1 NMatT=0.
 FoFJK:  IHMeth= 1 ICntrl=  100127 DoSepK=T KAlg= 0 I1Cent=           0 FoldK=F
 IRaf=         1 NMat=       1 IRICut=       1 DoRegI=T DoRafI=F ISym2E= 0 IDoP0=0 IntGTp=1.
 FoFCou: FMM=F IPFlag=           0 FMFlag=      100000 FMFlg1=         800
         NFxFlg=           0 DoJE=F BraDBF=F KetDBF=F FulRan=T
         wScrn=  0.000000 ICntrl=    100527 IOpCl=  0 I1Cent=           0 NGrid=           0
         NMat0=    1 NMatS0=      1 NMatT0=    0 NMatD0=    1 NMtDS0=    0 NMtDT0=    0
 Symmetry not used in FoFCou.
 FoFCou:  KetSym=F NOpSet=  1 NOpAb=1 NOp=  1.
 FoFCou:  CnvScl= 1.00D+00 Thresh= 1.00D-12 IAcrcy=      10.
 PrismS was handed  1878566485 working-precision words and  4684 shell-pairs
 FoFCou: LinMIO=F DoNuc=F BraDBF=F KetDBF=F HaveP=T PDBF=F HaveZ=T HaveW=F
         NIJTC =      10 NIJTAt=       0 NIJTCD=       0 NIJTT =      10
         IJTBeg=       1 IJTEnd=      10 KLTBeg=       1 KLTEnd=      10
         IPTBeg=       1 IPTEnd=      10 IPTBCv=       1 IPTECv=      10
         IZTBeg=       1 IZTEnd=      10 IZTBCv=       1 IZTECv=      10
         IWTBeg=      11 IWTEnd=      10 IWTBCv=      11 IWTECv=      10
         INTBeg=       1 INTEnd=       0 IFTBCv=       1 IFTECv=      10
 NCel replicated for PrismC:     1
 CoulSu-InSpLW:  IPartL=    0 NPrtUS=   36 NPrtUL=    1 DoSpLW=F IThBeg=    0 IThEnd=   35 NThAct=   36.
 CoulSu:  IncTry=  1024 NBBP=       10972270 NTPThr=   100 NPartT=   36 Incr=        1024 LDynOK=F GPUOK=F.
 CoulSu:  NPrtUS=  36 ThrOK=T IAlg=2 LenDen=           0 LWGrdD=           0 DoCopy=F ISkipM=0
          DoSpLW=F IThBeg=    0 IThEnd=   35.
 Enter PrismC:  IPart=  0 JobTyp=22 DoJE=F Cont=F.
 PrismC:  IPart=     0 DynPar=T LinDyn=F Incr=        1024 UseFst=F UseS4=T ISplat=2.
 PrismC was handed    52087718 working-precision words and  4684 shell-pairs
 Enter PrismC:  IPart=  4 JobTyp=22 DoJE=F Cont=F.
 PrismC:  IPart=     4 DynPar=T LinDyn=F Incr=        1024 UseFst=F UseS4=T ISplat=2.
 PrismC was handed    52087718 working-precision words and  4684 shell-pairs
 Enter PrismC:  IPart= 20 JobTyp=22 DoJE=F Cont=F.
 Enter PrismC:  IPart= 16 JobTyp=22 DoJE=F Cont=F.
 Enter PrismC:  IPart=  6 JobTyp=22 DoJE=F Cont=F.
 PrismC:  IPart=    16 DynPar=T LinDyn=F Incr=        1024 UseFst=F UseS4=T ISplat=2.
 PrismC:  IPart=    20 DynPar=T LinDyn=F Incr=        1024 UseFst=F UseS4=T ISplat=2.
 PrismC was handed    52087718 working-precision words and  4684 shell-pairs
 PrismC:  IPart=     6 DynPar=T LinDyn=F Incr=        1024 UseFst=F UseS4=T ISplat=2.
 PrismC was handed    52087718 working-precision words and  4684 shell-pairs
 PrismC was handed    52087718 working-precision words and  4684 shell-pairs
 Enter PrismC:  IPart= 19 JobTyp=22 DoJE=F Cont=F.
 Enter PrismC:  IPart=  9 JobTyp=22 DoJE=F Cont=F.
 Enter PrismC:  IPart=  2 JobTyp=22 DoJE=F Cont=F.
 PrismC:  IPart=    19 DynPar=T LinDyn=F Incr=        1024 UseFst=F UseS4=T ISplat=2.
 PrismC was handed    52087718 working-precision words and  4684 shell-pairs
 PrismC:  IPart=     9 DynPar=T LinDyn=F Incr=        1024 UseFst=F UseS4=T ISplat=2.
 PrismC was handed    52087718 working-precision words and  4684 shell-pairs
 PrismC:  IPart=     2 DynPar=T LinDyn=F Incr=        1024 UseFst=F UseS4=T ISplat=2.
 PrismC was handed    52087718 working-precision words and  4684 shell-pairs
 Enter PrismC:  IPart= 15 JobTyp=22 DoJE=F Cont=F.
 PrismC:  IPart=    15 DynPar=T LinDyn=F Incr=        1024 UseFst=F UseS4=T ISplat=2.
 PrismC was handed    52087718 working-precision words and  4684 shell-pairs
 Enter PrismC:  IPart= 12 JobTyp=22 DoJE=F Cont=F.
 PrismC:  IPart=    12 DynPar=T LinDyn=F Incr=        1024 UseFst=F UseS4=T ISplat=2.
 PrismC was handed    52087718 working-precision words and  4684 shell-pairs
 Enter PrismC:  IPart= 21 JobTyp=22 DoJE=F Cont=F.
 Enter PrismC:  IPart= 14 JobTyp=22 DoJE=F Cont=F.
 Enter PrismC:  IPart= 11 JobTyp=22 DoJE=F Cont=F.
 PrismC:  IPart=    11 DynPar=T LinDyn=F Incr=        1024 UseFst=F UseS4=T ISplat=2.
 PrismC was handed    52087718 working-precision words and  4684 shell-pairs
 PrismC:  IPart=    21 DynPar=T LinDyn=F Incr=        1024 UseFst=F UseS4=T ISplat=2.
 PrismC:  IPart=    14 DynPar=T LinDyn=F Incr=        1024 UseFst=F UseS4=T ISplat=2.
 PrismC was handed    52087718 working-precision words and  4684 shell-pairs
 PrismC was handed    52087718 working-precision words and  4684 shell-pairs
 Enter PrismC:  IPart= 23 JobTyp=22 DoJE=F Cont=F.
 Enter PrismC:  IPart= 18 JobTyp=22 DoJE=F Cont=F.
 PrismC:  IPart=    23 DynPar=T LinDyn=F Incr=        1024 UseFst=F UseS4=T ISplat=2.
 PrismC was handed    52087718 working-precision words and  4684 shell-pairs
 PrismC:  IPart=    18 DynPar=T LinDyn=F Incr=        1024 UseFst=F UseS4=T ISplat=2.
 PrismC was handed    52087718 working-precision words and  4684 shell-pairs
 Enter PrismC:  IPart= 13 JobTyp=22 DoJE=F Cont=F.
 Enter PrismC:  IPart= 17 JobTyp=22 DoJE=F Cont=F.
 Enter PrismC:  IPart=  7 JobTyp=22 DoJE=F Cont=F.
 PrismC:  IPart=     7 DynPar=T LinDyn=F Incr=        1024 UseFst=F UseS4=T ISplat=2.
 PrismC was handed    52087718 working-precision words and  4684 shell-pairs
 PrismC:  IPart=    13 DynPar=T LinDyn=F Incr=        1024 UseFst=F UseS4=T ISplat=2.
 PrismC was handed    52087718 working-precision words and  4684 shell-pairs
 PrismC:  IPart=    17 DynPar=T LinDyn=F Incr=        1024 UseFst=F UseS4=T ISplat=2.
 PrismC was handed    52087718 working-precision words and  4684 shell-pairs
 Enter PrismC:  IPart= 10 JobTyp=22 DoJE=F Cont=F.
 PrismC:  IPart=    10 DynPar=T LinDyn=F Incr=        1024 UseFst=F UseS4=T ISplat=2.
 PrismC was handed    52087718 working-precision words and  4684 shell-pairs
 Enter PrismC:  IPart= 22 JobTyp=22 DoJE=F Cont=F.
 Enter PrismC:  IPart= 35 JobTyp=22 DoJE=F Cont=F.
 PrismC:  IPart=    22 DynPar=T LinDyn=F Incr=        1024 UseFst=F UseS4=T ISplat=2.
 Enter PrismC:  IPart=  5 JobTyp=22 DoJE=F Cont=F.
 PrismC was handed    52087718 working-precision words and  4684 shell-pairs
 PrismC:  IPart=    35 DynPar=T LinDyn=F Incr=        1024 UseFst=F UseS4=T ISplat=2.
 PrismC was handed    52087718 working-precision words and  4684 shell-pairs
 PrismC:  IPart=     5 DynPar=T LinDyn=F Incr=        1024 UseFst=F UseS4=T ISplat=2.
[...]
     33  0.754429D-04  0.177540D-04  0.302997D-03 -0.432861D-04 -0.347901D-02
     34  0.878902D-04  0.719923D-04 -0.756626D-03  0.116592D-02 -0.479940D-04
     35  0.268775D-04  0.313221D-05 -0.362005D-03  0.281182D-03 -0.268189D-04
     36  0.428378D-05 -0.970010D-03 -0.449003D-04  0.829345D-04 -0.124734D-03
               31            32            33            34            35 
     31  0.942706D-01
     32  0.971692D-01  0.327733D+00
     33  0.467722D-02  0.636947D-02  0.267399D-01
     34  0.827425D-03 -0.279081D-03  0.395861D-03  0.188996D+00
     35  0.389318D-03  0.767836D-03  0.169396D-04 -0.152069D+00  0.233500D+00
     36  0.394504D-03 -0.310747D-04 -0.464721D-02  0.121598D-01 -0.113478D-01
               36 
     36  0.249002D-01
 Final forces over variables, Energy=-2.86301822D+02:
 -8.16230501D-06 1.04448180D-05-4.69273753D-06-7.11634534D-07
 -1.75078895D-06-1.10932848D-06 8.32755378D-06-4.36483026D-06
  3.33069412D-06 1.39176891D-06-3.93367622D-07-2.30984221D-06
 -2.98055910D-06 6.65145212D-06-7.15804798D-07-2.17944257D-06
 -6.88928038D-06 5.74244630D-06 3.88659771D-06-6.68089922D-06
  1.09985661D-06-1.86355048D-06 2.02894444D-06 1.90023927D-06
 -5.58918404D-07 5.63705952D-07-1.28475373D-07-1.01294292D-07
 -1.27548135D-07-1.78677404D-07 6.38291893D-07-2.14609910D-07
  2.14661758D-07 1.37655629D-07-6.32141581D-08-1.81577542D-07
 Leave Link  716 at Mon Mar  2 00:52:08 2020, MaxMem=  1879048192 cpu:               9.9 elap:               0.3
 (Enter /opt/g16/l103.exe)

 GradGradGradGradGradGradGradGradGradGradGradGradGradGradGradGradGradGrad
 Berny optimization.
 Search for a local minimum.
 Step number   1 out of a maximum of    2
 All quantities printed in internal units (Hartrees-Bohrs-Radians)
 Second derivative matrix not updated -- analytic derivatives used.
 ITU=  0
     Eigenvalues ---    0.00890   0.01441   0.02625   0.02797   0.04059
     Eigenvalues ---    0.05093   0.05369   0.06125   0.06201   0.07219
     Eigenvalues ---    0.08578   0.10010   0.10059   0.17600   0.19149
     Eigenvalues ---    0.19280   0.20251   0.21542   0.28408   0.39660
     Eigenvalues ---    0.44293   0.65930   0.72457   0.75936   0.78756
     Eigenvalues ---    0.98690   1.07144   1.09507   1.21048   1.25927
 Angle between quadratic step and forces=  57.08 degrees.
 Linear search not attempted -- first point.
 B after Tr=    -0.000000    0.000000    0.000000
         Rot=    1.000000    0.000000   -0.000000   -0.000000 Ang=  -0.00 deg.
 Variable       Old X    -DE/DX   Delta X   Delta X   Delta X     New X
                                 (Linear)    (Quad)   (Total)
    X1        4.32842  -0.00001   0.00000  -0.00001  -0.00001   4.32841
    Y1        0.78816  -0.00000   0.00000  -0.00001  -0.00001   0.78815
    Z1        0.30932  -0.00000   0.00000  -0.00000  -0.00000   0.30932
    X2        1.88363   0.00001   0.00000   0.00002   0.00002   1.88365
    Y2        0.33744   0.00001   0.00000   0.00001   0.00001   0.33745
    Z2        0.13462   0.00000   0.00000   0.00000   0.00000   0.13462
    X3        0.11740  -0.00000   0.00000  -0.00001  -0.00001   0.11738
    Y3        2.36691  -0.00000   0.00000  -0.00001  -0.00001   2.36690
    Z3        0.00364  -0.00000   0.00000   0.00000   0.00000   0.00364
    X4        0.82559  -0.00000   0.00000  -0.00003  -0.00003   0.82556
    Y4        4.28396  -0.00000   0.00000  -0.00001  -0.00001   4.28395
    Z4        0.05063  -0.00000   0.00000  -0.00000  -0.00000   0.05063
    X5       -2.42520  -0.00000   0.00000  -0.00001  -0.00001  -2.42521
    Y5        1.86660  -0.00001   0.00000  -0.00001  -0.00001   1.86659
    Z5       -0.17799  -0.00000   0.00000  -0.00000  -0.00000  -0.17799
    X6       -3.30208  -0.00000   0.00000  -0.00001  -0.00001  -3.30209
    Y6       -0.61856   0.00001   0.00000   0.00001   0.00001  -0.61856
    Z6       -0.23594  -0.00000   0.00000  -0.00000  -0.00000  -0.23594
    X7       -1.60142   0.00001   0.00000   0.00002   0.00002  -1.60140
    Y7       -2.62854   0.00000   0.00000   0.00002   0.00002  -2.62852
    Z7       -0.10971   0.00000   0.00000   0.00000   0.00000  -0.10971
    X8        0.95238  -0.00000   0.00000   0.00000   0.00000   0.95238
    Y8       -2.18929  -0.00001   0.00000  -0.00000  -0.00000  -2.18930
    Z8        0.07285  -0.00000   0.00000   0.00000   0.00000   0.07285
    X9       -3.75706   0.00000   0.00000   0.00004   0.00004  -3.75702
    Y9        3.41632   0.00000   0.00000   0.00003   0.00003   3.41635
    Z9       -0.27680   0.00000   0.00000   0.00000   0.00000  -0.27679
   X10       -5.30814   0.00000   0.00000   0.00001   0.00001  -5.30813
   Y10       -0.98833  -0.00000   0.00000  -0.00005  -0.00005  -0.98838
   Z10       -0.37929   0.00000   0.00000  -0.00000   0.00000  -0.37929
   X11       -2.29668  -0.00000   0.00000   0.00000   0.00000  -2.29668
   Y11       -4.55202   0.00000   0.00000   0.00003   0.00003  -4.55198
   Z11       -0.15576  -0.00000   0.00000  -0.00000  -0.00000  -0.15576
   X12        2.29399  -0.00000   0.00000  -0.00002  -0.00002   2.29397
   Y12       -3.72846   0.00000   0.00000  -0.00001  -0.00001  -3.72846
   Z12        0.17233  -0.00000   0.00000  -0.00000  -0.00000   0.17233
         Item               Value     Threshold  Converged?
 Maximum Force            0.000010     0.000450     YES
 RMS     Force            0.000004     0.000300     YES
 Maximum Displacement     0.000047     0.001800     YES
 RMS     Displacement     0.000016     0.001200     YES
 Predicted change in Energy=-6.123942D-10
 Optimization completed.
    -- Stationary point found.
 GradGradGradGradGradGradGradGradGradGradGradGradGradGradGradGradGradGrad

 Leave Link  103 at Mon Mar  2 00:52:09 2020, MaxMem=  1879048192 cpu:              13.8 elap:               0.4
 (Enter /opt/g16/l9999.exe)

 ----------------------------------------------------------------------

 Electric dipole moment (input orientation):
 (Debye = 10**-18 statcoulomb cm , SI units = C m)
                  (au)            (Debye)         (10**-30 SI)
   Tot        0.119887D+01      0.304721D+01      0.101644D+02
   x         -0.117610D+01     -0.298934D+01     -0.997137D+01
   y         -0.216824D+00     -0.551112D+00     -0.183831D+01
   z         -0.840420D-01     -0.213613D+00     -0.712538D+00

 Dipole polarizability, Alpha (input orientation).
 (esu units = cm**3 , SI units = C**2 m**2 J**-1)
 Alpha(0;0):
               (au)            (10**-24 esu)      (10**-40 SI)
   iso        0.726466D+02      0.107651D+02      0.119778D+02
   aniso      0.508089D+02      0.752910D+01      0.837725D+01
   xx         0.981032D+02      0.145374D+02      0.161750D+02
   yx         0.379227D+01      0.561956D+00      0.625260D+00
   yy         0.784482D+02      0.116248D+02      0.129344D+02
   zx         0.408733D+01      0.605679D+00      0.673909D+00
   zy         0.196751D+00      0.291554D-01      0.324398D-01
   zz         0.413883D+02      0.613311D+01      0.682401D+01

 ----------------------------------------------------------------------

 Dipole orientation:
     7          0.00189565         -0.00947392         -4.41044205
     6          0.00189521         -0.00947600         -1.91832307
     6         -0.45213325          2.26191450         -0.54349483
     1         -0.79653868          3.98490622         -1.58824509
     6         -0.44604774          2.23147197          2.05402797
     6          0.00188818         -0.00944817          3.36777723
     6          0.44982523         -2.25037681          2.05409197
     6          0.45591165         -2.28082341         -0.54344862
     1         -0.79214701          3.96293014          3.08723842
     1          0.00187361         -0.00938081          5.41265929
     1          0.79593198         -3.98186690          3.08724700
     1          0.80032223         -4.00382702         -1.58818306

 Electric dipole moment (dipole orientation):
 (Debye = 10**-18 statcoulomb cm , SI units = C m)
                  (au)            (Debye)         (10**-30 SI)
   Tot        0.119887D+01      0.304721D+01      0.101644D+02
   x          0.000000D+00      0.000000D+00      0.000000D+00
   y          0.000000D+00      0.000000D+00      0.000000D+00
   z          0.119887D+01      0.304721D+01      0.101644D+02

 Dipole polarizability, Alpha (dipole orientation).
 (esu units = cm**3 , SI units = C**2 m**2 J**-1)
 Alpha(0;0):
               (au)            (10**-24 esu)      (10**-40 SI)
   iso        0.726466D+02      0.107651D+02      0.119778D+02
   aniso      0.508089D+02      0.752910D+01      0.837725D+01
   xx         0.425034D+02      0.629836D+01      0.700787D+01
   yx        -0.704545D+01     -0.104403D+01     -0.116164D+01
   yy         0.763419D+02      0.113127D+02      0.125871D+02
   zx        -0.124859D-04     -0.185022D-05     -0.205864D-05
   zy        -0.206567D-04     -0.306101D-05     -0.340583D-05
   zz         0.990944D+02      0.146843D+02      0.163385D+02

 ----------------------------------------------------------------------

 Test job not archived.
 1\1\GINC-NODE08\Freq\UwB97XD\def2TZVP\C6H5N1(3)\ALONGD\02-Mar-2020\0\\
 #P guess=read uwb97xd/def2tzvp freq iop(7/33=1) scf=(tight, direct) in
 tegral=(grid=ultrafine, Acc2E=12) scf=xqc iop(2/9=2000)\\name\\0,3\N,2
 .290501,0.417076,0.163687\C,0.996775,0.178565,0.071239\C,0.062123,1.25
 2516,0.001925\H,0.436883,2.266974,0.026791\C,-1.28336,0.987761,-0.0941
 87\C,-1.747385,-0.32733,-0.124855\C,-0.847437,-1.390965,-0.058056\C,0.
 503978,-1.158525,0.038548\H,-1.988149,1.80784,-0.146474\H,-2.808945,-0
 .523001,-0.200713\H,-1.215351,-2.408824,-0.082422\H,1.213927,-1.973014
 ,0.091195\\Version=ES64L-G16RevB.01\State=3-A\HF=-286.3018218\S2=2.072
 331\S2-1=0.\S2A=2.002436\RMSD=4.296e-09\RMSF=3.807e-06\ZeroPoint=0.091
 906\Thermal=0.0971479\Dipole=-1.1760974,-0.2168241,-0.084042\DipoleDer
 iv=0.2115881,0.0997127,0.0337314,0.0997152,-0.3112978,0.007265,0.03373
 14,0.0072648,-0.2584023,-0.4956471,-0.1264001,-0.0454649,-0.1263983,0.
 1669296,-0.0091323,-0.045465,-0.0091326,0.1376035,0.16504,0.0796977,0.
 0186912,0.0042073,0.0253123,0.0000537,0.0188441,0.0054772,-0.0960707,0
 .053427,-0.0398009,-0.0062651,-0.0175622,-0.0180378,-0.0009378,-0.0063
 102,-0.0025358,0.1413198,-0.0814082,-0.1643286,0.0040912,-0.1809837,-0
 .0080209,-0.013255,0.0041248,-0.0120589,-0.1334101,0.1316321,0.0204338
 ,0.0172906,0.0204381,0.0253124,0.0011947,0.0172913,0.0011947,-0.108414
 ,-0.1866438,0.0964424,-0.0039965,0.1130996,0.0978455,0.0076552,-0.0040
 305,0.0064582,-0.1340304,0.1750877,-0.0222687,0.0196195,0.0532171,0.01
 52101,0.0035946,0.0194667,-0.0018279,-0.0960122,0.0098017,0.0685965,-0
 .0091288,0.0751901,-0.0116567,0.005698,-0.0091421,0.0052244,0.1342867,
 -0.0632264,-0.0246072,-0.0144373,-0.0245999,0.0653181,-0.0016189,-0.01
 44376,-0.0016195,0.1374214,0.0548535,-0.0435365,-0.0056656,-0.0501426,
 -0.0569649,-0.0032131,-0.0056522,-0.0027384,0.1345545,0.0254954,0.0560
 589,-0.0084656,0.0338193,0.01005,0.0026961,-0.0084206,0.0042938,0.1411
 538\Polar=98.1031633,3.7922676,78.4481918,4.0873259,0.1967506,41.38830
 37\Quadrupole=-2.6821821,4.6255756,-1.9433935,-1.3869762,-0.0505048,-0
 .1129266\PG=C01 [X(C6H5N1)]\NImag=0\\0.40182407,0.06547988,0.05888163,
 0.02739960,0.00462185,0.02049787,-0.29080520,-0.04555935,-0.01800417,0
 .55487251,-0.04555824,-0.05211007,-0.00324575,0.00029607,0.55576525,-0
 .01800414,-0.00324582,-0.04016517,0.02929461,-0.00080657,0.14915010,-0
 .08730227,0.01192096,-0.00700399,-0.10551190,0.07762952,-0.00283078,0.
 66951342,0.04086427,0.01391164,0.00292717,0.04291065,-0.22121954,0.003
 39216,0.07333034,0.68950086,-0.00706264,0.00084810,0.00935727,-0.00276
 039,0.00588610,-0.06850375,0.03883895,0.00412785,0.12953704,0.00173734
 ,-0.00047177,0.00031687,0.01005729,0.02011343,0.00043016,-0.09320350,-
 0.09226467,-0.00393391,0.09368157,-0.00246772,0.00060068,-0.00018386,-
 0.00734935,-0.01655345,-0.00048732,-0.09326779,-0.31306155,-0.00613833
 ,0.09918677,0.32938091,0.00032092,-0.00004049,-0.00263749,0.00048577,0
 .00148543,0.00353373,-0.00393190,-0.00606634,-0.03610796,0.00480432,0.
 00650650,0.02433545,0.02044678,0.00671706,0.00118257,-0.06663602,0.039
 43449,-0.00533718,-0.34488214,-0.07509565,-0.02035378,-0.00406078,0.00
 128443,-0.00062511,0.69982021,0.01796770,0.00035384,0.00129763,-0.0020
 7215,0.03552609,-0.00020754,0.00403830,-0.13894555,0.00045116,-0.02981
 345,0.00002141,-0.00213226,-0.05865860,0.69062103,0.00115978,0.0004894
 7,0.00387672,-0.00525315,0.00277397,0.00617018,-0.02051402,-0.00523317
 ,-0.06087414,-0.00056216,0.00010154,0.00456506,0.04085388,-0.00534348,
 0.13567512,-0.01576137,-0.00269149,-0.00108741,0.01945395,0.01309218,0
 .00192067,-0.01426320,-0.03402960,-0.00142829,-0.00557561,-0.00057624,
 -0.00097527,-0.14860807,-0.09115094,-0.00609088,0.73390442,-0.00269204
 ,-0.00166249,-0.00019112,0.01309250,-0.04940831,0.00102504,-0.09666668
 ,0.00514416,-0.00694083,-0.00015522,0.00160737,0.00000183,-0.00359080,
 -0.29001197,0.00020542,0.02001900,0.63181886,-0.00108739,-0.00019107,-
 0.00062500,0.00192066,0.00102500,-0.00751765,-0.00130141,-0.00244150,0
 .00649150,-0.00097613,-0.00002842,0.00794773,-0.00626825,-0.00608417,-
 0.06168200,0.04325805,0.00042392,0.13423530,0.02608692,0.00309579,0.00
 159503,-0.04135447,-0.06870816,-0.00330211,-0.05230442,0.00686707,-0.0
 0347112,-0.00082465,0.00058591,-0.00000256,0.06926349,0.04966137,0.004
 44940,-0.19772334,0.03831180,-0.00988136,0.65933787,-0.00815460,-0.005
 32124,-0.00056730,-0.02720065,0.01009935,-0.00196106,0.02007489,-0.002
 98030,0.00143959,0.00045408,0.00048930,0.00002999,-0.00247170,-0.05475
 789,-0.00005464,0.12587024,-0.24063429,0.00940480,0.04796109,0.7313426
 2,0.00161782,0.00024084,0.00391030,-0.00338620,-0.00494263,0.00631960,
 -0.00349787,0.00049085,-0.00442741,-0.00000229,0.00003947,-0.00080582,
 0.00455500,0.00369016,0.00624077,-0.01005868,0.00311533,-0.06197001,0.
 03773017,0.00223264,0.13543448,-0.05701415,-0.03897721,-0.00472520,-0.
 08008751,-0.02412103,-0.00079843,0.04342980,0.01602333,0.00235526,-0.0
 0290574,0.00344086,-0.00054293,-0.03713990,-0.03310686,-0.00230084,-0.
 05512021,0.07366895,-0.00458127,-0.34230260,-0.08182839,-0.02015481,0.
 72019994,-0.06792123,-0.01655614,-0.00482541,0.01059710,-0.24680653,0.
 00112273,0.01232125,-0.03109202,0.00096864,0.00303643,-0.00227747,0.00
 023196,-0.01989885,-0.01823467,-0.00140089,0.01103104,0.04624106,0.000
 71207,-0.00269220,-0.14151559,-0.00002709,-0.06033660,0.63850179,-0.00
 466660,-0.00274631,0.00953631,-0.00086871,-0.00137115,-0.06835212,0.00
 236276,0.00123463,0.01035678,-0.00054211,0.00026100,0.00451607,-0.0023
 2762,-0.00234966,-0.00433779,-0.00445441,0.00521146,0.00624981,-0.0203
 1511,-0.00571161,-0.06086026,0.04275054,-0.00537060,0.12983786,-0.0001
 8927,0.00084737,0.00000734,-0.00532054,-0.00210011,-0.00099224,-0.0153
 4098,0.02521142,-0.00144974,0.00085240,-0.00034482,0.00039780,-0.18007
 664,0.13934052,-0.01044863,0.01093902,-0.00965636,0.00058725,0.0003093
 4,-0.00264958,-0.00046462,-0.00024159,-0.00081331,0.00005550,0.1879795
 4,0.00017645,0.00019124,0.00001165,-0.00261264,0.00123143,-0.00017285,
 -0.00565517,0.00830937,-0.00041469,0.00032372,0.00074268,0.00001228,0.
 13923468,-0.22295531,0.01037494,0.02168141,-0.01657519,0.00159713,-0.0
 0307067,-0.00437440,-0.00019783,-0.00102779,0.00001117,-0.00007586,-0.
 14982719,0.23346982,0.00000870,0.00005984,-0.00031483,-0.00099121,-0.0
 0013603,0.00848120,-0.00138722,0.00180251,0.00402726,0.00039645,-0.000
 03574,-0.00464732,-0.01044842,0.01038253,-0.03931679,0.00052378,-0.000
 65390,0.00307485,-0.00046377,-0.00016759,0.00681929,0.00005594,-0.0000
 6045,-0.00098721,0.01190875,-0.01118168,0.02729491,0.00016231,-0.00000
 290,0.00004633,0.00044318,0.00028464,0.00011315,0.00136039,-0.00187520
 ,-0.00037483,-0.00035935,0.00011849,-0.00001733,-0.00564196,0.00108678
 ,-0.00067503,-0.33380031,-0.05029628,-0.02131064,-0.01445335,-0.006719
 19,-0.00129215,-0.00066477,0.00374549,-0.00053171,0.00066970,-0.000333
 57,0.00030024,0.35231548,-0.00000294,0.00018141,-0.00000156,0.00028477
 ,-0.00104836,0.00002027,-0.00159356,-0.00563876,-0.00008962,-0.0014094
 0,-0.00011853,-0.00010124,-0.02995163,0.00028639,-0.00214452,-0.050295
 17,-0.07035531,-0.00354265,0.02431825,0.00915204,0.00173584,0.00346395
 ,-0.00360148,0.00026955,0.00043196,0.00087789,0.00002216,0.05406856,0.
 06916166,0.00004632,-0.00000155,-0.00047920,0.00011316,0.00002026,-0.0
 0113195,-0.00037541,-0.00010984,0.00660462,-0.00001424,0.00000851,-0.0
 0012243,-0.00061214,0.00008504,0.00368056,-0.02131068,-0.00354274,-0.0
 3723331,-0.00135499,-0.00049365,0.00362815,-0.00053114,0.00028976,0.00
 659300,0.00029869,-0.00003283,-0.00347910,0.02348388,0.00379212,0.0255
 4340,0.00019778,-0.00084373,0.00003856,-0.00604834,-0.00069439,-0.0010
 4735,-0.00082046,0.00049823,0.00001127,0.00008140,-0.00004881,0.000076
 00,-0.00217018,0.00346539,-0.00065515,0.01145997,0.02030936,0.00056400
 ,-0.09303974,-0.09017197,-0.00373178,-0.00587317,-0.03061473,-0.000656
 58,0.00038948,0.00102288,0.00002476,0.00072529,-0.00048073,0.00030454,
 0.09427056,-0.00017278,-0.00019807,-0.00001265,-0.00018190,0.00196338,
 0.00000028,0.00071257,0.00059343,0.00004797,-0.00006485,-0.00002529,-0
 .00000658,0.00388649,-0.00187978,0.00029686,-0.01102718,-0.01709663,-0
 .00075132,-0.09006832,-0.31050814,-0.00591886,0.00025244,-0.00121592,0
 .00002896,-0.00051176,-0.00095558,-0.00003479,0.00028519,0.00082187,0.
 00001173,0.09716918,0.32773289,0.00003721,-0.00006084,-0.00031252,-0.0
 0104839,-0.00003654,0.00847655,0.00001083,0.00003258,-0.00099063,0.000
 07603,-0.00000543,-0.00096980,-0.00065601,0.00026661,0.00680511,0.0006
 2748,0.00149962,0.00307756,-0.00373199,-0.00592628,-0.03880111,-0.0007
 1911,-0.00218829,0.00408340,0.00002787,0.00007544,0.00001775,0.0003030
 0,-0.00004329,-0.00347901,0.00467722,0.00636947,0.02673990,0.00061705,
 0.00048539,0.00023447,0.01093705,-0.00966840,0.00055365,-0.00067475,-0
 .00244018,-0.00037077,0.00051962,-0.00056172,0.00001029,-0.00031478,-0
 .00075805,0.00003679,-0.00490525,-0.00234423,-0.00092351,-0.01299506,0
 .02483577,-0.00131459,-0.18228009,0.14154560,-0.01080596,0.00002953,0.
 00008789,0.00007199,-0.00075663,0.00116592,-0.00004799,0.00082742,-0.0
 0027908,0.00039586,0.18899586,0.00248124,0.00172759,0.00016934,0.01779
 495,-0.01743925,0.00132067,-0.00284463,-0.00452173,-0.00018595,0.00106
 492,-0.00080607,0.00007892,-0.00088992,-0.00002357,-0.00006551,-0.0019
 2328,0.00093273,-0.00012380,-0.00626192,0.00900856,-0.00045872,0.14254
 836,-0.22345419,0.01061958,0.00007186,0.00002688,0.00000313,-0.0003620
 1,0.00028118,-0.00002682,0.00038932,0.00076784,0.00001694,-0.15206890,
 0.23350003,0.00023043,0.00002598,-0.00264427,0.00049803,-0.00065209,0.
 00353927,-0.00036995,-0.00015690,0.00452941,0.00000700,-0.00003792,0.0
 0039278,0.00003706,-0.00005604,-0.00080280,-0.00092436,-0.00015404,0.0
 0795122,-0.00125159,0.00177509,0.00451202,-0.01080800,0.01054756,-0.03
 663586,0.00007202,0.00000428,-0.00097001,-0.00004490,0.00008293,-0.000
 12473,0.00039450,-0.00003107,-0.00464721,0.01215977,-0.01134778,0.0249
 0018\\0.00000816,0.00000298,0.00000056,-0.00001044,-0.00000665,-0.0000
 0056,0.00000469,0.00000072,0.00000013,0.00000071,0.00000218,0.00000010
 ,0.00000175,0.00000689,0.00000013,0.00000111,-0.00000574,0.00000018,-0
 .00000833,-0.00000389,-0.00000064,0.00000436,0.00000668,0.00000021,-0.
 00000333,-0.00000110,-0.00000021,-0.00000139,0.00000186,-0.00000014,0.
 00000039,-0.00000203,0.00000006,0.00000231,-0.00000190,0.00000018\\\@


 Life may have no meaning.  Or even worse, it may have a
 meaning of which I disapprove.
                                 -- Ashleigh Brilliant
 Job cpu time:       0 days  4 hours  3 minutes 53.3 seconds.
 Elapsed time:       0 days  0 hours  6 minutes 49.8 seconds.
 File lengths (MBytes):  RWF=    129 Int=      0 D2E=      0 Chk=      8 Scr=      1
 Normal termination of Gaussian 16 at Mon Mar  2 00:52:09 2020.
