 Entering Gaussian System
 *********************************************
 Gaussian 98:
 frequency output generated by the xtb code
 *********************************************
                         Standard orientation:
 --------------------------------------------------------------------
  Center     Atomic     Atomic              Coordinates (Angstroms)
  Number     Number      Type              X           Y           Z
 --------------------------------------------------------------------
    1          6             0       -1.279900    0.132007   -0.065996
    2          6             0        0.083697   -0.527300    0.068701
    3          6             0        1.323501    0.297693   -0.065005
    4          1             0       -0.702707   -0.637398   -0.921796
    5          1             0       -2.099800   -0.276288    0.494508
    6          1             0       -1.308095    1.181506   -0.291597
    7          1             0        0.135895   -1.396099    0.706402
    8          1             0        1.583207    0.778493    0.884193
    9          1             0        2.174197   -0.312912   -0.368607
   10          1             0        1.182703    1.084492   -0.803906
 --------------------------------------------------------------------
     1 basis functions        1 primitive gaussians
     1 alpha electrons        1 beta electrons

 Harmonic frequencies (cm**-1), IR intensities (KM/Mole),
 Raman scattering activities (A**4/amu), Raman depolarization ratios,
 reduced masses (AMU), force constants (mDyne/A) and normal coordinates:
                      1                      2                      3
                        a                      a                      a 
 Frequencies -- -1826.0920               142.8037               337.7482
 Red. masses --     2.2099                 2.3561                 3.4740
 Frc consts  --     0.0000                 0.0000                 0.0000
 IR Inten    --     0.3574                 0.0936                 0.1655
 Raman Activ --     0.0000                 0.0000                 0.0000
 Depolar     --     0.0000                 0.0000                 0.0000
 Atom AN      X      Y      Z        X      Y      Z        X      Y      Z
   1   6     0.08  -0.13  -0.17    -0.04  -0.06  -0.19     0.17   0.05   0.07
   2   6     0.14   0.03   0.18    -0.01   0.10   0.26     0.02  -0.25  -0.28
   3   6     0.00  -0.01   0.00     0.04  -0.02  -0.04    -0.16   0.10   0.12
   4   1    -0.84   0.42  -0.06     0.05  -0.09   0.05    -0.18  -0.22   0.08
   5   1     0.03   0.00   0.01    -0.02   0.02  -0.05     0.12   0.42   0.41
   6   1     0.02  -0.01   0.02    -0.03  -0.04  -0.16     0.16  -0.08  -0.45
   7   1     0.01  -0.03  -0.01    -0.01   0.08   0.14    -0.00  -0.00   0.02
   8   1     0.02   0.02  -0.00     0.35  -0.40   0.09    -0.16  -0.05   0.11
   9   1     0.00   0.00   0.00    -0.12   0.06  -0.52     0.03   0.16   0.01
  10   1    -0.01  -0.00  -0.00    -0.18   0.28   0.34    -0.09   0.10   0.12
                      4                      5                      6
                        a                      a                      a 
 Frequencies --   364.5099               678.8473               704.7199
 Red. masses --     6.9838                 2.3178                 3.3901
 Frc consts  --     0.0000                 0.0000                 0.0000
 IR Inten    --     0.1082                 0.1934                 0.3325
 Raman Activ --     0.0000                 0.0000                 0.0000
 Depolar     --     0.0000                 0.0000                 0.0000
 Atom AN      X      Y      Z        X      Y      Z        X      Y      Z
   1   6     0.37   0.20  -0.07    -0.07  -0.05  -0.02     0.07   0.17   0.39
   2   6     0.03  -0.40   0.21     0.01   0.09   0.32     0.09  -0.11  -0.09
   3   6    -0.37   0.09  -0.09    -0.01   0.02   0.01     0.03  -0.01  -0.00
   4   1     0.10   0.07  -0.03     0.16   0.11  -0.02    -0.10   0.08   0.03
   5   1    -0.07   0.03  -0.30    -0.09   0.21   0.04    -0.27  -0.19  -0.52
   6   1     0.30   0.12   0.25     0.14  -0.07  -0.25    -0.25  -0.12  -0.55
   7   1     0.01  -0.08   0.11     0.05  -0.48  -0.63    -0.02  -0.01   0.01
   8   1    -0.10   0.08  -0.06     0.13   0.13  -0.10    -0.01   0.01  -0.00
   9   1    -0.03   0.18  -0.11    -0.04  -0.02  -0.05     0.03   0.03  -0.01
  10   1    -0.31  -0.00  -0.02    -0.10  -0.07  -0.07    -0.02  -0.00   0.00
                      7                      8                      9
                        a                      a                      a 
 Frequencies --   901.9601               952.2983              1028.9283
 Red. masses --     3.1520                 6.8550                 3.8854
 Frc consts  --     0.0000                 0.0000                 0.0000
 IR Inten    --     0.0884                 0.1859                 0.1767
 Raman Activ --     0.0000                 0.0000                 0.0000
 Depolar     --     0.0000                 0.0000                 0.0000
 Atom AN      X      Y      Z        X      Y      Z        X      Y      Z
   1   6     0.25   0.16  -0.09    -0.40   0.13  -0.08     0.05  -0.14   0.07
   2   6     0.07   0.11   0.03     0.00  -0.31   0.02    -0.08  -0.08  -0.27
   3   6    -0.16  -0.21   0.10     0.50   0.03   0.03     0.02   0.18   0.34
   4   1     0.09   0.08  -0.05    -0.05  -0.01   0.05     0.01   0.10  -0.11
   5   1     0.41  -0.30   0.24    -0.10   0.08   0.04    -0.05   0.08   0.01
   6   1    -0.47   0.01  -0.10    -0.08   0.07   0.10     0.12  -0.04  -0.01
   7   1    -0.29  -0.05  -0.08    -0.22  -0.07   0.05    -0.22   0.11   0.14
   8   1    -0.02   0.10  -0.05     0.01   0.18  -0.05     0.53   0.28  -0.19
   9   1     0.03   0.09  -0.07     0.35   0.36  -0.10    -0.26  -0.20  -0.17
  10   1    -0.32  -0.13  -0.01    -0.26  -0.06   0.01    -0.13  -0.19  -0.15
                     10                     11                     12
                        a                      a                      a 
 Frequencies --  1140.1775              1169.5438              1198.9519
 Red. masses --     6.4856                 4.1936                 3.3387
 Frc consts  --     0.0000                 0.0000                 0.0000
 IR Inten    --     0.1365                 0.1256                 0.2374
 Raman Activ --     0.0000                 0.0000                 0.0000
 Depolar     --     0.0000                 0.0000                 0.0000
 Atom AN      X      Y      Z        X      Y      Z        X      Y      Z
   1   6     0.01  -0.27   0.14    -0.18   0.21  -0.10    -0.27   0.07  -0.04
   2   6     0.10   0.48  -0.14     0.26   0.08  -0.14     0.24  -0.23   0.02
   3   6    -0.05  -0.38   0.04    -0.12  -0.19   0.24    -0.12  -0.06  -0.01
   4   1     0.09   0.16  -0.10    -0.18  -0.34   0.21     0.31   0.59  -0.23
   5   1    -0.17   0.15  -0.08    -0.04  -0.03  -0.07     0.00   0.16   0.20
   6   1     0.31  -0.07  -0.02    -0.08   0.09   0.11    -0.15  -0.00  -0.14
   7   1    -0.08   0.20   0.07     0.60   0.02  -0.08     0.35   0.11   0.22
   8   1    -0.20   0.04  -0.00     0.12   0.11  -0.06     0.00  -0.04   0.00
   9   1     0.18   0.21  -0.04    -0.06  -0.02  -0.08    -0.03  -0.04   0.02
  10   1    -0.34  -0.10   0.06    -0.23  -0.16  -0.02     0.03  -0.01  -0.01
                     13                     14                     15
                        a                      a                      a 
 Frequencies --  1321.1790              1387.6548              1411.7322
 Red. masses --     6.3878                 3.4268                 3.0080
 Frc consts  --     0.0000                 0.0000                 0.0000
 IR Inten    --     0.2726                 0.1870                 0.0209
 Raman Activ --     0.0000                 0.0000                 0.0000
 Depolar     --     0.0000                 0.0000                 0.0000
 Atom AN      X      Y      Z        X      Y      Z        X      Y      Z
   1   6    -0.16  -0.00  -0.03    -0.36   0.17   0.01     0.02  -0.02  -0.00
   2   6     0.65   0.01  -0.02     0.23  -0.02  -0.01     0.05   0.00  -0.01
   3   6    -0.19   0.05  -0.05    -0.11  -0.00   0.00    -0.35  -0.24   0.01
   4   1     0.01  -0.11   0.16    -0.01   0.03   0.10     0.00  -0.04   0.03
   5   1    -0.20   0.25  -0.04     0.26  -0.52   0.07    -0.05   0.08  -0.01
   6   1    -0.16   0.05   0.16     0.59  -0.00  -0.21    -0.07   0.00   0.05
   7   1    -0.48  -0.05  -0.03    -0.15  -0.00   0.02    -0.06  -0.00  -0.00
   8   1    -0.04  -0.14   0.06     0.06  -0.03  -0.00     0.40   0.23  -0.23
   9   1    -0.15  -0.18   0.07     0.00   0.02   0.01     0.29   0.39   0.05
  10   1     0.02  -0.01  -0.03     0.08  -0.00  -0.03     0.48   0.20   0.14
                     16                     17                     18
                        a                      a                      a 
 Frequencies --  1487.6621              1498.6573              1966.2006
 Red. masses --     1.6062                 1.5336                 1.7391
 Frc consts  --     0.0000                 0.0000                 0.0000
 IR Inten    --     0.0332                 0.0421                 0.1341
 Raman Activ --     0.0000                 0.0000                 0.0000
 Depolar     --     0.0000                 0.0000                 0.0000
 Atom AN      X      Y      Z        X      Y      Z        X      Y      Z
   1   6    -0.03   0.02  -0.00    -0.02   0.01  -0.01     0.09  -0.10  -0.11
   2   6     0.01  -0.04  -0.02     0.06  -0.03   0.02    -0.13  -0.01  -0.14
   3   6     0.09  -0.08  -0.19     0.10  -0.14   0.11     0.01   0.00   0.00
   4   1    -0.00  -0.01  -0.00     0.01   0.01   0.02     0.12   0.38   0.88
   5   1     0.02  -0.03   0.01     0.00  -0.01   0.01     0.02   0.02  -0.02
   6   1     0.03   0.00  -0.01     0.01   0.00   0.00    -0.01  -0.03   0.01
   7   1    -0.00   0.00   0.01    -0.04  -0.01   0.01     0.01   0.02  -0.02
   8   1     0.11   0.29  -0.18    -0.47   0.47  -0.11     0.00  -0.00  -0.00
   9   1    -0.06  -0.32   0.45    -0.27  -0.12  -0.52     0.00  -0.00   0.00
  10   1    -0.33   0.40   0.48     0.27   0.19   0.17    -0.01  -0.00   0.00
                     19                     20                     21
                        a                      a                      a 
 Frequencies --  2911.7142              2997.4744              3022.6253
 Red. masses --     1.7636                 1.6703                 1.6586
 Frc consts  --     0.0000                 0.0000                 0.0000
 IR Inten    --     0.2585                 0.2452                 0.1766
 Raman Activ --     0.0000                 0.0000                 0.0000
 Depolar     --     0.0000                 0.0000                 0.0000
 Atom AN      X      Y      Z        X      Y      Z        X      Y      Z
   1   6     0.00  -0.00   0.00    -0.00  -0.00   0.00    -0.00  -0.01   0.00
   2   6     0.01   0.01   0.00    -0.01  -0.00   0.00     0.00  -0.01   0.01
   3   6     0.02   0.11   0.24    -0.20   0.14   0.04    -0.03   0.18  -0.16
   4   1    -0.01   0.00  -0.00     0.00  -0.00  -0.00    -0.00   0.00   0.00
   5   1     0.00   0.00  -0.00     0.00   0.00  -0.00     0.00   0.00  -0.00
   6   1     0.00   0.00  -0.00     0.00   0.00  -0.00     0.00   0.01  -0.00
   7   1    -0.00   0.00  -0.00    -0.00   0.02  -0.01    -0.00   0.06  -0.05
   8   1    -0.21  -0.41  -0.84    -0.00   0.08   0.11    -0.02   0.00  -0.07
   9   1     0.10  -0.06   0.01     0.74  -0.55  -0.27    -0.03   0.05  -0.01
  10   1    -0.01   0.06   0.00    -0.02  -0.01   0.04     0.14  -0.69   0.66
                     22                     23                     24
                        a                      a                      a 
 Frequencies --  3079.0819              3116.3252              3159.6030
 Red. masses --     1.8030                 1.4114                 2.1409
 Frc consts  --     0.0000                 0.0000                 0.0000
 IR Inten    --     0.2357                 0.1281                 0.2484
 Raman Activ --     0.0000                 0.0000                 0.0000
 Depolar     --     0.0000                 0.0000                 0.0000
 Atom AN      X      Y      Z        X      Y      Z        X      Y      Z
   1   6     0.01   0.03  -0.01    -0.16   0.10   0.06     0.13   0.26  -0.13
   2   6     0.01  -0.22   0.15     0.00   0.01  -0.00     0.00   0.03  -0.02
   3   6     0.01  -0.02   0.02     0.00   0.00  -0.00    -0.00   0.00  -0.00
   4   1     0.00  -0.01  -0.00    -0.01   0.00  -0.01     0.00   0.01  -0.00
   5   1    -0.04  -0.01   0.02     0.55   0.30  -0.37    -0.49  -0.23   0.33
   6   1     0.01  -0.10   0.03    -0.00  -0.64   0.16     0.03  -0.68   0.15
   7   1    -0.04   0.78  -0.55     0.00  -0.03   0.02     0.00  -0.08   0.06
   8   1     0.00  -0.00   0.01     0.00   0.00   0.00    -0.00  -0.00  -0.00
   9   1    -0.01   0.01   0.01    -0.00   0.00  -0.00     0.01  -0.00  -0.00
  10   1    -0.01   0.05  -0.05     0.00  -0.00   0.00     0.00  -0.02   0.02
