 Entering Gaussian System, Link 0=g16
 Input=/media/sf_work/Pfizer/imipramine/intra_H_migration/ts1016.gjf
 Output=/media/sf_work/Pfizer/imipramine/intra_H_migration/ts1016.log
 Initial command:
 /home/dranasinghe/Software/G16_avx2/g16/l1.exe "/home/dranasinghe/Scratch/Gau-23295.inp" -scrdir="/home/dranasinghe/Scratch/"
 Entering Link 1 = /home/dranasinghe/Software/G16_avx2/g16/l1.exe PID=     23298.
  
 Copyright (c) 1988-2017, Gaussian, Inc.  All Rights Reserved.
  
 This is part of the Gaussian(R) 16 program.  It is based on
 the Gaussian(R) 09 system (copyright 2009, Gaussian, Inc.),
 the Gaussian(R) 03 system (copyright 2003, Gaussian, Inc.),
 the Gaussian(R) 98 system (copyright 1998, Gaussian, Inc.),
 the Gaussian(R) 94 system (copyright 1995, Gaussian, Inc.),
 the Gaussian 92(TM) system (copyright 1992, Gaussian, Inc.),
 the Gaussian 90(TM) system (copyright 1990, Gaussian, Inc.),
 the Gaussian 88(TM) system (copyright 1988, Gaussian, Inc.),
 the Gaussian 86(TM) system (copyright 1986, Carnegie Mellon
 University), and the Gaussian 82(TM) system (copyright 1983,
 Carnegie Mellon University). Gaussian is a federally registered
 trademark of Gaussian, Inc.
  
 This software contains proprietary and confidential information,
 including trade secrets, belonging to Gaussian, Inc.
  
 This software is provided under written license and may be
 used, copied, transmitted, or stored only in accord with that
 written license.
  
 The following legend is applicable only to US Government
 contracts under FAR:
  
                    RESTRICTED RIGHTS LEGEND
  
 Use, reproduction and disclosure by the US Government is
 subject to restrictions as set forth in subparagraphs (a)
 and (c) of the Commercial Computer Software - Restricted
 Rights clause in FAR 52.227-19.
  
 Gaussian, Inc.
 340 Quinnipiac St., Bldg. 40, Wallingford CT 06492
  
  
 ---------------------------------------------------------------
 Warning -- This program may not be used in any manner that
 competes with the business of Gaussian, Inc. or will provide
 assistance to any competitor of Gaussian, Inc.  The licensee
 of this program is prohibited from giving any competitor of
 Gaussian, Inc. access to this program.  By using this program,
 the user acknowledges that Gaussian, Inc. is engaged in the
 business of creating and licensing software in the field of
 computational chemistry and represents and warrants to the
 licensee that it is not a competitor of Gaussian, Inc. and that
 it will not use this program in any manner prohibited above.
 ---------------------------------------------------------------
  

 Cite this work as:
 Gaussian 16, Revision B.01,
 M. J. Frisch, G. W. Trucks, H. B. Schlegel, G. E. Scuseria, 
 M. A. Robb, J. R. Cheeseman, G. Scalmani, V. Barone, 
 G. A. Petersson, H. Nakatsuji, X. Li, M. Caricato, A. V. Marenich, 
 J. Bloino, B. G. Janesko, R. Gomperts, B. Mennucci, H. P. Hratchian, 
 J. V. Ortiz, A. F. Izmaylov, J. L. Sonnenberg, D. Williams-Young, 
 F. Ding, F. Lipparini, F. Egidi, J. Goings, B. Peng, A. Petrone, 
 T. Henderson, D. Ranasinghe, V. G. Zakrzewski, J. Gao, N. Rega, 
 G. Zheng, W. Liang, M. Hada, M. Ehara, K. Toyota, R. Fukuda, 
 J. Hasegawa, M. Ishida, T. Nakajima, Y. Honda, O. Kitao, H. Nakai, 
 T. Vreven, K. Throssell, J. A. Montgomery, Jr., J. E. Peralta, 
 F. Ogliaro, M. J. Bearpark, J. J. Heyd, E. N. Brothers, K. N. Kudin, 
 V. N. Staroverov, T. A. Keith, R. Kobayashi, J. Normand, 
 K. Raghavachari, A. P. Rendell, J. C. Burant, S. S. Iyengar, 
 J. Tomasi, M. Cossi, J. M. Millam, M. Klene, C. Adamo, R. Cammi, 
 J. W. Ochterski, R. L. Martin, K. Morokuma, O. Farkas, 
 J. B. Foresman, and D. J. Fox, Gaussian, Inc., Wallingford CT, 2016.
 
 ******************************************
 Gaussian 16:  ES64L-G16RevB.01 20-Dec-2017
                 2-Apr-2020 
 ******************************************
 %chk=ts1016.chk
 %mem=1000MB
 %nprocshared=4
 Will use up to    4 processors via shared memory.
 ---------------------------------------------------
 #p opt=(calcall,ts,noeigentest) freq upm6 guess=mix
 ---------------------------------------------------
 1/5=1,10=4,11=1,18=20,26=1,38=1/1,3;
 2/9=110,12=2,17=6,18=5,40=1/2;
 3/5=2,25=1,41=3900000,71=2,116=2,140=1/1,2,3;
 4/13=-1,35=1/1;
 5/5=2,35=1,38=5/2;
 8/6=4,10=90,11=11/1;
 11/6=1,8=1,9=11,15=111,16=1/1,2,10;
 10/6=1/2;
 6/7=2,8=2,9=2,10=2,18=1,28=1/1;
 7/10=1,25=1/1,2,3,16;
 1/5=1,10=4,11=1,18=20,26=1/3(3);
 2/9=110/2;
 7/8=1,9=1,25=1,44=-1/16;
 99//99;
 2/9=110/2;
 3/5=2,25=1,41=3900000,71=2,116=2,135=20,140=1/1,2,3;
 4/5=5,16=3,35=1/1;
 5/5=2,35=1,38=5/2;
 8/6=4,10=90,11=11/1;
 11/6=1,8=1,9=11,15=111,16=1/1,2,10;
 10/6=1/2;
 7/10=1,25=1/1,2,3,16;
 1/5=1,10=4,11=1,18=20,26=1/3(-8);
 2/9=110/2;
 6/7=2,8=2,9=2,10=2,18=1,19=2,28=1/1;
 7/8=1,9=1,25=1,44=-1/16;
 99//99;
 Leave Link    1 at Thu Apr  2 20:34:27 2020, MaxMem=   131072000 cpu:               0.2 elap:               0.1
 (Enter /home/dranasinghe/Software/G16_avx2/g16/l101.exe)
 ----
 name
 ----
 Symbolic Z-matrix:
 Charge =  0 Multiplicity = 2
 N                     2.68493  -0.02689  -0.22531 
 C                     1.2422   -0.15557   0.16589 
 C                     0.38299   0.30895  -1.02288 
 H                     1.00525  -1.22161   0.38293 
 H                     0.97963   0.42197   1.07717 
 C                    -1.11418   0.06663  -0.82419 
 H                     0.55206   1.38687  -1.21788 
 H                     0.71848  -0.22441  -1.93961 
 N                    -1.67591   0.7965    0.35659 
 H                    -1.69616   0.29617  -1.74524 
 C                    -1.95988  -0.05294   1.47541 
 C                    -2.81408   1.68584  -0.01159 
 H                    -1.07092  -0.52312   1.90511 
 H                    -2.65498   0.3328    2.21558 
 H                    -2.52947  -1.17538   0.99774 
 H                    -3.10495   2.29175   0.86256 
 H                    -3.70625   1.1448   -0.36788 
 H                    -2.49205   2.38906  -0.79686 
 O                    -1.19732  -1.39188  -0.58593 
 O                    -2.42506  -1.72595  -0.21101 
 H                     3.24605  -0.69183   0.26764 
 H                     3.02093   0.90026  -0.05945 
 
 Add virtual bond connecting atoms C11        and H15        Dist= 2.54D+00.
 Add virtual bond connecting atoms O20        and H15        Dist= 2.52D+00.
 ITRead=  0  0  0  0  0  0  0  0  0  0  0  0  0  0  0  0  0  0  0  0
 ITRead=  0  0
 MicOpt= -1 -1 -1 -1 -1 -1 -1 -1 -1 -1 -1 -1 -1 -1 -1 -1 -1 -1 -1 -1
 MicOpt= -1 -1
 NAtoms=     22 NQM=       22 NQMF=       0 NMMI=      0 NMMIF=      0
                NMic=       0 NMicF=      0.
                    Isotopes and Nuclear Properties:
 (Nuclear quadrupole moments (NQMom) in fm**2, nuclear magnetic moments (NMagM)
  in nuclear magnetons)

  Atom         1           2           3           4           5           6           7           8           9          10
 IAtWgt=          14          12          12           1           1          12           1           1          14           1
 AtmWgt=  14.0030740  12.0000000  12.0000000   1.0078250   1.0078250  12.0000000   1.0078250   1.0078250  14.0030740   1.0078250
 NucSpn=           2           0           0           1           1           0           1           1           2           1
 AtZEff=  -0.0000000  -0.0000000  -0.0000000  -0.0000000  -0.0000000  -0.0000000  -0.0000000  -0.0000000  -0.0000000  -0.0000000
 NQMom=    2.0440000   0.0000000   0.0000000   0.0000000   0.0000000   0.0000000   0.0000000   0.0000000   2.0440000   0.0000000
 NMagM=    0.4037610   0.0000000   0.0000000   2.7928460   2.7928460   0.0000000   2.7928460   2.7928460   0.4037610   2.7928460
 AtZNuc=   7.0000000   6.0000000   6.0000000   1.0000000   1.0000000   6.0000000   1.0000000   1.0000000   7.0000000   1.0000000

  Atom        11          12          13          14          15          16          17          18          19          20
 IAtWgt=          12          12           1           1           1           1           1           1          16          16
 AtmWgt=  12.0000000  12.0000000   1.0078250   1.0078250   1.0078250   1.0078250   1.0078250   1.0078250  15.9949146  15.9949146
 NucSpn=           0           0           1           1           1           1           1           1           0           0
 AtZEff=  -0.0000000  -0.0000000  -0.0000000  -0.0000000  -0.0000000  -0.0000000  -0.0000000  -0.0000000  -0.0000000  -0.0000000
 NQMom=    0.0000000   0.0000000   0.0000000   0.0000000   0.0000000   0.0000000   0.0000000   0.0000000   0.0000000   0.0000000
 NMagM=    0.0000000   0.0000000   2.7928460   2.7928460   2.7928460   2.7928460   2.7928460   2.7928460   0.0000000   0.0000000
 AtZNuc=   6.0000000   6.0000000   1.0000000   1.0000000   1.0000000   1.0000000   1.0000000   1.0000000   8.0000000   8.0000000

  Atom        21          22
 IAtWgt=           1           1
 AtmWgt=   1.0078250   1.0078250
 NucSpn=           1           1
 AtZEff=  -0.0000000  -0.0000000
 NQMom=    0.0000000   0.0000000
 NMagM=    2.7928460   2.7928460
 AtZNuc=   1.0000000   1.0000000
 Leave Link  101 at Thu Apr  2 20:34:27 2020, MaxMem=   131072000 cpu:               0.7 elap:               0.2
 (Enter /home/dranasinghe/Software/G16_avx2/g16/l103.exe)

 GradGradGradGradGradGradGradGradGradGradGradGradGradGradGradGradGradGrad
 Berny optimization.
 Initialization pass.
                           ----------------------------
                           !    Initial Parameters    !
                           ! (Angstroms and Degrees)  !
 --------------------------                            --------------------------
 ! Name  Definition              Value          Derivative Info.                !
 --------------------------------------------------------------------------------
 ! R1    R(1,2)                  1.5004         calculate D2E/DX2 analytically  !
 ! R2    R(1,21)                 1.0            calculate D2E/DX2 analytically  !
 ! R3    R(1,22)                 1.0            calculate D2E/DX2 analytically  !
 ! R4    R(2,3)                  1.5386         calculate D2E/DX2 analytically  !
 ! R5    R(2,4)                  1.1134         calculate D2E/DX2 analytically  !
 ! R6    R(2,5)                  1.1104         calculate D2E/DX2 analytically  !
 ! R7    R(3,6)                  1.5296         calculate D2E/DX2 analytically  !
 ! R8    R(3,7)                  1.1084         calculate D2E/DX2 analytically  !
 ! R9    R(3,8)                  1.1124         calculate D2E/DX2 analytically  !
 ! R10   R(6,9)                  1.4975         calculate D2E/DX2 analytically  !
 ! R11   R(6,10)                 1.1134         calculate D2E/DX2 analytically  !
 ! R12   R(6,19)                 1.4802         calculate D2E/DX2 analytically  !
 ! R13   R(9,11)                 1.4332         calculate D2E/DX2 analytically  !
 ! R14   R(9,12)                 1.4906         calculate D2E/DX2 analytically  !
 ! R15   R(11,13)                1.0936         calculate D2E/DX2 analytically  !
 ! R16   R(11,14)                1.0862         calculate D2E/DX2 analytically  !
 ! R17   R(11,15)                1.3463         calculate D2E/DX2 analytically  !
 ! R18   R(12,16)                1.1027         calculate D2E/DX2 analytically  !
 ! R19   R(12,17)                1.1026         calculate D2E/DX2 analytically  !
 ! R20   R(12,18)                1.1022         calculate D2E/DX2 analytically  !
 ! R21   R(15,20)                1.3323         calculate D2E/DX2 analytically  !
 ! R22   R(19,20)                1.3265         calculate D2E/DX2 analytically  !
 ! A1    A(2,1,21)             110.7327         calculate D2E/DX2 analytically  !
 ! A2    A(2,1,22)             111.0619         calculate D2E/DX2 analytically  !
 ! A3    A(21,1,22)            110.2551         calculate D2E/DX2 analytically  !
 ! A4    A(1,2,3)              108.0381         calculate D2E/DX2 analytically  !
 ! A5    A(1,2,4)              109.7299         calculate D2E/DX2 analytically  !
 ! A6    A(1,2,5)              113.3754         calculate D2E/DX2 analytically  !
 ! A7    A(3,2,4)              108.7136         calculate D2E/DX2 analytically  !
 ! A8    A(3,2,5)              110.1829         calculate D2E/DX2 analytically  !
 ! A9    A(4,2,5)              106.7203         calculate D2E/DX2 analytically  !
 ! A10   A(2,3,6)              113.4791         calculate D2E/DX2 analytically  !
 ! A11   A(2,3,7)              110.1432         calculate D2E/DX2 analytically  !
 ! A12   A(2,3,8)              108.8785         calculate D2E/DX2 analytically  !
 ! A13   A(6,3,7)              109.0392         calculate D2E/DX2 analytically  !
 ! A14   A(6,3,8)              109.0438         calculate D2E/DX2 analytically  !
 ! A15   A(7,3,8)              105.9794         calculate D2E/DX2 analytically  !
 ! A16   A(3,6,9)              113.1022         calculate D2E/DX2 analytically  !
 ! A17   A(3,6,10)             111.8082         calculate D2E/DX2 analytically  !
 ! A18   A(3,6,19)             103.414          calculate D2E/DX2 analytically  !
 ! A19   A(9,6,10)             110.8373         calculate D2E/DX2 analytically  !
 ! A20   A(9,6,19)             109.4063         calculate D2E/DX2 analytically  !
 ! A21   A(10,6,19)            107.8741         calculate D2E/DX2 analytically  !
 ! A22   A(6,9,11)             113.6407         calculate D2E/DX2 analytically  !
 ! A23   A(6,9,12)             112.486          calculate D2E/DX2 analytically  !
 ! A24   A(11,9,12)            113.2759         calculate D2E/DX2 analytically  !
 ! A25   A(9,11,13)            113.6094         calculate D2E/DX2 analytically  !
 ! A26   A(9,11,14)            116.6336         calculate D2E/DX2 analytically  !
 ! A27   A(9,11,15)            107.5177         calculate D2E/DX2 analytically  !
 ! A28   A(13,11,14)           113.8989         calculate D2E/DX2 analytically  !
 ! A29   A(13,11,15)            97.1736         calculate D2E/DX2 analytically  !
 ! A30   A(14,11,15)           105.4931         calculate D2E/DX2 analytically  !
 ! A31   A(9,12,16)            109.4789         calculate D2E/DX2 analytically  !
 ! A32   A(9,12,17)            113.8853         calculate D2E/DX2 analytically  !
 ! A33   A(9,12,18)            109.4843         calculate D2E/DX2 analytically  !
 ! A34   A(16,12,17)           108.2016         calculate D2E/DX2 analytically  !
 ! A35   A(16,12,18)           106.935          calculate D2E/DX2 analytically  !
 ! A36   A(17,12,18)           108.6183         calculate D2E/DX2 analytically  !
 ! A37   A(11,15,20)           129.2922         calculate D2E/DX2 analytically  !
 ! A38   A(6,19,20)            110.2215         calculate D2E/DX2 analytically  !
 ! A39   A(15,20,19)           102.9963         calculate D2E/DX2 analytically  !
 ! D1    D(21,1,2,3)          -152.0255         calculate D2E/DX2 analytically  !
 ! D2    D(21,1,2,4)           -33.6492         calculate D2E/DX2 analytically  !
 ! D3    D(21,1,2,5)            85.5591         calculate D2E/DX2 analytically  !
 ! D4    D(22,1,2,3)            85.1245         calculate D2E/DX2 analytically  !
 ! D5    D(22,1,2,4)          -156.4992         calculate D2E/DX2 analytically  !
 ! D6    D(22,1,2,5)           -37.2909         calculate D2E/DX2 analytically  !
 ! D7    D(1,2,3,6)            172.8192         calculate D2E/DX2 analytically  !
 ! D8    D(1,2,3,7)            -64.622          calculate D2E/DX2 analytically  !
 ! D9    D(1,2,3,8)             51.1842         calculate D2E/DX2 analytically  !
 ! D10   D(4,2,3,6)             53.7957         calculate D2E/DX2 analytically  !
 ! D11   D(4,2,3,7)            176.3545         calculate D2E/DX2 analytically  !
 ! D12   D(4,2,3,8)            -67.8394         calculate D2E/DX2 analytically  !
 ! D13   D(5,2,3,6)            -62.8293         calculate D2E/DX2 analytically  !
 ! D14   D(5,2,3,7)             59.7294         calculate D2E/DX2 analytically  !
 ! D15   D(5,2,3,8)            175.5356         calculate D2E/DX2 analytically  !
 ! D16   D(2,3,6,9)             61.0069         calculate D2E/DX2 analytically  !
 ! D17   D(2,3,6,10)          -173.0324         calculate D2E/DX2 analytically  !
 ! D18   D(2,3,6,19)           -57.2289         calculate D2E/DX2 analytically  !
 ! D19   D(7,3,6,9)            -62.1601         calculate D2E/DX2 analytically  !
 ! D20   D(7,3,6,10)            63.8006         calculate D2E/DX2 analytically  !
 ! D21   D(7,3,6,19)           179.6041         calculate D2E/DX2 analytically  !
 ! D22   D(8,3,6,9)           -177.4504         calculate D2E/DX2 analytically  !
 ! D23   D(8,3,6,10)           -51.4897         calculate D2E/DX2 analytically  !
 ! D24   D(8,3,6,19)            64.3138         calculate D2E/DX2 analytically  !
 ! D25   D(3,6,9,11)          -105.9745         calculate D2E/DX2 analytically  !
 ! D26   D(3,6,9,12)           123.6312         calculate D2E/DX2 analytically  !
 ! D27   D(10,6,9,11)          127.5473         calculate D2E/DX2 analytically  !
 ! D28   D(10,6,9,12)           -2.847          calculate D2E/DX2 analytically  !
 ! D29   D(19,6,9,11)            8.7136         calculate D2E/DX2 analytically  !
 ! D30   D(19,6,9,12)         -121.6807         calculate D2E/DX2 analytically  !
 ! D31   D(3,6,19,20)          171.3437         calculate D2E/DX2 analytically  !
 ! D32   D(9,6,19,20)           50.5672         calculate D2E/DX2 analytically  !
 ! D33   D(10,6,19,20)         -70.0884         calculate D2E/DX2 analytically  !
 ! D34   D(6,9,11,13)           64.206          calculate D2E/DX2 analytically  !
 ! D35   D(6,9,11,14)         -160.2481         calculate D2E/DX2 analytically  !
 ! D36   D(6,9,11,15)          -42.1062         calculate D2E/DX2 analytically  !
 ! D37   D(12,9,11,13)        -165.7942         calculate D2E/DX2 analytically  !
 ! D38   D(12,9,11,14)         -30.2483         calculate D2E/DX2 analytically  !
 ! D39   D(12,9,11,15)          87.8935         calculate D2E/DX2 analytically  !
 ! D40   D(6,9,12,16)         -172.8591         calculate D2E/DX2 analytically  !
 ! D41   D(6,9,12,17)           65.8764         calculate D2E/DX2 analytically  !
 ! D42   D(6,9,12,18)          -55.9302         calculate D2E/DX2 analytically  !
 ! D43   D(11,9,12,16)          56.5612         calculate D2E/DX2 analytically  !
 ! D44   D(11,9,12,17)         -64.7033         calculate D2E/DX2 analytically  !
 ! D45   D(11,9,12,18)         173.49           calculate D2E/DX2 analytically  !
 ! D46   D(9,11,15,20)          24.8927         calculate D2E/DX2 analytically  !
 ! D47   D(13,11,15,20)        -92.6892         calculate D2E/DX2 analytically  !
 ! D48   D(14,11,15,20)        150.0136         calculate D2E/DX2 analytically  !
 ! D49   D(11,15,20,19)         31.395          calculate D2E/DX2 analytically  !
 ! D50   D(6,19,20,15)         -68.5418         calculate D2E/DX2 analytically  !
 --------------------------------------------------------------------------------
 Trust Radius=3.00D-01 FncErr=1.00D-07 GrdErr=1.00D-07 EigMax=2.50D+02 EigMin=1.00D-04
 Number of steps in this run=    121 maximum allowed number of steps=    132.
 Search for a saddle point of order  1.
 GradGradGradGradGradGradGradGradGradGradGradGradGradGradGradGradGradGrad

 Leave Link  103 at Thu Apr  2 20:34:27 2020, MaxMem=   131072000 cpu:               0.1 elap:               0.0
 (Enter /home/dranasinghe/Software/G16_avx2/g16/l202.exe)
                          Input orientation:                          
 ---------------------------------------------------------------------
 Center     Atomic      Atomic             Coordinates (Angstroms)
 Number     Number       Type             X           Y           Z
 ---------------------------------------------------------------------
      1          7           0        2.684932   -0.026885   -0.225307
      2          6           0        1.242197   -0.155574    0.165889
      3          6           0        0.382985    0.308945   -1.022876
      4          1           0        1.005250   -1.221606    0.382927
      5          1           0        0.979633    0.421969    1.077172
      6          6           0       -1.114177    0.066632   -0.824188
      7          1           0        0.552055    1.386870   -1.217878
      8          1           0        0.718476   -0.224407   -1.939612
      9          7           0       -1.675914    0.796503    0.356590
     10          1           0       -1.696164    0.296166   -1.745243
     11          6           0       -1.959883   -0.052943    1.475411
     12          6           0       -2.814075    1.685839   -0.011589
     13          1           0       -1.070915   -0.523121    1.905111
     14          1           0       -2.654976    0.332798    2.215581
     15          1           0       -2.529468   -1.175380    0.997735
     16          1           0       -3.104954    2.291749    0.862555
     17          1           0       -3.706247    1.144804   -0.367878
     18          1           0       -2.492051    2.389061   -0.796861
     19          8           0       -1.197320   -1.391875   -0.585927
     20          8           0       -2.425058   -1.725946   -0.211009
     21          1           0        3.246054   -0.691825    0.267640
     22          1           0        3.020933    0.900259   -0.059453
 ---------------------------------------------------------------------
                    Distance matrix (angstroms):
                    1          2          3          4          5
     1  N    0.000000
     2  C    1.500360   0.000000
     3  C    2.459239   1.538566   0.000000
     4  H    2.149102   1.113406   2.169351   0.000000
     5  H    2.192251   1.110375   2.186084   1.784369   0.000000
     6  C    3.847159   2.565566   1.529603   2.758379   2.850522
     7  H    2.744643   2.184088   1.108392   3.093883   2.526086
     8  H    2.616258   2.170750   1.112395   2.543783   3.096287
     9  N    4.475885   3.075417   2.525808   3.355905   2.776949
    10  H    4.648502   3.534184   2.201099   3.759039   3.891239
    11  C    4.946456   3.461025   3.444043   3.369170   3.004145
    12  C    5.763521   4.458211   3.624877   4.816235   4.144272
    13  H    4.346414   2.917271   3.373317   2.667468   2.404875
    14  H    5.882340   4.430316   4.440426   4.378590   3.809765
    15  H    5.477667   3.994675   3.842977   3.588085   3.856374
    16  H    6.331057   5.037108   4.433067   5.428396   4.497331
    17  H    6.499258   5.144219   4.224867   5.325581   4.956625
    18  H    5.741483   4.620245   3.555812   5.163325   4.408406
    19  O    4.130996   2.836355   2.362430   2.412257   3.285583
    20  O    5.385073   4.007104   3.561603   3.517688   4.226685
    21  H    1.000000   2.076863   3.296079   2.305463   2.651894
    22  H    1.000000   2.080737   2.869949   2.959897   2.384866
                    6          7          8          9         10
     6  C    0.000000
     7  H    2.162024   0.000000
     8  H    2.165062   1.773361   0.000000
     9  N    1.497497   2.791295   3.471009   0.000000
    10  H    1.113435   2.553867   2.477753   2.160659   0.000000
    11  C    2.453094   3.954327   4.343431   1.433163   3.250236
    12  C    2.484311   3.588223   4.454798   1.490599   2.487262
    13  H    2.792625   4.004392   4.251240   2.122581   3.793053
    14  H    3.418348   4.815055   5.381104   2.151612   4.075388
    15  H    2.620123   4.579285   4.481238   2.242308   3.222386
    16  H    3.429204   4.303571   5.366731   2.129300   3.573185
    17  H    2.844205   4.349050   4.891141   2.183671   2.580262
    18  H    2.700548   3.232371   4.294599   2.129030   2.431681
    19  O    1.480177   3.343815   2.620252   2.430306   2.107686
    20  O    2.303852   4.423416   3.889022   2.691864   2.640852
    21  H    4.558394   3.712865   3.388081   5.142840   5.427093
    22  H    4.287061   2.770216   3.178235   4.716379   5.045575
                   11         12         13         14         15
    11  C    0.000000
    12  C    2.442166   0.000000
    13  H    1.093606   3.404681   0.000000
    14  H    1.086187   2.610808   1.827085   0.000000
    15  H    1.346279   3.047345   1.837430   1.942550   0.000000
    16  H    2.680366   1.102663   3.625980   2.422942   3.517164
    17  H    2.807508   1.102557   3.859200   2.904959   2.938190
    18  H    3.377840   1.102213   4.219133   3.650968   3.990891
    19  O    2.573588   3.523646   2.641208   3.598292   2.080739
    20  O    2.420607   3.439677   2.785400   3.190553   1.332324
    21  H    5.382254   6.515859   4.620172   6.298133   5.841534
    22  H    5.298390   5.887848   4.756968   6.141151   6.019375
                   16         17         18         19         20
    16  H    0.000000
    17  H    1.786337   0.000000
    18  H    1.771661   1.790663   0.000000
    19  O    4.393888   3.574493   4.002037   0.000000
    20  O    4.213867   3.147580   4.157041   1.326464   0.000000
    21  H    7.042083   7.218835   6.599308   4.578451   5.784464
    22  H    6.349239   6.738686   5.757890   4.829567   6.048036
                   21         22
    21  H    0.000000
    22  H    1.640854   0.000000
 Stoichiometry    C5H13N2O2(2)
 Framework group  C1[X(C5H13N2O2)]
 Deg. of freedom    60
 Full point group                 C1      NOp   1
 Largest Abelian subgroup         C1      NOp   1
 Largest concise Abelian subgroup C1      NOp   1
                         Standard orientation:                         
 ---------------------------------------------------------------------
 Center     Atomic      Atomic             Coordinates (Angstroms)
 Number     Number       Type             X           Y           Z
 ---------------------------------------------------------------------
      1          7           0       -3.430758   -0.232179    0.208960
      2          6           0       -1.963008   -0.043754    0.456518
      3          6           0       -1.216820   -0.337612   -0.856508
      4          1           0       -1.764057    1.011107    0.752084
      5          1           0       -1.568188   -0.684214    1.273133
      6          6           0        0.277030   -0.014845   -0.793892
      7          1           0       -1.345297   -1.401774   -1.138617
      8          1           0       -1.682101    0.254560   -1.675209
      9          7           0        1.007350   -0.811502    0.242673
     10          1           0        0.764723   -0.118621   -1.789443
     11          6           0        1.365780   -0.052087    1.404041
     12          6           0        2.145854   -1.584604   -0.330045
     13          1           0        0.505099    0.315626    1.969716
     14          1           0        2.159794   -0.457158    2.024735
     15          1           0        1.814090    1.145397    0.982714
     16          1           0        2.566230   -2.247910    0.444018
     17          1           0        2.960664   -0.954306   -0.723034
     18          1           0        1.778588   -2.232166   -1.142851
     19          8           0        0.303536    1.417640   -0.422129
     20          8           0        1.544537    1.797187   -0.147595
     21          1           0       -3.970138    0.345159    0.821944
     22          1           0       -3.693146   -1.191132    0.316488
 ---------------------------------------------------------------------
 Rotational constants (GHZ):           2.3785485           1.0138856           0.8839533
 Leave Link  202 at Thu Apr  2 20:34:27 2020, MaxMem=   131072000 cpu:               0.0 elap:               0.0
 (Enter /home/dranasinghe/Software/G16_avx2/g16/l301.exe)
 Standard basis: VSTO-6G (5D, 7F)
 Ernie: Thresh=  0.10000D-02 Tol=  0.10000D-05 Strict=F.
  NNHCO=     0 NNPyr=     1 NCTC=     0               EPep=        -0.000021882
    EC=       251.618897208  ECS=         4.069188362   EG=         0.265042899
   EHC=         0.000925208  EAt=       -60.503192948  AtH=         2.991020976
 EPDDG=         0.000000000  ECC=       255.954031794 EAtT=        63.494213924
 There are    49 symmetry adapted cartesian basis functions of A   symmetry.
 There are    49 symmetry adapted basis functions of A   symmetry.
    49 basis functions,   294 primitive gaussians,    49 cartesian basis functions
    28 alpha electrons       27 beta electrons
       nuclear repulsion energy       319.4482457183 Hartrees.
 IExCor=    0 DFT=F Ex=HF Corr=None ExCW=0 ScaHFX=  1.000000
 ScaDFX=  1.000000  1.000000  1.000000  1.000000 ScalE2=  1.000000  1.000000
 IRadAn=      5 IRanWt=     -1 IRanGd=            0 ICorTp=0 IEmpDi=  4
 Integral buffers will be    131072 words long.
 Regular integral format.
 Two-electron integral symmetry is turned off.
 Leave Link  301 at Thu Apr  2 20:34:27 2020, MaxMem=   131072000 cpu:               0.1 elap:               0.0
 (Enter /home/dranasinghe/Software/G16_avx2/g16/l302.exe)
 Do NDO integrals.
 NPDir=0 NMtPBC=     1 NCelOv=     1 NCel=       1 NClECP=     1 NCelD=      1
         NCelK=      1 NCelE2=     1 NClLst=     1 CellRange=     0.0.
 One-electron integrals computed using PRISM.
 NBasis=    49 RedAO= F EigKep=  0.00D+00  NBF=    49
 NBsUse=    49 1.00D-04 EigRej=  0.00D+00 NBFU=    49
 Leave Link  302 at Thu Apr  2 20:34:27 2020, MaxMem=   131072000 cpu:               0.2 elap:               0.1
 (Enter /home/dranasinghe/Software/G16_avx2/g16/l303.exe)
 DipDrv:  MaxL=1.
 Leave Link  303 at Thu Apr  2 20:34:27 2020, MaxMem=   131072000 cpu:               0.1 elap:               0.0
 (Enter /home/dranasinghe/Software/G16_avx2/g16/l401.exe)
 Simple Huckel Guess.
 JPrj=0 DoOrth=F DoCkMO=T.
 Mixing orbitals, IMix= 1 IMixAn=  0 NRI=1 NE=   28 Coef=  7.07106781D-01  7.07106781D-01
 Mixing orbitals, IMix= 1 IMixAn=  0 NRI=1 NE=   27 Coef= -7.07106781D-01  7.07106781D-01
 Initial guess <Sx>= 0.0000 <Sy>= 0.0000 <Sz>= 0.5000 <S**2>= 1.0000 S= 0.6180
 Leave Link  401 at Thu Apr  2 20:34:27 2020, MaxMem=   131072000 cpu:               0.1 elap:               0.0
 (Enter /home/dranasinghe/Software/G16_avx2/g16/l502.exe)
 Keep J ints in memory in canonical form, NReq=865018.
 FoFCou: FMM=F IPFlag=           0 FMFlag=           0 FMFlg1=           0
         NFxFlg=           0 DoJE=F BraDBF=F KetDBF=F FulRan=T
         wScrn=  0.000000 ICntrl=       600 IOpCl=  2 I1Cent=           0 NGrid=           0
         NMat0=    1 NMatS0=    103 NMatT0=    0 NMatD0=    1 NMtDS0=    0 NMtDT0=    0
 Symmetry not used in FoFCou.
 Two-electron integral symmetry not used.
 UHF open shell SCF:
 Using DIIS extrapolation, IDIIS=  1040.
 Overlap will be assumed to be unity.
 NGot=   131072000 LenX=   131001579 LenY=   130998737
 Requested convergence on RMS density matrix=1.00D-08 within 128 cycles.
 Requested convergence on MAX density matrix=1.00D-06.
 Requested convergence on             energy=1.00D-06.
 No special actions if energy rises.

 Cycle   1  Pass 1  IDiag  1:
 E= 0.774701762386883    
 DIIS: error= 5.53D-02 at cycle   1 NSaved=   1.
 NSaved= 1 IEnMin= 1 EnMin= 0.774701762386883     IErMin= 1 ErrMin= 5.53D-02
 ErrMax= 5.53D-02  0.00D+00 EMaxC= 1.00D-01 BMatC= 6.01D-01 BMatP= 6.01D-01
 IDIUse=3 WtCom= 4.47D-01 WtEn= 5.53D-01
 Coeff-Com:  0.100D+01
 Coeff-En:   0.100D+01
 Coeff:      0.100D+01
 GapD=    2.000 DampG=2.000 DampE=0.500 DampFc=1.0000 IDamp=-1.
 RMSDP=1.83D-02 MaxDP=1.89D-01              OVMax= 0.00D+00

 Cycle   2  Pass 1  IDiag  1:
 E= 0.172251820861277     Delta-E=       -0.602449941526 Rises=F Damp=F
 DIIS: error= 2.31D-02 at cycle   2 NSaved=   2.
 NSaved= 2 IEnMin= 2 EnMin= 0.172251820861277     IErMin= 2 ErrMin= 2.31D-02
 ErrMax= 2.31D-02  0.00D+00 EMaxC= 1.00D-01 BMatC= 9.40D-02 BMatP= 6.01D-01
 IDIUse=3 WtCom= 7.69D-01 WtEn= 2.31D-01
 Coeff-Com: -0.343D+00 0.134D+01
 Coeff-En:   0.000D+00 0.100D+01
 Coeff:     -0.264D+00 0.126D+01
 RMSDP=8.95D-03 MaxDP=8.50D-02 DE=-6.02D-01 OVMax= 0.00D+00

 Cycle   3  Pass 1  IDiag  1:
 E= 0.575415666049821E-01 Delta-E=       -0.114710254256 Rises=F Damp=F
 DIIS: error= 5.80D-03 at cycle   3 NSaved=   3.
 NSaved= 3 IEnMin= 3 EnMin= 0.575415666049821E-01 IErMin= 3 ErrMin= 5.80D-03
 ErrMax= 5.80D-03  0.00D+00 EMaxC= 1.00D-01 BMatC= 9.35D-03 BMatP= 9.40D-02
 IDIUse=3 WtCom= 9.42D-01 WtEn= 5.80D-02
 Coeff-Com:  0.874D-01-0.444D+00 0.136D+01
 Coeff-En:   0.000D+00 0.000D+00 0.100D+01
 Coeff:      0.823D-01-0.418D+00 0.134D+01
 RMSDP=4.01D-03 MaxDP=3.71D-02 DE=-1.15D-01 OVMax= 0.00D+00

 Cycle   4  Pass 1  IDiag  3:
 E= 0.395119720163848E-01 Delta-E=       -0.018029594589 Rises=F Damp=F
 DIIS: error= 3.58D-03 at cycle   4 NSaved=   4.
 NSaved= 4 IEnMin= 4 EnMin= 0.395119720163848E-01 IErMin= 4 ErrMin= 3.58D-03
 ErrMax= 3.58D-03  0.00D+00 EMaxC= 1.00D-01 BMatC= 1.63D-03 BMatP= 9.35D-03
 IDIUse=3 WtCom= 9.64D-01 WtEn= 3.58D-02
 Coeff-Com: -0.217D-01 0.148D+00-0.831D+00 0.171D+01
 Coeff-En:   0.000D+00 0.000D+00 0.000D+00 0.100D+01
 Coeff:     -0.209D-01 0.142D+00-0.802D+00 0.168D+01
 Gap=     0.338 Goal=   None    Shift=    0.000
 Gap=     0.297 Goal=   None    Shift=    0.000
 RMSDP=2.45D-03 MaxDP=3.07D-02 DE=-1.80D-02 OVMax= 6.82D-02

 Cycle   5  Pass 1  IDiag  3:
 E= 0.351883241498854E-01 Delta-E=       -0.004323647866 Rises=F Damp=F
 DIIS: error= 1.64D-03 at cycle   5 NSaved=   5.
 NSaved= 5 IEnMin= 5 EnMin= 0.351883241498854E-01 IErMin= 5 ErrMin= 1.64D-03
 ErrMax= 1.64D-03  0.00D+00 EMaxC= 1.00D-01 BMatC= 2.64D-04 BMatP= 1.63D-03
 IDIUse=3 WtCom= 9.84D-01 WtEn= 1.64D-02
 Coeff-Com: -0.125D-02-0.187D-01 0.379D+00-0.115D+01 0.179D+01
 Coeff-En:   0.000D+00 0.000D+00 0.000D+00 0.000D+00 0.100D+01
 Coeff:     -0.123D-02-0.184D-01 0.373D+00-0.113D+01 0.178D+01
 Gap=     0.342 Goal=   None    Shift=    0.000
 Gap=     0.297 Goal=   None    Shift=    0.000
 RMSDP=1.09D-03 MaxDP=1.62D-02 DE=-4.32D-03 OVMax= 2.10D-02

 Cycle   6  Pass 1  IDiag  3:
 E= 0.343841459368264E-01 Delta-E=       -0.000804178213 Rises=F Damp=F
 DIIS: error= 8.48D-04 at cycle   6 NSaved=   6.
 NSaved= 6 IEnMin= 6 EnMin= 0.343841459368264E-01 IErMin= 6 ErrMin= 8.48D-04
 ErrMax= 8.48D-04  0.00D+00 EMaxC= 1.00D-01 BMatC= 5.47D-05 BMatP= 2.64D-04
 IDIUse=3 WtCom= 9.92D-01 WtEn= 8.48D-03
 Coeff-Com:  0.251D-02-0.572D-02-0.725D-01 0.279D+00-0.824D+00 0.162D+01
 Coeff-En:   0.000D+00 0.000D+00 0.000D+00 0.000D+00 0.000D+00 0.100D+01
 Coeff:      0.249D-02-0.567D-02-0.719D-01 0.277D+00-0.817D+00 0.162D+01
 Gap=     0.345 Goal=   None    Shift=    0.000
 Gap=     0.298 Goal=   None    Shift=    0.000
 RMSDP=5.71D-04 MaxDP=8.45D-03 DE=-8.04D-04 OVMax= 1.08D-02

 Cycle   7  Pass 1  IDiag  3:
 E= 0.341839002348934E-01 Delta-E=       -0.000200245702 Rises=F Damp=F
 DIIS: error= 4.77D-04 at cycle   7 NSaved=   7.
 NSaved= 7 IEnMin= 7 EnMin= 0.341839002348934E-01 IErMin= 7 ErrMin= 4.77D-04
 ErrMax= 4.77D-04  0.00D+00 EMaxC= 1.00D-01 BMatC= 1.66D-05 BMatP= 5.47D-05
 IDIUse=3 WtCom= 9.95D-01 WtEn= 4.77D-03
 Coeff-Com: -0.298D-02 0.130D-01-0.259D-01 0.346D-01 0.149D+00-0.974D+00
 Coeff-Com:  0.181D+01
 Coeff-En:   0.000D+00 0.000D+00 0.000D+00 0.000D+00 0.000D+00 0.000D+00
 Coeff-En:   0.100D+01
 Coeff:     -0.297D-02 0.129D-01-0.257D-01 0.344D-01 0.149D+00-0.969D+00
 Coeff:      0.180D+01
 Gap=     0.347 Goal=   None    Shift=    0.000
 Gap=     0.298 Goal=   None    Shift=    0.000
 RMSDP=3.53D-04 MaxDP=5.58D-03 DE=-2.00D-04 OVMax= 8.50D-03

 Cycle   8  Pass 1  IDiag  3:
 E= 0.341140967518641E-01 Delta-E=       -0.000069803483 Rises=F Damp=F
 DIIS: error= 2.35D-04 at cycle   8 NSaved=   8.
 NSaved= 8 IEnMin= 8 EnMin= 0.341140967518641E-01 IErMin= 8 ErrMin= 2.35D-04
 ErrMax= 2.35D-04  0.00D+00 EMaxC= 1.00D-01 BMatC= 5.56D-06 BMatP= 1.66D-05
 IDIUse=3 WtCom= 9.98D-01 WtEn= 2.35D-03
 Coeff-Com: -0.176D-03 0.226D-03 0.712D-02-0.422D-01 0.227D-01 0.364D+00
 Coeff-Com: -0.135D+01 0.200D+01
 Coeff-En:   0.000D+00 0.000D+00 0.000D+00 0.000D+00 0.000D+00 0.000D+00
 Coeff-En:   0.000D+00 0.100D+01
 Coeff:     -0.176D-03 0.226D-03 0.710D-02-0.421D-01 0.226D-01 0.363D+00
 Coeff:     -0.135D+01 0.200D+01
 Gap=     0.348 Goal=   None    Shift=    0.000
 Gap=     0.299 Goal=   None    Shift=    0.000
 RMSDP=2.51D-04 MaxDP=3.67D-03 DE=-6.98D-05 OVMax= 6.81D-03

 Cycle   9  Pass 1  IDiag  3:
 E= 0.340858917909372E-01 Delta-E=       -0.000028204961 Rises=F Damp=F
 DIIS: error= 1.27D-04 at cycle   9 NSaved=   9.
 NSaved= 9 IEnMin= 9 EnMin= 0.340858917909372E-01 IErMin= 9 ErrMin= 1.27D-04
 ErrMax= 1.27D-04  0.00D+00 EMaxC= 1.00D-01 BMatC= 1.90D-06 BMatP= 5.56D-06
 IDIUse=3 WtCom= 9.99D-01 WtEn= 1.27D-03
 Coeff-Com:  0.354D-03-0.104D-02-0.281D-02 0.240D-01-0.469D-01-0.202D-01
 Coeff-Com:  0.443D+00-0.139D+01 0.199D+01
 Coeff-En:   0.000D+00 0.000D+00 0.000D+00 0.000D+00 0.000D+00 0.000D+00
 Coeff-En:   0.000D+00 0.000D+00 0.100D+01
 Coeff:      0.354D-03-0.104D-02-0.280D-02 0.240D-01-0.468D-01-0.202D-01
 Coeff:      0.442D+00-0.139D+01 0.199D+01
 Gap=     0.348 Goal=   None    Shift=    0.000
 Gap=     0.299 Goal=   None    Shift=    0.000
 RMSDP=1.65D-04 MaxDP=2.67D-03 DE=-2.82D-05 OVMax= 4.65D-03

 Cycle  10  Pass 1  IDiag  3:
 E= 0.340752974255452E-01 Delta-E=       -0.000010594365 Rises=F Damp=F
 DIIS: error= 7.09D-05 at cycle  10 NSaved=  10.
 NSaved=10 IEnMin=10 EnMin= 0.340752974255452E-01 IErMin=10 ErrMin= 7.09D-05
 ErrMax= 7.09D-05  0.00D+00 EMaxC= 1.00D-01 BMatC= 6.46D-07 BMatP= 1.90D-06
 IDIUse=1 WtCom= 1.00D+00 WtEn= 0.00D+00
 Coeff-Com: -0.707D-04 0.825D-04 0.135D-02-0.677D-02 0.111D-01 0.487D-02
 Coeff-Com: -0.945D-01 0.377D+00-0.109D+01 0.180D+01
 Coeff:     -0.707D-04 0.825D-04 0.135D-02-0.677D-02 0.111D-01 0.487D-02
 Coeff:     -0.945D-01 0.377D+00-0.109D+01 0.180D+01
 Gap=     0.349 Goal=   None    Shift=    0.000
 Gap=     0.299 Goal=   None    Shift=    0.000
 RMSDP=9.54D-05 MaxDP=1.67D-03 DE=-1.06D-05 OVMax= 2.55D-03

 Cycle  11  Pass 1  IDiag  3:
 E= 0.340718167479963E-01 Delta-E=       -0.000003480678 Rises=F Damp=F
 DIIS: error= 4.90D-05 at cycle  11 NSaved=  11.
 NSaved=11 IEnMin=11 EnMin= 0.340718167479963E-01 IErMin=11 ErrMin= 4.90D-05
 ErrMax= 4.90D-05  0.00D+00 EMaxC= 1.00D-01 BMatC= 2.41D-07 BMatP= 6.46D-07
 IDIUse=1 WtCom= 1.00D+00 WtEn= 0.00D+00
 Coeff-Com: -0.522D-04 0.375D-03-0.218D-02 0.531D-02-0.690D-02 0.196D-02
 Coeff-Com:  0.121D-01-0.345D-01 0.200D+00-0.969D+00 0.179D+01
 Coeff:     -0.522D-04 0.375D-03-0.218D-02 0.531D-02-0.690D-02 0.196D-02
 Coeff:      0.121D-01-0.345D-01 0.200D+00-0.969D+00 0.179D+01
 Gap=     0.349 Goal=   None    Shift=    0.000
 Gap=     0.299 Goal=   None    Shift=    0.000
 RMSDP=5.82D-05 MaxDP=9.80D-04 DE=-3.48D-06 OVMax= 1.62D-03

 Cycle  12  Pass 1  IDiag  3:
 E= 0.340705641212935E-01 Delta-E=       -0.000001252627 Rises=F Damp=F
 DIIS: error= 3.32D-05 at cycle  12 NSaved=  12.
 NSaved=12 IEnMin=12 EnMin= 0.340705641212935E-01 IErMin=12 ErrMin= 3.32D-05
 ErrMax= 3.32D-05  0.00D+00 EMaxC= 1.00D-01 BMatC= 8.68D-08 BMatP= 2.41D-07
 IDIUse=1 WtCom= 1.00D+00 WtEn= 0.00D+00
 Coeff-Com: -0.124D-04-0.200D-04 0.430D-03-0.146D-02 0.618D-03 0.680D-02
 Coeff-Com: -0.250D-01 0.479D-01-0.329D-01 0.925D-01-0.832D+00 0.174D+01
 Coeff:     -0.124D-04-0.200D-04 0.430D-03-0.146D-02 0.618D-03 0.680D-02
 Coeff:     -0.250D-01 0.479D-01-0.329D-01 0.925D-01-0.832D+00 0.174D+01
 Gap=     0.349 Goal=   None    Shift=    0.000
 Gap=     0.299 Goal=   None    Shift=    0.000
 RMSDP=3.64D-05 MaxDP=5.08D-04 DE=-1.25D-06 OVMax= 1.05D-03

 Cycle  13  Pass 1  IDiag  3:
 E= 0.340701249079984E-01 Delta-E=       -0.000000439213 Rises=F Damp=F
 DIIS: error= 1.96D-05 at cycle  13 NSaved=  13.
 NSaved=13 IEnMin=13 EnMin= 0.340701249079984E-01 IErMin=13 ErrMin= 1.96D-05
 ErrMax= 1.96D-05  0.00D+00 EMaxC= 1.00D-01 BMatC= 2.67D-08 BMatP= 8.68D-08
 IDIUse=1 WtCom= 1.00D+00 WtEn= 0.00D+00
 Coeff-Com: -0.429D-05 0.532D-04-0.447D-03 0.117D-02-0.120D-02-0.869D-03
 Coeff-Com:  0.176D-02-0.241D-02 0.144D-01-0.131D-01 0.959D-01-0.727D+00
 Coeff-Com:  0.163D+01
 Coeff:     -0.429D-05 0.532D-04-0.447D-03 0.117D-02-0.120D-02-0.869D-03
 Coeff:      0.176D-02-0.241D-02 0.144D-01-0.131D-01 0.959D-01-0.727D+00
 Coeff:      0.163D+01
 Gap=     0.349 Goal=   None    Shift=    0.000
 Gap=     0.299 Goal=   None    Shift=    0.000
 RMSDP=1.85D-05 MaxDP=2.69D-04 DE=-4.39D-07 OVMax= 5.24D-04

 Cycle  14  Pass 1  IDiag  3:
 E= 0.340700038353816E-01 Delta-E=       -0.000000121073 Rises=F Damp=F
 DIIS: error= 1.06D-05 at cycle  14 NSaved=  14.
 NSaved=14 IEnMin=14 EnMin= 0.340700038353816E-01 IErMin=14 ErrMin= 1.06D-05
 ErrMax= 1.06D-05  0.00D+00 EMaxC= 1.00D-01 BMatC= 8.08D-09 BMatP= 2.67D-08
 IDIUse=1 WtCom= 1.00D+00 WtEn= 0.00D+00
 Coeff-Com:  0.343D-05-0.263D-04 0.138D-03-0.351D-03 0.199D-03 0.177D-02
 Coeff-Com: -0.318D-02-0.102D-02-0.138D-02 0.255D-01-0.141D-01 0.726D-01
 Coeff-Com: -0.707D+00 0.163D+01
 Coeff:      0.343D-05-0.263D-04 0.138D-03-0.351D-03 0.199D-03 0.177D-02
 Coeff:     -0.318D-02-0.102D-02-0.138D-02 0.255D-01-0.141D-01 0.726D-01
 Coeff:     -0.707D+00 0.163D+01
 Gap=     0.349 Goal=   None    Shift=    0.000
 Gap=     0.299 Goal=   None    Shift=    0.000
 RMSDP=9.06D-06 MaxDP=1.65D-04 DE=-1.21D-07 OVMax= 2.27D-04

 Cycle  15  Pass 1  IDiag  3:
 E= 0.340699690952988E-01 Delta-E=       -0.000000034740 Rises=F Damp=F
 DIIS: error= 5.82D-06 at cycle  15 NSaved=  15.
 NSaved=15 IEnMin=15 EnMin= 0.340699690952988E-01 IErMin=15 ErrMin= 5.82D-06
 ErrMax= 5.82D-06  0.00D+00 EMaxC= 1.00D-01 BMatC= 2.39D-09 BMatP= 8.08D-09
 IDIUse=1 WtCom= 1.00D+00 WtEn= 0.00D+00
 Coeff-Com:  0.277D-05-0.148D-04 0.917D-04-0.217D-03 0.558D-03-0.142D-02
 Coeff-Com:  0.247D-02-0.217D-02 0.458D-04-0.253D-02 0.141D-01-0.863D-02
 Coeff-Com:  0.110D+00-0.819D+00 0.171D+01
 Coeff:      0.277D-05-0.148D-04 0.917D-04-0.217D-03 0.558D-03-0.142D-02
 Coeff:      0.247D-02-0.217D-02 0.458D-04-0.253D-02 0.141D-01-0.863D-02
 Coeff:      0.110D+00-0.819D+00 0.171D+01
 Gap=     0.349 Goal=   None    Shift=    0.000
 Gap=     0.299 Goal=   None    Shift=    0.000
 RMSDP=5.19D-06 MaxDP=1.09D-04 DE=-3.47D-08 OVMax= 1.06D-04

 Cycle  16  Pass 1  IDiag  3:
 E= 0.340699578263184E-01 Delta-E=       -0.000000011269 Rises=F Damp=F
 DIIS: error= 2.57D-06 at cycle  16 NSaved=  16.
 NSaved=16 IEnMin=16 EnMin= 0.340699578263184E-01 IErMin=16 ErrMin= 2.57D-06
 ErrMax= 2.57D-06  0.00D+00 EMaxC= 1.00D-01 BMatC= 6.57D-10 BMatP= 2.39D-09
 IDIUse=1 WtCom= 1.00D+00 WtEn= 0.00D+00
 Coeff-Com:  0.910D-06-0.350D-05 0.849D-05-0.256D-04 0.916D-04-0.262D-03
 Coeff-Com:  0.149D-03 0.494D-03-0.156D-03-0.527D-02 0.492D-02 0.560D-02
 Coeff-Com: -0.165D-01 0.193D+00-0.927D+00 0.175D+01
 Coeff:      0.910D-06-0.350D-05 0.849D-05-0.256D-04 0.916D-04-0.262D-03
 Coeff:      0.149D-03 0.494D-03-0.156D-03-0.527D-02 0.492D-02 0.560D-02
 Coeff:     -0.165D-01 0.193D+00-0.927D+00 0.175D+01
 Gap=     0.349 Goal=   None    Shift=    0.000
 Gap=     0.299 Goal=   None    Shift=    0.000
 RMSDP=3.01D-06 MaxDP=6.28D-05 DE=-1.13D-08 OVMax= 8.42D-05

 Cycle  17  Pass 1  IDiag  3:
 E= 0.340699543788787E-01 Delta-E=       -0.000000003447 Rises=F Damp=F
 DIIS: error= 1.19D-06 at cycle  17 NSaved=  17.
 NSaved=17 IEnMin=17 EnMin= 0.340699543788787E-01 IErMin=17 ErrMin= 1.19D-06
 ErrMax= 1.19D-06  0.00D+00 EMaxC= 1.00D-01 BMatC= 2.01D-10 BMatP= 6.57D-10
 IDIUse=1 WtCom= 1.00D+00 WtEn= 0.00D+00
 Coeff-Com:  0.108D-05-0.556D-05 0.501D-04-0.131D-03 0.247D-03-0.352D-03
 Coeff-Com:  0.577D-03-0.932D-03 0.113D-02-0.171D-03-0.307D-02 0.270D-02
 Coeff-Com:  0.365D-02-0.382D-01 0.298D+00-0.108D+01 0.182D+01
 Coeff:      0.108D-05-0.556D-05 0.501D-04-0.131D-03 0.247D-03-0.352D-03
 Coeff:      0.577D-03-0.932D-03 0.113D-02-0.171D-03-0.307D-02 0.270D-02
 Coeff:      0.365D-02-0.382D-01 0.298D+00-0.108D+01 0.182D+01
 Gap=     0.349 Goal=   None    Shift=    0.000
 Gap=     0.299 Goal=   None    Shift=    0.000
 RMSDP=1.71D-06 MaxDP=3.31D-05 DE=-3.45D-09 OVMax= 5.70D-05

 Cycle  18  Pass 1  IDiag  3:
 E= 0.340699532983990E-01 Delta-E=       -0.000000001080 Rises=F Damp=F
 DIIS: error= 6.18D-07 at cycle  18 NSaved=  18.
 NSaved=18 IEnMin=18 EnMin= 0.340699532983990E-01 IErMin=18 ErrMin= 6.18D-07
 ErrMax= 6.18D-07  0.00D+00 EMaxC= 1.00D-01 BMatC= 6.68D-11 BMatP= 2.01D-10
 IDIUse=1 WtCom= 1.00D+00 WtEn= 0.00D+00
 Coeff-Com: -0.405D-06 0.134D-06 0.200D-04-0.684D-04 0.168D-03-0.373D-03
 Coeff-Com:  0.343D-03 0.325D-03-0.100D-02 0.303D-03 0.160D-02-0.186D-02
 Coeff-Com: -0.125D-03 0.136D-01-0.547D-01 0.266D+00-0.103D+01 0.181D+01
 Coeff:     -0.405D-06 0.134D-06 0.200D-04-0.684D-04 0.168D-03-0.373D-03
 Coeff:      0.343D-03 0.325D-03-0.100D-02 0.303D-03 0.160D-02-0.186D-02
 Coeff:     -0.125D-03 0.136D-01-0.547D-01 0.266D+00-0.103D+01 0.181D+01
 Gap=     0.349 Goal=   None    Shift=    0.000
 Gap=     0.299 Goal=   None    Shift=    0.000
 RMSDP=1.02D-06 MaxDP=2.04D-05 DE=-1.08D-09 OVMax= 3.70D-05

 Cycle  19  Pass 1  IDiag  3:
 E= 0.340699529391486E-01 Delta-E=       -0.000000000359 Rises=F Damp=F
 DIIS: error= 3.50D-07 at cycle  19 NSaved=  19.
 NSaved=19 IEnMin=19 EnMin= 0.340699529391486E-01 IErMin=19 ErrMin= 3.50D-07
 ErrMax= 3.50D-07  0.00D+00 EMaxC= 1.00D-01 BMatC= 2.00D-11 BMatP= 6.68D-11
 IDIUse=1 WtCom= 1.00D+00 WtEn= 0.00D+00
 Coeff-Com:  0.449D-06-0.128D-05 0.108D-04-0.307D-04 0.568D-04-0.320D-04
 Coeff-Com: -0.570D-04-0.100D-03 0.656D-03-0.825D-03 0.603D-03-0.105D-02
 Coeff-Com:  0.747D-03-0.267D-02 0.128D-01-0.281D-01 0.194D+00-0.952D+00
 Coeff-Com:  0.178D+01
 Coeff:      0.449D-06-0.128D-05 0.108D-04-0.307D-04 0.568D-04-0.320D-04
 Coeff:     -0.570D-04-0.100D-03 0.656D-03-0.825D-03 0.603D-03-0.105D-02
 Coeff:      0.747D-03-0.267D-02 0.128D-01-0.281D-01 0.194D+00-0.952D+00
 Coeff:      0.178D+01
 Gap=     0.349 Goal=   None    Shift=    0.000
 Gap=     0.299 Goal=   None    Shift=    0.000
 RMSDP=5.97D-07 MaxDP=1.09D-05 DE=-3.59D-10 OVMax= 2.16D-05

 Cycle  20  Pass 1  IDiag  3:
 E= 0.340699528355231E-01 Delta-E=       -0.000000000104 Rises=F Damp=F
 DIIS: error= 1.58D-07 at cycle  20 NSaved=  20.
 NSaved=20 IEnMin=20 EnMin= 0.340699528355231E-01 IErMin=20 ErrMin= 1.58D-07
 ErrMax= 1.58D-07  0.00D+00 EMaxC= 1.00D-01 BMatC= 4.59D-12 BMatP= 2.00D-11
 IDIUse=1 WtCom= 1.00D+00 WtEn= 0.00D+00
 Coeff-Com: -0.112D-06 0.726D-06-0.117D-06-0.508D-05 0.285D-04-0.915D-04
 Coeff-Com:  0.134D-03-0.596D-04-0.140D-03 0.301D-03-0.713D-05-0.439D-04
 Coeff-Com: -0.447D-03 0.144D-02-0.358D-02 0.842D-02-0.162D-01 0.120D+00
 Coeff-Com: -0.675D+00 0.156D+01
 Coeff:     -0.112D-06 0.726D-06-0.117D-06-0.508D-05 0.285D-04-0.915D-04
 Coeff:      0.134D-03-0.596D-04-0.140D-03 0.301D-03-0.713D-05-0.439D-04
 Coeff:     -0.447D-03 0.144D-02-0.358D-02 0.842D-02-0.162D-01 0.120D+00
 Coeff:     -0.675D+00 0.156D+01
 Gap=     0.349 Goal=   None    Shift=    0.000
 Gap=     0.299 Goal=   None    Shift=    0.000
 RMSDP=2.57D-07 MaxDP=4.04D-06 DE=-1.04D-10 OVMax= 8.89D-06

 Cycle  21  Pass 1  IDiag  3:
 E= 0.340699528169353E-01 Delta-E=       -0.000000000019 Rises=F Damp=F
 DIIS: error= 6.62D-08 at cycle  21 NSaved=  20.
 NSaved=20 IEnMin=20 EnMin= 0.340699528169353E-01 IErMin=20 ErrMin= 6.62D-08
 ErrMax= 6.62D-08  0.00D+00 EMaxC= 1.00D-01 BMatC= 9.18D-13 BMatP= 4.59D-12
 IDIUse=1 WtCom= 1.00D+00 WtEn= 0.00D+00
 Coeff-Com:  0.166D-07-0.121D-06 0.126D-05-0.462D-05 0.972D-05 0.295D-05
 Coeff-Com: -0.653D-04 0.159D-03-0.190D-03 0.530D-04 0.718D-04-0.674D-04
 Coeff-Com: -0.155D-03 0.906D-03-0.394D-02 0.150D-01-0.232D-01 0.987D-01
 Coeff-Com: -0.576D+00 0.149D+01
 Coeff:      0.166D-07-0.121D-06 0.126D-05-0.462D-05 0.972D-05 0.295D-05
 Coeff:     -0.653D-04 0.159D-03-0.190D-03 0.530D-04 0.718D-04-0.674D-04
 Coeff:     -0.155D-03 0.906D-03-0.394D-02 0.150D-01-0.232D-01 0.987D-01
 Coeff:     -0.576D+00 0.149D+01
 Gap=     0.349 Goal=   None    Shift=    0.000
 Gap=     0.299 Goal=   None    Shift=    0.000
 RMSDP=8.48D-08 MaxDP=9.72D-07 DE=-1.86D-11 OVMax= 2.21D-06

 Cycle  22  Pass 1  IDiag  3:
 E= 0.340699528140931E-01 Delta-E=       -0.000000000003 Rises=F Damp=F
 DIIS: error= 5.04D-08 at cycle  22 NSaved=  20.
 NSaved=20 IEnMin=20 EnMin= 0.340699528140931E-01 IErMin=20 ErrMin= 5.04D-08
 ErrMax= 5.04D-08  0.00D+00 EMaxC= 1.00D-01 BMatC= 2.18D-13 BMatP= 9.18D-13
 IDIUse=1 WtCom= 1.00D+00 WtEn= 0.00D+00
 Coeff-Com:  0.604D-06-0.205D-05 0.471D-05-0.808D-05-0.801D-06 0.373D-04
 Coeff-Com: -0.105D-03 0.133D-03-0.935D-04 0.102D-03-0.362D-04 0.106D-03
 Coeff-Com: -0.803D-03 0.167D-02-0.666D-02 0.222D-01-0.428D-01 0.189D+00
 Coeff-Com: -0.883D+00 0.172D+01
 Coeff:      0.604D-06-0.205D-05 0.471D-05-0.808D-05-0.801D-06 0.373D-04
 Coeff:     -0.105D-03 0.133D-03-0.935D-04 0.102D-03-0.362D-04 0.106D-03
 Coeff:     -0.803D-03 0.167D-02-0.666D-02 0.222D-01-0.428D-01 0.189D+00
 Coeff:     -0.883D+00 0.172D+01
 Gap=     0.349 Goal=   None    Shift=    0.000
 Gap=     0.299 Goal=   None    Shift=    0.000
 RMSDP=3.67D-08 MaxDP=4.33D-07 DE=-2.84D-12 OVMax= 1.04D-06

 Cycle  23  Pass 1  IDiag  3:
 E= 0.340699528131836E-01 Delta-E=       -0.000000000001 Rises=F Damp=F
 DIIS: error= 2.70D-08 at cycle  23 NSaved=  20.
 NSaved=20 IEnMin=20 EnMin= 0.340699528131836E-01 IErMin=20 ErrMin= 2.70D-08
 ErrMax= 2.70D-08  0.00D+00 EMaxC= 1.00D-01 BMatC= 4.88D-14 BMatP= 2.18D-13
 IDIUse=1 WtCom= 1.00D+00 WtEn= 0.00D+00
 Coeff-Com: -0.345D-07-0.743D-06 0.378D-05-0.687D-05-0.283D-06 0.303D-04
 Coeff-Com: -0.623D-04 0.621D-04-0.871D-04 0.171D-04 0.112D-03 0.329D-03
 Coeff-Com: -0.963D-03 0.266D-02-0.101D-01 0.258D-01-0.803D-01 0.373D+00
 Coeff-Com: -0.115D+01 0.184D+01
 Coeff:     -0.345D-07-0.743D-06 0.378D-05-0.687D-05-0.283D-06 0.303D-04
 Coeff:     -0.623D-04 0.621D-04-0.871D-04 0.171D-04 0.112D-03 0.329D-03
 Coeff:     -0.963D-03 0.266D-02-0.101D-01 0.258D-01-0.803D-01 0.373D+00
 Coeff:     -0.115D+01 0.184D+01
 Gap=     0.349 Goal=   None    Shift=    0.000
 Gap=     0.299 Goal=   None    Shift=    0.000
 RMSDP=2.03D-08 MaxDP=4.09D-07 DE=-9.09D-13 OVMax= 6.64D-07

 Cycle  24  Pass 1  IDiag  3:
 E= 0.340699528132973E-01 Delta-E=        0.000000000000 Rises=F Damp=F
 DIIS: error= 1.07D-08 at cycle  24 NSaved=  20.
 NSaved=20 IEnMin=19 EnMin= 0.340699528131836E-01 IErMin=20 ErrMin= 1.07D-08
 ErrMax= 1.07D-08  0.00D+00 EMaxC= 1.00D-01 BMatC= 9.43D-15 BMatP= 4.88D-14
 IDIUse=1 WtCom= 1.00D+00 WtEn= 0.00D+00
 Large coefficients: NSaved= 20 BigCof=    0.00 CofMax=   10.00 Det=-2.16D-15
 Inversion failed.  Reducing to 19 matrices.
 Large coefficients: NSaved= 19 BigCof=    0.00 CofMax=   10.00 Det=-2.17D-15
 Inversion failed.  Reducing to 18 matrices.
 Large coefficients: NSaved= 18 BigCof=    0.00 CofMax=   10.00 Det=-2.17D-15
 Inversion failed.  Reducing to 17 matrices.
 Large coefficients: NSaved= 17 BigCof=    0.00 CofMax=   10.00 Det=-2.17D-15
 Inversion failed.  Reducing to 16 matrices.
 Large coefficients: NSaved= 16 BigCof=    0.00 CofMax=   10.00 Det=-2.18D-15
 Inversion failed.  Reducing to 15 matrices.
 Coeff-Com: -0.433D-05 0.265D-05 0.264D-04 0.118D-04-0.928D-04-0.111D-03
 Coeff-Com:  0.405D-03-0.107D-02 0.312D-02-0.795D-02 0.273D-01-0.104D+00
 Coeff-Com:  0.366D+00-0.984D+00 0.170D+01
 Coeff:     -0.433D-05 0.265D-05 0.264D-04 0.118D-04-0.928D-04-0.111D-03
 Coeff:      0.405D-03-0.107D-02 0.312D-02-0.795D-02 0.273D-01-0.104D+00
 Coeff:      0.366D+00-0.984D+00 0.170D+01
 Gap=     0.349 Goal=   None    Shift=    0.000
 Gap=     0.299 Goal=   None    Shift=    0.000
 RMSDP=9.21D-09 MaxDP=2.23D-07 DE= 1.14D-13 OVMax= 3.16D-07

 Cycle  25  Pass 2  IDiag  1:
 SCF Done:  E(UPM6) =  0.340699528133E-01 A.U. after   25 cycles
            NFock= 24  Conv=0.92D-08     -V/T= 1.0003
 <Sx>= 0.0000 <Sy>= 0.0000 <Sz>= 0.5000 <S**2>= 0.7840 S= 0.5168
 <L.S>=  0.00000000000    
 KE=-1.027962184379D+02 PE=-4.998632827279D+02 EE= 2.832453254003D+02
 Annihilation of the first spin contaminant:
 S**2 before annihilation     0.7840,   after     0.7503
 Leave Link  502 at Thu Apr  2 20:34:27 2020, MaxMem=   131072000 cpu:               0.6 elap:               0.2
 (Enter /home/dranasinghe/Software/G16_avx2/g16/l801.exe)
 Range of M.O.s used for correlation:     1    49
 NBasis=    49 NAE=    28 NBE=    27 NFC=     0 NFV=     0
 NROrb=     49 NOA=    28 NOB=    27 NVA=    21 NVB=    22
 Leave Link  801 at Thu Apr  2 20:34:27 2020, MaxMem=   131072000 cpu:               0.1 elap:               0.0
 (Enter /home/dranasinghe/Software/G16_avx2/g16/l1101.exe)
 Using compressed storage, NAtomX=    22.
 Will process     23 centers per pass.
 Leave Link 1101 at Thu Apr  2 20:34:27 2020, MaxMem=   131072000 cpu:               0.2 elap:               0.0
 (Enter /home/dranasinghe/Software/G16_avx2/g16/l1102.exe)
 Symmetrizing basis deriv contribution to polar:
 IMax=3 JMax=2 DiffMx= 0.00D+00
 Leave Link 1102 at Thu Apr  2 20:34:27 2020, MaxMem=   131072000 cpu:               0.1 elap:               0.0
 (Enter /home/dranasinghe/Software/G16_avx2/g16/l1110.exe)
 Forming Gx(P) for the SCF density, NAtomX=    22.
 Integral derivatives from FoFJK, PRISM(SPDF).
 Do as many integral derivatives as possible in FoFJK.
 G2DrvN: MDV=     131011228.
 G2DrvN: will do    23 centers at a time, making    1 passes.
 Calling FoFCou, ICntrl=  3107 FMM=F I1Cent=   0 AccDes= 0.00D+00.
 FoFJK:  IHMeth=40 ICntrl=    3107 DoSepK=F KAlg= 0 I1Cent=           0 FoldK=F
 IRaf=         0 NMat=       1 IRICut=       1 DoRegI=T DoRafI=F ISym2E= 0 IDoP0=3 IntGTp=3.
 FoFCou: FMM=F IPFlag=           0 FMFlag=      100000 FMFlg1=           0
         NFxFlg=           0 DoJE=F BraDBF=F KetDBF=F FulRan=T
         wScrn=  0.000000 ICntrl=      3107 IOpCl=  1 I1Cent=           0 NGrid=           0
         NMat0=    1 NMatS0=      1 NMatT0=    0 NMatD0=    1 NMtDS0=    0 NMtDT0=    0
 Symmetry not used in FoFCou.
 End of G2Drv F.D. properties file   721 does not exist.
 End of G2Drv F.D. properties file   722 does not exist.
 End of G2Drv F.D. properties file   788 does not exist.
 Leave Link 1110 at Thu Apr  2 20:34:28 2020, MaxMem=   131072000 cpu:               0.1 elap:               0.0
 (Enter /home/dranasinghe/Software/G16_avx2/g16/l1002.exe)
 Minotr:  UHF open shell wavefunction.
          IDoAtm=1111111111111111111111
          Direct CPHF calculation.
          Differentiating once with respect to electric field.
                with respect to dipole field.
          Differentiating once with respect to nuclear coordinates.
          Electric field/nuclear overlap derivatives assumed to be zero.
          Requested convergence is 1.0D-08 RMS, and 1.0D-07 maximum.
          NewPWx=T KeepS1=F KeepF1=F KeepIn=T MapXYZ=F SortEE=F KeepMc=T.
 Keep J ints in memory in canonical form, NReq=867286.
 FoFCou: FMM=F IPFlag=           0 FMFlag=           0 FMFlg1=           0
         NFxFlg=           0 DoJE=F BraDBF=F KetDBF=F FulRan=T
         wScrn=  0.000000 ICntrl=       600 IOpCl=  2 I1Cent=           0 NGrid=           0
         NMat0=    1 NMatS0=    103 NMatT0=    0 NMatD0=    1 NMtDS0=    0 NMtDT0=    0
 Symmetry not used in FoFCou.
 Two-electron integral symmetry not used.
          MDV=     131072000 using IRadAn=       1.
          Solving linear equations separately, MaxMat=       0.
          There are    69 degrees of freedom in the 1st order CPHF.  IDoFFX=5 NUNeed=    69.
 LinEq1:  Iter=  0 NonCon=    69 RMS=2.24D-01 Max=4.10D+00 NDo=    69
 AX will form    69 AO Fock derivatives at one time.
 LinEq1:  Iter=  1 NonCon=    69 RMS=4.35D-02 Max=7.09D-01 NDo=    69
 LinEq1:  Iter=  2 NonCon=    69 RMS=1.21D-02 Max=1.92D-01 NDo=    69
 LinEq1:  Iter=  3 NonCon=    69 RMS=2.15D-03 Max=2.49D-02 NDo=    69
 LinEq1:  Iter=  4 NonCon=    69 RMS=4.16D-04 Max=4.82D-03 NDo=    69
 LinEq1:  Iter=  5 NonCon=    69 RMS=9.64D-05 Max=1.44D-03 NDo=    69
 LinEq1:  Iter=  6 NonCon=    69 RMS=2.04D-05 Max=2.37D-04 NDo=    69
 LinEq1:  Iter=  7 NonCon=    65 RMS=4.29D-06 Max=4.72D-05 NDo=    69
 LinEq1:  Iter=  8 NonCon=    25 RMS=8.89D-07 Max=1.62D-05 NDo=    69
 LinEq1:  Iter=  9 NonCon=     5 RMS=1.79D-07 Max=1.99D-06 NDo=    25
 LinEq1:  Iter= 10 NonCon=     3 RMS=3.19D-08 Max=3.46D-07 NDo=     5
 LinEq1:  Iter= 11 NonCon=     0 RMS=5.69D-09 Max=5.32D-08 NDo=     3
 Linear equations converged to 1.000D-08 1.000D-07 after    11 iterations.
 FullF1:  Do perturbations      1 to       3.
 Isotropic polarizability for W=    0.000000       69.56 Bohr**3.
 End of Minotr F.D. properties file   721 does not exist.
 End of Minotr F.D. properties file   722 does not exist.
 End of Minotr F.D. properties file   788 does not exist.
 Leave Link 1002 at Thu Apr  2 20:34:28 2020, MaxMem=   131072000 cpu:               0.7 elap:               0.2
 (Enter /home/dranasinghe/Software/G16_avx2/g16/l601.exe)
 Copying SCF densities to generalized density rwf, IOpCl= 1 IROHF=0.

 **********************************************************************

            Population analysis using the SCF Density.

 **********************************************************************

 Orbital symmetries:
 Alpha Orbitals:
       Occupied  (A) (A) (A) (A) (A) (A) (A) (A) (A) (A) (A) (A)
                 (A) (A) (A) (A) (A) (A) (A) (A) (A) (A) (A) (A)
                 (A) (A) (A) (A)
       Virtual   (A) (A) (A) (A) (A) (A) (A) (A) (A) (A) (A) (A)
                 (A) (A) (A) (A) (A) (A) (A) (A) (A)
 Beta  Orbitals:
       Occupied  (A) (A) (A) (A) (A) (A) (A) (A) (A) (A) (A) (A)
                 (A) (A) (A) (A) (A) (A) (A) (A) (A) (A) (A) (A)
                 (A) (A) (A)
       Virtual   (A) (A) (A) (A) (A) (A) (A) (A) (A) (A) (A) (A)
                 (A) (A) (A) (A) (A) (A) (A) (A) (A) (A)
 The electronic state is 2-A.
 Alpha  occ. eigenvalues --   -1.17733  -1.14037  -1.09729  -1.04591  -0.97675
 Alpha  occ. eigenvalues --   -0.92929  -0.87548  -0.80504  -0.75140  -0.67302
 Alpha  occ. eigenvalues --   -0.65088  -0.62925  -0.61959  -0.60494  -0.56732
 Alpha  occ. eigenvalues --   -0.55445  -0.53437  -0.52819  -0.52081  -0.48937
 Alpha  occ. eigenvalues --   -0.47286  -0.46442  -0.44077  -0.43350  -0.40269
 Alpha  occ. eigenvalues --   -0.35878  -0.34622  -0.31792
 Alpha virt. eigenvalues --    0.03048   0.06878   0.10494   0.11813   0.14186
 Alpha virt. eigenvalues --    0.14308   0.15149   0.16072   0.17373   0.18825
 Alpha virt. eigenvalues --    0.19028   0.19146   0.19463   0.20504   0.20962
 Alpha virt. eigenvalues --    0.21253   0.21614   0.22022   0.22316   0.23311
 Alpha virt. eigenvalues --    0.26396
  Beta  occ. eigenvalues --   -1.16764  -1.13979  -1.07769  -1.01356  -0.94863
  Beta  occ. eigenvalues --   -0.91924  -0.87224  -0.79972  -0.74642  -0.65856
  Beta  occ. eigenvalues --   -0.64094  -0.62699  -0.60560  -0.59312  -0.55802
  Beta  occ. eigenvalues --   -0.54288  -0.53098  -0.51955  -0.51650  -0.48573
  Beta  occ. eigenvalues --   -0.46800  -0.46121  -0.43928  -0.39874  -0.35920
  Beta  occ. eigenvalues --   -0.34577  -0.32462
  Beta virt. eigenvalues --   -0.02741   0.04695   0.07529   0.10910   0.12235
  Beta virt. eigenvalues --    0.14290   0.14617   0.15299   0.16773   0.18278
  Beta virt. eigenvalues --    0.18920   0.19201   0.19256   0.19776   0.20854
  Beta virt. eigenvalues --    0.21007   0.21413   0.21655   0.22142   0.22361
  Beta virt. eigenvalues --    0.23314   0.26396
          Condensed to atoms (all electrons):
               1          2          3          4          5          6
     1  N    5.537915   0.000000   0.000000   0.000000   0.000000   0.000000
     2  C    0.000000   4.114311   0.000000   0.000000   0.000000   0.000000
     3  C    0.000000   0.000000   4.317553   0.000000   0.000000   0.000000
     4  H    0.000000   0.000000   0.000000   0.856577   0.000000   0.000000
     5  H    0.000000   0.000000   0.000000   0.000000   0.882502   0.000000
     6  C    0.000000   0.000000   0.000000   0.000000   0.000000   3.842843
     7  H    0.000000   0.000000   0.000000   0.000000   0.000000   0.000000
     8  H    0.000000   0.000000   0.000000   0.000000   0.000000   0.000000
     9  N    0.000000   0.000000   0.000000   0.000000   0.000000   0.000000
    10  H    0.000000   0.000000   0.000000   0.000000   0.000000   0.000000
    11  C    0.000000   0.000000   0.000000   0.000000   0.000000   0.000000
    12  C    0.000000   0.000000   0.000000   0.000000   0.000000   0.000000
    13  H    0.000000   0.000000   0.000000   0.000000   0.000000   0.000000
    14  H    0.000000   0.000000   0.000000   0.000000   0.000000   0.000000
    15  H    0.000000   0.000000   0.000000   0.000000   0.000000   0.000000
    16  H    0.000000   0.000000   0.000000   0.000000   0.000000   0.000000
    17  H    0.000000   0.000000   0.000000   0.000000   0.000000   0.000000
    18  H    0.000000   0.000000   0.000000   0.000000   0.000000   0.000000
    19  O    0.000000   0.000000   0.000000   0.000000   0.000000   0.000000
    20  O    0.000000   0.000000   0.000000   0.000000   0.000000   0.000000
    21  H    0.000000   0.000000   0.000000   0.000000   0.000000   0.000000
    22  H    0.000000   0.000000   0.000000   0.000000   0.000000   0.000000
               7          8          9         10         11         12
     1  N    0.000000   0.000000   0.000000   0.000000   0.000000   0.000000
     2  C    0.000000   0.000000   0.000000   0.000000   0.000000   0.000000
     3  C    0.000000   0.000000   0.000000   0.000000   0.000000   0.000000
     4  H    0.000000   0.000000   0.000000   0.000000   0.000000   0.000000
     5  H    0.000000   0.000000   0.000000   0.000000   0.000000   0.000000
     6  C    0.000000   0.000000   0.000000   0.000000   0.000000   0.000000
     7  H    0.841075   0.000000   0.000000   0.000000   0.000000   0.000000
     8  H    0.000000   0.825706   0.000000   0.000000   0.000000   0.000000
     9  N    0.000000   0.000000   5.225720   0.000000   0.000000   0.000000
    10  H    0.000000   0.000000   0.000000   0.867424   0.000000   0.000000
    11  C    0.000000   0.000000   0.000000   0.000000   4.339960   0.000000
    12  C    0.000000   0.000000   0.000000   0.000000   0.000000   4.345481
    13  H    0.000000   0.000000   0.000000   0.000000   0.000000   0.000000
    14  H    0.000000   0.000000   0.000000   0.000000   0.000000   0.000000
    15  H    0.000000   0.000000   0.000000   0.000000   0.000000   0.000000
    16  H    0.000000   0.000000   0.000000   0.000000   0.000000   0.000000
    17  H    0.000000   0.000000   0.000000   0.000000   0.000000   0.000000
    18  H    0.000000   0.000000   0.000000   0.000000   0.000000   0.000000
    19  O    0.000000   0.000000   0.000000   0.000000   0.000000   0.000000
    20  O    0.000000   0.000000   0.000000   0.000000   0.000000   0.000000
    21  H    0.000000   0.000000   0.000000   0.000000   0.000000   0.000000
    22  H    0.000000   0.000000   0.000000   0.000000   0.000000   0.000000
              13         14         15         16         17         18
     1  N    0.000000   0.000000   0.000000   0.000000   0.000000   0.000000
     2  C    0.000000   0.000000   0.000000   0.000000   0.000000   0.000000
     3  C    0.000000   0.000000   0.000000   0.000000   0.000000   0.000000
     4  H    0.000000   0.000000   0.000000   0.000000   0.000000   0.000000
     5  H    0.000000   0.000000   0.000000   0.000000   0.000000   0.000000
     6  C    0.000000   0.000000   0.000000   0.000000   0.000000   0.000000
     7  H    0.000000   0.000000   0.000000   0.000000   0.000000   0.000000
     8  H    0.000000   0.000000   0.000000   0.000000   0.000000   0.000000
     9  N    0.000000   0.000000   0.000000   0.000000   0.000000   0.000000
    10  H    0.000000   0.000000   0.000000   0.000000   0.000000   0.000000
    11  C    0.000000   0.000000   0.000000   0.000000   0.000000   0.000000
    12  C    0.000000   0.000000   0.000000   0.000000   0.000000   0.000000
    13  H    0.833157   0.000000   0.000000   0.000000   0.000000   0.000000
    14  H    0.000000   0.843699   0.000000   0.000000   0.000000   0.000000
    15  H    0.000000   0.000000   0.746607   0.000000   0.000000   0.000000
    16  H    0.000000   0.000000   0.000000   0.839889   0.000000   0.000000
    17  H    0.000000   0.000000   0.000000   0.000000   0.850870   0.000000
    18  H    0.000000   0.000000   0.000000   0.000000   0.000000   0.843507
    19  O    0.000000   0.000000   0.000000   0.000000   0.000000   0.000000
    20  O    0.000000   0.000000   0.000000   0.000000   0.000000   0.000000
    21  H    0.000000   0.000000   0.000000   0.000000   0.000000   0.000000
    22  H    0.000000   0.000000   0.000000   0.000000   0.000000   0.000000
              19         20         21         22
     1  N    0.000000   0.000000   0.000000   0.000000
     2  C    0.000000   0.000000   0.000000   0.000000
     3  C    0.000000   0.000000   0.000000   0.000000
     4  H    0.000000   0.000000   0.000000   0.000000
     5  H    0.000000   0.000000   0.000000   0.000000
     6  C    0.000000   0.000000   0.000000   0.000000
     7  H    0.000000   0.000000   0.000000   0.000000
     8  H    0.000000   0.000000   0.000000   0.000000
     9  N    0.000000   0.000000   0.000000   0.000000
    10  H    0.000000   0.000000   0.000000   0.000000
    11  C    0.000000   0.000000   0.000000   0.000000
    12  C    0.000000   0.000000   0.000000   0.000000
    13  H    0.000000   0.000000   0.000000   0.000000
    14  H    0.000000   0.000000   0.000000   0.000000
    15  H    0.000000   0.000000   0.000000   0.000000
    16  H    0.000000   0.000000   0.000000   0.000000
    17  H    0.000000   0.000000   0.000000   0.000000
    18  H    0.000000   0.000000   0.000000   0.000000
    19  O    6.132309   0.000000   0.000000   0.000000
    20  O    0.000000   6.332675   0.000000   0.000000
    21  H    0.000000   0.000000   0.788489   0.000000
    22  H    0.000000   0.000000   0.000000   0.791730
          Atomic-Atomic Spin Densities.
               1          2          3          4          5          6
     1  N    0.000038   0.000000   0.000000   0.000000   0.000000   0.000000
     2  C    0.000000  -0.000564   0.000000   0.000000   0.000000   0.000000
     3  C    0.000000   0.000000   0.003489   0.000000   0.000000   0.000000
     4  H    0.000000   0.000000   0.000000   0.000091   0.000000   0.000000
     5  H    0.000000   0.000000   0.000000   0.000000   0.000017   0.000000
     6  C    0.000000   0.000000   0.000000   0.000000   0.000000  -0.024401
     7  H    0.000000   0.000000   0.000000   0.000000   0.000000   0.000000
     8  H    0.000000   0.000000   0.000000   0.000000   0.000000   0.000000
     9  N    0.000000   0.000000   0.000000   0.000000   0.000000   0.000000
    10  H    0.000000   0.000000   0.000000   0.000000   0.000000   0.000000
    11  C    0.000000   0.000000   0.000000   0.000000   0.000000   0.000000
    12  C    0.000000   0.000000   0.000000   0.000000   0.000000   0.000000
    13  H    0.000000   0.000000   0.000000   0.000000   0.000000   0.000000
    14  H    0.000000   0.000000   0.000000   0.000000   0.000000   0.000000
    15  H    0.000000   0.000000   0.000000   0.000000   0.000000   0.000000
    16  H    0.000000   0.000000   0.000000   0.000000   0.000000   0.000000
    17  H    0.000000   0.000000   0.000000   0.000000   0.000000   0.000000
    18  H    0.000000   0.000000   0.000000   0.000000   0.000000   0.000000
    19  O    0.000000   0.000000   0.000000   0.000000   0.000000   0.000000
    20  O    0.000000   0.000000   0.000000   0.000000   0.000000   0.000000
    21  H    0.000000   0.000000   0.000000   0.000000   0.000000   0.000000
    22  H    0.000000   0.000000   0.000000   0.000000   0.000000   0.000000
               7          8          9         10         11         12
     1  N    0.000000   0.000000   0.000000   0.000000   0.000000   0.000000
     2  C    0.000000   0.000000   0.000000   0.000000   0.000000   0.000000
     3  C    0.000000   0.000000   0.000000   0.000000   0.000000   0.000000
     4  H    0.000000   0.000000   0.000000   0.000000   0.000000   0.000000
     5  H    0.000000   0.000000   0.000000   0.000000   0.000000   0.000000
     6  C    0.000000   0.000000   0.000000   0.000000   0.000000   0.000000
     7  H   -0.000831   0.000000   0.000000   0.000000   0.000000   0.000000
     8  H    0.000000  -0.000485   0.000000   0.000000   0.000000   0.000000
     9  N    0.000000   0.000000   0.178316   0.000000   0.000000   0.000000
    10  H    0.000000   0.000000   0.000000   0.009751   0.000000   0.000000
    11  C    0.000000   0.000000   0.000000   0.000000   0.395399   0.000000
    12  C    0.000000   0.000000   0.000000   0.000000   0.000000  -0.012505
    13  H    0.000000   0.000000   0.000000   0.000000   0.000000   0.000000
    14  H    0.000000   0.000000   0.000000   0.000000   0.000000   0.000000
    15  H    0.000000   0.000000   0.000000   0.000000   0.000000   0.000000
    16  H    0.000000   0.000000   0.000000   0.000000   0.000000   0.000000
    17  H    0.000000   0.000000   0.000000   0.000000   0.000000   0.000000
    18  H    0.000000   0.000000   0.000000   0.000000   0.000000   0.000000
    19  O    0.000000   0.000000   0.000000   0.000000   0.000000   0.000000
    20  O    0.000000   0.000000   0.000000   0.000000   0.000000   0.000000
    21  H    0.000000   0.000000   0.000000   0.000000   0.000000   0.000000
    22  H    0.000000   0.000000   0.000000   0.000000   0.000000   0.000000
              13         14         15         16         17         18
     1  N    0.000000   0.000000   0.000000   0.000000   0.000000   0.000000
     2  C    0.000000   0.000000   0.000000   0.000000   0.000000   0.000000
     3  C    0.000000   0.000000   0.000000   0.000000   0.000000   0.000000
     4  H    0.000000   0.000000   0.000000   0.000000   0.000000   0.000000
     5  H    0.000000   0.000000   0.000000   0.000000   0.000000   0.000000
     6  C    0.000000   0.000000   0.000000   0.000000   0.000000   0.000000
     7  H    0.000000   0.000000   0.000000   0.000000   0.000000   0.000000
     8  H    0.000000   0.000000   0.000000   0.000000   0.000000   0.000000
     9  N    0.000000   0.000000   0.000000   0.000000   0.000000   0.000000
    10  H    0.000000   0.000000   0.000000   0.000000   0.000000   0.000000
    11  C    0.000000   0.000000   0.000000   0.000000   0.000000   0.000000
    12  C    0.000000   0.000000   0.000000   0.000000   0.000000   0.000000
    13  H   -0.008218   0.000000   0.000000   0.000000   0.000000   0.000000
    14  H    0.000000  -0.008927   0.000000   0.000000   0.000000   0.000000
    15  H    0.000000   0.000000  -0.105405   0.000000   0.000000   0.000000
    16  H    0.000000   0.000000   0.000000   0.001446   0.000000   0.000000
    17  H    0.000000   0.000000   0.000000   0.000000   0.005416   0.000000
    18  H    0.000000   0.000000   0.000000   0.000000   0.000000   0.000568
    19  O    0.000000   0.000000   0.000000   0.000000   0.000000   0.000000
    20  O    0.000000   0.000000   0.000000   0.000000   0.000000   0.000000
    21  H    0.000000   0.000000   0.000000   0.000000   0.000000   0.000000
    22  H    0.000000   0.000000   0.000000   0.000000   0.000000   0.000000
              19         20         21         22
     1  N    0.000000   0.000000   0.000000   0.000000
     2  C    0.000000   0.000000   0.000000   0.000000
     3  C    0.000000   0.000000   0.000000   0.000000
     4  H    0.000000   0.000000   0.000000   0.000000
     5  H    0.000000   0.000000   0.000000   0.000000
     6  C    0.000000   0.000000   0.000000   0.000000
     7  H    0.000000   0.000000   0.000000   0.000000
     8  H    0.000000   0.000000   0.000000   0.000000
     9  N    0.000000   0.000000   0.000000   0.000000
    10  H    0.000000   0.000000   0.000000   0.000000
    11  C    0.000000   0.000000   0.000000   0.000000
    12  C    0.000000   0.000000   0.000000   0.000000
    13  H    0.000000   0.000000   0.000000   0.000000
    14  H    0.000000   0.000000   0.000000   0.000000
    15  H    0.000000   0.000000   0.000000   0.000000
    16  H    0.000000   0.000000   0.000000   0.000000
    17  H    0.000000   0.000000   0.000000   0.000000
    18  H    0.000000   0.000000   0.000000   0.000000
    19  O    0.096675   0.000000   0.000000   0.000000
    20  O    0.000000   0.470126   0.000000   0.000000
    21  H    0.000000   0.000000   0.000015   0.000000
    22  H    0.000000   0.000000   0.000000  -0.000012
 Mulliken charges and spin densities:
               1          2
     1  N   -0.537915   0.000038
     2  C   -0.114311  -0.000564
     3  C   -0.317553   0.003489
     4  H    0.143423   0.000091
     5  H    0.117498   0.000017
     6  C    0.157157  -0.024401
     7  H    0.158925  -0.000831
     8  H    0.174294  -0.000485
     9  N   -0.225720   0.178316
    10  H    0.132576   0.009751
    11  C   -0.339960   0.395399
    12  C   -0.345481  -0.012505
    13  H    0.166843  -0.008218
    14  H    0.156301  -0.008927
    15  H    0.253393  -0.105405
    16  H    0.160111   0.001446
    17  H    0.149130   0.005416
    18  H    0.156493   0.000568
    19  O   -0.132309   0.096675
    20  O   -0.332675   0.470126
    21  H    0.211511   0.000015
    22  H    0.208270  -0.000012
 Sum of Mulliken charges =  -0.00000   1.00000
 Mulliken charges and spin densities with hydrogens summed into heavy atoms:
               1          2
     1  N   -0.118134   0.000042
     2  C    0.146611  -0.000455
     3  C    0.015666   0.002173
     6  C    0.289732  -0.014650
     9  N   -0.225720   0.178316
    11  C   -0.016816   0.378253
    12  C    0.120253  -0.005075
    19  O   -0.132309   0.096675
    20  O   -0.079282   0.364721
 APT charges:
               1
     1  N   -0.585132
     2  C    0.063410
     3  C   -0.394889
     4  H    0.113131
     5  H    0.063575
     6  C    0.315954
     7  H    0.150077
     8  H    0.175752
     9  N   -0.574077
    10  H    0.078395
    11  C    0.212094
    12  C   -0.307135
    13  H    0.080136
    14  H    0.168749
    15  H   -0.291167
    16  H    0.176052
    17  H    0.117385
    18  H    0.168936
    19  O   -0.055413
    20  O   -0.077194
    21  H    0.201230
    22  H    0.200319
 Sum of APT charges =   0.00019
 APT charges with hydrogens summed into heavy atoms:
               1
     1  N   -0.183584
     2  C    0.240115
     3  C   -0.069060
     6  C    0.394349
     9  N   -0.574077
    11  C    0.460979
    12  C    0.155238
    19  O   -0.055413
    20  O   -0.368361
 Charge=              0.0000 electrons
 Dipole moment (field-independent basis, Debye):
    X=              0.8092    Y=             -3.3833    Z=              1.6259  Tot=              3.8399
 N-N= 3.194482457183D+02 E-N=-4.998632827237D+02  KE=-1.027962184379D+02
  Exact polarizability:  67.317   1.410  86.221   8.010  -6.651  55.127
 Approx polarizability:  44.703   2.707  55.973   6.464  -2.338  38.849
 Leave Link  601 at Thu Apr  2 20:34:28 2020, MaxMem=   131072000 cpu:               0.2 elap:               0.1
 (Enter /home/dranasinghe/Software/G16_avx2/g16/l701.exe)
 ... and contract with generalized density number  0.
 Compute integral second derivatives.
 Leave Link  701 at Thu Apr  2 20:34:28 2020, MaxMem=   131072000 cpu:               0.2 elap:               0.1
 (Enter /home/dranasinghe/Software/G16_avx2/g16/l702.exe)
 L702 exits ... SP integral derivatives will be done elsewhere.
 Leave Link  702 at Thu Apr  2 20:34:28 2020, MaxMem=   131072000 cpu:               0.1 elap:               0.0
 (Enter /home/dranasinghe/Software/G16_avx2/g16/l703.exe)
 Integral derivatives from FoFJK, PRISM(SPDF).
 Compute integral second derivatives, UseDBF=F ICtDFT=           0.
 Calling FoFJK, ICntrl=    100127 FMM=F ISym2X=0 I1Cent= 0 IOpClX= 1 NMat=1 NMatS=1 NMatT=0.
 FoFJK:  IHMeth=40 ICntrl=  100127 DoSepK=F KAlg= 0 I1Cent=           0 FoldK=F
 IRaf=         0 NMat=       1 IRICut=       1 DoRegI=T DoRafI=F ISym2E= 0 IDoP0=3 IntGTp=3.
 FoFCou: FMM=F IPFlag=           0 FMFlag=      100000 FMFlg1=         800
         NFxFlg=           0 DoJE=F BraDBF=F KetDBF=F FulRan=T
         wScrn=  0.000000 ICntrl=    100127 IOpCl=  1 I1Cent=           0 NGrid=           0
         NMat0=    1 NMatS0=      1 NMatT0=    0 NMatD0=    1 NMtDS0=    0 NMtDT0=    0
 Symmetry not used in FoFCou.
 Leave Link  703 at Thu Apr  2 20:34:28 2020, MaxMem=   131072000 cpu:               0.1 elap:               0.0
 (Enter /home/dranasinghe/Software/G16_avx2/g16/l716.exe)
 Dipole        = 3.18360092D-01-1.33109246D+00 6.39670434D-01
 Polarizability= 6.73174023D+01 1.40995540D+00 8.62205863D+01
                 8.00955835D+00-6.65082319D+00 5.51274790D+01
 HyperPolar    = 1.69151486D+02-7.67053397D+01 3.12075948D+02
                 9.11821299D+02 9.86326685D+01-8.09557474D+01
                 2.56187763D+02 7.95811997D+01-1.06176864D+02
                 1.55197222D+01
 ***** Axes restored to original set *****
 -------------------------------------------------------------------
 Center     Atomic                   Forces (Hartrees/Bohr)
 Number     Number              X              Y              Z
 -------------------------------------------------------------------
      1        7          -0.015084160   -0.003585319   -0.005389052
      2        6           0.004229617   -0.000131634   -0.002083304
      3        6           0.000004439    0.000609802    0.000724948
      4        1           0.001048319   -0.000293367   -0.000023385
      5        1           0.000623905    0.000548838   -0.000390374
      6        6          -0.000189329    0.000050849   -0.000100513
      7        1           0.000282392   -0.000064746    0.000001715
      8        1           0.000161728   -0.000068954   -0.000043756
      9        7           0.000212143    0.000178984   -0.000053526
     10        1           0.000015089    0.000014228   -0.000064901
     11        6           0.000065899   -0.000306080    0.000029061
     12        6           0.000025867   -0.000026431    0.000004794
     13        1          -0.000130836    0.000031028    0.000040171
     14        1          -0.000036433   -0.000001504    0.000016255
     15        1          -0.000040181    0.000085204    0.000142266
     16        1          -0.000004987    0.000017176    0.000009671
     17        1          -0.000012545   -0.000002171   -0.000004434
     18        1           0.000007922    0.000029976   -0.000020688
     19        8          -0.000119700   -0.000106018    0.000070312
     20        8           0.000246216    0.000081365   -0.000092521
     21        1           0.005043825   -0.001839081    0.004434058
     22        1           0.003650811    0.004777855    0.002793202
 -------------------------------------------------------------------
 Cartesian Forces:  Max     0.015084160 RMS     0.002423220
 FormGI is forming the generalized inverse of G from B-inverse, IUseBI=4.
 Leave Link  716 at Thu Apr  2 20:34:28 2020, MaxMem=   131072000 cpu:               0.1 elap:               0.0
[...]
 98,0.00016025,-0.00013499,0.00022991,-0.00025902,-0.00003531,-0.000073
 43,0.00103460,-0.00191989,-0.00176126,0.00012607,0.00012409,-0.0000505
 0,0.00011409,0.00000814,-0.00007935,0.01765975,-0.00942436,0.00705611,
 -0.00038426,-0.00000257,-0.00002127,0.00035295,0.00032044,0.00001655,-
 0.02782204,0.03796131,-0.08401020,0.00149466,-0.00228276,-0.00207076,-
 0.02716166,0.01355647,-0.01240285,-0.00030774,-0.01425652,0.42645570,0
 .00011255,0.00010501,-0.00032484,-0.00034456,0.00007291,0.00039722,-0.
 00009421,0.00035352,-0.00011095,-0.00025759,0.00017331,0.00032088,-0.0
 0013141,-0.00036904,-0.00009841,0.00173526,-0.00134849,-0.00009427,0.0
 0008073,-0.00003791,-0.00002696,-0.00004227,-0.00006161,-0.00000518,0.
 00197581,0.00104602,-0.00389301,-0.00025269,0.00016127,0.00015263,-0.1
 5112753,0.08254792,-0.05612894,0.00089146,-0.00044244,0.00178070,0.175
 16133,0.00003138,-0.00001323,0.00014101,-0.00015579,0.00001711,0.00011
 595,0.00005831,0.00066998,0.00013713,0.00005431,0.00000234,-0.00022398
 ,-0.00015546,0.00004437,0.00001167,0.00183137,-0.00155368,0.00045499,0
 .00015071,-0.00009566,-0.00007169,-0.00008755,-0.00012784,-0.00001076,
 0.00862835,-0.02423504,0.02545683,-0.00011289,0.00007542,0.00023122,0.
 07237916,-0.04380837,0.02898964,0.00089697,0.00071353,0.00344134,-0.08
 400932,0.07819843,-0.00020189,-0.00002014,-0.00006444,0.00043219,0.000
 05816,-0.00016519,-0.00024810,0.00026834,0.00017705,0.00026530,-0.0001
 7316,-0.00008337,0.00029456,0.00018736,0.00016634,0.00103070,-0.000892
 37,-0.00333521,0.00008056,0.00004806,-0.00007414,-0.00000656,-0.000053
 79,-0.00008388,-0.02169933,0.01979599,-0.01598267,-0.00012932,0.000100
 95,-0.00001178,-0.05024093,0.04187639,-0.06004346,0.00231518,0.0025130
 6,-0.00164979,0.06859182,-0.05240785,0.07950036,0.00013823,0.00000058,
 0.00000244,-0.00011130,-0.00001719,-0.00005186,0.00006206,0.00012863,-
 0.00015101,-0.00004366,0.00000190,-0.00003612,-0.00003377,0.00002124,0
 .00000476,0.00121472,-0.00172707,-0.00036067,0.00000653,-0.00004729,0.
 00003803,-0.00002985,-0.00002563,0.00004391,-0.00548128,-0.00229463,0.
 01715991,-0.00004286,0.00014910,0.00026435,-0.10739464,0.04916200,0.08
 033796,-0.00037001,-0.00044376,0.00001033,-0.01518723,0.01227548,0.010
 37139,0.12424928,-0.00001158,0.00000018,-0.00003029,0.00002603,-0.0000
 2604,0.00001472,-0.00014115,0.00028740,0.00017556,-0.00002385,-0.00000
 392,-0.00001964,-0.00001797,0.00002991,0.00000766,0.00100498,-0.004079
 42,0.00107502,0.00006994,0.00002925,-0.00001666,-0.00004845,-0.0000465
 3,-0.00003543,-0.01289803,0.00623448,0.01919131,-0.00039010,0.00046012
 ,0.00042846,0.05413282,-0.05233701,-0.05069633,0.00048038,-0.00107185,
 0.00143339,0.01017931,-0.00200457,-0.00495663,-0.05452796,0.06345882,-
 0.00009100,-0.00003101,-0.00003009,-0.00001934,-0.00002245,0.00005914,
 0.00007837,-0.00040680,-0.00042254,0.00006455,0.00000989,-0.00000572,0
 .00002000,0.00004783,0.00002990,0.00208594,0.00220412,-0.00143505,-0.0
 0003465,0.00001728,0.00000834,0.00012156,0.00003345,-0.00002432,0.0217
 4792,0.00014979,-0.03176951,0.00004110,-0.00012637,-0.00007626,0.08076
 305,-0.04130418,-0.11730477,-0.00096174,0.00061741,-0.00208041,-0.0010
 4136,0.00126521,0.00585915,-0.10399316,0.04387863,0.15189610,0.0001061
 2,0.00016428,0.00003838,-0.00003251,0.00012785,-0.00008538,0.00015975,
 0.00106627,-0.00028437,-0.00025105,-0.00015312,0.00000630,0.00005231,-
 0.00014488,-0.00005369,0.00182418,-0.00289576,0.00147393,0.00021631,-0
 .00013540,-0.00009311,-0.00004640,-0.00011905,0.00005336,-0.00831186,-
 0.01954126,0.00861330,-0.00015748,0.00013631,0.00024045,-0.01999684,-0
 .00550636,-0.01147392,0.00081240,0.00072949,0.00041418,-0.01022562,-0.
 00872532,-0.00863600,0.00248596,0.00217916,0.00160836,0.06284587,-0.00
 015690,0.00056726,0.00060239,0.00015370,0.00044792,-0.00024938,-0.0000
 0576,0.00461805,0.00021015,-0.00054431,-0.00056718,-0.00036119,0.00054
 397,-0.00042878,-0.00016635,0.01362974,-0.01407394,0.00050086,0.000982
 70,-0.00053601,-0.00067689,-0.00028806,-0.00075372,-0.00005468,-0.0509
 4003,-0.07266598,0.04144642,-0.00125308,0.00037839,0.00130975,0.053254
 26,0.09147658,-0.00379921,0.00694955,0.00608163,0.00332101,-0.01129686
 ,-0.01332786,-0.00956094,-0.00570066,-0.01279518,-0.00904353,0.0183285
 3,-0.02666363,-0.00046323,0.00080545,0.00058536,0.00040218,0.00061987,
 -0.00013833,-0.00030219,0.00528735,0.00078441,-0.00069574,-0.00089336,
 -0.00033950,0.00067025,-0.00054298,-0.00016547,0.01944461,-0.01750734,
 -0.00478961,0.00110639,-0.00053028,-0.00081419,-0.00036182,-0.00102761
 ,-0.00019681,-0.03972074,-0.04509914,0.03619291,-0.00180121,0.00108434
 ,0.00150551,0.08075623,0.16390797,0.00179201,0.00919878,0.00723625,0.0
 0468827,-0.01511595,-0.01938926,-0.00964861,-0.00619600,-0.01476949,-0
 .00633514,-0.03623917,-0.10789756,-0.05123777,0.00001804,-0.00000897,-
 0.00002932,0.00003318,-0.00002064,0.00000535,-0.00005030,0.00020140,0.
 00035441,-0.00001460,-0.00001258,-0.00000219,-0.00001191,0.00002488,0.
 00000636,-0.00160250,0.00108961,-0.00129241,0.00001816,0.00006492,0.00
 001070,-0.00008590,-0.00003628,-0.00000151,-0.01630266,0.02100937,0.01
 743325,-0.00010906,0.00008919,-0.00014058,0.00138283,0.00421755,-0.000
 55579,-0.04261489,0.02207352,0.03122011,-0.00022760,-0.00036867,-0.000
 01742,0.00039564,0.00014957,-0.00008964,-0.00010261,-0.00145515,-0.001
 78690,0.05664342,-0.00006112,-0.00004478,-0.00002407,-0.00000403,-0.00
 003487,0.00004442,0.00000431,-0.00033213,-0.00031725,0.00004335,0.0000
 2081,0.00000308,0.00000440,0.00003817,0.00000960,0.00196038,-0.0005350
 3,0.00098320,-0.00002418,0.00006506,0.00001949,0.00007972,0.00003727,-
 0.00002215,0.02089031,-0.01970897,-0.01647443,0.00007291,-0.00003289,0
 .00010356,-0.00060749,-0.00375196,0.00048620,0.02191246,-0.08569185,-0
 .07518045,0.00023475,0.00030747,0.00006736,0.00026912,-0.00053625,0.00
 088428,0.00026203,0.00064312,0.00108899,-0.04063914,0.11052441,-0.0000
 7723,0.00000273,-0.00005192,0.00007942,0.00000079,0.00003054,-0.000150
 21,0.00022564,0.00030978,0.00000810,-0.00002003,0.00001018,-0.00000836
 ,0.00001982,0.00003188,-0.00125410,0.00014493,-0.00084672,0.00005701,0
 .00001223,-0.00000975,-0.00004103,-0.00003913,-0.00002421,0.00532855,-
 0.00388688,0.00646785,0.00000956,-0.00004587,-0.00012203,-0.00039612,0
 .00093169,-0.00034449,0.03581992,-0.08085477,-0.15361918,0.00011157,0.
 00013480,-0.00003397,-0.00024271,0.00044716,-0.00001621,-0.00008665,-0
 .00002627,0.00008702,-0.04377874,0.09629798,0.17812168,0.00007507,-0.0
 0003583,0.00001699,-0.00004379,-0.00001001,-0.00002784,0.00005412,-0.0
 0024454,-0.00009226,0.00000804,0.00002618,-0.00000042,0.00001125,0.000
 00173,-0.00000349,-0.00124340,0.00068182,0.00034045,-0.00007136,0.0000
 1451,0.00000587,0.00001500,0.00006160,0.00003593,-0.03767768,0.0064895
 4,-0.01568476,-0.00038460,0.00027547,0.00047436,-0.00065590,-0.0018643
 1,-0.00027877,-0.14803351,-0.06889310,-0.04544963,-0.00002514,0.000167
 73,0.00030189,0.00005730,0.00005432,-0.00020916,0.00024351,0.00101822,
 0.00095278,0.00288507,-0.00265027,-0.00290383,0.19409512,-0.00000133,0
 .00002502,-0.00000060,-0.00000651,0.00000743,-0.00001123,0.00004153,0.
 00001241,-0.00017393,-0.00002621,-0.00001710,-0.00000161,-0.00000361,-
 0.00001676,-0.00000622,0.00174541,0.00020726,0.00080332,0.00002890,-0.
 00002445,-0.00001521,0.00003223,-0.00001636,-0.00000631,0.01635653,0.0
 0168389,0.00748952,-0.00001401,0.00017070,-0.00005926,0.00247198,0.003
 67018,0.00000334,-0.07267841,-0.07701935,-0.02870212,-0.00025291,-0.00
 050442,-0.00012005,0.00015269,0.00013429,0.00015153,-0.00004671,-0.001
 74981,-0.00193026,-0.00983699,-0.00719676,-0.00964961,0.07791322,0.088
 28067,-0.00000691,0.00001002,-0.00003980,-0.00001853,-0.00000455,0.000
 01200,-0.00004765,0.00004720,-0.00019308,-0.00001397,-0.00001049,0.000
 00675,-0.00001046,0.00000233,0.00001077,0.00052366,-0.00040447,0.00042
 264,0.00001988,0.00001553,0.00002584,0.00002354,-0.00001325,0.00002125
 ,-0.01476372,0.00205614,-0.00127817,0.00041274,-0.00024764,-0.00011444
 ,0.00010487,0.00024737,-0.00040727,-0.04570918,-0.02721252,-0.05312502
 ,-0.00002609,-0.00007165,0.00003514,-0.00040479,0.00018021,-0.00037237
 ,-0.00022930,-0.00007727,-0.00027405,-0.01394105,-0.01518389,-0.009171
 97,0.06291628,0.03151545,0.05918980,0.00002403,-0.00004272,0.00002511,
 -0.00002752,-0.00004271,0.00001449,0.00011054,-0.00032497,-0.00005006,
 0.00002356,0.00000753,-0.00001025,0.00003266,0.00002223,-0.00001709,0.
 00010500,0.00227456,0.00013716,-0.00012027,0.00013747,0.00000367,-0.00
 001383,0.00004601,0.00000391,0.00358486,0.01609409,-0.01639125,0.00017
 627,0.00024259,0.00021257,-0.00266410,0.00349757,-0.00117377,-0.054317
 67,-0.03952064,0.04508244,0.00028570,0.00035846,-0.00065083,-0.0000718
 7,-0.00004519,0.00024739,-0.00019047,-0.00082769,-0.00092089,0.0004468
 5,-0.00195466,0.00752466,-0.00946896,-0.01500211,0.01112334,0.06244556
 ,-0.00011108,-0.00003952,-0.00005482,0.00004933,-0.00004743,0.00008258
 ,-0.00022671,-0.00002537,0.00013502,0.00003145,0.00000119,0.00001686,-
 0.00001632,0.00004416,0.00002063,0.00126443,-0.00277319,-0.00063127,0.
 00004069,0.00017550,-0.00000524,-0.00000643,-0.00000963,-0.00005195,0.
 00676801,-0.02288631,0.02310308,0.00038125,-0.00069976,-0.00064706,0.0
 0181917,-0.00231197,0.00050397,-0.03557152,-0.10453182,0.07706591,-0.0
 0005234,-0.00019003,0.00052129,0.00008558,0.00002715,-0.00004417,0.000
 16779,0.00060385,0.00090788,0.00241115,0.00677654,-0.00415928,-0.01194
 586,-0.00914637,0.00899242,0.03483076,0.13483375,0.00003147,0.00002695
 ,-0.00006032,-0.00003846,0.00000396,-0.00002103,0.00008416,0.00013101,
 -0.00036907,-0.00003273,-0.00001028,-0.00000239,-0.00002825,0.00001160
 ,0.00000587,0.00053380,-0.00053067,0.00110125,0.00007064,-0.00006653,0
 .00010168,0.00004275,-0.00004758,0.00005644,-0.00728180,0.01518723,-0.
 00890265,0.00019249,-0.00026297,0.00009934,0.00051152,0.00224012,-0.00
 001122,0.04066315,0.08147392,-0.12350675,-0.00010853,-0.00011212,-0.00
 011181,-0.00004005,0.00008930,0.00001865,-0.00016194,-0.00096136,-0.00
 128697,0.01115800,0.00812323,-0.02110365,0.00042547,-0.00045731,0.0052
 0674,-0.04579065,-0.10526093,0.14825103,0.00051148,-0.00085092,-0.0006
 0907,-0.00214283,-0.00194369,-0.00053732,-0.01867062,-0.03480362,0.007
 06908,0.00000421,0.00157574,-0.00000323,-0.00051714,0.00026059,0.00028
 215,-0.05847676,0.05637926,-0.00163972,-0.00412172,0.00008048,0.001276
 61,-0.00014717,0.00068728,0.00048850,0.02684204,0.03203482,-0.01959984
 ,0.00626951,0.01292791,-0.00511809,-0.03722832,-0.06939100,0.00406086,
 -0.00499168,-0.00340678,-0.00281415,0.00200908,0.00937302,0.00320368,0
 .00482947,0.00375474,0.00037316,-0.00298111,0.06273636,0.09296920,0.00
 084384,-0.00087084,0.00012057,-0.00035651,0.00149744,0.00059439,0.0003
 5691,-0.00055386,0.00076806,0.27885851,0.00054827,-0.00050038,0.000127
 58,-0.00168112,-0.00024938,-0.00110515,-0.02545288,-0.01203097,0.00698
 808,0.00008142,0.00047922,-0.00001484,-0.00007947,0.00017387,0.0000189
 3,0.03543744,-0.16906570,0.03697642,0.00076725,0.00010682,0.00014812,-
 0.00065060,0.00027760,0.00087843,0.03162034,-0.02593591,-0.04072154,0.
 00546074,-0.03247958,0.01242533,-0.02163646,-0.05102857,-0.00299924,-0
 .00553359,-0.00559216,-0.00557422,0.00216498,0.00493924,0.00204992,0.0
 0152600,0.00127448,0.00098962,0.01071265,0.03599044,0.04356506,0.00130
 256,-0.00078016,0.00034873,-0.00090190,0.00123739,0.00000695,0.0003180
 4,-0.00008943,0.00049279,-0.02930443,0.30653489,-0.00019881,0.00029696
 ,0.00021718,-0.00035103,-0.00001464,0.00018773,0.00690647,0.00590408,0
 .00142933,-0.00049416,-0.00017180,-0.00048527,0.00025264,-0.00000415,-
 0.00008835,-0.00423846,0.02683900,-0.03261133,0.00035442,-0.00017615,-
 0.00032290,0.00028179,-0.00039522,-0.00043018,-0.00071638,-0.02549285,
 -0.00072595,-0.00251229,0.02348087,-0.00650530,0.01451548,0.00457460,-
 0.00791443,0.00090031,-0.00025459,-0.00036775,-0.00000347,-0.00045937,
 0.00038998,-0.00205984,-0.00228739,0.00016237,0.02237935,-0.01050269,-
 0.02768153,0.00018601,0.00002764,0.00017435,-0.00008072,-0.00031213,-0
 .00034072,0.00003731,0.00015778,-0.00039008,-0.07558919,-0.03232950,0.
 09937435,-0.00076537,0.00083862,0.00065193,0.00085469,0.00062751,-0.00
 012222,0.00086964,0.00171780,0.00194632,-0.00067262,-0.00107098,-0.000
 42033,0.00058261,-0.00034613,-0.00017854,-0.01080624,-0.07532665,0.013
 75963,0.00042828,-0.00025650,-0.00071280,0.00008554,-0.00110940,-0.000
 56741,-0.03478361,-0.03514905,0.02775237,-0.00252606,0.00050819,0.0004
 0997,0.05098865,0.09919406,0.00053688,0.00767849,0.00632665,0.00481001
 ,-0.00429598,-0.01257747,-0.00503004,-0.00463001,-0.00392815,-0.000711
 25,-0.02644673,-0.08519938,-0.10200924,-0.00152463,0.00107946,-0.00013
 509,0.00054352,-0.00237916,-0.00054476,-0.00067927,0.00063008,-0.00099
 950,-0.19083084,-0.00465063,0.04039345,0.21573225,-0.00038188,0.000360
 94,-0.00017154,0.00076397,0.00013673,0.00049559,-0.00203146,-0.0084419
 2,0.00180255,-0.00024825,-0.00043406,-0.00002830,-0.00004139,-0.000073
 09,0.00005210,-0.05268953,-0.02824991,0.01209909,-0.00166315,0.0001872
 2,0.00015317,0.00034019,-0.00045422,-0.00042195,-0.00470807,-0.0049907
 1,-0.00188866,0.00023676,0.00194370,-0.00035135,-0.01629178,-0.0328318
 8,-0.01814279,0.00088577,-0.00038762,0.00021635,0.00087500,0.00087838,
 0.00072914,0.00099723,0.00095592,0.00071836,0.00346996,0.00309022,-0.0
 1443137,-0.00027582,0.00020210,0.00012060,-0.00018419,0.00027326,0.000
 15079,-0.00010420,0.00025494,-0.00006722,-0.04060513,-0.05342908,0.011
 25202,0.11156333,0.12117125,0.00031262,-0.00087605,-0.00050540,-0.0006
 3644,-0.00073074,0.00010060,-0.00004228,-0.00214022,0.00015828,0.00096
 373,0.00099220,0.00043470,-0.00056622,0.00043908,0.00026128,0.00307731
 ,0.02719912,-0.00748177,-0.00050163,0.00045393,0.00071141,0.00003938,0
 .00094440,0.00017485,0.03360796,0.03928440,-0.02329079,0.00139328,-0.0
 0049718,-0.00098627,-0.08148512,-0.16000639,-0.03383376,-0.00623989,-0
 .00529591,-0.00352933,0.00545748,0.01243312,0.00510017,0.00528418,0.00
 588292,0.00181699,0.02253151,0.09629497,0.05759200,0.00124577,-0.00094
 169,0.00008191,-0.00074128,0.00148776,0.00036597,0.00060587,-0.0006562
 1,0.00088594,-0.00568988,-0.02235827,-0.02394328,0.02152624,0.00765793
 ,0.02559727,-0.11002536,0.04562938,-0.07316471,-0.03639879,0.01521552,
 -0.02437823,-0.00381464,-0.00077283,0.00146074,-0.00102313,-0.00043577
 ,-0.00022024,-0.00074428,0.00015994,0.00012844,-0.00076206,0.00019794,
 -0.00056647,-0.00001233,-0.00001967,0.00019377,-0.00008195,-0.00011671
 ,0.00013118,0.00015144,0.00006874,-0.00003906,-0.00016432,-0.00004922,
 0.00001731,0.00005482,-0.00007079,0.00001321,0.00001132,0.00000127,-0.
 00001234,-0.00006141,0.00000670,-0.00000919,-0.00002192,-0.00000143,0.
 00000539,-0.00002060,0.00001222,0.00001649,-0.00001142,0.00000065,0.00
 000560,-0.00001091,0.00000050,-0.00000337,-0.00001478,-0.00000153,-0.0
 0000233,0.00001047,0.00004299,-0.00001417,0.00006475,-0.00000002,-0.00
 000136,0.14638770,0.03473546,-0.07952772,0.06115420,0.00591884,0.00173
 539,-0.00315269,-0.00136253,0.00013492,-0.00044381,-0.00111517,0.00075
 768,-0.00007378,0.00085739,0.00028422,-0.00042207,0.00022198,0.0002701
 8,-0.00025672,0.00012878,-0.00014790,0.00008835,-0.00003913,0.00021610
 ,0.00019778,-0.00034599,-0.00035312,0.00013246,-0.00008546,-0.00004051
 ,0.00008528,0.00011320,0.00041433,-0.00001481,-0.00001858,0.00001791,0
 .00008309,-0.00000714,0.00002494,-0.00005451,0.00003277,0.00000107,-0.
 00001022,-0.00001200,-0.00014421,-0.00028422,0.00000750,0.00000272,-0.
 00001938,0.00002764,-0.00000568,-0.00000417,0.00002178,-0.00001138,-0.
 00000048,0.00028747,0.00019460,-0.00008456,-0.00038028,-0.00018856,0.0
 0024772,-0.05923903,0.09899385,-0.09886907,0.09142508,-0.13651465,0.00
 450777,-0.00754968,0.00754500,0.00107534,0.00010067,-0.00077610,-0.000
 97090,0.00000182,0.00078032,0.00101268,0.00045486,0.00011275,0.0003444
 7,0.00008206,0.00030498,0.00015578,-0.00002291,0.00000516,-0.00002688,
 0.00026931,0.00002145,-0.00023753,-0.00024082,0.00004675,0.00004612,0.
 00000863,0.00000679,0.00013185,0.00031270,-0.00009668,0.00002664,-0.00
 000120,-0.00000637,0.00003743,-0.00003084,0.00003455,0.00000303,-0.000
 00037,0.00001668,-0.00002893,-0.00019047,-0.00022710,0.00000644,0.0000
 1106,0.00000838,0.00000777,-0.00000457,0.00000584,0.00000668,0.0000115
 1,0.00000609,0.00022673,0.00008965,-0.00008382,-0.00026920,-0.00006652
 ,0.00023262,0.09285588,-0.08664490,0.12903226,-0.06355412,-0.04023857,
 -0.00313163,-0.01955792,-0.03966195,0.00180398,-0.00097094,-0.00031840
 ,-0.00010058,-0.00515122,-0.00042818,0.00133913,0.00044777,-0.00061853
 ,0.00021101,-0.00023996,-0.00006905,0.00009944,-0.00068047,0.00027294,
 -0.00030126,-0.00020773,-0.00022167,-0.00011761,0.00021395,0.00020034,
 -0.00005050,-0.00000219,-0.00000461,-0.00003305,-0.00008053,-0.0001737
 5,0.00003575,-0.00000454,-0.00000982,-0.00005680,0.00002749,-0.0000149
 8,-0.00001923,-0.00001906,0.00000583,-0.00000427,0.00002464,0.00009396
 ,0.00013987,-0.00000770,-0.00000342,0.00000820,-0.00001624,0.00000846,
 0.00000249,-0.00002236,0.00000274,0.00000420,-0.00009637,-0.00010241,0
 .00003894,0.00016054,0.00008914,-0.00016646,0.00648682,0.02025320,-0.0
 0004185,0.08324966,-0.04709062,-0.24182084,0.01605156,-0.01260206,-0.0
 0421317,0.00072786,-0.00057024,-0.00023815,-0.00025330,0.00018549,0.00
 007522,0.00000662,-0.00006387,0.00068007,0.00042334,-0.00000932,0.0000
 5712,0.00015275,-0.00008178,0.00029155,0.00003820,-0.00017333,-0.00002
 874,-0.00010149,-0.00014418,-0.00020728,0.00001044,0.00003335,0.000028
 76,-0.00004565,0.00020640,0.00019340,-0.00008491,0.00005488,-0.0000438
 0,-0.00001860,-0.00003328,-0.00001165,0.00002671,-0.00001870,0.0000109
 9,0.00001951,-0.00005599,-0.00016833,-0.00018184,0.00001226,0.00003037
 ,0.00001538,-0.00000128,-0.00000513,0.00000443,0.00001602,0.00004703,-
 0.00000259,0.00014427,-0.00001256,-0.00004919,-0.00011785,0.00001957,0
 .00017891,-0.00062942,-0.02262809,0.00198572,0.06093929,0.26794506,-0.
 01427525,-0.02359037,-0.02379817,0.00890091,0.01200980,-0.00170148,-0.
 00115263,0.00013259,-0.00043961,0.00259319,0.00016779,0.00009651,0.000
 84768,0.00079657,0.00016145,0.00002786,0.00012988,-0.00021027,-0.00059
 581,-0.00002034,0.00011576,-0.00038593,-0.00023914,0.00005612,-0.00007
 970,-0.00004968,-0.00001014,-0.00001237,-0.00000988,0.00003079,-0.0000
 3171,0.00015230,-0.00008167,0.00001836,0.00000603,-0.00009232,0.000128
 39,-0.00003461,0.00002880,0.00001639,0.00000952,0.00000788,0.00001502,
 -0.00009656,-0.00006602,0.00000907,-0.00000590,0.00001851,-0.00000435,
 0.00000082,0.00001376,-0.00002152,-0.00000961,0.00003431,0.00017636,-0
 .00003707,-0.00003762,-0.00009558,0.00011619,0.00003856,0.00358224,0.0
 2947836,-0.00045424,0.00034011,-0.01890456,0.02628967\\-0.00000007,-0.
 00000007,-0.00000014,0.00000003,0.00000003,0.00000011,0.00000009,0.000
 00001,0.00000002,0.00000003,0.00000001,-0.00000007,-0.00000001,0.,0.00
 000003,0.,0.00000004,0.00000001,0.,-0.00000001,0.,0.00000003,0.,0.0000
 0002,0.00000004,0.,-0.00000002,0.,0.,0.,-0.00000005,-0.00000012,0.,-0.
 00000002,0.,0.,0.,0.,0.,0.,0.00000001,0.,0.00000001,0.00000010,0.00000
 010,0.,0.,0.,0.,0.,0.,0.,0.,0.,-0.00000002,-0.00000004,-0.00000001,0.0
 0000004,0.,-0.00000006,-0.00000004,0.00000002,0.00000005,-0.00000008,0
 .,-0.00000002\\\@


 ... IT CAN BE VERY DIFFICULT, IN THESE COMPLEX TIMES,
 TO UNDERSTAND JUST HOW SCIENTISTS DO WHAT THEY DO.

                     DON MOSER IN THE FEBRUARY 1979 SMITHSONIAN
 Job cpu time:       0 days  0 hours  0 minutes  4.4 seconds.
 Elapsed time:       0 days  0 hours  0 minutes  1.2 seconds.
 File lengths (MBytes):  RWF=     48 Int=      0 D2E=      0 Chk=      3 Scr=      1
 Normal termination of Gaussian 16 at Thu Apr  2 20:34:33 2020.
