 Entering Gaussian System, Link 0=g16
 Initial command:
 /opt/g16/l1.exe "/scratch/alongd/g16/a4392-34566/Gau-12146.inp" -scrdir="/scratch/alongd/g16/a4392-34566/"
 Entering Link 1 = /opt/g16/l1.exe PID=     12148.
  
 Copyright (c) 1988-2017, Gaussian, Inc.  All Rights Reserved.
  
 This is part of the Gaussian(R) 16 program.  It is based on
 the Gaussian(R) 09 system (copyright 2009, Gaussian, Inc.),
 the Gaussian(R) 03 system (copyright 2003, Gaussian, Inc.),
 the Gaussian(R) 98 system (copyright 1998, Gaussian, Inc.),
 the Gaussian(R) 94 system (copyright 1995, Gaussian, Inc.),
 the Gaussian 92(TM) system (copyright 1992, Gaussian, Inc.),
 the Gaussian 90(TM) system (copyright 1990, Gaussian, Inc.),
 the Gaussian 88(TM) system (copyright 1988, Gaussian, Inc.),
 the Gaussian 86(TM) system (copyright 1986, Carnegie Mellon
 University), and the Gaussian 82(TM) system (copyright 1983,
 Carnegie Mellon University). Gaussian is a federally registered
 trademark of Gaussian, Inc.
  
 This software contains proprietary and confidential information,
 including trade secrets, belonging to Gaussian, Inc.
  
 This software is provided under written license and may be
 used, copied, transmitted, or stored only in accord with that
 written license.
  
 The following legend is applicable only to US Government
 contracts under FAR:
  
                    RESTRICTED RIGHTS LEGEND
  
 Use, reproduction and disclosure by the US Government is
 subject to restrictions as set forth in subparagraphs (a)
 and (c) of the Commercial Computer Software - Restricted
 Rights clause in FAR 52.227-19.
  
 Gaussian, Inc.
 340 Quinnipiac St., Bldg. 40, Wallingford CT 06492
  
  
 ---------------------------------------------------------------
 Warning -- This program may not be used in any manner that
 competes with the business of Gaussian, Inc. or will provide
 assistance to any competitor of Gaussian, Inc.  The licensee
 of this program is prohibited from giving any competitor of
 Gaussian, Inc. access to this program.  By using this program,
 the user acknowledges that Gaussian, Inc. is engaged in the
 business of creating and licensing software in the field of
 computational chemistry and represents and warrants to the
 licensee that it is not a competitor of Gaussian, Inc. and that
 it will not use this program in any manner prohibited above.
 ---------------------------------------------------------------
  

 Cite this work as:
 Gaussian 16, Revision B.01,
 M. J. Frisch, G. W. Trucks, H. B. Schlegel, G. E. Scuseria, 
 M. A. Robb, J. R. Cheeseman, G. Scalmani, V. Barone, 
 G. A. Petersson, H. Nakatsuji, X. Li, M. Caricato, A. V. Marenich, 
 J. Bloino, B. G. Janesko, R. Gomperts, B. Mennucci, H. P. Hratchian, 
 J. V. Ortiz, A. F. Izmaylov, J. L. Sonnenberg, D. Williams-Young, 
 F. Ding, F. Lipparini, F. Egidi, J. Goings, B. Peng, A. Petrone, 
 T. Henderson, D. Ranasinghe, V. G. Zakrzewski, J. Gao, N. Rega, 
 G. Zheng, W. Liang, M. Hada, M. Ehara, K. Toyota, R. Fukuda, 
 J. Hasegawa, M. Ishida, T. Nakajima, Y. Honda, O. Kitao, H. Nakai, 
 T. Vreven, K. Throssell, J. A. Montgomery, Jr., J. E. Peralta, 
 F. Ogliaro, M. J. Bearpark, J. J. Heyd, E. N. Brothers, K. N. Kudin, 
 V. N. Staroverov, T. A. Keith, R. Kobayashi, J. Normand, 
 K. Raghavachari, A. P. Rendell, J. C. Burant, S. S. Iyengar, 
 J. Tomasi, M. Cossi, J. M. Millam, M. Klene, C. Adamo, R. Cammi, 
 J. W. Ochterski, R. L. Martin, K. Morokuma, O. Farkas, 
 J. B. Foresman, and D. J. Fox, Gaussian, Inc., Wallingford CT, 2016.
 
 ******************************************
 Gaussian 16:  ES64L-G16RevB.01 20-Dec-2017
                 2-Mar-2020 
 ******************************************
 %chk=check.chk
 %mem=14336mb
 %NProcShared=36
 Will use up to   36 processors via shared memory.
 ----------------------------------------------------------------------
 #P guess=read uwb97xd/def2tzvp freq iop(7/33=1) scf=(tight, direct) in
 tegral=(grid=ultrafine, Acc2E=12) scf=xqc iop(2/9=2000)
 ----------------------------------------------------------------------
 1/10=4,30=1,38=1/1,3;
 2/9=2000,12=2,17=6,18=5,40=1/2;
 3/5=44,7=101,11=2,25=1,27=12,30=1,71=2,74=-58,75=-5,116=2,140=1/1,2,3;
 4/5=1/1;
 5/5=2,8=3,13=1,32=2,38=6,87=12,98=1/2,8;
 8/6=4,10=90,11=11,87=12/1;
 11/6=1,8=1,9=11,15=111,16=1,87=12/1,2,10;
 10/6=1,87=12/2;
 6/7=2,8=2,9=2,10=2,28=1,87=12/1;
 7/8=1,10=1,25=1,33=1,87=12/1,2,3,16;
 1/10=4,30=1/3;
 99//99;
 Leave Link    1 at Mon Mar  2 00:54:46 2020, MaxMem=  1879048192 cpu:               3.4 elap:               0.1
 (Enter /opt/g16/l101.exe)
 ----
 name
 ----
 Symbolic Z-matrix:
 Charge =  0 Multiplicity = 3
 N                     2.39406  -1.00853   0.03988 
 C                     0.05919  -1.48724  -0.06396 
 C                     1.14951  -0.55643   0.01594 
 C                    -1.2416   -1.05357  -0.09071 
 C                    -1.55085   0.31283  -0.04096 
 C                    -0.52745   1.26518   0.03754 
 C                     0.74838   0.79614   0.06183 
 H                     0.31237  -2.53958  -0.10175 
 H                    -2.04587  -1.77549  -0.15122 
 H                    -2.58384   0.63654  -0.06312 
 H                    -0.75495   2.3233    0.07649 
 H                     3.03696  -0.21902   0.09769 
 
 ITRead=  0  0  0  0  0  0  0  0  0  0  0  0
 MicOpt= -1 -1 -1 -1 -1 -1 -1 -1 -1 -1 -1 -1
 NAtoms=     12 NQM=       12 NQMF=       0 NMMI=      0 NMMIF=      0
                NMic=       0 NMicF=      0.
                    Isotopes and Nuclear Properties:
 (Nuclear quadrupole moments (NQMom) in fm**2, nuclear magnetic moments (NMagM)
  in nuclear magnetons)

  Atom         1           2           3           4           5           6           7           8           9          10
 IAtWgt=          14          12          12          12          12          12          12           1           1           1
 AtmWgt=  14.0030740  12.0000000  12.0000000  12.0000000  12.0000000  12.0000000  12.0000000   1.0078250   1.0078250   1.0078250
 NucSpn=           2           0           0           0           0           0           0           1           1           1
 AtZEff=  -0.0000000  -0.0000000  -0.0000000  -0.0000000  -0.0000000  -0.0000000  -0.0000000  -0.0000000  -0.0000000  -0.0000000
 NQMom=    2.0440000   0.0000000   0.0000000   0.0000000   0.0000000   0.0000000   0.0000000   0.0000000   0.0000000   0.0000000
 NMagM=    0.4037610   0.0000000   0.0000000   0.0000000   0.0000000   0.0000000   0.0000000   2.7928460   2.7928460   2.7928460
 AtZNuc=   7.0000000   6.0000000   6.0000000   6.0000000   6.0000000   6.0000000   6.0000000   1.0000000   1.0000000   1.0000000

  Atom        11          12
 IAtWgt=           1           1
 AtmWgt=   1.0078250   1.0078250
 NucSpn=           1           1
 AtZEff=  -0.0000000  -0.0000000
 NQMom=    0.0000000   0.0000000
 NMagM=    2.7928460   2.7928460
 AtZNuc=   1.0000000   1.0000000
 Leave Link  101 at Mon Mar  2 00:54:46 2020, MaxMem=  1879048192 cpu:               7.7 elap:               0.3
 (Enter /opt/g16/l103.exe)

 GradGradGradGradGradGradGradGradGradGradGradGradGradGradGradGradGradGrad
 Berny optimization.
 Initialization pass.
 Trust Radius=3.00D-01 FncErr=1.00D-07 GrdErr=1.00D-07 EigMax=2.50D+02 EigMin=1.00D-04
 Number of steps in this run=      2 maximum allowed number of steps=      2.
 GradGradGradGradGradGradGradGradGradGradGradGradGradGradGradGradGradGrad

 Leave Link  103 at Mon Mar  2 00:54:46 2020, MaxMem=  1879048192 cpu:               3.0 elap:               0.1
 (Enter /opt/g16/l202.exe)
                          Input orientation:                          
 ---------------------------------------------------------------------
 Center     Atomic      Atomic             Coordinates (Angstroms)
 Number     Number       Type             X           Y           Z
 ---------------------------------------------------------------------
      1          7           0        2.394058   -1.008525    0.039883
      2          6           0        0.059193   -1.487238   -0.063964
      3          6           0        1.149507   -0.556433    0.015944
      4          6           0       -1.241595   -1.053573   -0.090710
      5          6           0       -1.550846    0.312833   -0.040958
      6          6           0       -0.527446    1.265179    0.037540
      7          6           0        0.748383    0.796136    0.061832
      8          1           0        0.312372   -2.539581   -0.101750
      9          1           0       -2.045868   -1.775485   -0.151222
     10          1           0       -2.583844    0.636542   -0.063116
     11          1           0       -0.754951    2.323297    0.076491
     12          1           0        3.036964   -0.219015    0.097689
 ---------------------------------------------------------------------
                    Distance matrix (angstroms):
                    1          2          3          4          5
     1  N    0.000000
     2  C    2.385696   0.000000
     3  C    1.324337   1.435816   0.000000
     4  C    3.638277   1.371434   2.444564   0.000000
     5  C    4.161104   2.415163   2.837387   1.401848   0.000000
     6  C    3.702016   2.816070   2.476067   2.429623   1.400169
     7  C    2.442443   2.388431   1.411541   2.721159   2.351723
     8  H    2.587974   1.083030   2.155811   2.150152   3.407571
     9  H    4.509733   2.126495   3.424099   1.082439   2.149018
    10  H    5.243697   3.390588   3.920121   2.158444   1.082757
    11  H    4.584609   3.899068   3.453038   3.415850   2.165458
    12  H    1.019802   3.240624   1.919121   4.363261   4.620615
                    6          7          8          9         10
     6  C    0.000000
     7  C    1.359533   0.000000
     8  H    3.898832   3.368067   0.000000
     9  H    3.403950   3.803481   2.479433   0.000000
    10  H    2.152693   3.338386   4.298525   2.472864   0.000000
    11  H    1.083000   2.143000   4.981820   4.303293   2.491883
    12  H    3.861537   2.503881   3.584439   5.321629   5.687822
                   11         12
    11  H    0.000000
    12  H    4.565350   0.000000
 Stoichiometry    C6H5N(3)
 Framework group  C1[X(C6H5N)]
 Deg. of freedom    30
 Full point group                 C1      NOp   1
 Largest Abelian subgroup         C1      NOp   1
 Largest concise Abelian subgroup C1      NOp   1
                         Standard orientation:                         
 ---------------------------------------------------------------------
 Center     Atomic      Atomic             Coordinates (Angstroms)
 Number     Number       Type             X           Y           Z
 ---------------------------------------------------------------------
      1          7           0       -2.375586   -0.030850    0.000000
      2          6           0       -0.319023    1.178321   -0.000000
      3          6           0       -1.051499   -0.056606    0.000000
      4          6           0        1.052375    1.188225    0.000000
      5          6           0        1.785449   -0.006672   -0.000000
      6          6           0        1.123271   -1.240363    0.000000
      7          6           0       -0.235893   -1.208663   -0.000000
      8          1           0       -0.897813    2.093720    0.000000
      9          1           0        1.581314    2.132628    0.000000
     10          1           0        2.867858    0.020790    0.000001
     11          1           0        1.679612   -2.169542    0.000000
     12          1           0       -2.729952   -0.987103   -0.000001
 ---------------------------------------------------------------------
 Rotational constants (GHZ):           5.9907755           2.7649858           1.8918297
 Leave Link  202 at Mon Mar  2 00:54:46 2020, MaxMem=  1879048192 cpu:               4.3 elap:               0.1
 (Enter /opt/g16/l301.exe)
 Standard basis: def2TZVP (5D, 7F)
 Ernie: Thresh=  0.10000D-02 Tol=  0.10000D-05 Strict=F.
 There are   282 symmetry adapted cartesian basis functions of A   symmetry.
 There are   247 symmetry adapted basis functions of A   symmetry.
   247 basis functions,   397 primitive gaussians,   282 cartesian basis functions
    25 alpha electrons       23 beta electrons
       nuclear repulsion energy       251.5603974791 Hartrees.
 IExCor= 4639 DFT=T Ex+Corr=wB97XD ExCW=0 ScaHFX=  1.000000
 ScaDFX=  1.000000  1.000000  1.000000  1.000000 ScalE2=  1.000000  1.000000
 IRadAn=      5 IRanWt=     -1 IRanGd=            0 ICorTp=0 IEmpDi=121
 HFx  wShort=  0.000000 wLong=  0.200000 cFull=  0.222036 cShort=  0.000000 cLong=  0.777964
 DFx  wShort=  0.000000 wLong=  0.200000 cFull=  0.000000 cShort=  0.000000 cLong=  1.000000
 NAtoms=   12 NActive=   12 NUniq=   12 SFac= 1.00D+00 NAtFMM=   60 NAOKFM=F Big=F
 Integral buffers will be    131072 words long.
 Raffenetti 2 integral format.
 Two-electron integral symmetry is turned on.
 R6Disp:  Grimme-D2 Dispersion energy=       -0.0040870371 Hartrees.
 Nuclear repulsion after empirical dispersion term =      251.5563104420 Hartrees.
 Leave Link  301 at Mon Mar  2 00:54:46 2020, MaxMem=  1879048192 cpu:               2.9 elap:               0.1
 (Enter /opt/g16/l302.exe)
 NPDir=0 NMtPBC=     1 NCelOv=     1 NCel=       1 NClECP=     1 NCelD=      1
         NCelK=      1 NCelE2=     1 NClLst=     1 CellRange=     0.0.
 One-electron integrals computed using PRISM.
 One-electron integral symmetry used in STVInt
   1 Symmetry operations used in ECPInt.
 ECPInt:  NShTT=    4753 NPrTT=   14704 LenC2=    4696 LenP2D=   11982.
 LDataN:  DoStor=T MaxTD1= 6 Len=  172
 NBasis=   247 RedAO= T EigKep=  1.67D-05  NBF=   247
 NBsUse=   247 1.00D-06 EigRej= -1.00D+00 NBFU=   247
 Precomputing XC quadrature grid using
 IXCGrd= 4 IRadAn=           5 IRanWt=          -1 IRanGd=           0 AccXCQ= 1.00D-12.
 Generated NRdTot=       0 NPtTot=           0 NUsed=           0 NTot=          32
 NSgBfM=   281   281   281   281   281 MxSgAt=    12 MxSgA2=    12.
 Leave Link  302 at Mon Mar  2 00:54:49 2020, MaxMem=  1879048192 cpu:             103.3 elap:               3.0
 (Enter /opt/g16/l303.exe)
 DipDrv:  MaxL=1.
 Leave Link  303 at Mon Mar  2 00:54:50 2020, MaxMem=  1879048192 cpu:               7.3 elap:               0.2
 (Enter /opt/g16/l401.exe)
 Initial guess from the checkpoint file:  "check.chk"
 B after Tr=     0.000000    0.000000    0.000000
         Rot=   -0.687839    0.000000    0.000000    0.725864 Ang= 266.92 deg.
 Guess basis will be translated and rotated to current coordinates.
 JPrj=2 DoOrth=T DoCkMO=T.
 Initial guess <Sx>= 0.0000 <Sy>= 0.0000 <Sz>= 1.0000 <S**2>= 2.0820 S= 1.0271
 Leave Link  401 at Mon Mar  2 00:54:55 2020, MaxMem=  1879048192 cpu:             174.7 elap:               5.8
 (Enter /opt/g16/l502.exe)
 Integral symmetry usage will be decided dynamically.
 UHF open shell SCF:
 Using DIIS extrapolation, IDIIS=  1040.
 NGot=  1879048192 LenX=  1878876442 LenY=  1878796477
 Requested convergence on RMS density matrix=1.00D-08 within  32 cycles.
 Requested convergence on MAX density matrix=1.00D-06.
 Requested convergence on             energy=1.00D-06.
 No special actions if energy rises.
 Fock matrices will be formed incrementally for  20 cycles.

 Cycle   1  Pass 1  IDiag  1:
 FoFJK:  IHMeth= 1 ICntrl=       0 DoSepK=T KAlg= 0 I1Cent=           0 FoldK=F
 IRaf=         1 NMat=       1 IRICut=       1 DoRegI=T DoRafI=F ISym2E= 0 IDoP0=0 IntGTp=1.
 FoFCou: FMM=F IPFlag=           0 FMFlag=      100000 FMFlg1=           0
         NFxFlg=           0 DoJE=T BraDBF=F KetDBF=F FulRan=T
         wScrn=  0.000000 ICntrl=       500 IOpCl=  0 I1Cent=           0 NGrid=           0
         NMat0=    1 NMatS0=      1 NMatT0=    0 NMatD0=    1 NMtDS0=    0 NMtDT0=    0
 Symmetry not used in FoFCou.
 E= -286.265114203051    
 DIIS: error= 4.39D-06 at cycle   1 NSaved=   1.
 NSaved= 1 IEnMin= 1 EnMin= -286.265114203051     IErMin= 1 ErrMin= 4.39D-06
 ErrMax= 4.39D-06  0.00D+00 EMaxC= 1.00D-01 BMatC= 1.43D-08 BMatP= 1.43D-08
 IDIUse=1 WtCom= 1.00D+00 WtEn= 0.00D+00
 Coeff-Com:  0.100D+01
 Coeff:      0.100D+01
 Gap=     0.341 Goal=   None    Shift=    0.000
 Gap=     0.297 Goal=   None    Shift=    0.000
 RMSDP=8.11D-07 MaxDP=2.18D-05              OVMax= 1.51D-05

 Cycle   2  Pass 1  IDiag  1:
 RMSU=  8.11D-07    CP:  1.00D+00
 E= -286.265114206063     Delta-E=       -0.000000003012 Rises=F Damp=F
 DIIS: error= 6.10D-07 at cycle   2 NSaved=   2.
 NSaved= 2 IEnMin= 2 EnMin= -286.265114206063     IErMin= 2 ErrMin= 6.10D-07
 ErrMax= 6.10D-07  0.00D+00 EMaxC= 1.00D-01 BMatC= 3.02D-10 BMatP= 1.43D-08
 IDIUse=1 WtCom= 1.00D+00 WtEn= 0.00D+00
 Coeff-Com: -0.120D+00 0.112D+01
 Coeff:     -0.120D+00 0.112D+01
 Gap=     0.341 Goal=   None    Shift=    0.000
 Gap=     0.297 Goal=   None    Shift=    0.000
 RMSDP=9.79D-08 MaxDP=2.80D-06 DE=-3.01D-09 OVMax= 3.71D-06

 Cycle   3  Pass 1  IDiag  1:
 RMSU=  5.02D-08    CP:  1.00D+00  1.10D+00
 E= -286.265114206167     Delta-E=       -0.000000000104 Rises=F Damp=F
 DIIS: error= 2.09D-07 at cycle   3 NSaved=   3.
 NSaved= 3 IEnMin= 3 EnMin= -286.265114206167     IErMin= 3 ErrMin= 2.09D-07
 ErrMax= 2.09D-07  0.00D+00 EMaxC= 1.00D-01 BMatC= 4.11D-11 BMatP= 3.02D-10
 IDIUse=1 WtCom= 1.00D+00 WtEn= 0.00D+00
 Coeff-Com: -0.397D-01 0.289D+00 0.751D+00
 Coeff:     -0.397D-01 0.289D+00 0.751D+00
 Gap=     0.341 Goal=   None    Shift=    0.000
 Gap=     0.297 Goal=   None    Shift=    0.000
 RMSDP=1.81D-08 MaxDP=6.96D-07 DE=-1.04D-10 OVMax= 1.41D-06

 Cycle   4  Pass 1  IDiag  1:
 RMSU=  1.78D-08    CP:  1.00D+00  1.11D+00  1.05D+00
 E= -286.265114206172     Delta-E=       -0.000000000005 Rises=F Damp=F
 DIIS: error= 1.27D-07 at cycle   4 NSaved=   4.
 NSaved= 4 IEnMin= 4 EnMin= -286.265114206172     IErMin= 4 ErrMin= 1.27D-07
 ErrMax= 1.27D-07  0.00D+00 EMaxC= 1.00D-01 BMatC= 9.36D-12 BMatP= 4.11D-11
 IDIUse=1 WtCom= 1.00D+00 WtEn= 0.00D+00
 Coeff-Com:  0.947D-02-0.116D+00 0.279D+00 0.828D+00
 Coeff:      0.947D-02-0.116D+00 0.279D+00 0.828D+00
 Gap=     0.341 Goal=   None    Shift=    0.000
 Gap=     0.297 Goal=   None    Shift=    0.000
 RMSDP=1.06D-08 MaxDP=4.67D-07 DE=-5.23D-12 OVMax= 8.96D-07

 Cycle   5  Pass 1  IDiag  1:
 RMSU=  7.72D-09    CP:  1.00D+00  1.11D+00  1.19D+00  1.07D+00
 E= -286.265114206178     Delta-E=       -0.000000000006 Rises=F Damp=F
 DIIS: error= 4.40D-08 at cycle   5 NSaved=   5.
 NSaved= 5 IEnMin= 5 EnMin= -286.265114206178     IErMin= 5 ErrMin= 4.40D-08
 ErrMax= 4.40D-08  0.00D+00 EMaxC= 1.00D-01 BMatC= 4.96D-13 BMatP= 9.36D-12
 IDIUse=1 WtCom= 1.00D+00 WtEn= 0.00D+00
 Coeff-Com:  0.398D-02-0.379D-01-0.103D-01 0.148D+00 0.896D+00
 Coeff:      0.398D-02-0.379D-01-0.103D-01 0.148D+00 0.896D+00
 Gap=     0.341 Goal=   None    Shift=    0.000
 Gap=     0.297 Goal=   None    Shift=    0.000
 RMSDP=3.76D-09 MaxDP=1.58D-07 DE=-6.03D-12 OVMax= 3.30D-07

 SCF Done:  E(UwB97XD) =  -286.265114206     A.U. after    5 cycles
            NFock=  5  Conv=0.38D-08     -V/T= 2.0046
 <Sx>= 0.0000 <Sy>= 0.0000 <Sz>= 1.0000 <S**2>= 2.0820 S= 1.0271
 <L.S>= 0.000000000000E+00
 KE= 2.849433897083D+02 PE=-1.168146083145D+03 EE= 3.453812687880D+02
 Annihilation of the first spin contaminant:
 S**2 before annihilation     2.0820,   after     2.0032
 Leave Link  502 at Mon Mar  2 00:56:41 2020, MaxMem=  1879048192 cpu:            3322.3 elap:             105.8
 (Enter /opt/g16/l508.exe)
 QCSCF skips out because SCF is already converged.
 Leave Link  508 at Mon Mar  2 00:56:41 2020, MaxMem=  1879048192 cpu:               1.9 elap:               0.1
 (Enter /opt/g16/l801.exe)
 DoSCS=F DFT=T ScalE2(SS,OS)=  1.000000  1.000000
 Range of M.O.s used for correlation:     1   247
 NBasis=   247 NAE=    25 NBE=    23 NFC=     0 NFV=     0
 NROrb=    247 NOA=    25 NOB=    23 NVA=   222 NVB=   224

 **** Warning!!: The largest alpha MO coefficient is  0.68435218D+02


 **** Warning!!: The largest beta MO coefficient is  0.66516419D+02

 Leave Link  801 at Mon Mar  2 00:56:42 2020, MaxMem=  1879048192 cpu:               3.5 elap:               0.1
 (Enter /opt/g16/l1101.exe)
 Using compressed storage, NAtomX=    12.
 Will process     13 centers per pass.
   1 Symmetry operations used in ECPInt.
 ECPInt:  NShTT=    4753 NPrTT=   14704 LenC2=    4696 LenP2D=   11982.
 LDataN:  DoStor=T MaxTD1= 7 Len=  274
 Number of processors reduced to  33 by ecpmxn.
 R6Disp: Adding Grimme-D2 dispersion energy 1st derivatives to the gradient.
 Leave Link 1101 at Mon Mar  2 00:56:44 2020, MaxMem=  1879048192 cpu:              74.3 elap:               2.2
 (Enter /opt/g16/l1102.exe)
 Symmetrizing basis deriv contribution to polar:
 IMax=3 JMax=2 DiffMx= 0.00D+00
 Leave Link 1102 at Mon Mar  2 00:56:44 2020, MaxMem=  1879048192 cpu:               6.5 elap:               0.2
 (Enter /opt/g16/l1110.exe)
 Forming Gx(P) for the SCF density, NAtomX=    12.
 Integral derivatives from FoFJK, PRISM(SPDF).
 Do as many integral derivatives as possible in FoFJK.
 G2DrvN: MDV=    1879047120.
 G2DrvN: will do    13 centers at a time, making    1 passes.
 Calling FoFCou, ICntrl=  3107 FMM=F I1Cent=   0 AccDes= 1.00D-12.
 FoFJK:  IHMeth= 1 ICntrl=    3107 DoSepK=T KAlg= 0 I1Cent=           0 FoldK=F
 IRaf=         1 NMat=       1 IRICut=       1 DoRegI=T DoRafI=F ISym2E= 0 IDoP0=0 IntGTp=1.
 FoFCou: FMM=F IPFlag=           0 FMFlag=      100000 FMFlg1=           0
         NFxFlg=           0 DoJE=F BraDBF=F KetDBF=F FulRan=T
         wScrn=  0.000000 ICntrl=      3507 IOpCl=  0 I1Cent=           0 NGrid=           0
         NMat0=    1 NMatS0=      1 NMatT0=    0 NMatD0=    1 NMtDS0=    0 NMtDT0=    0
 Symmetry not used in FoFCou.
 End of G2Drv F.D. properties file   721 does not exist.
 End of G2Drv F.D. properties file   722 does not exist.
 End of G2Drv F.D. properties file   788 does not exist.
 Leave Link 1110 at Mon Mar  2 00:57:46 2020, MaxMem=  1879048192 cpu:            2006.1 elap:              62.0
 (Enter /opt/g16/l1002.exe)
 Minotr:  UHF open shell wavefunction.
          IDoAtm=111111111111
          Direct CPHF calculation.
          Differentiating once with respect to electric field.
                with respect to dipole field.
          Differentiating once with respect to nuclear coordinates.
          Requested convergence is 1.0D-08 RMS, and 1.0D-07 maximum.
          Secondary convergence is 1.0D-12 RMS, and 1.0D-12 maximum.
          NewPWx=T KeepS1=F KeepF1=F KeepIn=T MapXYZ=F SortEE=F KeepMc=T.
         3619 words used for storage of precomputed grid.
 Two-electron integrals replicated using symmetry.
          MDV=    1879048192 using IRadAn=       1.
          Solving linear equations simultaneously, MaxMat=     360.
 FoF2E skips out because all densities are zero.
 CalDSu exits because no D1Ps are significant.
 FoFJK:  IHMeth= 1 ICntrl=       0 DoSepK=T KAlg= 0 I1Cent=           0 FoldK=F
 IRaf=         1 NMat=      36 IRICut=       1 DoRegI=T DoRafI=F ISym2E= 2 IDoP0=3 IntGTp=3.
 FoFCou: FMM=F IPFlag=           0 FMFlag=      100000 FMFlg1=           0
         NFxFlg=           0 DoJE=F BraDBF=F KetDBF=F FulRan=T
         wScrn=  0.000000 ICntrl=       500 IOpCl=  0 I1Cent=           0 NGrid=           0
         NMat0=   36 NMatS0=     36 NMatT0=    0 NMatD0=   36 NMtDS0=    0 NMtDT0=    0
 Integrals replicated using symmetry in FoFCou.
          There are    39 degrees of freedom in the 1st order CPHF.  IDoFFX=6 NUNeed=     3.
     36 vectors produced by pass  0 Test12= 2.74D-14 2.56D-09 XBig12= 1.23D+02 6.20D+00.
 AX will form    36 AO Fock derivatives at one time.
     36 vectors produced by pass  1 Test12= 2.74D-14 2.56D-09 XBig12= 1.50D+01 6.15D-01.
     36 vectors produced by pass  2 Test12= 2.74D-14 2.56D-09 XBig12= 1.18D+00 3.34D-01.
     36 vectors produced by pass  3 Test12= 2.74D-14 2.56D-09 XBig12= 2.84D-02 4.92D-02.
     36 vectors produced by pass  4 Test12= 2.74D-14 2.56D-09 XBig12= 3.35D-04 3.67D-03.
     36 vectors produced by pass  5 Test12= 2.74D-14 2.56D-09 XBig12= 3.63D-06 2.70D-04.
     36 vectors produced by pass  6 Test12= 2.74D-14 2.56D-09 XBig12= 3.83D-08 2.58D-05.
     30 vectors produced by pass  7 Test12= 2.74D-14 2.56D-09 XBig12= 3.53D-10 2.85D-06.
     13 vectors produced by pass  8 Test12= 2.74D-14 2.56D-09 XBig12= 3.40D-12 2.08D-07.
      3 vectors produced by pass  9 Test12= 2.74D-14 2.56D-09 XBig12= 2.96D-14 1.88D-08.
 InvSVY:  IOpt=1 It=  1 EMax= 3.87D-15
 Solved reduced A of dimension   298 with    39 vectors.
 FullF1:  Do perturbations      1 to       3.
 Isotropic polarizability for W=    0.000000       74.42 Bohr**3.
 End of Minotr F.D. properties file   721 does not exist.
 End of Minotr F.D. properties file   722 does not exist.
 End of Minotr F.D. properties file   788 does not exist.
 Leave Link 1002 at Mon Mar  2 01:01:50 2020, MaxMem=  1879048192 cpu:            7402.4 elap:             243.6
 (Enter /opt/g16/l601.exe)
 Copying SCF densities to generalized density rwf, IOpCl= 1 IROHF=0.

 **********************************************************************

            Population analysis using the SCF Density.

 **********************************************************************

 Orbital symmetries:
 Alpha Orbitals:
       Occupied  (A) (A) (A) (A) (A) (A) (A) (A) (A) (A) (A) (A)
                 (A) (A) (A) (A) (A) (A) (A) (A) (A) (A) (A) (A)
                 (A)
       Virtual   (A) (A) (A) (A) (A) (A) (A) (A) (A) (A) (A) (A)
                 (A) (A) (A) (A) (A) (A) (A) (A) (A) (A) (A) (A)
                 (A) (A) (A) (A) (A) (A) (A) (A) (A) (A) (A) (A)
                 (A) (A) (A) (A) (A) (A) (A) (A) (A) (A) (A) (A)
                 (A) (A) (A) (A) (A) (A) (A) (A) (A) (A) (A) (A)
                 (A) (A) (A) (A) (A) (A) (A) (A) (A) (A) (A) (A)
                 (A) (A) (A) (A) (A) (A) (A) (A) (A) (A) (A) (A)
                 (A) (A) (A) (A) (A) (A) (A) (A) (A) (A) (A) (A)
                 (A) (A) (A) (A) (A) (A) (A) (A) (A) (A) (A) (A)
                 (A) (A) (A) (A) (A) (A) (A) (A) (A) (A) (A) (A)
                 (A) (A) (A) (A) (A) (A) (A) (A) (A) (A) (A) (A)
                 (A) (A) (A) (A) (A) (A) (A) (A) (A) (A) (A) (A)
                 (A) (A) (A) (A) (A) (A) (A) (A) (A) (A) (A) (A)
                 (A) (A) (A) (A) (A) (A) (A) (A) (A) (A) (A) (A)
                 (A) (A) (A) (A) (A) (A) (A) (A) (A) (A) (A) (A)
                 (A) (A) (A) (A) (A) (A) (A) (A) (A) (A) (A) (A)
                 (A) (A) (A) (A) (A) (A) (A) (A) (A) (A) (A) (A)
                 (A) (A) (A) (A) (A) (A) (A) (A) (A) (A) (A) (A)
                 (A) (A) (A) (A) (A) (A)
 Beta  Orbitals:
       Occupied  (A) (A) (A) (A) (A) (A) (A) (A) (A) (A) (A) (A)
                 (A) (A) (A) (A) (A) (A) (A) (A) (A) (A) (A)
       Virtual   (A) (A) (A) (A) (A) (A) (A) (A) (A) (A) (A) (A)
                 (A) (A) (A) (A) (A) (A) (A) (A) (A) (A) (A) (A)
                 (A) (A) (A) (A) (A) (A) (A) (A) (A) (A) (A) (A)
                 (A) (A) (A) (A) (A) (A) (A) (A) (A) (A) (A) (A)
                 (A) (A) (A) (A) (A) (A) (A) (A) (A) (A) (A) (A)
                 (A) (A) (A) (A) (A) (A) (A) (A) (A) (A) (A) (A)
                 (A) (A) (A) (A) (A) (A) (A) (A) (A) (A) (A) (A)
                 (A) (A) (A) (A) (A) (A) (A) (A) (A) (A) (A) (A)
                 (A) (A) (A) (A) (A) (A) (A) (A) (A) (A) (A) (A)
                 (A) (A) (A) (A) (A) (A) (A) (A) (A) (A) (A) (A)
                 (A) (A) (A) (A) (A) (A) (A) (A) (A) (A) (A) (A)
                 (A) (A) (A) (A) (A) (A) (A) (A) (A) (A) (A) (A)
                 (A) (A) (A) (A) (A) (A) (A) (A) (A) (A) (A) (A)
                 (A) (A) (A) (A) (A) (A) (A) (A) (A) (A) (A) (A)
                 (A) (A) (A) (A) (A) (A) (A) (A) (A) (A) (A) (A)
                 (A) (A) (A) (A) (A) (A) (A) (A) (A) (A) (A) (A)
                 (A) (A) (A) (A) (A) (A) (A) (A) (A) (A) (A) (A)
                 (A) (A) (A) (A) (A) (A) (A) (A) (A) (A) (A) (A)
                 (A) (A) (A) (A) (A) (A) (A) (A)
 The electronic state is 3-A.
 Alpha  occ. eigenvalues --  -14.43703 -10.33886 -10.33245 -10.31875 -10.31045
 Alpha  occ. eigenvalues --  -10.30860 -10.30333  -1.02757  -0.96214  -0.86984
 Alpha  occ. eigenvalues --   -0.83580  -0.71632  -0.70217  -0.61568  -0.59011
 Alpha  occ. eigenvalues --   -0.55955  -0.53198  -0.50500  -0.49094  -0.47172
 Alpha  occ. eigenvalues --   -0.42522  -0.37968  -0.36535  -0.34659  -0.30019
 Alpha virt. eigenvalues --    0.04122   0.06216   0.12404   0.14683   0.15415
 Alpha virt. eigenvalues --    0.17208   0.18782   0.20012   0.21594   0.25562
 Alpha virt. eigenvalues --    0.26178   0.27243   0.27341   0.29542   0.31641
 Alpha virt. eigenvalues --    0.31752   0.32429   0.32846   0.34145   0.37441
 Alpha virt. eigenvalues --    0.39781   0.39841   0.40592   0.41308   0.42593
 Alpha virt. eigenvalues --    0.44239   0.46718   0.48017   0.48061   0.48786
 Alpha virt. eigenvalues --    0.49388   0.49794   0.51291   0.53593   0.54104
 Alpha virt. eigenvalues --    0.55760   0.57351   0.57678   0.58391   0.60891
 Alpha virt. eigenvalues --    0.65682   0.68981   0.69446   0.69819   0.72285
 Alpha virt. eigenvalues --    0.75085   0.77036   0.78093   0.81081   0.81112
 Alpha virt. eigenvalues --    0.83667   0.86328   0.88282   0.91054   0.93184
 Alpha virt. eigenvalues --    0.94331   0.95825   1.06592   1.06659   1.07106
 Alpha virt. eigenvalues --    1.09969   1.13467   1.13691   1.15503   1.19707
 Alpha virt. eigenvalues --    1.23143   1.27131   1.27371   1.28543   1.29290
 Alpha virt. eigenvalues --    1.30951   1.34703   1.35069   1.36291   1.41734
 Alpha virt. eigenvalues --    1.46452   1.46955   1.47868   1.51040   1.54994
 Alpha virt. eigenvalues --    1.55945   1.56988   1.57694   1.61403   1.62871
 Alpha virt. eigenvalues --    1.63955   1.67823   1.70282   1.72848   1.73824
 Alpha virt. eigenvalues --    1.75707   1.75790   1.79418   1.84075   1.84354
 Alpha virt. eigenvalues --    1.90480   1.92257   1.94094   1.98877   2.01617
 Alpha virt. eigenvalues --    2.06957   2.07980   2.09301   2.13920   2.16158
 Alpha virt. eigenvalues --    2.19134   2.20757   2.23478   2.26922   2.30378
 Alpha virt. eigenvalues --    2.30608   2.36949   2.40622   2.40827   2.43546
 Alpha virt. eigenvalues --    2.51687   2.57700   2.60910   2.63306   2.64362
 Alpha virt. eigenvalues --    2.65813   2.66807   2.67898   2.70884   2.73656
 Alpha virt. eigenvalues --    2.75478   2.76957   2.79961   2.80874   2.82103
 Alpha virt. eigenvalues --    2.83389   2.84797   2.88556   2.89622   2.90401
 Alpha virt. eigenvalues --    2.91488   2.94682   2.95174   3.01803   3.02142
 Alpha virt. eigenvalues --    3.06786   3.10282   3.11621   3.13430   3.15492
 Alpha virt. eigenvalues --    3.18142   3.19023   3.20336   3.20799   3.27174
 Alpha virt. eigenvalues --    3.28453   3.28864   3.30001   3.34060   3.35239
 Alpha virt. eigenvalues --    3.37411   3.39339   3.40929   3.41748   3.43531
 Alpha virt. eigenvalues --    3.45046   3.47570   3.49553   3.53987   3.56934
 Alpha virt. eigenvalues --    3.56946   3.59092   3.61389   3.64312   3.69512
 Alpha virt. eigenvalues --    3.71341   3.77180   3.78583   3.86075   3.87504
 Alpha virt. eigenvalues --    3.99190   4.03059   4.03286   4.05905   4.06081
 Alpha virt. eigenvalues --    4.12007   4.14220   4.18659   4.22680   4.28721
 Alpha virt. eigenvalues --    4.29527   4.32502   4.33281   4.38222   4.42159
 Alpha virt. eigenvalues --    4.46303   4.46558   4.56230   4.64435   4.67261
 Alpha virt. eigenvalues --    4.73633   4.76507   4.81320   4.82977   4.84521
 Alpha virt. eigenvalues --    4.88260   4.93232   5.00069   5.02749   5.14411
 Alpha virt. eigenvalues --    5.22182   5.29487   5.31115   5.33599   5.40727
 Alpha virt. eigenvalues --    5.50048   5.55953   5.62631   5.72354   6.08580
 Alpha virt. eigenvalues --   22.10460  22.59815  22.65145  22.75951  22.90319
 Alpha virt. eigenvalues --   23.29478  32.12227
  Beta  occ. eigenvalues --  -14.42632 -10.34099 -10.31600 -10.31382 -10.31243
  Beta  occ. eigenvalues --  -10.30561 -10.30447  -1.00731  -0.94637  -0.85857
  Beta  occ. eigenvalues --   -0.81093  -0.70260  -0.69007  -0.60561  -0.57887
  Beta  occ. eigenvalues --   -0.54921  -0.52338  -0.48190  -0.47581  -0.46431
  Beta  occ. eigenvalues --   -0.38226  -0.35966  -0.34827
  Beta virt. eigenvalues --   -0.05086  -0.03258   0.06156   0.09078   0.12500
  Beta virt. eigenvalues --    0.15217   0.15734   0.17385   0.18938   0.20173
  Beta virt. eigenvalues --    0.22824   0.25947   0.26334   0.27334   0.27801
  Beta virt. eigenvalues --    0.29898   0.31714   0.32022   0.33036   0.34018
  Beta virt. eigenvalues --    0.34885   0.38328   0.40178   0.40311   0.40980
  Beta virt. eigenvalues --    0.41742   0.42936   0.44689   0.47130   0.48386
  Beta virt. eigenvalues --    0.48433   0.49139   0.50219   0.51114   0.51554
  Beta virt. eigenvalues --    0.54466   0.54643   0.56025   0.58053   0.58349
  Beta virt. eigenvalues --    0.59346   0.61214   0.65771   0.68936   0.70164
  Beta virt. eigenvalues --    0.70259   0.72920   0.75650   0.77870   0.79200
  Beta virt. eigenvalues --    0.81259   0.81524   0.84951   0.87193   0.89991
  Beta virt. eigenvalues --    0.91371   0.93973   0.94959   0.96187   1.07284
  Beta virt. eigenvalues --    1.07690   1.08092   1.11159   1.14428   1.14546
  Beta virt. eigenvalues --    1.16731   1.20521   1.24108   1.27805   1.28421
  Beta virt. eigenvalues --    1.28995   1.30013   1.31726   1.35658   1.35948
  Beta virt. eigenvalues --    1.36847   1.42795   1.47567   1.47636   1.50035
  Beta virt. eigenvalues --    1.52174   1.55994   1.56659   1.58003   1.58269
  Beta virt. eigenvalues --    1.62304   1.63506   1.65373   1.68520   1.70945
  Beta virt. eigenvalues --    1.73279   1.74533   1.76537   1.76813   1.80792
  Beta virt. eigenvalues --    1.84921   1.84932   1.91033   1.92909   1.95239
  Beta virt. eigenvalues --    1.99370   2.02257   2.07554   2.08464   2.10185
  Beta virt. eigenvalues --    2.14647   2.16859   2.20079   2.21736   2.24342
  Beta virt. eigenvalues --    2.27996   2.30959   2.32964   2.37842   2.41007
  Beta virt. eigenvalues --    2.41621   2.46246   2.52474   2.58364   2.61753
  Beta virt. eigenvalues --    2.64314   2.65179   2.66773   2.68458   2.68593
  Beta virt. eigenvalues --    2.71217   2.74055   2.76026   2.77818   2.80829
  Beta virt. eigenvalues --    2.81820   2.82774   2.84425   2.86425   2.89360
  Beta virt. eigenvalues --    2.90830   2.91511   2.92106   2.95289   2.96185
  Beta virt. eigenvalues --    3.03349   3.03747   3.07577   3.10951   3.12373
  Beta virt. eigenvalues --    3.14219   3.17342   3.19428   3.19743   3.21538
  Beta virt. eigenvalues --    3.22177   3.28038   3.29542   3.29817   3.30733
  Beta virt. eigenvalues --    3.35216   3.37660   3.38742   3.39955   3.43193
  Beta virt. eigenvalues --    3.43227   3.45921   3.47892   3.48265   3.50101
  Beta virt. eigenvalues --    3.54807   3.57931   3.58370   3.61262   3.62801
  Beta virt. eigenvalues --    3.65838   3.70231   3.72682   3.78781   3.80336
  Beta virt. eigenvalues --    3.87462   3.88771   3.99863   4.04028   4.04153
  Beta virt. eigenvalues --    4.06697   4.08115   4.13100   4.15592   4.19108
  Beta virt. eigenvalues --    4.23333   4.29458   4.30685   4.34293   4.35195
  Beta virt. eigenvalues --    4.40441   4.43499   4.48137   4.48152   4.58192
  Beta virt. eigenvalues --    4.65781   4.68900   4.76914   4.77842   4.82623
  Beta virt. eigenvalues --    4.85100   4.85359   4.89682   4.96999   5.01655
  Beta virt. eigenvalues --    5.05303   5.15283   5.23356   5.30931   5.33458
  Beta virt. eigenvalues --    5.34489   5.41802   5.51394   5.56626   5.63825
  Beta virt. eigenvalues --    5.73475   6.09464  22.11334  22.61043  22.65798
  Beta virt. eigenvalues --   22.76559  22.90280  23.29453  32.13617
          Condensed to atoms (all electrons):
               1          2          3          4          5          6
     1  N    6.550198  -0.063881   0.577890  -0.000630  -0.000869   0.018165
     2  C   -0.063881   4.931919   0.430482   0.540422  -0.035606  -0.023461
     3  C    0.577890   0.430482   4.699689  -0.013596  -0.040699   0.018217
     4  C   -0.000630   0.540422  -0.013596   4.867583   0.453795  -0.000160
     5  C   -0.000869  -0.035606  -0.040699   0.453795   4.906783   0.430130
     6  C    0.018165  -0.023461   0.018217  -0.000160   0.430130   5.019266
     7  C   -0.119757  -0.052481   0.383027  -0.059885   0.007899   0.365034
     8  H    0.011201   0.412267  -0.037525  -0.050858   0.010738  -0.006135
     9  H   -0.000122  -0.046542   0.009603   0.437180  -0.051584   0.009177
    10  H    0.000024   0.007802  -0.002386  -0.048121   0.429920  -0.047850
    11  H   -0.000224  -0.001161   0.003458   0.005245  -0.044095   0.414411
    12  H    0.353156   0.013233  -0.076163  -0.000073  -0.000721   0.007096
               7          8          9         10         11         12
     1  N   -0.119757   0.011201  -0.000122   0.000024  -0.000224   0.353156
     2  C   -0.052481   0.412267  -0.046542   0.007802  -0.001161   0.013233
     3  C    0.383027  -0.037525   0.009603  -0.002386   0.003458  -0.076163
     4  C   -0.059885  -0.050858   0.437180  -0.048121   0.005245  -0.000073
     5  C    0.007899   0.010738  -0.051584   0.429920  -0.044095  -0.000721
     6  C    0.365034  -0.006135   0.009177  -0.047850   0.414411   0.007096
     7  C    5.482500   0.017491  -0.003727   0.009185  -0.027680  -0.026357
     8  H    0.017491   0.510630  -0.007434  -0.000006   0.000063  -0.001557
     9  H   -0.003727  -0.007434   0.528649  -0.005868  -0.000142   0.000035
    10  H    0.009185  -0.000006  -0.005868   0.523733  -0.004189  -0.000008
    11  H   -0.027680   0.000063  -0.000142  -0.004189   0.513397  -0.000084
    12  H   -0.026357  -0.001557   0.000035  -0.000008  -0.000084   0.516241
          Atomic-Atomic Spin Densities.
               1          2          3          4          5          6
     1  N    0.681388  -0.028450  -0.005383  -0.000404   0.001246  -0.003662
     2  C   -0.028450   0.329312   0.020616  -0.006038  -0.017732   0.002440
     3  C   -0.005383   0.020616  -0.183688   0.012307  -0.004243   0.013383
     4  C   -0.000404  -0.006038   0.012307  -0.165344   0.002189   0.016313
     5  C    0.001246  -0.017732  -0.004243   0.002189   0.405292   0.020017
     6  C   -0.003662   0.002440   0.013383   0.016313   0.020017  -0.237193
     7  C   -0.025606  -0.011496   0.001875  -0.013046  -0.037718   0.012411
     8  H    0.000299  -0.000611  -0.001523  -0.002474   0.000051  -0.000098
     9  H   -0.000027  -0.001028  -0.000341   0.004268  -0.001663   0.000116
    10  H    0.000016  -0.000252   0.000106  -0.002429  -0.003010  -0.002248
    11  H    0.000087  -0.000460   0.000186  -0.000464  -0.008570   0.011228
    12  H   -0.005509   0.002229   0.006990   0.000138   0.000113  -0.000885
               7          8          9         10         11         12
     1  N   -0.025606   0.000299  -0.000027   0.000016   0.000087  -0.005509
     2  C   -0.011496  -0.000611  -0.001028  -0.000252  -0.000460   0.002229
     3  C    0.001875  -0.001523  -0.000341   0.000106   0.000186   0.006990
     4  C   -0.013046  -0.002474   0.004268  -0.002429  -0.000464   0.000138
     5  C   -0.037718   0.000051  -0.001663  -0.003010  -0.008570   0.000113
     6  C    0.012411  -0.000098   0.000116  -0.002248   0.011228  -0.000885
     7  C    1.259599   0.001731  -0.000983   0.003192  -0.008286   0.005465
     8  H    0.001731   0.002205  -0.000531   0.000087   0.000022  -0.000056
     9  H   -0.000983  -0.000531   0.007456  -0.000778  -0.000053   0.000002
    10  H    0.003192   0.000087  -0.000778  -0.000547   0.001794  -0.000004
    11  H   -0.008286   0.000022  -0.000053   0.001794   0.031208  -0.000040
    12  H    0.005465  -0.000056   0.000002  -0.000004  -0.000040  -0.019321
 Mulliken charges and spin densities:
               1          2
     1  N   -0.325151   0.613995
     2  C   -0.112993   0.288529
     3  C    0.048004  -0.139715
     4  C   -0.130901  -0.154984
     5  C   -0.065690   0.355973
     6  C   -0.203890  -0.168178
     7  C    0.024751   1.187139
     8  H    0.141127  -0.000898
     9  H    0.130777   0.006439
    10  H    0.137763  -0.004073
    11  H    0.141002   0.026652
    12  H    0.215202  -0.010878
 Sum of Mulliken charges =  -0.00000   2.00000
 Mulliken charges and spin densities with hydrogens summed into heavy atoms:
               1          2
     1  N   -0.109949   0.603117
     2  C    0.028134   0.287631
     3  C    0.048004  -0.139715
     4  C   -0.000124  -0.148545
     5  C    0.072073   0.351900
     6  C   -0.062888  -0.141526
     7  C    0.024751   1.187139
 APT charges:
               1
     1  N   -0.268101
     2  C    0.041200
     3  C    0.005981
     4  C   -0.124234
     5  C    0.064339
     6  C   -0.125085
     7  C    0.015268
     8  H    0.057460
     9  H    0.047138
    10  H    0.045335
    11  H    0.069038
    12  H    0.171659
 Sum of APT charges =  -0.00000
 APT charges with hydrogens summed into heavy atoms:
               1
     1  N   -0.096441
     2  C    0.098660
     3  C    0.005981
     4  C   -0.077096
     5  C    0.109674
     6  C   -0.056047
     7  C    0.015268
 Electronic spatial extent (au):  <R**2>=            631.3202
 Charge=             -0.0000 electrons
 Dipole moment (field-independent basis, Debye):
    X=              2.5493    Y=             -0.5607    Z=              0.0000  Tot=              2.6103
 Quadrupole moment (field-independent basis, Debye-Ang):
   XX=            -40.8044   YY=            -36.3034   ZZ=            -43.5502
   XY=              2.8909   XZ=              0.0000   YZ=              0.0000
 Traceless Quadrupole moment (field-independent basis, Debye-Ang):
   XX=             -0.5851   YY=              3.9159   ZZ=             -3.3308
   XY=              2.8909   XZ=              0.0000   YZ=              0.0000
 Octapole moment (field-independent basis, Debye-Ang**2):
  XXX=             22.0730  YYY=              4.9881  ZZZ=              0.0000  XYY=              1.7218
  XXY=            -12.1936  XXZ=             -0.0000  XZZ=             -2.2974  YZZ=             -0.0065
  YYZ=              0.0000  XYZ=             -0.0000
 Hexadecapole moment (field-independent basis, Debye-Ang**3):
 XXXX=           -540.5442 YYYY=           -262.8868 ZZZZ=            -48.9844 XXXY=             36.9771
 XXXZ=              0.0000 YYYX=             -3.7181 YYYZ=             -0.0000 ZZZX=              0.0000
 ZZZY=             -0.0000 XXYY=           -118.6269 XXZZ=           -104.0172 YYZZ=            -60.9297
 XXYZ=              0.0000 YYXZ=              0.0000 ZZXY=              0.9897
 N-N= 2.515563104420D+02 E-N=-1.168146082889D+03  KE= 2.849433897083D+02
  Exact polarizability: 105.490   0.251  76.463   0.000   0.000  41.310
 Approx polarizability: 115.206  -0.250  86.858   0.000   0.000  49.700
                          Isotropic Fermi Contact Couplings
        Atom                 a.u.       MegaHertz       Gauss      10(-4) cm-1
     1  N(14)              0.06591      10.64838       3.79961       3.55192
     2  C(13)              0.04331      24.34290       8.68615       8.11992
     3  C(13)             -0.02730     -15.34292      -5.47474      -5.11785
     4  C(13)             -0.02482     -13.94910      -4.97738      -4.65292
     5  C(13)              0.06468      36.35457      12.97221      12.12658
     6  C(13)             -0.01095      -6.15541      -2.19640      -2.05322
     7  C(13)              0.34622     194.60896      69.44132      64.91456
     8  H(1)               0.00036       0.80683       0.28790       0.26913
     9  H(1)               0.00275       6.14273       2.19188       2.04899
    10  H(1)              -0.00208      -4.64976      -1.65915      -1.55099
    11  H(1)               0.01360      30.38636      10.84261      10.13580
    12  H(1)              -0.00928     -20.74995      -7.40410      -6.92144
 --------------------------------------------------------
       Center         ----  Spin Dipole Couplings  ----
                      3XX-RR        3YY-RR        3ZZ-RR
 --------------------------------------------------------
     1   Atom       -0.674258     -0.687448      1.361707
     2   Atom       -0.177618     -0.105901      0.283518
     3   Atom        0.108118      0.151916     -0.260034
     4   Atom        0.094135      0.090472     -0.184607
     5   Atom       -0.191275     -0.159452      0.350727
     6   Atom        0.188510      0.070942     -0.259452
     7   Atom       -0.373935      0.471908     -0.097973
     8   Atom       -0.010435      0.020442     -0.010008
     9   Atom        0.006316      0.001747     -0.008063
    10   Atom        0.034735     -0.028791     -0.005944
    11   Atom        0.026113     -0.008576     -0.017537
    12   Atom       -0.027726      0.050253     -0.022527
 --------------------------------------------------------
                        XY            XZ            YZ
 --------------------------------------------------------
     1   Atom       -0.027247     -0.000000     -0.000001
     2   Atom        0.030633      0.000000      0.000000
     3   Atom       -0.052661     -0.000000      0.000000
     4   Atom        0.001686      0.000000      0.000000
     5   Atom        0.046981     -0.000000     -0.000000
     6   Atom        0.033873      0.000000     -0.000000
     7   Atom        0.642313     -0.000000     -0.000000
     8   Atom       -0.016976     -0.000000      0.000000
     9   Atom       -0.004179      0.000000      0.000000
    10   Atom        0.003939      0.000000     -0.000000
    11   Atom       -0.005254      0.000000     -0.000000
    12   Atom        0.039435      0.000000      0.000000
 --------------------------------------------------------


 ---------------------------------------------------------------------------------
              Anisotropic Spin Dipole Couplings in Principal Axis System
 ---------------------------------------------------------------------------------

       Atom             a.u.   MegaHertz   Gauss  10(-4) cm-1        Axes

              Baa    -0.7089   -27.340    -9.756    -9.120  0.6184  0.7859  0.0000
     1 N(14)  Bbb    -0.6528   -25.178    -8.984    -8.398  0.7859 -0.6184 -0.0000
              Bcc     1.3617    52.518    18.740    17.518 -0.0000 -0.0000  1.0000
 
              Baa    -0.1889   -25.351    -9.046    -8.456  0.9382 -0.3462  0.0000
     2 C(13)  Bbb    -0.0946   -12.694    -4.530    -4.234  0.3462  0.9382 -0.0000
              Bcc     0.2835    38.045    13.576    12.691  0.0000  0.0000  1.0000
 
              Baa    -0.2600   -34.894   -12.451   -11.639  0.0000 -0.0000  1.0000
     3 C(13)  Bbb     0.0730     9.794     3.495     3.267  0.8319  0.5550 -0.0000
              Bcc     0.1870    25.100     8.956     8.373 -0.5550  0.8319  0.0000
 
              Baa    -0.1846   -24.772    -8.839    -8.263 -0.0000 -0.0000  1.0000
     4 C(13)  Bbb     0.0898    12.052     4.301     4.020 -0.3635  0.9316  0.0000
              Bcc     0.0948    12.720     4.539     4.243  0.9316  0.3635  0.0000
 
              Baa    -0.2250   -30.188   -10.772   -10.070  0.8126 -0.5828  0.0000
     5 C(13)  Bbb    -0.1258   -16.876    -6.022    -5.629  0.5828  0.8126  0.0000
              Bcc     0.3507    47.064    16.794    15.699 -0.0000 -0.0000  1.0000
 
              Baa    -0.2595   -34.816   -12.423   -11.613 -0.0000  0.0000  1.0000
     6 C(13)  Bbb     0.0619     8.304     2.963     2.770 -0.2584  0.9660 -0.0000
              Bcc     0.1976    26.512     9.460     8.844  0.9660  0.2584  0.0000
 
              Baa    -0.7201   -96.625   -34.478   -32.231  0.8803 -0.4744  0.0000
     7 C(13)  Bbb    -0.0980   -13.147    -4.691    -4.385  0.0000  0.0000  1.0000
              Bcc     0.8180   109.772    39.169    36.616  0.4744  0.8803 -0.0000
 
              Baa    -0.0179    -9.573    -3.416    -3.193  0.9146  0.4045  0.0000
     8 H(1)   Bbb    -0.0100    -5.340    -1.905    -1.781  0.0000 -0.0000  1.0000
              Bcc     0.0280    14.913     5.321     4.974 -0.4045  0.9146  0.0000
 
              Baa    -0.0081    -4.302    -1.535    -1.435 -0.0000 -0.0000  1.0000
     9 H(1)   Bbb    -0.0007    -0.390    -0.139    -0.130  0.5101  0.8601  0.0000
              Bcc     0.0088     4.692     1.674     1.565  0.8601 -0.5101 -0.0000
 
              Baa    -0.0290   -15.491    -5.528    -5.167 -0.0617  0.9981  0.0000
    10 H(1)   Bbb    -0.0059    -3.172    -1.132    -1.058 -0.0000 -0.0000  1.0000
              Bcc     0.0350    18.663     6.659     6.225  0.9981  0.0617  0.0000
 
              Baa    -0.0175    -9.357    -3.339    -3.121 -0.0000  0.0000  1.0000
    11 H(1)   Bbb    -0.0094    -4.991    -1.781    -1.665  0.1465  0.9892 -0.0000
              Bcc     0.0269    14.348     5.120     4.786  0.9892 -0.1465  0.0000
 
              Baa    -0.0442   -23.579    -8.413    -7.865  0.9228 -0.3853 -0.0000
    12 H(1)   Bbb    -0.0225   -12.019    -4.289    -4.009 -0.0000 -0.0000  1.0000
              Bcc     0.0667    35.598    12.702    11.874  0.3853  0.9228  0.0000
 

 ---------------------------------------------------------------------------------

 No NMR shielding tensors so no spin-rotation constants.
 Leave Link  601 at Mon Mar  2 01:01:52 2020, MaxMem=  1879048192 cpu:              65.5 elap:               2.2
 (Enter /opt/g16/l701.exe)
 SCFChk:  SCF convergence  3.76D-09 required  1.00D-08
 ... and contract with generalized density number  0.
 Compute integral second derivatives.
 R6Disp: Adding Grimme-D2 dispersion energy 2nd derivatives to the Hessian.
 Entering OneElI...
 Calculate overlap and kinetic energy integrals
    NBasis = 282  MinDer = 2  MaxDer = 2
 Requested accuracy = 0.1000D-14
 PrmmSu-InSpLW:  IPartL=    0 NPrtUS=   36 NPrtUL=    1 DoSpLW=F IThBeg=    0 IThEnd=   35 NThAct=   36.
 PrSmSu:  IncTry=   512 NBBP=           4730 NTPThr=   100 NPartT=   36 Incr=           1 LDynOK=F GPUOK=F.
 PrsmSu:  NPrtUS=  36 ThrOK=T IAlg=2 LenDen=           0 ISkipM=0 DoSpLW=F IThBeg=    0 IThEnd=   35.
 Prism:   IPart=     0 DynPar=F LinDyn=F Incr=           1.
 PRISM was handed    52079638 working-precision words and  4730 shell-pairs
 PRISM was handed    52079638 working-precision words and  4730 shell-pairs
 PRISM was handed    52079638 working-precision words and  4730 shell-pairs
 PRISM was handed    52079638 working-precision words and  4730 shell-pairs
 PRISM was handed    52079638 working-precision words and  4730 shell-pairs
 PRISM was handed    52079638 working-precision words and  4730 shell-pairs
 PRISM was handed    52079638 working-precision words and  4730 shell-pairs
 PRISM was handed    52079638 working-precision words and  4730 shell-pairs
 PRISM was handed    52079638 working-precision words and  4730 shell-pairs
 PRISM was handed    52079638 working-precision words and  4730 shell-pairs
 PRISM was handed    52079638 working-precision words and  4730 shell-pairs
 PRISM was handed    52079638 working-precision words and  4730 shell-pairs
 PRISM was handed    52079638 working-precision words and  4730 shell-pairs
 PRISM was handed    52079638 working-precision words and  4730 shell-pairs
 PRISM was handed    52079638 working-precision words and  4730 shell-pairs
 PRISM was handed    52079638 working-precision words and  4730 shell-pairs
 PRISM was handed    52079638 working-precision words and  4730 shell-pairs
 PRISM was handed    52079638 working-precision words and  4730 shell-pairs
 PRISM was handed    52079638 working-precision words and  4730 shell-pairs
 PRISM was handed    52079638 working-precision words and  4730 shell-pairs
 PRISM was handed    52079638 working-precision words and  4730 shell-pairs
 PRISM was handed    52079638 working-precision words and  4730 shell-pairs
 PRISM was handed    52079638 working-precision words and  4730 shell-pairs
 PRISM was handed    52079638 working-precision words and  4730 shell-pairs
 PRISM was handed    52079638 working-precision words and  4730 shell-pairs
 PRISM was handed    52079638 working-precision words and  4730 shell-pairs
 PRISM was handed    52079638 working-precision words and  4730 shell-pairs
 PRISM was handed    52079638 working-precision words and  4730 shell-pairs
 PRISM was handed    52079638 working-precision words and  4730 shell-pairs
 PRISM was handed    52079638 working-precision words and  4730 shell-pairs
 PRISM was handed    52079638 working-precision words and  4730 shell-pairs
 PRISM was handed    52079638 working-precision words and  4730 shell-pairs
 PRISM was handed    52079638 working-precision words and  4730 shell-pairs
 PRISM was handed    52079638 working-precision words and  4730 shell-pairs
 PRISM was handed    52079638 working-precision words and  4730 shell-pairs
 PRISM was handed    52079638 working-precision words and  4730 shell-pairs
 IPart=  0 NShTot=         160 NBatch=          49 AvBLen=         3.3
 IPart= 23 NShTot=         127 NBatch=          28 AvBLen=         4.5
 IPart= 17 NShTot=         131 NBatch=          31 AvBLen=         4.2
 IPart=  7 NShTot=         142 NBatch=          34 AvBLen=         4.2
 IPart= 25 NShTot=         122 NBatch=          28 AvBLen=         4.4
 IPart= 32 NShTot=         114 NBatch=          25 AvBLen=         4.6
 IPart= 28 NShTot=         116 NBatch=          26 AvBLen=         4.5
 IPart= 15 NShTot=         132 NBatch=          31 AvBLen=         4.3
 IPart= 20 NShTot=         130 NBatch=          31 AvBLen=         4.2
 IPart= 22 NShTot=         129 NBatch=          30 AvBLen=         4.3
 IPart= 19 NShTot=         130 NBatch=          31 AvBLen=         4.2
 IPart= 10 NShTot=         139 NBatch=          33 AvBLen=         4.2
 IPart= 14 NShTot=         132 NBatch=          31 AvBLen=         4.3
 IPart= 13 NShTot=         134 NBatch=          32 AvBLen=         4.2
 IPart= 35 NShTot=         111 NBatch=          24 AvBLen=         4.6
 IPart=  6 NShTot=         147 NBatch=          39 AvBLen=         3.8
 IPart= 34 NShTot=         111 NBatch=          24 AvBLen=         4.6
 IPart= 29 NShTot=         116 NBatch=          26 AvBLen=         4.5
 IPart= 31 NShTot=         114 NBatch=          25 AvBLen=         4.6
 IPart=  9 NShTot=         141 NBatch=          33 AvBLen=         4.3
 IPart= 33 NShTot=         112 NBatch=          25 AvBLen=         4.5
 IPart= 30 NShTot=         115 NBatch=          25 AvBLen=         4.6
 IPart= 27 NShTot=         117 NBatch=          27 AvBLen=         4.3
 IPart= 26 NShTot=         120 NBatch=          28 AvBLen=         4.3
 IPart= 24 NShTot=         127 NBatch=          28 AvBLen=         4.5
 IPart=  5 NShTot=         148 NBatch=          39 AvBLen=         3.8
 IPart=  4 NShTot=         150 NBatch=          41 AvBLen=         3.7
 IPart= 12 NShTot=         138 NBatch=          33 AvBLen=         4.2
 IPart= 11 NShTot=         138 NBatch=          33 AvBLen=         4.2
 IPart=  1 NShTot=         154 NBatch=          44 AvBLen=         3.5
 IPart= 18 NShTot=         130 NBatch=          31 AvBLen=         4.2
 IPart=  3 NShTot=         151 NBatch=          42 AvBLen=         3.6
 IPart=  8 NShTot=         141 NBatch=          33 AvBLen=         4.3
 IPart=  2 NShTot=         151 NBatch=          42 AvBLen=         3.6
 IPart= 21 NShTot=         129 NBatch=          30 AvBLen=         4.3
 IPart= 16 NShTot=         131 NBatch=          31 AvBLen=         4.2
 PrSmSu:  NxtVal=             37.
 Entering OneElI...
 Calculate potential energy integrals
    NBasis = 282  MinDer = 2  MaxDer = 2
 Requested accuracy = 0.1000D-14
 PrmmSu-InSpLW:  IPartL=    0 NPrtUS=   36 NPrtUL=    1 DoSpLW=F IThBeg=    0 IThEnd=   35 NThAct=   36.
 PrSmSu:  IncTry=   512 NBBP=          54936 NTPThr=   100 NPartT=   36 Incr=          15 LDynOK=F GPUOK=F.
 PrsmSu:  NPrtUS=  36 ThrOK=T IAlg=2 LenDen=           0 ISkipM=0 DoSpLW=F IThBeg=    0 IThEnd=   35.
 Prism:   IPart=     0 DynPar=F LinDyn=F Incr=          15.
 PRISM was handed    52092514 working-precision words and  4578 shell-pairs
 PRISM was handed    52092514 working-precision words and  4578 shell-pairs
 PRISM was handed    52092514 working-precision words and  4578 shell-pairs
 PRISM was handed    52092514 working-precision words and  4578 shell-pairs
 PRISM was handed    52092514 working-precision words and  4578 shell-pairs
 PRISM was handed    52092514 working-precision words and  4578 shell-pairs
 PRISM was handed    52092514 working-precision words and  4578 shell-pairs
 PRISM was handed    52092514 working-precision words and  4578 shell-pairs
 PRISM was handed    52092514 working-precision words and  4578 shell-pairs
 PRISM was handed    52092514 working-precision words and  4578 shell-pairs
 PRISM was handed    52092514 working-precision words and  4578 shell-pairs
 PRISM was handed    52092514 working-precision words and  4578 shell-pairs
 PRISM was handed    52092514 working-precision words and  4578 shell-pairs
 PRISM was handed    52092514 working-precision words and  4578 shell-pairs
 PRISM was handed    52092514 working-precision words and  4578 shell-pairs
 PRISM was handed    52092514 working-precision words and  4578 shell-pairs
 PRISM was handed    52092514 working-precision words and  4578 shell-pairs
 PRISM was handed    52092514 working-precision words and  4578 shell-pairs
 PRISM was handed    52092514 working-precision words and  4578 shell-pairs
 PRISM was handed    52092514 working-precision words and  4578 shell-pairs
 PRISM was handed    52092514 working-precision words and  4578 shell-pairs
 PRISM was handed    52092514 working-precision words and  4578 shell-pairs
 PRISM was handed    52092514 working-precision words and  4578 shell-pairs
 PRISM was handed    52092514 working-precision words and  4578 shell-pairs
 PRISM was handed    52092514 working-precision words and  4578 shell-pairs
 PRISM was handed    52092514 working-precision words and  4578 shell-pairs
 PRISM was handed    52092514 working-precision words and  4578 shell-pairs
 PRISM was handed    52092514 working-precision words and  4578 shell-pairs
 PRISM was handed    52092514 working-precision words and  4578 shell-pairs
 PRISM was handed    52092514 working-precision words and  4578 shell-pairs
 PRISM was handed    52092514 working-precision words and  4578 shell-pairs
 PRISM was handed    52092514 working-precision words and  4578 shell-pairs
 PRISM was handed    52092514 working-precision words and  4578 shell-pairs
 PRISM was handed    52092514 working-precision words and  4578 shell-pairs
 PRISM was handed    52092514 working-precision words and  4578 shell-pairs
 PRISM was handed    52092514 working-precision words and  4578 shell-pairs
 IPart= 35 NShTot=        1332 NBatch=         111 AvBLen=        12.0
 IPart= 32 NShTot=        1332 NBatch=         111 AvBLen=        12.0
 IPart= 20 NShTot=        1440 NBatch=         120 AvBLen=        12.0
 IPart=  0 NShTot=        1920 NBatch=         160 AvBLen=        12.0
 IPart=  6 NShTot=        1692 NBatch=         141 AvBLen=        12.0
 IPart= 14 NShTot=        1548 NBatch=         129 AvBLen=        12.0
 IPart= 19 NShTot=        1464 NBatch=         122 AvBLen=        12.0
 IPart=  7 NShTot=        1656 NBatch=         138 AvBLen=        12.0
 IPart= 25 NShTot=        1392 NBatch=         116 AvBLen=        12.0
 IPart= 34 NShTot=        1332 NBatch=         111 AvBLen=        12.0
 IPart= 29 NShTot=        1344 NBatch=         112 AvBLen=        12.0
 IPart= 30 NShTot=        1344 NBatch=         112 AvBLen=        12.0
 IPart= 16 NShTot=        1500 NBatch=         125 AvBLen=        12.0
 IPart= 13 NShTot=        1560 NBatch=         130 AvBLen=        12.0
 IPart= 23 NShTot=        1428 NBatch=         119 AvBLen=        12.0
 IPart= 22 NShTot=        1428 NBatch=         119 AvBLen=        12.0
 IPart= 15 NShTot=        1524 NBatch=         127 AvBLen=        12.0
 IPart= 28 NShTot=        1356 NBatch=         113 AvBLen=        12.0
 IPart= 31 NShTot=        1344 NBatch=         112 AvBLen=        12.0
 IPart= 10 NShTot=        1632 NBatch=         136 AvBLen=        12.0
 IPart= 11 NShTot=        1632 NBatch=         136 AvBLen=        12.0
 IPart= 17 NShTot=        1488 NBatch=         124 AvBLen=        12.0
 IPart=  5 NShTot=        1716 NBatch=         143 AvBLen=        12.0
 IPart= 12 NShTot=        1608 NBatch=         134 AvBLen=        12.0
 IPart=  2 NShTot=        1836 NBatch=         153 AvBLen=        12.0
 IPart=  4 NShTot=        1752 NBatch=         146 AvBLen=        12.0
 IPart= 27 NShTot=        1368 NBatch=         114 AvBLen=        12.0
 IPart= 26 NShTot=        1368 NBatch=         114 AvBLen=        12.0
 IPart=  8 NShTot=        1656 NBatch=         138 AvBLen=        12.0
 IPart=  3 NShTot=        1788 NBatch=         149 AvBLen=        12.0
 IPart= 21 NShTot=        1428 NBatch=         119 AvBLen=        12.0
 IPart= 33 NShTot=        1332 NBatch=         111 AvBLen=        12.0
 IPart=  9 NShTot=        1632 NBatch=         136 AvBLen=        12.0
 IPart= 24 NShTot=        1428 NBatch=         119 AvBLen=        12.0
 IPart= 18 NShTot=        1476 NBatch=         123 AvBLen=        12.0
 IPart=  1 NShTot=        1860 NBatch=         155 AvBLen=        12.0
 PrSmSu:  NxtVal=            541.
   1 Symmetry operations used in ECPInt.
 ECPInt:  NShTT=    4753 NPrTT=   14704 LenC2=    4696 LenP2D=   11982.
 LDataN:  DoStor=F MaxTD1= 8 Len=  415
 LDataN:  DoStor=T MaxTD1= 8 Len=  415
 ECPSu:  NPrtUS=  36 ThrOK=T ISkipM=0 DoSpLW=F IThBeg=    0 IThEnd=   35.
 Polarizability after L701:
                1             2             3 
      1  0.105490D+03
      2  0.251193D+00  0.764626D+02
      3  0.000000D+00  0.000000D+00  0.413104D+02
 Dipole Derivatives after L701:
                 1             2             3             4             5 
      1  -0.277110D+00  0.364733D-01  0.000000D+00  0.241156D+00  0.216257D-01
      2  -0.656774D-01 -0.839253D-01  0.000000D+00 -0.596093D-01  0.571929D-02
      3   0.000000D+00  0.000000D+00 -0.443267D+00  0.000000D+00  0.000000D+00
                 6             7             8             9            10 
      1   0.000000D+00 -0.161116D+00  0.951655D-01  0.000000D+00 -0.266947D+00
      2   0.000000D+00  0.350244D-01  0.277463D-01  0.000000D+00  0.174031D+00
      3  -0.123275D+00  0.000000D+00  0.000000D+00  0.151314D+00  0.000000D+00
                11            12            13            14            15 
      1   0.195976D+00 -0.142350D-05  0.148305D+00 -0.189995D-01  0.216999D-05
      2   0.245163D-01  0.000000D+00 -0.329778D-02  0.166929D+00  0.000000D+00
      3   0.000000D+00 -0.130272D+00  0.000000D+00  0.000000D+00 -0.122218D+00
                16            17            18            19            20 
      1  -0.200075D+00 -0.180138D+00 -0.116052D-05  0.161737D+00 -0.868154D-01
      2  -0.162944D+00 -0.427006D-01  0.000000D+00  0.196651D-02 -0.103656D+00
      3   0.000000D+00  0.000000D+00 -0.132478D+00  0.000000D+00  0.000000D+00
                21            22            23            24            25 
      1   0.000000D+00  0.460194D-01  0.276907D-01  0.000000D+00  0.376616D-01
      2   0.000000D+00  0.365440D-01 -0.193769D-02  0.000000D+00 -0.576791D-01
      3  -0.122773D-01  0.000000D+00  0.000000D+00  0.128299D+00  0.000000D+00
                26            27            28            29            30 
      1  -0.664478D-01  0.000000D+00 -0.690624D-01 -0.141835D-01  0.000000D+00
      2  -0.384065D-01  0.000000D+00  0.111573D-02  0.634758D-01  0.000000D+00
      3   0.000000D+00  0.142160D+00  0.000000D+00  0.000000D+00  0.141593D+00
                31            32            33            34            35 
      1   0.511146D-01  0.628761D-01  0.000000D+00  0.288316D+00 -0.732228D-01
      2   0.586297D-01  0.257022D-02  0.000000D+00  0.418958D-01 -0.203306D-01
      3   0.000000D+00  0.000000D+00  0.153429D+00  0.000000D+00  0.000000D+00
                36 
      1   0.000000D+00
      2   0.000000D+00
      3   0.246993D+00
 Hessian after L701:
                1             2             3             4             5 
      1  0.280663D+01
      2 -0.151481D+01  0.121534D+02
      3 -0.344325D-05 -0.276069D-05  0.169017D+02
      4  0.686903D-01  0.223833D+00 -0.524077D-05  0.935101D+01
      5  0.233611D+00  0.972607D-01 -0.163952D-05 -0.137693D+01  0.126010D+02
      6 -0.537718D-05 -0.125365D-05 -0.103646D+00 -0.111758D-04  0.335689D-05
      7 -0.107523D+00  0.542614D-02  0.726624D-05 -0.583739D+01  0.305232D+01
      8  0.262339D-01 -0.103389D+02  0.155720D-05  0.281888D+01 -0.270284D+01
      9  0.729815D-05  0.138198D-05 -0.118111D+02 -0.264838D-05 -0.409720D-05
     10  0.300650D+00  0.115942D+00  0.235560D-05 -0.466990D+00 -0.199816D+00
     11  0.123017D+00 -0.109503D+00  0.000000D+00  0.189298D+00 -0.866106D+01
     12  0.246077D-05  0.000000D+00 -0.119410D+00  0.115206D-04  0.176074D-05
     13  0.180656D+00 -0.366331D-01 -0.148828D-05  0.332168D+00 -0.292640D+00
     14 -0.142330D-01 -0.981104D-01  0.000000D+00 -0.343828D+00  0.348517D-01
     15 -0.170231D-05  0.000000D+00 -0.892409D-01  0.759652D-05 -0.439173D-05
     16  0.401065D+00 -0.164771D+00  0.208567D-05 -0.772573D-01 -0.294478D+00
     17 -0.123719D+00 -0.191645D+00  0.000000D+00 -0.312843D+00  0.149183D+00
     18  0.191707D-05  0.000000D+00 -0.174784D+00  0.000000D+00  0.000000D+00
     19  0.187114D+00 -0.352618D+00 -0.280459D-05 -0.223257D+00  0.179329D+00
     20 -0.303932D+00  0.394925D+00  0.000000D+00  0.183892D+00  0.472618D+00
     21 -0.210647D-05  0.000000D+00  0.172017D+00  0.000000D+00  0.428618D-05
     22  0.277433D-01  0.879059D-01  0.000000D+00 -0.334361D+01 -0.128237D+01
     23  0.197920D+00  0.479054D-01  0.000000D+00 -0.140295D+01 -0.216556D+01
     24  0.000000D+00  0.000000D+00 -0.886290D-01  0.000000D+00  0.116390D-05
     25  0.265310D-01  0.102869D-01  0.000000D+00 -0.532575D-01 -0.980981D-01
     26  0.381035D-01  0.381521D-04  0.000000D+00 -0.546539D-01  0.753929D-01
     27  0.000000D+00  0.000000D+00 -0.108495D-01  0.000000D+00  0.000000D+00
     28  0.391228D-01 -0.884082D-02  0.000000D+00  0.167258D+00 -0.693634D-01
     29  0.397510D-03 -0.664484D-02  0.000000D+00 -0.511884D-01 -0.286584D-01
     30  0.000000D+00  0.000000D+00 -0.763131D-02  0.000000D+00  0.000000D+00
     31  0.242037D-01 -0.225421D-01  0.000000D+00  0.258635D-02 -0.194301D-01
     32 -0.346448D-01  0.157336D-01  0.000000D+00 -0.250678D-01  0.209397D-01
     33  0.000000D+00  0.000000D+00 -0.110182D-01  0.000000D+00  0.000000D+00
     34 -0.395488D+01  0.165682D+01  0.147661D-05  0.800522D-01  0.167862D+00
     35  0.137206D+01 -0.196447D+01  0.258410D-05  0.151551D+00  0.106884D+00
     36  0.113803D-05  0.256479D-05 -0.465740D+01  0.000000D+00  0.000000D+00
                6             7             8             9            10 
      6  0.237813D+02
      7 -0.320916D-05  0.100710D+02
      8 -0.379470D-05  0.792626D+00  0.158623D+02
      9 -0.852440D+01  0.807255D-05  0.463156D-05  0.295980D+02
     10  0.103796D-04  0.369835D+00  0.412577D+00 -0.349090D-05  0.957806D+01
     11  0.365361D-05  0.385422D+00 -0.739087D-01 -0.286958D-05  0.115552D+01
     12 -0.107202D+02 -0.246615D-05 -0.221719D-05 -0.236857D+00  0.312695D-05
     13  0.944004D-05  0.251474D+00  0.307887D-01 -0.494857D-05 -0.584425D+01
     14 -0.480826D-05  0.527017D-01 -0.162027D+00  0.000000D+00 -0.297808D+01
     15 -0.129550D+00 -0.676757D-05  0.000000D+00 -0.148542D-01 -0.116933D-04
     16  0.000000D+00  0.529105D-01 -0.402909D+00 -0.150126D-05 -0.303481D+00
     17  0.000000D+00 -0.287023D+00 -0.704168D-01  0.129911D-05 -0.183200D-01
     18 -0.453581D-01  0.000000D+00  0.000000D+00 -0.250500D+00  0.000000D+00
     19  0.000000D+00 -0.527818D+01 -0.345116D+01 -0.244699D-05 -0.791274D-01
     20  0.130248D-05 -0.401798D+01 -0.249112D+01  0.000000D+00  0.173470D+00
     21 -0.146051D+00 -0.219614D-05  0.000000D+00 -0.896261D+01  0.000000D+00
     22 -0.112023D-05  0.105585D+00 -0.494427D-02  0.000000D+00 -0.509547D-01
     23  0.180367D-05  0.426196D-01 -0.121601D+00  0.000000D+00  0.595638D-01
     24 -0.410075D+01  0.000000D+00  0.000000D+00  0.870161D-01  0.000000D+00
     25  0.000000D+00  0.815887D-01  0.116404D+00  0.000000D+00 -0.344635D+01
     26  0.000000D+00  0.137031D+00  0.652935D-01  0.000000D+00  0.116265D+01
     27  0.885520D-01  0.000000D+00  0.000000D+00 -0.399920D-01  0.000000D+00
     28  0.000000D+00  0.169541D-01 -0.108373D-02  0.000000D+00 -0.508884D-01
     29  0.000000D+00  0.233817D-02 -0.830194D-02  0.000000D+00  0.123718D+00
     30 -0.377244D-01  0.000000D+00  0.000000D+00 -0.903339D-02  0.000000D+00
     31  0.000000D+00  0.717717D-01 -0.814931D-01  0.000000D+00 -0.294612D-01
     32  0.000000D+00 -0.982048D-01  0.404995D-01  0.000000D+00 -0.361976D-01
     33 -0.116807D-01  0.000000D+00  0.000000D+00 -0.254273D-01  0.000000D+00
     34  0.000000D+00  0.201975D+00 -0.255926D+00  0.000000D+00  0.229601D-01
     35  0.000000D+00 -0.672729D-01  0.963031D-03  0.000000D+00  0.289699D-01
     36 -0.504928D-01  0.000000D+00  0.000000D+00  0.189739D+00  0.000000D+00
               11            12            13            14            15 
     11  0.123004D+02
     12 -0.156736D-04  0.242383D+02
     13 -0.332169D+01 -0.145780D-04  0.116743D+02
     14 -0.254434D+01  0.160664D-04  0.160189D+00  0.908572D+01
     15  0.187965D-04 -0.914501D+01  0.109488D-04 -0.524350D-05  0.225842D+02
     16 -0.616860D-01  0.000000D+00 -0.600988D+01  0.270038D+01 -0.885157D-05
     17  0.524055D+00  0.000000D+00  0.303652D+01 -0.206746D+01 -0.147609D-04
     18 -0.309144D-05 -0.214489D+00 -0.106853D-04 -0.118247D-04 -0.913604D+01
     19  0.199978D+00  0.000000D+00  0.349888D+00  0.489514D+00  0.847521D-05
     20  0.217695D+00  0.000000D+00  0.495892D+00 -0.889734D-01  0.530382D-05
     21 -0.180063D-05  0.553694D-01  0.103979D-04  0.590153D-05 -0.270553D+00
     22  0.836169D-01  0.000000D+00  0.923986D-01 -0.119331D+00  0.000000D+00
     23  0.892518D-01  0.000000D+00 -0.142941D+00  0.613572D-01  0.000000D+00
     24  0.000000D+00  0.979545D-01  0.000000D+00  0.000000D+00 -0.431491D-01
     25  0.119548D+01  0.000000D+00  0.128444D+00  0.323935D-01  0.000000D+00
     26 -0.194409D+01  0.000000D+00  0.138962D-01 -0.119809D+00  0.194825D-05
     27  0.000000D+00 -0.401155D+01  0.000000D+00  0.105905D-05  0.103703D+00
     28  0.988074D-01 -0.140130D-05 -0.127246D+01  0.643400D-01  0.177515D-05
     29  0.461673D-01  0.000000D+00  0.639920D-01 -0.402135D+01  0.000000D+00
     30  0.000000D+00  0.964645D-01  0.121978D-05  0.000000D+00 -0.394143D+01
     31 -0.598759D-01  0.000000D+00  0.108671D+00 -0.463348D-01  0.000000D+00
     32  0.149427D+00  0.000000D+00 -0.228992D-01 -0.784805D-01 -0.146547D-05
     33  0.000000D+00 -0.314669D-01  0.000000D+00  0.000000D+00  0.874646D-01
     34  0.121116D-01  0.000000D+00  0.860892D-02  0.228860D-02  0.000000D+00
     35  0.588617D-02  0.000000D+00  0.155302D-01 -0.137715D-02  0.000000D+00
     36  0.000000D+00 -0.910080D-02  0.000000D+00  0.000000D+00 -0.550503D-02
               16            17            18            19            20 
     16  0.899786D+01
     17 -0.100179D+01  0.115527D+02
     18  0.594866D-05  0.176644D-04  0.238802D+02
     19  0.147984D+00 -0.731303D-01  0.399246D-05  0.509844D+01
     20  0.431796D+00 -0.815317D+01 -0.191548D-05  0.305065D+01  0.930333D+01
     21  0.221493D-05 -0.238081D-05 -0.101942D+02 -0.768554D-05 -0.607573D-05
     22  0.104706D-02  0.975854D-02  0.000000D+00 -0.617463D-01 -0.988023D-01
     23  0.171462D-02 -0.197635D-01  0.000000D+00 -0.619004D-01  0.254736D+00
     24  0.000000D+00  0.000000D+00  0.771516D-03  0.000000D+00  0.000000D+00
     25 -0.442121D-01  0.609648D-01  0.000000D+00  0.313434D-02  0.123152D-01
     26  0.296668D-01  0.187537D+00  0.000000D+00  0.180778D-01  0.170037D-01
     27  0.000000D+00  0.000000D+00 -0.419609D-01  0.000000D+00  0.000000D+00
     28 -0.228802D-01 -0.967637D-01  0.000000D+00  0.177893D+00  0.885210D-01
     29 -0.121182D+00  0.279332D-01  0.000000D+00  0.544612D-01 -0.306834D-01
     30  0.000000D+00  0.000000D+00  0.922623D-01  0.000000D+00  0.000000D+00
     31 -0.328919D+01 -0.118630D+01  0.000000D+00 -0.765012D-01  0.580297D-01
     32 -0.115224D+01 -0.190692D+01  0.000000D+00 -0.102251D-01  0.632006D-01
     33  0.000000D+00  0.000000D+00 -0.388719D+01  0.000000D+00  0.000000D+00
     34  0.146027D+00 -0.735190D-02  0.000000D+00 -0.245644D+00 -0.738530D-01
     35  0.355050D-01 -0.320639D-01  0.000000D+00 -0.429844D-01  0.404478D-01
     36  0.000000D+00  0.000000D+00 -0.287087D-01  0.000000D+00  0.000000D+00
               21            22            23            24            25 
     21  0.193941D+02
     22  0.000000D+00  0.327016D+01
     23  0.000000D+00  0.133710D+01  0.183165D+01
     24 -0.654557D-01  0.000000D+00  0.000000D+00  0.410623D+01
     25  0.000000D+00 -0.486168D-01 -0.732968D-02  0.000000D+00  0.336031D+01
     26  0.000000D+00  0.633190D-02  0.612483D-02  0.000000D+00 -0.135950D+01
     27 -0.684804D-02  0.000000D+00  0.000000D+00  0.891940D-02  0.000000D+00
     28  0.000000D+00  0.102443D-01 -0.140631D-01  0.000000D+00 -0.875568D-02
     29  0.000000D+00 -0.797978D-03  0.101254D-02  0.000000D+00  0.248950D-01
     30 -0.408764D-01  0.000000D+00  0.000000D+00 -0.207980D-02  0.000000D+00
     31  0.000000D+00  0.371801D-02 -0.812849D-02  0.000000D+00 -0.293175D-02
     32  0.000000D+00 -0.793088D-02  0.123826D-01  0.000000D+00  0.621700D-02
     33  0.355649D-01  0.000000D+00  0.000000D+00 -0.178947D-02  0.000000D+00
     34  0.000000D+00 -0.597342D-02 -0.160683D-02  0.000000D+00  0.411302D-02
     35  0.000000D+00 -0.105399D-01  0.250040D-02  0.000000D+00  0.596825D-02
     36  0.295574D-01  0.000000D+00  0.000000D+00  0.962074D-03  0.000000D+00
               26            27            28            29            30 
     26  0.171913D+01
     27 -0.147434D-05  0.390705D+01
     28  0.865600D-02  0.000000D+00  0.945553D+00
     29 -0.262223D-01  0.000000D+00 -0.778321D-01  0.406762D+01
     30  0.000000D+00  0.610647D-02  0.000000D+00  0.000000D+00  0.384303D+01
     31 -0.683971D-02  0.000000D+00 -0.858241D-02 -0.194076D-01  0.000000D+00
     32  0.121701D-01  0.000000D+00  0.396783D-03 -0.208183D-01  0.000000D+00
     33  0.000000D+00 -0.142521D-02  0.000000D+00  0.000000D+00  0.158655D-02
     34  0.658139D-02  0.000000D+00  0.653888D-02  0.606375D-03  0.000000D+00
     35  0.742777D-02  0.000000D+00  0.722551D-02 -0.585528D-04  0.000000D+00
     36  0.000000D+00 -0.170896D-02  0.000000D+00  0.000000D+00 -0.675409D-03
               31            32            33            34            35 
     31  0.319034D+01
     32  0.138716D+01  0.169842D+01
     33  0.000000D+00  0.103362D-05  0.384598D+01
     34  0.537820D-02 -0.636109D-02  0.000000D+00  0.373084D+01
     35  0.516316D-02 -0.655826D-02  0.000000D+00 -0.150117D+01  0.184042D+01
     36  0.000000D+00  0.000000D+00 -0.606816D-03 -0.138952D-05 -0.246535D-05
               36 
     36  0.453394D+01
 Leave Link  701 at Mon Mar  2 01:01:54 2020, MaxMem=  1879048192 cpu:              46.3 elap:               1.4
 (Enter /opt/g16/l702.exe)
 L702 exits ... SP integral derivatives will be done elsewhere.
 Leave Link  702 at Mon Mar  2 01:01:54 2020, MaxMem=  1879048192 cpu:               3.0 elap:               0.1
 (Enter /opt/g16/l703.exe)
 Integral derivatives from FoFJK, PRISM(SPDF).
 Compute integral second derivatives, UseDBF=F ICtDFT=           0.
 ICntrl=    100127.
 Calling FoFJK, ICntrl=    100127 FMM=F ISym2X=0 I1Cent= 0 IOpClX= 1 NMat=1 NMatS=1 NMatT=0.
 FoFJK:  IHMeth= 1 ICntrl=  100127 DoSepK=T KAlg= 0 I1Cent=           0 FoldK=F
 IRaf=         1 NMat=       1 IRICut=       1 DoRegI=T DoRafI=F ISym2E= 0 IDoP0=0 IntGTp=1.
 FoFCou: FMM=F IPFlag=           0 FMFlag=      100000 FMFlg1=         800
         NFxFlg=           0 DoJE=F BraDBF=F KetDBF=F FulRan=T
         wScrn=  0.000000 ICntrl=    100527 IOpCl=  0 I1Cent=           0 NGrid=           0
         NMat0=    1 NMatS0=      1 NMatT0=    0 NMatD0=    1 NMtDS0=    0 NMtDT0=    0
 Symmetry not used in FoFCou.
 FoFCou:  KetSym=F NOpSet=  1 NOpAb=1 NOp=  1.
 FoFCou:  CnvScl= 1.00D+00 Thresh= 1.00D-12 IAcrcy=      10.
 PrismS was handed  1878567716 working-precision words and  4669 shell-pairs
 FoFCou: LinMIO=F DoNuc=F BraDBF=F KetDBF=F HaveP=T PDBF=F HaveZ=T HaveW=F
         NIJTC =      10 NIJTAt=       0 NIJTCD=       0 NIJTT =      10
         IJTBeg=       1 IJTEnd=      10 KLTBeg=       1 KLTEnd=      10
         IPTBeg=       1 IPTEnd=      10 IPTBCv=       1 IPTECv=      10
         IZTBeg=       1 IZTEnd=      10 IZTBCv=       1 IZTECv=      10
         IWTBeg=      11 IWTEnd=      10 IWTBCv=      11 IWTECv=      10
         INTBeg=       1 INTEnd=       0 IFTBCv=       1 IFTECv=      10
 NCel replicated for PrismC:     1
 CoulSu-InSpLW:  IPartL=    0 NPrtUS=   36 NPrtUL=    1 DoSpLW=F IThBeg=    0 IThEnd=   35 NThAct=   36.
 CoulSu:  IncTry=  1024 NBBP=       10902115 NTPThr=   100 NPartT=   36 Incr=        1024 LDynOK=F GPUOK=F.
 CoulSu:  NPrtUS=  36 ThrOK=T IAlg=2 LenDen=           0 LWGrdD=           0 DoCopy=F ISkipM=0
          DoSpLW=F IThBeg=    0 IThEnd=   35.
 Enter PrismC:  IPart=  0 JobTyp=22 DoJE=F Cont=F.
 PrismC:  IPart=     0 DynPar=T LinDyn=F Incr=        1024 UseFst=F UseS4=T ISplat=2.
 PrismC was handed    52088328 working-precision words and  4669 shell-pairs
 Enter PrismC:  IPart= 35 JobTyp=22 DoJE=F Cont=F.
 PrismC:  IPart=    35 DynPar=T LinDyn=F Incr=        1024 UseFst=F UseS4=T ISplat=2.
 PrismC was handed    52088328 working-precision words and  4669 shell-pairs
 Enter PrismC:  IPart= 21 JobTyp=22 DoJE=F Cont=F.
 PrismC:  IPart=    21 DynPar=T LinDyn=F Incr=        1024 UseFst=F UseS4=T ISplat=2.
 PrismC was handed    52088328 working-precision words and  4669 shell-pairs
 Enter PrismC:  IPart= 25 JobTyp=22 DoJE=F Cont=F.
 PrismC:  IPart=    25 DynPar=T LinDyn=F Incr=        1024 UseFst=F UseS4=T ISplat=2.
 PrismC was handed    52088328 working-precision words and  4669 shell-pairs
 Enter PrismC:  IPart= 30 JobTyp=22 DoJE=F Cont=F.
 PrismC:  IPart=    30 DynPar=T LinDyn=F Incr=        1024 UseFst=F UseS4=T ISplat=2.
 PrismC was handed    52088328 working-precision words and  4669 shell-pairs
 Enter PrismC:  IPart= 10 JobTyp=22 DoJE=F Cont=F.
 Enter PrismC:  IPart= 26 JobTyp=22 DoJE=F Cont=F.
 Enter PrismC:  IPart= 23 JobTyp=22 DoJE=F Cont=F.
 PrismC:  IPart=    26 DynPar=T LinDyn=F Incr=        1024 UseFst=F UseS4=T ISplat=2.
 PrismC was handed    52088328 working-precision words and  4669 shell-pairs
 PrismC:  IPart=    10 DynPar=T LinDyn=F Incr=        1024 UseFst=F UseS4=T ISplat=2.
 PrismC was handed    52088328 working-precision words and  4669 shell-pairs
 PrismC:  IPart=    23 DynPar=T LinDyn=F Incr=        1024 UseFst=F UseS4=T ISplat=2.
 PrismC was handed    52088328 working-precision words and  4669 shell-pairs
 Enter PrismC:  IPart= 32 JobTyp=22 DoJE=F Cont=F.
 PrismC:  IPart=    32 DynPar=T LinDyn=F Incr=        1024 UseFst=F UseS4=T ISplat=2.
 PrismC was handed    52088328 working-precision words and  4669 shell-pairs
 Enter PrismC:  IPart= 18 JobTyp=22 DoJE=F Cont=F.
 Enter PrismC:  IPart=  3 JobTyp=22 DoJE=F Cont=F.
 Enter PrismC:  IPart= 17 JobTyp=22 DoJE=F Cont=F.
 PrismC:  IPart=     3 DynPar=T LinDyn=F Incr=        1024 UseFst=F UseS4=T ISplat=2.
 PrismC was handed    52088328 working-precision words and  4669 shell-pairs
 Enter PrismC:  IPart= 29 JobTyp=22 DoJE=F Cont=F.
 Enter PrismC:  IPart= 11 JobTyp=22 DoJE=F Cont=F.
 PrismC:  IPart=    17 DynPar=T LinDyn=F Incr=        1024 UseFst=F UseS4=T ISplat=2.
 Enter PrismC:  IPart= 28 JobTyp=22 DoJE=F Cont=F.
 PrismC was handed    52088328 working-precision words and  4669 shell-pairs
 PrismC:  IPart=    11 DynPar=T LinDyn=F Incr=        1024 UseFst=F UseS4=T ISplat=2.
[...]
     36  0.435627D-04 -0.816546D-03  0.000000D+00  0.491449D-05 -0.695224D-04
               31            32            33            34            35 
     31  0.688789D-01
     32 -0.641579D-01  0.347281D+00
     33 -0.121257D-02  0.121522D-01  0.230906D-01
     34  0.200285D-03 -0.470753D-04 -0.921712D-05  0.216424D+00
     35 -0.292126D-04  0.967974D-04 -0.145791D-04  0.187881D+00  0.267258D+00
     36 -0.842429D-05 -0.152113D-04  0.400807D-03  0.153788D-01  0.177360D-01
               36 
     36  0.188868D-01
 Final forces over variables, Energy=-2.86265114D+02:
 -1.42117643D-06 1.03606498D-05-2.18188651D-05 1.84695198D-05
  6.18051624D-06-5.43781507D-06-4.50762933D-06-2.69846222D-06
 -2.26048424D-06-3.72765352D-07-4.45129602D-07 3.95164188D-06
 -2.06850099D-06 1.50004413D-06-9.91541494D-06-3.47760421D-06
  3.76495982D-06 3.68230964D-06 7.42782998D-06 2.03284604D-06
 -2.91055691D-07-2.20181120D-06-1.56987794D-07-2.96615153D-07
 -1.44542174D-07 6.39513960D-07-1.39954405D-06 3.07892944D-07
  6.02074670D-07-1.67540198D-07 2.81518245D-07-3.24063096D-08
 -7.41323112D-08-1.54467162D-07-1.48390360D-08 1.56471422D-07
 Leave Link  716 at Mon Mar  2 01:04:08 2020, MaxMem=  1879048192 cpu:              12.7 elap:               0.4
 (Enter /opt/g16/l103.exe)

 GradGradGradGradGradGradGradGradGradGradGradGradGradGradGradGradGradGrad
 Berny optimization.
 Search for a local minimum.
 Step number   1 out of a maximum of    2
 All quantities printed in internal units (Hartrees-Bohrs-Radians)
 Second derivative matrix not updated -- analytic derivatives used.
 ITU=  0
     Eigenvalues ---    0.00628   0.01834   0.02074   0.02078   0.03591
     Eigenvalues ---    0.05037   0.05241   0.05470   0.05582   0.07570
     Eigenvalues ---    0.08406   0.10669   0.11954   0.17304   0.18090
     Eigenvalues ---    0.20150   0.22972   0.23292   0.27189   0.42683
     Eigenvalues ---    0.49519   0.67129   0.71301   0.77287   0.79431
     Eigenvalues ---    0.96029   1.03307   1.05341   1.18843   1.23162
 Angle between quadratic step and forces=  56.64 degrees.
 Linear search not attempted -- first point.
 B after Tr=    -0.000002    0.000005    0.000000
         Rot=    1.000000   -0.000000   -0.000000   -0.000000 Ang=  -0.00 deg.
 Variable       Old X    -DE/DX   Delta X   Delta X   Delta X     New X
                                 (Linear)    (Quad)   (Total)
    X1        4.52411  -0.00000   0.00000  -0.00005  -0.00005   4.52406
    Y1       -1.90584  -0.00000   0.00000  -0.00003  -0.00003  -1.90586
    Z1        0.07537  -0.00000   0.00000  -0.00000  -0.00000   0.07536
    X2        0.11186   0.00001   0.00000   0.00004   0.00003   0.11189
    Y2       -2.81047   0.00000   0.00000  -0.00001  -0.00001  -2.81048
    Z2       -0.12087   0.00000   0.00000   0.00000   0.00000  -0.12087
    X3        2.17225  -0.00002   0.00000  -0.00005  -0.00005   2.17220
    Y3       -1.05151  -0.00001   0.00000   0.00000   0.00001  -1.05150
    Z3        0.03013  -0.00000   0.00000  -0.00000  -0.00000   0.03013
    X4       -2.34627   0.00002   0.00000   0.00007   0.00006  -2.34621
    Y4       -1.99096  -0.00000   0.00000  -0.00000   0.00000  -1.99096
    Z4       -0.17142   0.00000   0.00000   0.00000   0.00000  -0.17141
    X5       -2.93067   0.00001   0.00000   0.00004   0.00004  -2.93064
    Y5        0.59117   0.00000   0.00000   0.00000   0.00001   0.59118
    Z5       -0.07740   0.00000   0.00000   0.00000   0.00000  -0.07740
    X6       -0.99673  -0.00001   0.00000  -0.00002  -0.00003  -0.99675
    Y6        2.39084   0.00000   0.00000   0.00005   0.00006   2.39090
    Z6        0.07094  -0.00000   0.00000   0.00000   0.00000   0.07094
    X7        1.41424  -0.00000   0.00000  -0.00003  -0.00003   1.41421
    Y7        1.50448   0.00001   0.00000   0.00003   0.00004   1.50452
    Z7        0.11685   0.00000   0.00000   0.00000   0.00000   0.11685
    X8        0.59030  -0.00000   0.00000   0.00001   0.00001   0.59030
    Y8       -4.79911   0.00000   0.00000  -0.00001  -0.00001  -4.79912
    Z8       -0.19228  -0.00000   0.00000  -0.00000  -0.00000  -0.19228
    X9       -3.86613  -0.00000   0.00000   0.00003   0.00003  -3.86610
    Y9       -3.35518  -0.00000   0.00000   0.00003   0.00004  -3.35514
    Z9       -0.28577  -0.00000   0.00000   0.00000   0.00000  -0.28577
   X10       -4.88276  -0.00000   0.00000   0.00001   0.00001  -4.88275
   Y10        1.20289  -0.00000   0.00000  -0.00008  -0.00007   1.20282
   Z10       -0.11927  -0.00000   0.00000  -0.00000  -0.00000  -0.11928
   X11       -1.42665  -0.00000   0.00000  -0.00005  -0.00005  -1.42670
   Y11        4.39040  -0.00000   0.00000   0.00004   0.00005   4.39044
   Z11        0.14455  -0.00000   0.00000  -0.00000   0.00000   0.14455
   X12        5.73903   0.00000   0.00000   0.00003   0.00003   5.73906
   Y12       -0.41388  -0.00000   0.00000  -0.00009  -0.00009  -0.41397
   Z12        0.18461   0.00000   0.00000  -0.00000  -0.00000   0.18460
         Item               Value     Threshold  Converged?
 Maximum Force            0.000022     0.000450     YES
 RMS     Force            0.000006     0.000300     YES
 Maximum Displacement     0.000087     0.001800     YES
 RMS     Displacement     0.000033     0.001200     YES
 Predicted change in Energy=-1.963972D-09
 Optimization completed.
    -- Stationary point found.
 GradGradGradGradGradGradGradGradGradGradGradGradGradGradGradGradGradGrad

 Leave Link  103 at Mon Mar  2 01:04:08 2020, MaxMem=  1879048192 cpu:              15.1 elap:               0.5
 (Enter /opt/g16/l9999.exe)

 ----------------------------------------------------------------------

 Electric dipole moment (input orientation):
 (Debye = 10**-18 statcoulomb cm , SI units = C m)
                  (au)            (Debye)         (10**-30 SI)
   Tot        0.102696D+01      0.261027D+01      0.870692D+01
   x         -0.878063D+00     -0.223181D+01     -0.744453D+01
   y          0.532538D+00      0.135358D+01      0.451504D+01
   z         -0.740346D-02     -0.188177D-01     -0.627692D-01

 Dipole polarizability, Alpha (input orientation).
 (esu units = cm**3 , SI units = C**2 m**2 J**-1)
 Alpha(0;0):
               (au)            (10**-24 esu)      (10**-40 SI)
   iso        0.744209D+02      0.110280D+02      0.122703D+02
   aniso      0.556669D+02      0.824898D+01      0.917823D+01
   xx         0.102559D+03      0.151977D+02      0.169097D+02
   yx        -0.872902D+01     -0.129351D+01     -0.143922D+01
   yy         0.792693D+02      0.117465D+02      0.130697D+02
   zx         0.177863D+01      0.263566D+00      0.293257D+00
   zy         0.137725D+01      0.204088D+00      0.227079D+00
   zz         0.414345D+02      0.613996D+01      0.683163D+01

 ----------------------------------------------------------------------

 Dipole orientation:
     7          0.40607084          0.59172244         -4.85700210
     6         -1.32899470         -1.93660713         -1.55216126
     6          0.12887152          0.18778794         -2.40278699
     6         -1.65429892         -2.41064179          0.97489919
     6         -0.57482522         -0.83763388          2.81287536
     6          0.86560431          1.26135264          2.09149311
     6          1.14465165          1.66798140         -0.42987471
     1         -2.15202086         -3.13591954         -2.99194232
     1         -2.76202276         -4.02481226          1.56779405
     1         -0.85209467         -1.24167303          4.79944517
     1          1.70817780          2.48914798          3.49543493
     1          1.48607505          2.16550314         -5.12289170

 Electric dipole moment (dipole orientation):
 (Debye = 10**-18 statcoulomb cm , SI units = C m)
                  (au)            (Debye)         (10**-30 SI)
   Tot        0.102696D+01      0.261027D+01      0.870692D+01
   x          0.000000D+00      0.000000D+00      0.000000D+00
   y          0.000000D+00      0.000000D+00      0.000000D+00
   z          0.102696D+01      0.261027D+01      0.870692D+01

 Dipole polarizability, Alpha (dipole orientation).
 (esu units = cm**3 , SI units = C**2 m**2 J**-1)
 Alpha(0;0):
               (au)            (10**-24 esu)      (10**-40 SI)
   iso        0.744209D+02      0.110280D+02      0.122703D+02
   aniso      0.556669D+02      0.824898D+01      0.917823D+01
   xx         0.530273D+02      0.785783D+01      0.874302D+01
   yx         0.170738D+02      0.253007D+01      0.281508D+01
   yy         0.661902D+02      0.980838D+01      0.109133D+02
   zx        -0.357445D+01     -0.529679D+00     -0.589348D+00
   zy        -0.520868D+01     -0.771847D+00     -0.858795D+00
   zz         0.104045D+03      0.154179D+02      0.171547D+02

 ----------------------------------------------------------------------

 Test job not archived.
 1\1\GINC-NODE06\Freq\UwB97XD\def2TZVP\C6H5N1(3)\ALONGD\02-Mar-2020\0\\
 #P guess=read uwb97xd/def2tzvp freq iop(7/33=1) scf=(tight, direct) in
 tegral=(grid=ultrafine, Acc2E=12) scf=xqc iop(2/9=2000)\\name\\0,3\N,2
 .394058,-1.008525,0.039883\C,0.059193,-1.487238,-0.063964\C,1.149507,-
 0.556433,0.015944\C,-1.241595,-1.053573,-0.09071\C,-1.550846,0.312833,
 -0.040958\C,-0.527446,1.265179,0.03754\C,0.748383,0.796136,0.061832\H,
 0.312372,-2.539581,-0.10175\H,-2.045868,-1.775485,-0.151222\H,-2.58384
 4,0.636542,-0.063116\H,-0.754951,2.323297,0.076491\H,3.036964,-0.21901
 5,0.097689\\Version=ES64L-G16RevB.01\State=3-A\HF=-286.2651142\S2=2.08
 1996\S2-1=0.\S2A=2.003248\RMSD=3.761e-09\RMSF=5.904e-06\ZeroPoint=0.09
 15812\Thermal=0.0968876\Dipole=-0.8780629,0.5325377,-0.0074035\DipoleD
 eriv=-0.2662158,-0.0040499,0.0060822,0.0979366,-0.0958741,0.0188939,0.
 0106122,0.0152866,-0.4422127,0.2047779,-0.1277329,0.0059298,-0.0466286
 ,0.0416357,0.0056755,0.0095313,0.0028064,-0.1228134,-0.1015569,0.07936
 09,-0.005419,0.1394053,-0.0314792,-0.0031883,-0.0027518,-0.0053123,0.1
 509805,-0.1239965,0.2241485,0.0101779,0.2460576,-0.1192021,0.0091947,0
 .0111526,0.0084202,-0.1295038,0.1431085,0.0042645,0.0095738,-0.0114118
 ,0.1712263,0.0126301,0.0088756,0.0131852,-0.1213187,-0.2881304,-0.0790
 661,-0.0090171,-0.0962328,0.0454736,0.0045002,-0.0097788,0.0051066,-0.
 1325971,0.1082322,-0.0701977,0.0011446,-0.1588368,-0.0498682,-0.007287
 6,-0.0027928,-0.0041521,-0.0125605,0.0607107,0.0153552,-0.0017086,0.00
 65161,-0.0162935,-0.0061918,-0.0021011,-0.0058788,0.1279636,-0.0078601
 ,-0.0676558,-0.0083112,-0.0764104,0.0077943,-0.0086707,-0.0087006,-0.0
 083613,0.1414811,-0.0590623,0.0431065,-0.0051825,0.0278319,0.0537885,-
 0.0029156,-0.00586,-0.0023755,0.14128,0.0832017,0.0313067,-0.0010934,0
 .0355463,-0.0291739,-0.0068533,-0.0009054,-0.007003,0.1530859,0.246791
 ,-0.0488398,-0.0021764,-0.1637733,0.0219724,-0.0157871,-0.0072814,-0.0
 117219,0.246215\Polar=102.5588528,-8.7290205,79.2692837,1.7786323,1.37
 72543,41.4344937\Quadrupole=1.217155,1.2387674,-2.4559223,2.7135996,0.
 2511655,0.2609948\PG=C01 [X(C6H5N1)]\NImag=0\\0.58413210,0.08115357,0.
 41098795,0.02270963,0.01917165,0.04562851,-0.09433880,-0.00959052,-0.0
 0374907,0.66092818,-0.01548916,0.02499440,0.00057947,-0.07972610,0.698
 89976,-0.00401107,0.00078810,-0.00049306,0.01514752,0.02233539,0.13407
 613,-0.28870548,0.04176273,-0.00682670,-0.11123697,-0.06949567,-0.0045
 5506,0.56667829,0.08818221,-0.12415841,-0.00047471,-0.07025714,-0.1998
 2544,-0.00826365,-0.01100025,0.58297621,-0.00476495,-0.00211653,-0.043
 51197,-0.00458894,-0.00823671,-0.07025309,0.01423652,0.01882619,0.1516
 9898,0.01754337,-0.01070502,-0.00001977,-0.34016639,0.09902235,-0.0055
 1166,-0.06664819,-0.01653562,-0.00326753,0.72091365,-0.02483843,0.0037
 8229,-0.00091750,0.02537424,-0.15363280,-0.00326209,0.02356404,0.03257
 511,0.00205959,0.05616387,0.66029263,-0.00064751,-0.00041760,0.0046178
 9,-0.00878280,-0.00065718,-0.06032380,-0.00148654,0.00064128,0.0049457
 7,0.02332749,0.02545539,0.13386520,-0.01439852,0.00376127,-0.00033777,
 -0.00145562,0.03557297,0.00133306,0.02086532,-0.01800121,0.00010235,-0
 .13585667,0.06931032,0.00041219,0.71089147,0.00747716,-0.00422031,0.00
 008258,0.09466740,-0.01572282,0.00240456,-0.02517127,-0.03403324,-0.00
 219612,-0.01591090,-0.28197910,-0.01040116,-0.03671135,0.60693504,-0.0
 0017277,-0.00004884,-0.00013355,0.00395785,0.00031438,0.00567971,-0.00
 021608,-0.00194254,-0.00472752,-0.00337303,-0.00738695,-0.06091977,0.0
 1910150,0.02011923,0.12630312,0.02263328,-0.00570748,0.00049610,-0.050
 22145,0.00267661,-0.00157957,-0.02673381,0.05557424,0.00134524,0.05520
 515,-0.06283389,-0.00104650,-0.19629835,-0.03003884,-0.00620426,0.5913
 2016,0.00384276,-0.00861335,-0.00031059,-0.01464857,0.00395009,-0.0002
 4491,0.03959696,0.00395985,0.00135335,-0.01217407,-0.04511577,-0.00269
 598,-0.13137203,-0.20680879,-0.01122915,-0.07003539,0.71556501,0.00092
 031,-0.00064839,0.00144339,-0.00234911,0.00036788,-0.00226759,0.000635
 53,0.00191850,0.00512959,0.00120366,-0.00448775,0.00573009,-0.01070518
 ,-0.00764504,-0.05932797,0.01345607,0.02384570,0.12446532,-0.04645297,
 0.05007734,-0.00006983,0.03270559,-0.01816622,-0.00003576,-0.06418060,
 0.03057132,0.00129428,-0.02917795,0.03117481,0.00047293,-0.07925192,-0
 .05957363,-0.00588960,-0.31436309,0.11266771,-0.00434196,0.50986949,0.
 07075411,-0.02967443,0.00036695,-0.01814186,-0.03583819,-0.00271775,-0
 .03219773,-0.24852331,-0.00940639,0.01603102,-0.02343125,-0.00032271,0
 .01218080,0.04993205,0.00209561,0.07588000,-0.14040428,-0.00132652,-0.
 14752835,0.43554539,0.00084853,-0.00036438,0.01842082,-0.00003469,-0.0
 0271867,0.01078184,-0.00149361,-0.00718627,-0.06275584,-0.00019971,0.0
 0021292,-0.00339781,-0.00270253,-0.00044235,0.01233657,-0.00597595,-0.
 00002531,-0.05032791,0.00889578,0.01088059,0.07389482,0.00232713,0.001
 17669,0.00022298,-0.07159837,0.06311020,0.00158404,0.00632672,-0.02419
 258,-0.00102821,-0.00065311,0.02905406,0.00108594,-0.00489780,0.000844
 37,-0.00040434,-0.00057528,0.00069000,0.00000723,-0.00283625,-0.003949
 63,-0.00039526,0.07084421,0.00197252,0.00165480,0.00025429,0.06350826,
 -0.32918753,-0.01072570,0.00563443,-0.01663303,-0.00076231,-0.00139645
 ,-0.00277210,-0.00040034,0.00146102,0.00126111,-0.00022962,-0.00044442
 ,0.00111276,0.00002985,-0.00265586,-0.00344140,-0.00039687,-0.06862449
 ,0.34693703,0.00025833,0.00022614,-0.00248039,0.00160170,-0.01073972,-
 0.03755241,0.00029659,-0.00181731,0.00494652,-0.00026655,0.00067665,0.
 00515011,-0.00037695,-0.00025144,0.00756987,-0.00004316,0.00006997,0.0
 0008850,-0.00033779,-0.00044263,0.00334724,-0.00140516,0.01189879,0.02
 487457,-0.00113164,-0.00111390,-0.00009403,-0.01764850,-0.02262366,-0.
 00177185,-0.00314190,0.00369927,-0.00025439,-0.21619657,-0.14040448,-0
 .01253794,0.00873879,0.00652622,0.00049685,0.00122078,0.00200195,-0.00
 006946,-0.00028782,0.00087431,0.00005971,0.00083134,0.00040361,0.00021
 763,0.22712360,0.00018973,0.00049826,0.00002316,0.00890480,0.01083730,
 0.00061706,0.00270603,-0.00007810,-0.00029401,-0.14032350,-0.18651129,
 -0.01155816,-0.02461217,-0.01471124,-0.00165218,0.00174710,-0.00496369
 ,-0.00041178,0.00149456,-0.00015687,0.00008489,-0.00029587,0.00066608,
 0.00023298,0.15068353,0.19443053,-0.00003613,-0.00002295,0.00012567,-0
 .00037143,-0.00049808,0.00400056,-0.00029851,-0.00025888,0.00867408,-0
 .01253438,-0.01156106,-0.03898910,-0.00088619,-0.00055079,0.00283115,-
 0.00008078,-0.00040277,0.00567777,0.00008725,0.00006295,-0.00087203,0.
 00018656,0.00025772,-0.00479676,0.01379509,0.01279635,0.02738090,0.000
 08755,0.00009582,0.00002104,0.00135636,0.00129199,-0.00011023,0.001050
 37,-0.00040875,0.00005868,-0.00194272,-0.00111264,-0.00025798,-0.31774
 479,0.08165356,-0.00635998,-0.01607214,0.00868877,-0.00031323,-0.00328
 985,-0.00324842,-0.00051133,-0.00010809,-0.00011595,0.00000538,0.00064
 734,0.00038883,0.00015200,0.33514682,0.00008184,0.00024744,0.00003107,
 0.00043181,-0.00547722,-0.00049874,0.00035986,-0.00104076,0.00001634,0
 .02953557,-0.00278815,0.00074518,0.08076753,-0.08524063,0.00064233,-0.
 02137057,0.00853278,-0.00054100,-0.00466764,-0.00135326,-0.00054001,0.
 00147802,-0.00016042,0.00006318,-0.00040309,0.00081641,0.00016245,-0.0
 8703493,0.08551627,0.00002042,0.00003156,-0.00038471,-0.00014843,-0.00
 046831,0.00606931,0.00009282,-0.00001085,-0.00111918,0.00110327,-0.000
 33880,0.00397800,-0.00639926,0.00067364,-0.03558292,-0.00164841,0.0005
 2217,0.00366031,-0.00057437,-0.00048982,0.00704553,0.00007618,0.000006
 80,-0.00040290,0.00011683,0.00019046,-0.00314942,0.00716071,-0.0003189
 6,0.02363022,-0.00005649,0.00149529,0.00010032,-0.00113226,-0.00026450
 ,-0.00002989,-0.00524952,0.00088021,-0.00038080,-0.00278494,-0.0031835
 8,-0.00045676,0.00955353,-0.02379750,-0.00093153,-0.06712365,0.0613389
 0,0.00159596,-0.00342915,0.02804661,0.00114772,0.00006112,0.00002106,0
 .00002042,0.00027285,-0.00108809,-0.00003641,0.00080935,0.00073868,0.0
 0019197,0.06887887,0.00019467,-0.00032394,0.00003758,-0.00024178,0.000
 57761,0.00004461,-0.00019113,0.00130253,-0.00024304,-0.00371795,-0.000
 69913,-0.00043488,0.00751609,-0.01561656,-0.00069456,0.05494712,-0.326
 47107,-0.01099296,0.00542147,-0.00621640,-0.00005511,0.00002745,-0.000
 07744,0.00001928,0.00033140,-0.00082586,-0.00002212,-0.00008239,0.0009
 7265,0.00020421,-0.06415787,0.34728081,0.00004255,0.00008358,-0.001009
 81,-0.00002888,0.00004381,-0.00061841,-0.00042839,-0.00020515,0.006597
 92,-0.00048050,-0.00041598,0.00609557,0.00045931,-0.00180214,0.0059423
 7,0.00131206,-0.01076685,-0.03564984,0.00014280,0.00074511,-0.00062011
 ,0.00002070,0.00001906,-0.00048812,0.00002663,-0.00007232,-0.00006628,
 0.00015550,0.00023325,-0.00367470,-0.00121257,0.01215220,0.02309059,-0
 .18163953,-0.15240581,-0.01245289,-0.00719176,0.00409119,-0.00045953,-
 0.02902424,-0.03851171,-0.00275224,-0.00023563,-0.00226831,-0.00008251
 ,-0.00014544,0.00003479,-0.00000461,0.00100838,-0.00059700,-0.00003982
 ,0.00069452,0.00129913,0.00036134,0.00027838,0.00023627,0.00002954,-0.
 00042826,0.00020506,0.00002293,0.00005980,0.00008291,0.00000826,0.0002
 0029,-0.00004708,-0.00000922,0.21642350,-0.21352097,-0.27517468,-0.018
 84395,-0.00028055,0.00042484,-0.00047688,0.02443199,0.00347859,0.00099
 966,0.00001069,0.00027955,0.00004616,0.00012676,0.00020449,0.00001230,
 -0.00039448,-0.00074353,-0.00010848,0.00118450,0.00356195,0.00055056,0
 .00068177,0.00064014,0.00006410,0.00002484,-0.00000153,0.00003719,-0.0
 0011589,-0.00002510,-0.00000212,-0.00002921,0.00009680,-0.00001458,0.1
 8788055,0.26725848,-0.01516736,-0.01668235,-0.02222279,-0.00065370,-0.
 00032226,0.01090079,0.00004344,-0.00122661,0.00037474,0.00001870,-0.00
 003443,-0.00075216,-0.00000052,0.00000904,0.00002895,-0.00003083,-0.00
 011564,0.00137834,0.00035626,0.00055461,-0.00785315,0.00004933,0.00004
 834,-0.00025624,0.00001492,0.00004356,-0.00081655,-0.00000057,0.000004
 91,-0.00006952,-0.00000842,-0.00001521,0.00040081,0.01537875,0.0177360
 4,0.01888679\\0.00000142,0.00000207,0.00000014,-0.00001036,-0.00000150
 ,-0.00000064,0.00002182,0.00000992,0.00000140,-0.00001847,0.00000348,-
 0.00000031,-0.00000618,-0.00000376,-0.00000060,0.00000544,-0.00000368,
 0.00000017,0.00000451,-0.00000743,-0.00000028,0.00000270,-0.00000203,0
 .00000003,0.00000226,0.00000029,0.00000007,0.00000037,0.00000220,0.000
 00015,0.00000045,0.00000016,0.00000001,-0.00000395,0.00000030,-0.00000
 016\\\@


 The juvenile sea squirt wanders through the sea searching
 for a suitable rock or hunk of coral to cling to and make
 its home for life.  For this task it has a rudimentary
 nervous system.  When it finds its spot and takes root, it
 doesn't need its brain any more so it eats it.
 It's rather like getting tenure.

                               -- source unknown
 Job cpu time:       0 days  4 hours 50 minutes 59.1 seconds.
 Elapsed time:       0 days  0 hours  9 minutes 22.1 seconds.
 File lengths (MBytes):  RWF=    129 Int=      0 D2E=      0 Chk=      8 Scr=      1
 Normal termination of Gaussian 16 at Mon Mar  2 01:04:09 2020.
