 Entering Gaussian System, Link 0=g16
 Initial command:
 /opt/g16/l1.exe "/scratch/alongd/g16/a4388-34562/Gau-18742.inp" -scrdir="/scratch/alongd/g16/a4388-34562/"
 Entering Link 1 = /opt/g16/l1.exe PID=     18744.
  
 Copyright (c) 1988-2017, Gaussian, Inc.  All Rights Reserved.
  
 This is part of the Gaussian(R) 16 program.  It is based on
 the Gaussian(R) 09 system (copyright 2009, Gaussian, Inc.),
 the Gaussian(R) 03 system (copyright 2003, Gaussian, Inc.),
 the Gaussian(R) 98 system (copyright 1998, Gaussian, Inc.),
 the Gaussian(R) 94 system (copyright 1995, Gaussian, Inc.),
 the Gaussian 92(TM) system (copyright 1992, Gaussian, Inc.),
 the Gaussian 90(TM) system (copyright 1990, Gaussian, Inc.),
 the Gaussian 88(TM) system (copyright 1988, Gaussian, Inc.),
 the Gaussian 86(TM) system (copyright 1986, Carnegie Mellon
 University), and the Gaussian 82(TM) system (copyright 1983,
 Carnegie Mellon University). Gaussian is a federally registered
 trademark of Gaussian, Inc.
  
 This software contains proprietary and confidential information,
 including trade secrets, belonging to Gaussian, Inc.
  
 This software is provided under written license and may be
 used, copied, transmitted, or stored only in accord with that
 written license.
  
 The following legend is applicable only to US Government
 contracts under FAR:
  
                    RESTRICTED RIGHTS LEGEND
  
 Use, reproduction and disclosure by the US Government is
 subject to restrictions as set forth in subparagraphs (a)
 and (c) of the Commercial Computer Software - Restricted
 Rights clause in FAR 52.227-19.
  
 Gaussian, Inc.
 340 Quinnipiac St., Bldg. 40, Wallingford CT 06492
  
  
 ---------------------------------------------------------------
 Warning -- This program may not be used in any manner that
 competes with the business of Gaussian, Inc. or will provide
 assistance to any competitor of Gaussian, Inc.  The licensee
 of this program is prohibited from giving any competitor of
 Gaussian, Inc. access to this program.  By using this program,
 the user acknowledges that Gaussian, Inc. is engaged in the
 business of creating and licensing software in the field of
 computational chemistry and represents and warrants to the
 licensee that it is not a competitor of Gaussian, Inc. and that
 it will not use this program in any manner prohibited above.
 ---------------------------------------------------------------
  

 Cite this work as:
 Gaussian 16, Revision B.01,
 M. J. Frisch, G. W. Trucks, H. B. Schlegel, G. E. Scuseria, 
 M. A. Robb, J. R. Cheeseman, G. Scalmani, V. Barone, 
 G. A. Petersson, H. Nakatsuji, X. Li, M. Caricato, A. V. Marenich, 
 J. Bloino, B. G. Janesko, R. Gomperts, B. Mennucci, H. P. Hratchian, 
 J. V. Ortiz, A. F. Izmaylov, J. L. Sonnenberg, D. Williams-Young, 
 F. Ding, F. Lipparini, F. Egidi, J. Goings, B. Peng, A. Petrone, 
 T. Henderson, D. Ranasinghe, V. G. Zakrzewski, J. Gao, N. Rega, 
 G. Zheng, W. Liang, M. Hada, M. Ehara, K. Toyota, R. Fukuda, 
 J. Hasegawa, M. Ishida, T. Nakajima, Y. Honda, O. Kitao, H. Nakai, 
 T. Vreven, K. Throssell, J. A. Montgomery, Jr., J. E. Peralta, 
 F. Ogliaro, M. J. Bearpark, J. J. Heyd, E. N. Brothers, K. N. Kudin, 
 V. N. Staroverov, T. A. Keith, R. Kobayashi, J. Normand, 
 K. Raghavachari, A. P. Rendell, J. C. Burant, S. S. Iyengar, 
 J. Tomasi, M. Cossi, J. M. Millam, M. Klene, C. Adamo, R. Cammi, 
 J. W. Ochterski, R. L. Martin, K. Morokuma, O. Farkas, 
 J. B. Foresman, and D. J. Fox, Gaussian, Inc., Wallingford CT, 2016.
 
 ******************************************
 Gaussian 16:  ES64L-G16RevB.01 20-Dec-2017
                 2-Mar-2020 
 ******************************************
 %chk=check.chk
 %mem=14336mb
 %NProcShared=36
 Will use up to   36 processors via shared memory.
 ----------------------------------------------------------------------
 #P guess=read uwb97xd/def2tzvp freq iop(7/33=1) scf=(tight, direct) in
 tegral=(grid=ultrafine, Acc2E=12) scf=xqc iop(2/9=2000)
 ----------------------------------------------------------------------
 1/10=4,30=1,38=1/1,3;
 2/9=2000,12=2,17=6,18=5,40=1/2;
 3/5=44,7=101,11=2,25=1,27=12,30=1,71=2,74=-58,75=-5,116=2,140=1/1,2,3;
 4/5=1/1;
 5/5=2,8=3,13=1,32=2,38=6,87=12,98=1/2,8;
 8/6=4,10=90,11=11,87=12/1;
 11/6=1,8=1,9=11,15=111,16=1,87=12/1,2,10;
 10/6=1,87=12/2;
 6/7=2,8=2,9=2,10=2,28=1,87=12/1;
 7/8=1,10=1,25=1,33=1,87=12/1,2,3,16;
 1/10=4,30=1/3;
 99//99;
 Leave Link    1 at Mon Mar  2 00:45:19 2020, MaxMem=  1879048192 cpu:               4.5 elap:               0.1
 (Enter /opt/g16/l101.exe)
 ----
 name
 ----
 Symbolic Z-matrix:
 Charge =  0 Multiplicity = 3
 N                     2.40186  -0.98144   0.04137 
 C                     0.07244  -1.48564  -0.06342 
 C                     1.15246  -0.54295   0.01665 
 C                    -1.23296  -1.06618  -0.09097 
 C                    -1.55714   0.29679  -0.0419 
 C                    -0.54426   1.2603    0.03672 
 C                     0.73658   0.80519   0.06182 
 H                     0.33707  -2.53517  -0.10067 
 H                    -2.02932  -1.79682  -0.15159 
 H                    -2.59362   0.60915  -0.06469 
 H                    -0.78334   2.31589   0.07515 
 H                     3.03614  -0.18499   0.09918 
 
 ITRead=  0  0  0  0  0  0  0  0  0  0  0  0
 MicOpt= -1 -1 -1 -1 -1 -1 -1 -1 -1 -1 -1 -1
 NAtoms=     12 NQM=       12 NQMF=       0 NMMI=      0 NMMIF=      0
                NMic=       0 NMicF=      0.
                    Isotopes and Nuclear Properties:
 (Nuclear quadrupole moments (NQMom) in fm**2, nuclear magnetic moments (NMagM)
  in nuclear magnetons)

  Atom         1           2           3           4           5           6           7           8           9          10
 IAtWgt=          14          12          12          12          12          12          12           1           1           1
 AtmWgt=  14.0030740  12.0000000  12.0000000  12.0000000  12.0000000  12.0000000  12.0000000   1.0078250   1.0078250   1.0078250
 NucSpn=           2           0           0           0           0           0           0           1           1           1
 AtZEff=  -0.0000000  -0.0000000  -0.0000000  -0.0000000  -0.0000000  -0.0000000  -0.0000000  -0.0000000  -0.0000000  -0.0000000
 NQMom=    2.0440000   0.0000000   0.0000000   0.0000000   0.0000000   0.0000000   0.0000000   0.0000000   0.0000000   0.0000000
 NMagM=    0.4037610   0.0000000   0.0000000   0.0000000   0.0000000   0.0000000   0.0000000   2.7928460   2.7928460   2.7928460
 AtZNuc=   7.0000000   6.0000000   6.0000000   6.0000000   6.0000000   6.0000000   6.0000000   1.0000000   1.0000000   1.0000000

  Atom        11          12
 IAtWgt=           1           1
 AtmWgt=   1.0078250   1.0078250
 NucSpn=           1           1
 AtZEff=  -0.0000000  -0.0000000
 NQMom=    0.0000000   0.0000000
 NMagM=    2.7928460   2.7928460
 AtZNuc=   1.0000000   1.0000000
 Leave Link  101 at Mon Mar  2 00:45:19 2020, MaxMem=  1879048192 cpu:              14.5 elap:               0.5
 (Enter /opt/g16/l103.exe)

 GradGradGradGradGradGradGradGradGradGradGradGradGradGradGradGradGradGrad
 Berny optimization.
 Initialization pass.
 Trust Radius=3.00D-01 FncErr=1.00D-07 GrdErr=1.00D-07 EigMax=2.50D+02 EigMin=1.00D-04
 Number of steps in this run=      2 maximum allowed number of steps=      2.
 GradGradGradGradGradGradGradGradGradGradGradGradGradGradGradGradGradGrad

 Leave Link  103 at Mon Mar  2 00:45:19 2020, MaxMem=  1879048192 cpu:               3.2 elap:               0.1
 (Enter /opt/g16/l202.exe)
                          Input orientation:                          
 ---------------------------------------------------------------------
 Center     Atomic      Atomic             Coordinates (Angstroms)
 Number     Number       Type             X           Y           Z
 ---------------------------------------------------------------------
      1          7           0        2.401855   -0.981442    0.041373
      2          6           0        0.072444   -1.485638   -0.063419
      3          6           0        1.152462   -0.542945    0.016653
      4          6           0       -1.232960   -1.066182   -0.090966
      5          6           0       -1.557144    0.296792   -0.041900
      6          6           0       -0.544261    1.260304    0.036721
      7          6           0        0.736583    0.805187    0.061816
      8          1           0        0.337073   -2.535174   -0.100671
      9          1           0       -2.029317   -1.796815   -0.151586
     10          1           0       -2.593617    0.609150   -0.064691
     11          1           0       -0.783335    2.315886    0.075146
     12          1           0        3.036145   -0.184990    0.099183
 ---------------------------------------------------------------------
                    Distance matrix (angstroms):
                    1          2          3          4          5
     1  N    0.000000
     2  C    2.385655   0.000000
     3  C    1.324339   1.435800   0.000000
     4  C    3.638210   1.371416   2.444503   0.000000
     5  C    4.161068   2.415176   2.837349   1.401856   0.000000
     6  C    3.702033   2.816123   2.476081   2.429639   1.400167
     7  C    2.442456   2.388440   1.411543   2.721114   2.351682
     8  H    2.587969   1.083024   2.155829   2.150124   3.407571
     9  H    4.509695   2.126500   3.424064   1.082443   2.148992
    10  H    5.243660   3.390578   3.920083   2.158429   1.082757
    11  H    4.584643   3.899121   3.453063   3.415866   2.165461
    12  H    1.019805   3.240625   1.919168   4.363246   4.620641
                    6          7          8          9         10
     6  C    0.000000
     7  C    1.359530   0.000000
     8  H    3.898882   3.368089   0.000000
     9  H    3.403943   3.803440   2.479429   0.000000
    10  H    2.152707   3.338363   4.298489   2.472782   0.000000
    11  H    1.082999   2.143021   4.981868   4.303276   2.491912
    12  H    3.861617   2.503963   3.584452   5.321632   5.687858
                   11         12
    11  H    0.000000
    12  H    4.565456   0.000000
 Stoichiometry    C6H5N(3)
 Framework group  CS[SG(C6H5N)]
 Deg. of freedom    21
 Full point group                 CS      NOp   2
 Largest Abelian subgroup         CS      NOp   2
 Largest concise Abelian subgroup C1      NOp   1
                         Standard orientation:                         
 ---------------------------------------------------------------------
 Center     Atomic      Atomic             Coordinates (Angstroms)
 Number     Number       Type             X           Y           Z
 ---------------------------------------------------------------------
      1          7           0       -0.013568   -2.375729   -0.000000
      2          6           0        1.180618   -0.310475   -0.000000
      3          6           0       -0.048961   -1.051863   -0.000000
      4          6           0        1.180534    1.060941   -0.000000
      5          6           0       -0.019654    1.785335    0.000000
      6          6           0       -1.248520    1.114248    0.000000
      7          6           0       -1.206914   -0.244645    0.000000
      8          1           0        2.100211   -0.882569   -0.000000
      9          1           0        2.121049    1.596772   -0.000000
     10          1           0        0.000000    2.867914    0.000000
     11          1           0       -2.181704    1.663842    0.000000
     12          1           0       -0.967196   -2.737107   -0.000000
 ---------------------------------------------------------------------
 Rotational constants (GHZ):           5.9907394           2.7650245           1.8918442
 Leave Link  202 at Mon Mar  2 00:45:19 2020, MaxMem=  1879048192 cpu:               2.8 elap:               0.1
 (Enter /opt/g16/l301.exe)
 Standard basis: def2TZVP (5D, 7F)
 Ernie: Thresh=  0.10000D-02 Tol=  0.10000D-05 Strict=F.
 There are   200 symmetry adapted cartesian basis functions of A'  symmetry.
 There are    82 symmetry adapted cartesian basis functions of A"  symmetry.
 There are   172 symmetry adapted basis functions of A'  symmetry.
 There are    75 symmetry adapted basis functions of A"  symmetry.
   247 basis functions,   397 primitive gaussians,   282 cartesian basis functions
    25 alpha electrons       23 beta electrons
       nuclear repulsion energy       251.5610331953 Hartrees.
 IExCor= 4639 DFT=T Ex+Corr=wB97XD ExCW=0 ScaHFX=  1.000000
 ScaDFX=  1.000000  1.000000  1.000000  1.000000 ScalE2=  1.000000  1.000000
 IRadAn=      5 IRanWt=     -1 IRanGd=            0 ICorTp=0 IEmpDi=121
 HFx  wShort=  0.000000 wLong=  0.200000 cFull=  0.222036 cShort=  0.000000 cLong=  0.777964
 DFx  wShort=  0.000000 wLong=  0.200000 cFull=  0.000000 cShort=  0.000000 cLong=  1.000000
 NAtoms=   12 NActive=   12 NUniq=   12 SFac= 1.00D+00 NAtFMM=   60 NAOKFM=F Big=F
 Integral buffers will be    131072 words long.
 Raffenetti 2 integral format.
 Two-electron integral symmetry is turned on.
 R6Disp:  Grimme-D2 Dispersion energy=       -0.0040870528 Hartrees.
 Nuclear repulsion after empirical dispersion term =      251.5569461425 Hartrees.
 Leave Link  301 at Mon Mar  2 00:45:19 2020, MaxMem=  1879048192 cpu:               4.2 elap:               0.1
 (Enter /opt/g16/l302.exe)
 NPDir=0 NMtPBC=     1 NCelOv=     1 NCel=       1 NClECP=     1 NCelD=      1
         NCelK=      1 NCelE2=     1 NClLst=     1 CellRange=     0.0.
 One-electron integrals computed using PRISM.
 One-electron integral symmetry used in STVInt
   2 Symmetry operations used in ECPInt.
 ECPInt:  NShTT=    4753 NPrTT=   14704 LenC2=    4696 LenP2D=   11982.
 LDataN:  DoStor=T MaxTD1= 6 Len=  172
 NBasis=   247 RedAO= T EigKep=  1.67D-05  NBF=   172    75
 NBsUse=   247 1.00D-06 EigRej= -1.00D+00 NBFU=   172    75
 Precomputing XC quadrature grid using
 IXCGrd= 4 IRadAn=           5 IRanWt=          -1 IRanGd=           0 AccXCQ= 1.00D-12.
 Generated NRdTot=       0 NPtTot=           0 NUsed=           0 NTot=          32
 NSgBfM=   281   281   281   281   281 MxSgAt=    12 MxSgA2=    12.
 Leave Link  302 at Mon Mar  2 00:45:25 2020, MaxMem=  1879048192 cpu:             184.1 elap:               5.5
 (Enter /opt/g16/l303.exe)
 DipDrv:  MaxL=1.
 Leave Link  303 at Mon Mar  2 00:45:25 2020, MaxMem=  1879048192 cpu:              12.5 elap:               0.4
 (Enter /opt/g16/l401.exe)
 Initial guess from the checkpoint file:  "check.chk"
 B after Tr=     0.000000   -0.000000   -0.000000
         Rot=    0.709682   -0.000000   -0.000000    0.704522 Ang=  89.58 deg.
 Guess basis will be translated and rotated to current coordinates.
 JPrj=2 DoOrth=T DoCkMO=T.
 Initial guess orbital symmetries:
 Alpha Orbitals:
       Occupied  (A') (A') (A') (A') (A') (A') (A') (A') (A') (A')
                 (A') (A') (A') (A') (A') (A') (A') (A") (A') (A')
                 (A") (A') (A") (A') (A")
       Virtual   (A") (A") (A') (A') (A') (A') (A') (A') (A") (A')
                 (A') (A') (A") (A') (A") (A') (A') (A") (A') (A')
                 (A") (A') (A") (A') (A') (A') (A') (A') (A") (A')
                 (A") (A') (A') (A') (A') (A') (A') (A') (A") (A')
                 (A') (A') (A") (A') (A') (A') (A') (A') (A") (A')
                 (A") (A') (A") (A') (A") (A') (A') (A') (A") (A')
                 (A') (A') (A") (A") (A') (A') (A") (A') (A') (A")
                 (A') (A") (A') (A') (A') (A") (A') (A') (A') (A')
                 (A") (A") (A') (A') (A') (A") (A') (A") (A') (A")
                 (A') (A") (A') (A') (A") (A') (A") (A') (A") (A')
                 (A") (A') (A") (A') (A') (A') (A') (A') (A') (A')
                 (A") (A') (A') (A") (A") (A') (A') (A') (A') (A')
                 (A") (A") (A') (A') (A') (A") (A") (A') (A') (A')
                 (A") (A') (A") (A') (A") (A') (A') (A") (A") (A')
                 (A') (A') (A") (A") (A') (A") (A') (A") (A') (A')
                 (A") (A') (A') (A') (A") (A') (A") (A") (A') (A")
                 (A') (A') (A') (A") (A') (A") (A') (A') (A') (A')
                 (A") (A') (A") (A') (A') (A') (A') (A") (A') (A")
                 (A') (A") (A') (A') (A') (A") (A") (A") (A') (A')
                 (A') (A") (A') (A') (A") (A") (A') (A') (A") (A')
                 (A') (A") (A') (A') (A') (A') (A') (A") (A') (A')
                 (A') (A') (A') (A') (A') (A') (A') (A') (A') (A')
                 (A') (A')
 Beta  Orbitals:
       Occupied  (A') (A') (A') (A') (A') (A') (A') (A') (A') (A')
                 (A') (A') (A') (A') (A') (A') (A') (A") (A') (A')
                 (A") (A') (A")
       Virtual   (A") (A') (A") (A") (A') (A') (A') (A') (A') (A')
                 (A") (A') (A') (A') (A") (A') (A") (A') (A') (A")
                 (A') (A') (A") (A') (A") (A') (A') (A') (A') (A")
                 (A') (A') (A') (A") (A') (A') (A') (A') (A') (A')
                 (A") (A') (A') (A') (A") (A') (A') (A') (A') (A')
                 (A') (A") (A") (A') (A") (A') (A") (A') (A') (A')
                 (A') (A") (A') (A") (A') (A") (A') (A') (A') (A")
                 (A') (A") (A') (A") (A') (A') (A') (A") (A') (A')
                 (A') (A') (A") (A") (A') (A') (A') (A") (A') (A")
                 (A') (A") (A') (A") (A') (A') (A") (A') (A") (A')
                 (A") (A') (A") (A') (A") (A') (A') (A') (A') (A')
                 (A') (A') (A") (A') (A') (A") (A") (A') (A') (A')
                 (A') (A') (A") (A") (A') (A') (A') (A") (A") (A')
                 (A') (A') (A") (A') (A") (A') (A") (A') (A') (A")
                 (A') (A") (A') (A') (A") (A") (A') (A") (A') (A")
                 (A') (A') (A") (A') (A') (A') (A") (A') (A") (A')
                 (A") (A") (A') (A') (A') (A") (A') (A") (A') (A')
                 (A') (A') (A") (A') (A") (A') (A') (A') (A') (A")
                 (A') (A") (A') (A") (A') (A') (A') (A") (A") (A")
                 (A') (A') (A") (A') (A') (A') (A") (A") (A') (A')
                 (A") (A') (A') (A") (A') (A') (A') (A') (A') (A")
                 (A') (A') (A') (A') (A') (A') (A') (A') (A') (A')
                 (A') (A') (A') (A')
 The electronic state of the initial guess is 3-A".
 Initial guess <Sx>= 0.0000 <Sy>= 0.0000 <Sz>= 1.0000 <S**2>= 2.0820 S= 1.0271
 Leave Link  401 at Mon Mar  2 00:45:31 2020, MaxMem=  1879048192 cpu:             181.0 elap:               5.9
 (Enter /opt/g16/l502.exe)
 Keep R1 and R2 ints in memory in symmetry-blocked form, NReq=1418894295.
 FoFCou: FMM=F IPFlag=           0 FMFlag=           0 FMFlg1=           0
         NFxFlg=           0 DoJE=F BraDBF=F KetDBF=F FulRan=T
         wScrn=  0.000000 ICntrl=       600 IOpCl=  0 I1Cent=           0 NGrid=           0
         NMat0=    1 NMatS0=  30628 NMatT0=    0 NMatD0=    1 NMtDS0=    0 NMtDT0=    0
 Petite list used in FoFCou.
 UHF open shell SCF:
 Using DIIS extrapolation, IDIIS=  1040.
 NGot=  1879048192 LenX=  1398088733 LenY=  1398008768
 Requested convergence on RMS density matrix=1.00D-08 within  32 cycles.
 Requested convergence on MAX density matrix=1.00D-06.
 Requested convergence on             energy=1.00D-06.
 No special actions if energy rises.

 Cycle   1  Pass 1  IDiag  1:
 E= -286.265114030723    
 DIIS: error= 3.23D-06 at cycle   1 NSaved=   1.
 NSaved= 1 IEnMin= 1 EnMin= -286.265114030723     IErMin= 1 ErrMin= 3.23D-06
 ErrMax= 3.23D-06  0.00D+00 EMaxC= 1.00D-01 BMatC= 4.39D-09 BMatP= 4.39D-09
 IDIUse=1 WtCom= 1.00D+00 WtEn= 0.00D+00
 Coeff-Com:  0.100D+01
 Coeff:      0.100D+01
 Gap=     0.341 Goal=   None    Shift=    0.000
 Gap=     0.297 Goal=   None    Shift=    0.000
 RMSDP=3.96D-07 MaxDP=1.39D-05              OVMax= 8.59D-06

 Cycle   2  Pass 1  IDiag  1:
 E= -286.265114031687     Delta-E=       -0.000000000964 Rises=F Damp=F
 DIIS: error= 4.65D-07 at cycle   2 NSaved=   2.
 NSaved= 2 IEnMin= 2 EnMin= -286.265114031687     IErMin= 2 ErrMin= 4.65D-07
 ErrMax= 4.65D-07  0.00D+00 EMaxC= 1.00D-01 BMatC= 1.05D-10 BMatP= 4.39D-09
 IDIUse=1 WtCom= 1.00D+00 WtEn= 0.00D+00
 Coeff-Com: -0.139D+00 0.114D+01
 Coeff:     -0.139D+00 0.114D+01
 Gap=     0.341 Goal=   None    Shift=    0.000
 Gap=     0.297 Goal=   None    Shift=    0.000
 RMSDP=5.29D-08 MaxDP=1.80D-06 DE=-9.64D-10 OVMax= 2.41D-06

 Cycle   3  Pass 1  IDiag  1:
 E= -286.265114031721     Delta-E=       -0.000000000034 Rises=F Damp=F
 DIIS: error= 1.73D-07 at cycle   3 NSaved=   3.
 NSaved= 3 IEnMin= 3 EnMin= -286.265114031721     IErMin= 3 ErrMin= 1.73D-07
 ErrMax= 1.73D-07  0.00D+00 EMaxC= 1.00D-01 BMatC= 1.09D-11 BMatP= 1.05D-10
 IDIUse=1 WtCom= 1.00D+00 WtEn= 0.00D+00
 Coeff-Com: -0.409D-01 0.264D+00 0.776D+00
 Coeff:     -0.409D-01 0.264D+00 0.776D+00
 Gap=     0.341 Goal=   None    Shift=    0.000
 Gap=     0.297 Goal=   None    Shift=    0.000
 RMSDP=9.79D-09 MaxDP=3.97D-07 DE=-3.42D-11 OVMax= 1.06D-06

 SCF Done:  E(UwB97XD) =  -286.265114032     A.U. after    3 cycles
            NFock=  3  Conv=0.98D-08     -V/T= 2.0046
 <Sx>= 0.0000 <Sy>= 0.0000 <Sz>= 1.0000 <S**2>= 2.0820 S= 1.0271
 <L.S>= 0.000000000000E+00
 KE= 2.849434519023D+02 PE=-1.168147445049D+03 EE= 3.453819329720D+02
 Annihilation of the first spin contaminant:
 S**2 before annihilation     2.0820,   after     2.0032
 Leave Link  502 at Mon Mar  2 00:46:28 2020, MaxMem=  1879048192 cpu:            1692.5 elap:              56.6
 (Enter /opt/g16/l508.exe)
 QCSCF skips out because SCF is already converged.
 Leave Link  508 at Mon Mar  2 00:46:29 2020, MaxMem=  1879048192 cpu:               1.9 elap:               0.1
 (Enter /opt/g16/l801.exe)
 DoSCS=F DFT=T ScalE2(SS,OS)=  1.000000  1.000000
 Range of M.O.s used for correlation:     1   247
 NBasis=   247 NAE=    25 NBE=    23 NFC=     0 NFV=     0
 NROrb=    247 NOA=    25 NOB=    23 NVA=   222 NVB=   224

 **** Warning!!: The largest alpha MO coefficient is  0.68435530D+02


 **** Warning!!: The largest beta MO coefficient is  0.66515363D+02

 Leave Link  801 at Mon Mar  2 00:46:29 2020, MaxMem=  1879048192 cpu:               3.0 elap:               0.1
 (Enter /opt/g16/l1101.exe)
 Using compressed storage, NAtomX=    12.
 Will process     13 centers per pass.
   2 Symmetry operations used in ECPInt.
 ECPInt:  NShTT=    4753 NPrTT=   14704 LenC2=    4696 LenP2D=   11982.
 LDataN:  DoStor=T MaxTD1= 7 Len=  274
 Number of processors reduced to  33 by ecpmxn.
 R6Disp: Adding Grimme-D2 dispersion energy 1st derivatives to the gradient.
 Leave Link 1101 at Mon Mar  2 00:46:31 2020, MaxMem=  1879048192 cpu:              72.5 elap:               2.1
 (Enter /opt/g16/l1102.exe)
 Symmetrizing basis deriv contribution to polar:
 IMax=3 JMax=2 DiffMx= 0.00D+00
 Leave Link 1102 at Mon Mar  2 00:46:31 2020, MaxMem=  1879048192 cpu:               8.8 elap:               0.3
 (Enter /opt/g16/l1110.exe)
 Forming Gx(P) for the SCF density, NAtomX=    12.
 Integral derivatives from FoFJK, PRISM(SPDF).
 Do as many integral derivatives as possible in FoFJK.
 G2DrvN: MDV=    1879047120.
 G2DrvN: will do    13 centers at a time, making    1 passes.
 Calling FoFCou, ICntrl=  3107 FMM=F I1Cent=   0 AccDes= 1.00D-12.
 FoFJK:  IHMeth= 1 ICntrl=    3107 DoSepK=T KAlg= 0 I1Cent=           0 FoldK=F
 IRaf=         1 NMat=       1 IRICut=       1 DoRegI=T DoRafI=F ISym2E= 1 IDoP0=0 IntGTp=1.
 FoFCou: FMM=F IPFlag=           0 FMFlag=      100000 FMFlg1=           0
         NFxFlg=           0 DoJE=F BraDBF=F KetDBF=F FulRan=T
         wScrn=  0.000000 ICntrl=      3507 IOpCl=  0 I1Cent=           0 NGrid=           0
         NMat0=    1 NMatS0=      1 NMatT0=    0 NMatD0=    1 NMtDS0=    0 NMtDT0=    0
 Petite list used in FoFCou.
 End of G2Drv F.D. properties file   721 does not exist.
 End of G2Drv F.D. properties file   722 does not exist.
 End of G2Drv F.D. properties file   788 does not exist.
 Leave Link 1110 at Mon Mar  2 00:47:18 2020, MaxMem=  1879048192 cpu:            1531.9 elap:              46.8
 (Enter /opt/g16/l1002.exe)
 Minotr:  UHF open shell wavefunction.
          IDoAtm=111111111111
          Direct CPHF calculation.
          Differentiating once with respect to electric field.
                with respect to dipole field.
          Differentiating once with respect to nuclear coordinates.
          Using symmetry in CPHF.
          Requested convergence is 1.0D-08 RMS, and 1.0D-07 maximum.
          Secondary convergence is 1.0D-12 RMS, and 1.0D-12 maximum.
          NewPWx=T KeepS1=F KeepF1=F KeepIn=T MapXYZ=F SortEE=F KeepMc=T.
         3619 words used for storage of precomputed grid.
 Keep R1 and R2 ints in memory in symmetry-blocked form, NReq=1418900126.
 FoFCou: FMM=F IPFlag=           0 FMFlag=           0 FMFlg1=           0
         NFxFlg=           0 DoJE=F BraDBF=F KetDBF=F FulRan=T
         wScrn=  0.000000 ICntrl=       600 IOpCl=  0 I1Cent=           0 NGrid=           0
         NMat0=    1 NMatS0=  30628 NMatT0=    0 NMatD0=    1 NMtDS0=    0 NMtDT0=    0
 Petite list used in FoFCou.
          MDV=    1879048192 using IRadAn=       1.
          Solving linear equations simultaneously, MaxMat=       0.
          There are    39 degrees of freedom in the 1st order CPHF.  IDoFFX=6 NUNeed=     3.
     36 vectors produced by pass  0 Test12= 2.74D-14 2.56D-09 XBig12= 1.23D+02 6.21D+00.
 AX will form    36 AO Fock derivatives at one time.
     36 vectors produced by pass  1 Test12= 2.74D-14 2.56D-09 XBig12= 1.50D+01 6.09D-01.
     36 vectors produced by pass  2 Test12= 2.74D-14 2.56D-09 XBig12= 1.17D+00 3.35D-01.
     36 vectors produced by pass  3 Test12= 2.74D-14 2.56D-09 XBig12= 2.66D-02 4.78D-02.
     36 vectors produced by pass  4 Test12= 2.74D-14 2.56D-09 XBig12= 3.07D-04 3.43D-03.
     36 vectors produced by pass  5 Test12= 2.74D-14 2.56D-09 XBig12= 3.37D-06 2.48D-04.
     36 vectors produced by pass  6 Test12= 2.74D-14 2.56D-09 XBig12= 3.62D-08 2.46D-05.
     30 vectors produced by pass  7 Test12= 2.74D-14 2.56D-09 XBig12= 3.24D-10 2.58D-06.
     14 vectors produced by pass  8 Test12= 2.74D-14 2.56D-09 XBig12= 3.11D-12 2.06D-07.
      3 vectors produced by pass  9 Test12= 2.74D-14 2.56D-09 XBig12= 2.63D-14 1.78D-08.
 InvSVY:  IOpt=1 It=  1 EMax= 5.33D-15
 Solved reduced A of dimension   299 with    39 vectors.
 FullF1:  Do perturbations      1 to       3.
 Isotropic polarizability for W=    0.000000       74.42 Bohr**3.
 End of Minotr F.D. properties file   721 does not exist.
 End of Minotr F.D. properties file   722 does not exist.
 End of Minotr F.D. properties file   788 does not exist.
 Leave Link 1002 at Mon Mar  2 00:49:44 2020, MaxMem=  1879048192 cpu:            4589.9 elap:             145.8
 (Enter /opt/g16/l601.exe)
 Copying SCF densities to generalized density rwf, IOpCl= 1 IROHF=0.

 **********************************************************************

            Population analysis using the SCF Density.

 **********************************************************************

 Orbital symmetries:
 Alpha Orbitals:
       Occupied  (A') (A') (A') (A') (A') (A') (A') (A') (A') (A')
                 (A') (A') (A') (A') (A') (A') (A') (A") (A') (A')
                 (A") (A') (A") (A') (A")
       Virtual   (A") (A") (A') (A') (A') (A') (A') (A') (A") (A')
                 (A') (A') (A") (A') (A") (A') (A') (A") (A') (A')
                 (A") (A') (A") (A') (A') (A') (A') (A') (A") (A')
                 (A") (A') (A') (A') (A') (A') (A') (A') (A") (A')
                 (A') (A') (A") (A') (A') (A') (A') (A') (A") (A')
                 (A") (A') (A") (A') (A") (A') (A') (A') (A") (A')
                 (A') (A') (A") (A") (A') (A') (A") (A') (A') (A")
                 (A') (A") (A') (A') (A') (A") (A') (A') (A') (A')
                 (A") (A") (A') (A') (A') (A") (A') (A") (A') (A")
                 (A') (A") (A') (A') (A") (A') (A") (A') (A") (A')
                 (A") (A') (A") (A') (A') (A') (A') (A') (A') (A')
                 (A") (A') (A') (A") (A") (A') (A') (A') (A') (A')
                 (A") (A") (A') (A') (A') (A") (A") (A') (A') (A')
                 (A") (A') (A") (A') (A") (A') (A') (A") (A") (A')
                 (A') (A') (A") (A") (A') (A") (A') (A") (A') (A')
                 (A") (A') (A') (A') (A") (A') (A") (A") (A') (A")
                 (A') (A') (A') (A") (A') (A") (A') (A') (A') (A')
                 (A") (A') (A") (A') (A') (A') (A') (A") (A') (A")
                 (A') (A") (A') (A') (A') (A") (A") (A") (A') (A')
                 (A') (A") (A') (A') (A") (A") (A') (A') (A") (A')
                 (A') (A") (A') (A') (A') (A') (A') (A") (A') (A')
                 (A') (A') (A') (A') (A') (A') (A') (A') (A') (A')
                 (A') (A')
 Beta  Orbitals:
       Occupied  (A') (A') (A') (A') (A') (A') (A') (A') (A') (A')
                 (A') (A') (A') (A') (A') (A') (A') (A") (A') (A')
                 (A") (A') (A")
       Virtual   (A") (A') (A") (A") (A') (A') (A') (A') (A') (A')
                 (A") (A') (A') (A') (A") (A') (A") (A') (A') (A")
                 (A') (A') (A") (A') (A") (A') (A') (A') (A') (A")
                 (A') (A') (A') (A") (A') (A') (A') (A') (A') (A')
                 (A") (A') (A') (A') (A") (A') (A') (A') (A') (A')
                 (A') (A") (A") (A') (A") (A') (A") (A') (A') (A')
                 (A') (A") (A') (A") (A') (A") (A') (A') (A') (A")
                 (A') (A") (A') (A") (A') (A') (A') (A") (A') (A')
                 (A') (A') (A") (A") (A') (A') (A') (A") (A') (A")
                 (A') (A") (A') (A") (A') (A') (A") (A') (A") (A')
                 (A") (A') (A") (A') (A") (A') (A') (A') (A') (A')
                 (A') (A') (A") (A') (A') (A") (A") (A') (A') (A')
                 (A') (A') (A") (A") (A') (A') (A') (A") (A") (A')
                 (A') (A') (A") (A') (A") (A') (A") (A') (A') (A")
                 (A') (A") (A') (A') (A") (A") (A') (A") (A') (A")
                 (A') (A') (A") (A') (A') (A') (A") (A') (A") (A')
                 (A") (A") (A') (A') (A') (A") (A') (A") (A') (A')
                 (A') (A') (A") (A') (A") (A') (A') (A') (A') (A")
                 (A') (A") (A') (A") (A') (A') (A') (A") (A") (A")
                 (A') (A') (A") (A') (A') (A') (A") (A") (A') (A')
                 (A") (A') (A') (A") (A') (A') (A') (A') (A') (A")
                 (A') (A') (A') (A') (A') (A') (A') (A') (A') (A')
                 (A') (A') (A') (A')
 The electronic state is 3-A".
 Alpha  occ. eigenvalues --  -14.43702 -10.33886 -10.33245 -10.31875 -10.31045
 Alpha  occ. eigenvalues --  -10.30860 -10.30333  -1.02756  -0.96214  -0.86985
 Alpha  occ. eigenvalues --   -0.83580  -0.71632  -0.70217  -0.61568  -0.59011
 Alpha  occ. eigenvalues --   -0.55956  -0.53199  -0.50500  -0.49094  -0.47172
 Alpha  occ. eigenvalues --   -0.42522  -0.37967  -0.36535  -0.34659  -0.30019
 Alpha virt. eigenvalues --    0.04122   0.06216   0.12404   0.14683   0.15415
 Alpha virt. eigenvalues --    0.17208   0.18782   0.20012   0.21594   0.25562
 Alpha virt. eigenvalues --    0.26178   0.27243   0.27341   0.29542   0.31641
 Alpha virt. eigenvalues --    0.31752   0.32429   0.32846   0.34146   0.37441
 Alpha virt. eigenvalues --    0.39781   0.39842   0.40592   0.41308   0.42592
 Alpha virt. eigenvalues --    0.44240   0.46718   0.48017   0.48061   0.48786
 Alpha virt. eigenvalues --    0.49388   0.49794   0.51291   0.53593   0.54104
 Alpha virt. eigenvalues --    0.55761   0.57352   0.57678   0.58391   0.60891
 Alpha virt. eigenvalues --    0.65683   0.68982   0.69446   0.69819   0.72285
 Alpha virt. eigenvalues --    0.75085   0.77037   0.78094   0.81081   0.81113
 Alpha virt. eigenvalues --    0.83668   0.86328   0.88283   0.91054   0.93185
 Alpha virt. eigenvalues --    0.94331   0.95825   1.06592   1.06660   1.07106
 Alpha virt. eigenvalues --    1.09969   1.13467   1.13691   1.15504   1.19707
 Alpha virt. eigenvalues --    1.23145   1.27131   1.27371   1.28543   1.29290
 Alpha virt. eigenvalues --    1.30952   1.34703   1.35070   1.36291   1.41735
 Alpha virt. eigenvalues --    1.46452   1.46957   1.47868   1.51040   1.54993
 Alpha virt. eigenvalues --    1.55945   1.56988   1.57694   1.61403   1.62871
 Alpha virt. eigenvalues --    1.63955   1.67823   1.70281   1.72848   1.73825
 Alpha virt. eigenvalues --    1.75707   1.75790   1.79420   1.84076   1.84354
 Alpha virt. eigenvalues --    1.90479   1.92256   1.94094   1.98878   2.01618
 Alpha virt. eigenvalues --    2.06957   2.07980   2.09302   2.13921   2.16158
 Alpha virt. eigenvalues --    2.19135   2.20758   2.23476   2.26923   2.30379
 Alpha virt. eigenvalues --    2.30608   2.36949   2.40622   2.40828   2.43545
 Alpha virt. eigenvalues --    2.51686   2.57700   2.60911   2.63306   2.64362
 Alpha virt. eigenvalues --    2.65813   2.66807   2.67899   2.70883   2.73656
 Alpha virt. eigenvalues --    2.75478   2.76957   2.79961   2.80874   2.82103
 Alpha virt. eigenvalues --    2.83389   2.84798   2.88556   2.89622   2.90401
 Alpha virt. eigenvalues --    2.91489   2.94681   2.95175   3.01803   3.02144
 Alpha virt. eigenvalues --    3.06788   3.10282   3.11621   3.13429   3.15491
 Alpha virt. eigenvalues --    3.18141   3.19024   3.20337   3.20800   3.27175
 Alpha virt. eigenvalues --    3.28453   3.28865   3.30001   3.34061   3.35241
 Alpha virt. eigenvalues --    3.37410   3.39340   3.40929   3.41749   3.43531
 Alpha virt. eigenvalues --    3.45044   3.47570   3.49551   3.53988   3.56935
 Alpha virt. eigenvalues --    3.56947   3.59094   3.61391   3.64313   3.69512
 Alpha virt. eigenvalues --    3.71340   3.77180   3.78587   3.86074   3.87505
 Alpha virt. eigenvalues --    3.99190   4.03059   4.03285   4.05907   4.06083
 Alpha virt. eigenvalues --    4.12007   4.14220   4.18661   4.22681   4.28722
 Alpha virt. eigenvalues --    4.29528   4.32502   4.33282   4.38219   4.42161
 Alpha virt. eigenvalues --    4.46307   4.46559   4.56229   4.64433   4.67261
 Alpha virt. eigenvalues --    4.73631   4.76509   4.81320   4.82979   4.84518
 Alpha virt. eigenvalues --    4.88262   4.93232   5.00071   5.02750   5.14411
 Alpha virt. eigenvalues --    5.22180   5.29487   5.31115   5.33601   5.40729
 Alpha virt. eigenvalues --    5.50049   5.55954   5.62632   5.72357   6.08578
 Alpha virt. eigenvalues --   22.10461  22.59815  22.65145  22.75954  22.90323
 Alpha virt. eigenvalues --   23.29480  32.12227
  Beta  occ. eigenvalues --  -14.42632 -10.34099 -10.31600 -10.31382 -10.31243
  Beta  occ. eigenvalues --  -10.30560 -10.30447  -1.00731  -0.94637  -0.85858
  Beta  occ. eigenvalues --   -0.81092  -0.70261  -0.69007  -0.60561  -0.57887
  Beta  occ. eigenvalues --   -0.54921  -0.52339  -0.48190  -0.47581  -0.46431
  Beta  occ. eigenvalues --   -0.38226  -0.35965  -0.34827
  Beta virt. eigenvalues --   -0.05085  -0.03257   0.06156   0.09079   0.12500
  Beta virt. eigenvalues --    0.15217   0.15734   0.17385   0.18938   0.20173
  Beta virt. eigenvalues --    0.22824   0.25947   0.26334   0.27334   0.27801
  Beta virt. eigenvalues --    0.29898   0.31714   0.32022   0.33036   0.34018
  Beta virt. eigenvalues --    0.34886   0.38328   0.40178   0.40312   0.40980
  Beta virt. eigenvalues --    0.41742   0.42936   0.44690   0.47130   0.48386
  Beta virt. eigenvalues --    0.48432   0.49139   0.50219   0.51114   0.51554
  Beta virt. eigenvalues --    0.54466   0.54643   0.56026   0.58053   0.58349
  Beta virt. eigenvalues --    0.59346   0.61214   0.65771   0.68937   0.70164
  Beta virt. eigenvalues --    0.70259   0.72920   0.75650   0.77870   0.79200
  Beta virt. eigenvalues --    0.81260   0.81523   0.84952   0.87195   0.89992
  Beta virt. eigenvalues --    0.91371   0.93973   0.94959   0.96187   1.07283
  Beta virt. eigenvalues --    1.07690   1.08093   1.11160   1.14428   1.14546
  Beta virt. eigenvalues --    1.16732   1.20521   1.24109   1.27806   1.28421
  Beta virt. eigenvalues --    1.28995   1.30013   1.31726   1.35659   1.35948
  Beta virt. eigenvalues --    1.36847   1.42796   1.47567   1.47637   1.50035
  Beta virt. eigenvalues --    1.52174   1.55993   1.56659   1.58004   1.58269
  Beta virt. eigenvalues --    1.62304   1.63506   1.65373   1.68520   1.70944
  Beta virt. eigenvalues --    1.73279   1.74533   1.76536   1.76814   1.80794
  Beta virt. eigenvalues --    1.84922   1.84932   1.91032   1.92908   1.95239
  Beta virt. eigenvalues --    1.99371   2.02258   2.07554   2.08465   2.10187
  Beta virt. eigenvalues --    2.14648   2.16859   2.20080   2.21737   2.24340
  Beta virt. eigenvalues --    2.27997   2.30959   2.32965   2.37842   2.41008
  Beta virt. eigenvalues --    2.41622   2.46246   2.52474   2.58364   2.61754
  Beta virt. eigenvalues --    2.64314   2.65179   2.66773   2.68459   2.68594
  Beta virt. eigenvalues --    2.71217   2.74055   2.76026   2.77818   2.80828
  Beta virt. eigenvalues --    2.81821   2.82774   2.84424   2.86426   2.89360
  Beta virt. eigenvalues --    2.90831   2.91511   2.92107   2.95288   2.96186
  Beta virt. eigenvalues --    3.03350   3.03747   3.07579   3.10951   3.12374
  Beta virt. eigenvalues --    3.14218   3.17342   3.19427   3.19744   3.21538
  Beta virt. eigenvalues --    3.22178   3.28038   3.29542   3.29817   3.30734
  Beta virt. eigenvalues --    3.35218   3.37660   3.38741   3.39956   3.43193
  Beta virt. eigenvalues --    3.43228   3.45921   3.47891   3.48264   3.50099
  Beta virt. eigenvalues --    3.54808   3.57933   3.58371   3.61264   3.62803
  Beta virt. eigenvalues --    3.65839   3.70231   3.72681   3.78781   3.80339
  Beta virt. eigenvalues --    3.87461   3.88772   3.99864   4.04028   4.04153
  Beta virt. eigenvalues --    4.06699   4.08118   4.13099   4.15592   4.19110
  Beta virt. eigenvalues --    4.23334   4.29459   4.30687   4.34294   4.35194
  Beta virt. eigenvalues --    4.40439   4.43501   4.48139   4.48155   4.58191
  Beta virt. eigenvalues --    4.65780   4.68900   4.76913   4.77844   4.82623
  Beta virt. eigenvalues --    4.85102   4.85356   4.89683   4.96999   5.01657
  Beta virt. eigenvalues --    5.05304   5.15284   5.23354   5.30931   5.33458
  Beta virt. eigenvalues --    5.34491   5.41804   5.51396   5.56626   5.63826
  Beta virt. eigenvalues --    5.73478   6.09461  22.11335  22.61044  22.65799
  Beta virt. eigenvalues --   22.76561  22.90284  23.29455  32.13617
          Condensed to atoms (all electrons):
               1          2          3          4          5          6
     1  N    6.550189  -0.063876   0.577903  -0.000630  -0.000868   0.018163
     2  C   -0.063876   4.931897   0.430484   0.540427  -0.035607  -0.023442
     3  C    0.577903   0.430484   4.699705  -0.013615  -0.040700   0.018208
     4  C   -0.000630   0.540427  -0.013615   4.867566   0.453805  -0.000175
     5  C   -0.000868  -0.035607  -0.040700   0.453805   4.906808   0.430146
     6  C    0.018163  -0.023442   0.018208  -0.000175   0.430146   5.019262
     7  C   -0.119749  -0.052518   0.383041  -0.059863   0.007880   0.365057
     8  H    0.011199   0.412271  -0.037522  -0.050854   0.010737  -0.006135
     9  H   -0.000122  -0.046540   0.009603   0.437176  -0.051587   0.009177
    10  H    0.000024   0.007802  -0.002386  -0.048120   0.429914  -0.047849
    11  H   -0.000224  -0.001161   0.003459   0.005245  -0.044096   0.414412
    12  H    0.353152   0.013235  -0.076164  -0.000074  -0.000720   0.007095
               7          8          9         10         11         12
     1  N   -0.119749   0.011199  -0.000122   0.000024  -0.000224   0.353152
     2  C   -0.052518   0.412271  -0.046540   0.007802  -0.001161   0.013235
     3  C    0.383041  -0.037522   0.009603  -0.002386   0.003459  -0.076164
     4  C   -0.059863  -0.050854   0.437176  -0.048120   0.005245  -0.000074
     5  C    0.007880   0.010737  -0.051587   0.429914  -0.044096  -0.000720
     6  C    0.365057  -0.006135   0.009177  -0.047849   0.414412   0.007095
     7  C    5.482437   0.017489  -0.003727   0.009185  -0.027679  -0.026353
     8  H    0.017489   0.510620  -0.007434  -0.000006   0.000063  -0.001557
     9  H   -0.003727  -0.007434   0.528657  -0.005868  -0.000142   0.000035
    10  H    0.009185  -0.000006  -0.005868   0.523741  -0.004189  -0.000008
    11  H   -0.027679   0.000063  -0.000142  -0.004189   0.513393  -0.000084
    12  H   -0.026353  -0.001557   0.000035  -0.000008  -0.000084   0.516242
          Atomic-Atomic Spin Densities.
               1          2          3          4          5          6
     1  N    0.681385  -0.028448  -0.005370  -0.000403   0.001245  -0.003662
     2  C   -0.028448   0.329271   0.020606  -0.006043  -0.017726   0.002439
     3  C   -0.005370   0.020606  -0.183709   0.012303  -0.004247   0.013379
     4  C   -0.000403  -0.006043   0.012303  -0.165337   0.002193   0.016310
     5  C    0.001245  -0.017726  -0.004247   0.002193   0.405305   0.020014
     6  C   -0.003662   0.002439   0.013379   0.016310   0.020014  -0.237216
     7  C   -0.025610  -0.011491   0.001860  -0.013046  -0.037705   0.012414
     8  H    0.000298  -0.000609  -0.001523  -0.002473   0.000051  -0.000098
     9  H   -0.000027  -0.001027  -0.000341   0.004268  -0.001664   0.000116
    10  H    0.000016  -0.000252   0.000106  -0.002429  -0.003011  -0.002248
    11  H    0.000087  -0.000460   0.000187  -0.000464  -0.008571   0.011229
    12  H   -0.005508   0.002228   0.006990   0.000138   0.000113  -0.000885
               7          8          9         10         11         12
     1  N   -0.025610   0.000298  -0.000027   0.000016   0.000087  -0.005508
     2  C   -0.011491  -0.000609  -0.001027  -0.000252  -0.000460   0.002228
     3  C    0.001860  -0.001523  -0.000341   0.000106   0.000187   0.006990
     4  C   -0.013046  -0.002473   0.004268  -0.002429  -0.000464   0.000138
     5  C   -0.037705   0.000051  -0.001664  -0.003011  -0.008571   0.000113
     6  C    0.012414  -0.000098   0.000116  -0.002248   0.011229  -0.000885
     7  C    1.259673   0.001731  -0.000983   0.003192  -0.008288   0.005464
     8  H    0.001731   0.002203  -0.000531   0.000087   0.000022  -0.000056
     9  H   -0.000983  -0.000531   0.007456  -0.000778  -0.000053   0.000002
    10  H    0.003192   0.000087  -0.000778  -0.000543   0.001794  -0.000004
    11  H   -0.008288   0.000022  -0.000053   0.001794   0.031211  -0.000040
    12  H    0.005464  -0.000056   0.000002  -0.000004  -0.000040  -0.019321
 Mulliken charges and spin densities:
               1          2
     1  N   -0.325161   0.614004
     2  C   -0.112973   0.288488
     3  C    0.047985  -0.139758
     4  C   -0.130888  -0.154982
     5  C   -0.065711   0.355998
     6  C   -0.203919  -0.168207
     7  C    0.024799   1.187213
     8  H    0.141130  -0.000899
     9  H    0.130773   0.006439
    10  H    0.137760  -0.004069
    11  H    0.141004   0.026652
    12  H    0.215201  -0.010880
 Sum of Mulliken charges =  -0.00000   2.00000
 Mulliken charges and spin densities with hydrogens summed into heavy atoms:
               1          2
     1  N   -0.109960   0.603124
     2  C    0.028157   0.287589
     3  C    0.047985  -0.139758
     4  C   -0.000115  -0.148543
     5  C    0.072049   0.351929
     6  C   -0.062915  -0.141555
     7  C    0.024799   1.187213
 APT charges:
               1
     1  N   -0.268100
     2  C    0.041209
     3  C    0.005933
     4  C   -0.124266
     5  C    0.064312
     6  C   -0.125039
     7  C    0.015319
     8  H    0.057468
     9  H    0.047116
    10  H    0.045339
    11  H    0.069052
    12  H    0.171656
 Sum of APT charges =  -0.00000
 APT charges with hydrogens summed into heavy atoms:
               1
     1  N   -0.096444
     2  C    0.098677
     3  C    0.005933
     4  C   -0.077150
     5  C    0.109651
     6  C   -0.055987
     7  C    0.015319
 Electronic spatial extent (au):  <R**2>=            631.3166
 Charge=              0.0000 electrons
 Dipole moment (field-independent basis, Debye):
    X=             -0.5792    Y=              2.5452    Z=              0.0000  Tot=              2.6102
 Quadrupole moment (field-independent basis, Debye-Ang):
   XX=            -36.3458   YY=            -40.7616   ZZ=            -43.5501
   XY=              2.9233   XZ=             -0.0000   YZ=              0.0000
 Traceless Quadrupole moment (field-independent basis, Debye-Ang):
   XX=              3.8734   YY=             -0.5424   ZZ=             -3.3310
   XY=              2.9233   XZ=             -0.0000   YZ=              0.0000
 Octapole moment (field-independent basis, Debye-Ang**2):
  XXX=              4.9481  YYY=             21.8032  ZZZ=             -0.0000  XYY=            -12.3270
  XXY=              1.9365  XXZ=              0.0000  XZZ=              0.0103  YZZ=             -2.2974
  YYZ=              0.0000  XYZ=             -0.0000
 Hexadecapole moment (field-independent basis, Debye-Ang**3):
 XXXX=           -262.7897 YYYY=           -539.4343 ZZZZ=            -48.9842 XXXY=             -3.0341
 XXXZ=             -0.0000 YYYX=             38.3143 YYYZ=             -0.0000 ZZZX=              0.0000
 ZZZY=             -0.0000 XXYY=           -119.2225 XXZZ=            -60.9465 YYZZ=           -103.9994
 XXYZ=             -0.0000 YYXZ=             -0.0000 ZZXY=              1.3040
 N-N= 2.515569461425D+02 E-N=-1.168147448624D+03  KE= 2.849434519023D+02
 Symmetry A'   KE= 2.767787812268D+02
 Symmetry A"   KE= 8.164670675445D+00
 Symmetry A'   SP= 1.000000000000D+00
 Symmetry A"   SP= 1.000000000000D+00
  Exact polarizability:  76.460   0.040 105.491   0.000   0.000  41.310
 Approx polarizability:  86.862  -0.456 115.201  -0.000   0.000  49.700
                          Isotropic Fermi Contact Couplings
        Atom                 a.u.       MegaHertz       Gauss      10(-4) cm-1
     1  N(14)              0.06591      10.64868       3.79971       3.55202
     2  C(13)              0.04331      24.34498       8.68689       8.12061
     3  C(13)             -0.02729     -15.33805      -5.47300      -5.11622
     4  C(13)             -0.02481     -13.94786      -4.97694      -4.65250
     5  C(13)              0.06468      36.35387      12.97196      12.12634
     6  C(13)             -0.01096      -6.16090      -2.19836      -2.05505
     7  C(13)              0.34620     194.59854      69.43760      64.91109
     8  H(1)               0.00036       0.80861       0.28853       0.26972
     9  H(1)               0.00275       6.14253       2.19181       2.04893
    10  H(1)              -0.00208      -4.64822      -1.65860      -1.55048
    11  H(1)               0.01359      30.38362      10.84163      10.13489
    12  H(1)              -0.00928     -20.75006      -7.40414      -6.92148
 --------------------------------------------------------
       Center         ----  Spin Dipole Couplings  ----
                      3XX-RR        3YY-RR        3ZZ-RR
 --------------------------------------------------------
     1   Atom       -0.687059     -0.674660      1.361718
     2   Atom       -0.106337     -0.177153      0.283490
     3   Atom        0.152669      0.107361     -0.260030
     4   Atom        0.090442      0.094160     -0.184602
     5   Atom       -0.160135     -0.190597      0.350732
     6   Atom        0.070450      0.188997     -0.259447
     7   Atom        0.462506     -0.364531     -0.097975
     8   Atom        0.020687     -0.010680     -0.010007
     9   Atom        0.001810      0.006253     -0.008063
    10   Atom       -0.028845      0.034789     -0.005944
    11   Atom       -0.008497      0.026033     -0.017536
    12   Atom        0.049669     -0.027143     -0.022526
 --------------------------------------------------------
                        XY            XZ            YZ
 --------------------------------------------------------
     1   Atom       -0.027341     -0.000000      0.000000
     2   Atom        0.031149     -0.000000     -0.000000
     3   Atom       -0.052337      0.000000      0.000000
     4   Atom        0.001660      0.000000      0.000000
     5   Atom        0.047206      0.000000      0.000000
     6   Atom        0.033017     -0.000000     -0.000000
     7   Atom        0.648420     -0.000000     -0.000000
     8   Atom       -0.016747      0.000000     -0.000000
     9   Atom       -0.004212     -0.000000     -0.000000
    10   Atom        0.003480      0.000000     -0.000000
    11   Atom       -0.005506     -0.000000      0.000000
    12   Atom        0.040006      0.000000      0.000000
 --------------------------------------------------------


 ---------------------------------------------------------------------------------
              Anisotropic Spin Dipole Couplings in Principal Axis System
 ---------------------------------------------------------------------------------

       Atom             a.u.   MegaHertz   Gauss  10(-4) cm-1        Axes

              Baa    -0.7089   -27.340    -9.756    -9.120  0.7814  0.6240 -0.0000
     1 N(14)  Bbb    -0.6528   -25.178    -8.984    -8.398 -0.6240  0.7814 -0.0000
              Bcc     1.3617    52.518    18.740    17.518  0.0000  0.0000  1.0000
 
              Baa    -0.1889   -25.349    -9.045    -8.456 -0.3530  0.9356  0.0000
     2 C(13)  Bbb    -0.0946   -12.693    -4.529    -4.234  0.9356  0.3530 -0.0000
              Bcc     0.2835    38.042    13.574    12.689  0.0000  0.0000  1.0000
 
              Baa    -0.2600   -34.894   -12.451   -11.639  0.0000  0.0000  1.0000
     3 C(13)  Bbb     0.0730     9.794     3.495     3.267  0.5490  0.8358 -0.0000
              Bcc     0.1870    25.100     8.956     8.372  0.8358 -0.5490 -0.0000
 
              Baa    -0.1846   -24.772    -8.839    -8.263  0.0000  0.0000  1.0000
     4 C(13)  Bbb     0.0898    12.051     4.300     4.020  0.9343 -0.3565 -0.0000
              Bcc     0.0948    12.720     4.539     4.243  0.3565  0.9343 -0.0000
 
              Baa    -0.2250   -30.189   -10.772   -10.070 -0.5886  0.8084  0.0000
     5 C(13)  Bbb    -0.1258   -16.876    -6.022    -5.629  0.8084  0.5886 -0.0000
              Bcc     0.3507    47.065    16.794    15.699  0.0000  0.0000  1.0000
 
              Baa    -0.2594   -34.815   -12.423   -11.613  0.0000  0.0000  1.0000
     6 C(13)  Bbb     0.0619     8.303     2.963     2.770  0.9679 -0.2514 -0.0000
              Bcc     0.1976    26.512     9.460     8.844  0.2514  0.9679 -0.0000
 
              Baa    -0.7201   -96.626   -34.479   -32.231 -0.4808  0.8768 -0.0000
     7 C(13)  Bbb    -0.0980   -13.147    -4.691    -4.385  0.0000  0.0000  1.0000
              Bcc     0.8180   109.773    39.170    36.616  0.8768  0.4808 -0.0000
 
              Baa    -0.0179    -9.572    -3.416    -3.193  0.3978  0.9175  0.0000
     8 H(1)   Bbb    -0.0100    -5.339    -1.905    -1.781  0.0000  0.0000  1.0000
              Bcc     0.0279    14.912     5.321     4.974  0.9175 -0.3978  0.0000
 
              Baa    -0.0081    -4.302    -1.535    -1.435  0.0000  0.0000  1.0000
     9 H(1)   Bbb    -0.0007    -0.390    -0.139    -0.130  0.8563  0.5165 -0.0000
              Bcc     0.0088     4.692     1.674     1.565 -0.5165  0.8563  0.0000
 
              Baa    -0.0290   -15.492    -5.528    -5.167  0.9985 -0.0544  0.0000
    10 H(1)   Bbb    -0.0059    -3.172    -1.132    -1.058  0.0000  0.0000  1.0000
              Bcc     0.0350    18.663     6.659     6.225  0.0544  0.9985 -0.0000
 
              Baa    -0.0175    -9.356    -3.339    -3.121  0.0000  0.0000  1.0000
    11 H(1)   Bbb    -0.0094    -4.991    -1.781    -1.665  0.9881  0.1537  0.0000
              Bcc     0.0269    14.347     5.119     4.786 -0.1537  0.9881 -0.0000
 
              Baa    -0.0442   -23.580    -8.414    -7.865 -0.3921  0.9199 -0.0000
    12 H(1)   Bbb    -0.0225   -12.019    -4.289    -4.009  0.0000  0.0000  1.0000
              Bcc     0.0667    35.599    12.703    11.874  0.9199  0.3921 -0.0000
 

 ---------------------------------------------------------------------------------

 No NMR shielding tensors so no spin-rotation constants.
 Leave Link  601 at Mon Mar  2 00:49:51 2020, MaxMem=  1879048192 cpu:             190.9 elap:               6.2
 (Enter /opt/g16/l701.exe)
 SCFChk:  SCF convergence  9.79D-09 required  1.00D-08
 ... and contract with generalized density number  0.
 Compute integral second derivatives.
 R6Disp: Adding Grimme-D2 dispersion energy 2nd derivatives to the Hessian.
 Entering OneElI...
 Calculate overlap and kinetic energy integrals
    NBasis = 282  MinDer = 2  MaxDer = 2
 Requested accuracy = 0.1000D-14
 PrmmSu-InSpLW:  IPartL=    0 NPrtUS=   36 NPrtUL=    1 DoSpLW=F IThBeg=    0 IThEnd=   35 NThAct=   36.
 PrSmSu:  IncTry=   512 NBBP=           4730 NTPThr=   100 NPartT=   36 Incr=           1 LDynOK=F GPUOK=F.
 PrsmSu:  NPrtUS=  36 ThrOK=T IAlg=2 LenDen=           0 ISkipM=0 DoSpLW=F IThBeg=    0 IThEnd=   35.
 Prism:   IPart=     0 DynPar=F LinDyn=F Incr=           1.
 PRISM was handed    52079635 working-precision words and  4730 shell-pairs
 PRISM was handed    52079635 working-precision words and  4730 shell-pairs
 PRISM was handed    52079635 working-precision words and  4730 shell-pairs
 PRISM was handed    52079635 working-precision words and  4730 shell-pairs
 PRISM was handed    52079635 working-precision words and  4730 shell-pairs
 PRISM was handed    52079635 working-precision words and  4730 shell-pairs
 PRISM was handed    52079635 working-precision words and  4730 shell-pairs
 PRISM was handed    52079635 working-precision words and  4730 shell-pairs
 PRISM was handed    52079635 working-precision words and  4730 shell-pairs
 PRISM was handed    52079635 working-precision words and  4730 shell-pairs
 PRISM was handed    52079635 working-precision words and  4730 shell-pairs
 PRISM was handed    52079635 working-precision words and  4730 shell-pairs
 PRISM was handed    52079635 working-precision words and  4730 shell-pairs
 PRISM was handed    52079635 working-precision words and  4730 shell-pairs
 PRISM was handed    52079635 working-precision words and  4730 shell-pairs
 PRISM was handed    52079635 working-precision words and  4730 shell-pairs
 PRISM was handed    52079635 working-precision words and  4730 shell-pairs
 PRISM was handed    52079635 working-precision words and  4730 shell-pairs
 PRISM was handed    52079635 working-precision words and  4730 shell-pairs
 PRISM was handed    52079635 working-precision words and  4730 shell-pairs
 PRISM was handed    52079635 working-precision words and  4730 shell-pairs
 PRISM was handed    52079635 working-precision words and  4730 shell-pairs
 PRISM was handed    52079635 working-precision words and  4730 shell-pairs
 PRISM was handed    52079635 working-precision words and  4730 shell-pairs
 PRISM was handed    52079635 working-precision words and  4730 shell-pairs
 PRISM was handed    52079635 working-precision words and  4730 shell-pairs
 PRISM was handed    52079635 working-precision words and  4730 shell-pairs
 PRISM was handed    52079635 working-precision words and  4730 shell-pairs
 PRISM was handed    52079635 working-precision words and  4730 shell-pairs
 PRISM was handed    52079635 working-precision words and  4730 shell-pairs
 PRISM was handed    52079635 working-precision words and  4730 shell-pairs
 PRISM was handed    52079635 working-precision words and  4730 shell-pairs
 PRISM was handed    52079635 working-precision words and  4730 shell-pairs
 PRISM was handed    52079635 working-precision words and  4730 shell-pairs
 PRISM was handed    52079635 working-precision words and  4730 shell-pairs
 PRISM was handed    52079635 working-precision words and  4730 shell-pairs
 IPart= 30 NShTot=         115 NBatch=          25 AvBLen=         4.6
 IPart= 21 NShTot=         129 NBatch=          30 AvBLen=         4.3
 IPart= 15 NShTot=         132 NBatch=          31 AvBLen=         4.3
 IPart= 35 NShTot=         111 NBatch=          24 AvBLen=         4.6
 IPart= 13 NShTot=         134 NBatch=          32 AvBLen=         4.2
 IPart= 25 NShTot=         122 NBatch=          28 AvBLen=         4.4
 IPart= 24 NShTot=         127 NBatch=          28 AvBLen=         4.5
 IPart= 28 NShTot=         116 NBatch=          26 AvBLen=         4.5
 IPart=  0 NShTot=         160 NBatch=          49 AvBLen=         3.3
 IPart= 31 NShTot=         114 NBatch=          25 AvBLen=         4.6
 IPart= 23 NShTot=         127 NBatch=          28 AvBLen=         4.5
 IPart=  9 NShTot=         141 NBatch=          33 AvBLen=         4.3
 IPart= 17 NShTot=         131 NBatch=          31 AvBLen=         4.2
 IPart= 18 NShTot=         130 NBatch=          31 AvBLen=         4.2
 IPart= 19 NShTot=         130 NBatch=          31 AvBLen=         4.2
 IPart= 11 NShTot=         138 NBatch=          33 AvBLen=         4.2
 IPart=  7 NShTot=         142 NBatch=          34 AvBLen=         4.2
 IPart= 32 NShTot=         114 NBatch=          25 AvBLen=         4.6
 IPart= 29 NShTot=         116 NBatch=          26 AvBLen=         4.5
 IPart= 34 NShTot=         111 NBatch=          24 AvBLen=         4.6
 IPart= 33 NShTot=         112 NBatch=          25 AvBLen=         4.5
 IPart= 26 NShTot=         120 NBatch=          28 AvBLen=         4.3
 IPart= 16 NShTot=         131 NBatch=          31 AvBLen=         4.2
 IPart=  8 NShTot=         141 NBatch=          33 AvBLen=         4.3
 IPart=  4 NShTot=         150 NBatch=          41 AvBLen=         3.7
 IPart= 10 NShTot=         139 NBatch=          33 AvBLen=         4.2
 IPart= 20 NShTot=         130 NBatch=          31 AvBLen=         4.2
 IPart=  5 NShTot=         148 NBatch=          39 AvBLen=         3.8
 IPart= 22 NShTot=         129 NBatch=          30 AvBLen=         4.3
 IPart= 14 NShTot=         132 NBatch=          31 AvBLen=         4.3
 IPart=  1 NShTot=         154 NBatch=          44 AvBLen=         3.5
 IPart=  2 NShTot=         151 NBatch=          42 AvBLen=         3.6
 IPart= 12 NShTot=         138 NBatch=          33 AvBLen=         4.2
 IPart=  6 NShTot=         147 NBatch=          39 AvBLen=         3.8
 IPart=  3 NShTot=         151 NBatch=          42 AvBLen=         3.6
 IPart= 27 NShTot=         117 NBatch=          27 AvBLen=         4.3
 PrSmSu:  NxtVal=             37.
 Entering OneElI...
 Calculate potential energy integrals
    NBasis = 282  MinDer = 2  MaxDer = 2
 Requested accuracy = 0.1000D-14
 PrmmSu-InSpLW:  IPartL=    0 NPrtUS=   36 NPrtUL=    1 DoSpLW=F IThBeg=    0 IThEnd=   35 NThAct=   36.
 PrSmSu:  IncTry=   512 NBBP=          54936 NTPThr=   100 NPartT=   36 Incr=          15 LDynOK=F GPUOK=F.
 PrsmSu:  NPrtUS=  36 ThrOK=T IAlg=2 LenDen=           0 ISkipM=0 DoSpLW=F IThBeg=    0 IThEnd=   35.
 Prism:   IPart=     0 DynPar=F LinDyn=F Incr=          15.
 PRISM was handed    52092511 working-precision words and  4578 shell-pairs
 PRISM was handed    52092511 working-precision words and  4578 shell-pairs
 PRISM was handed    52092511 working-precision words and  4578 shell-pairs
 PRISM was handed    52092511 working-precision words and  4578 shell-pairs
 PRISM was handed    52092511 working-precision words and  4578 shell-pairs
 PRISM was handed    52092511 working-precision words and  4578 shell-pairs
 PRISM was handed    52092511 working-precision words and  4578 shell-pairs
 PRISM was handed    52092511 working-precision words and  4578 shell-pairs
 PRISM was handed    52092511 working-precision words and  4578 shell-pairs
 PRISM was handed    52092511 working-precision words and  4578 shell-pairs
 PRISM was handed    52092511 working-precision words and  4578 shell-pairs
 PRISM was handed    52092511 working-precision words and  4578 shell-pairs
 PRISM was handed    52092511 working-precision words and  4578 shell-pairs
 PRISM was handed    52092511 working-precision words and  4578 shell-pairs
 PRISM was handed    52092511 working-precision words and  4578 shell-pairs
 PRISM was handed    52092511 working-precision words and  4578 shell-pairs
 PRISM was handed    52092511 working-precision words and  4578 shell-pairs
 PRISM was handed    52092511 working-precision words and  4578 shell-pairs
 PRISM was handed    52092511 working-precision words and  4578 shell-pairs
 PRISM was handed    52092511 working-precision words and  4578 shell-pairs
 PRISM was handed    52092511 working-precision words and  4578 shell-pairs
 PRISM was handed    52092511 working-precision words and  4578 shell-pairs
 PRISM was handed    52092511 working-precision words and  4578 shell-pairs
 PRISM was handed    52092511 working-precision words and  4578 shell-pairs
 PRISM was handed    52092511 working-precision words and  4578 shell-pairs
 PRISM was handed    52092511 working-precision words and  4578 shell-pairs
 PRISM was handed    52092511 working-precision words and  4578 shell-pairs
 PRISM was handed    52092511 working-precision words and  4578 shell-pairs
 PRISM was handed    52092511 working-precision words and  4578 shell-pairs
 PRISM was handed    52092511 working-precision words and  4578 shell-pairs
 PRISM was handed    52092511 working-precision words and  4578 shell-pairs
 PRISM was handed    52092511 working-precision words and  4578 shell-pairs
 PRISM was handed    52092511 working-precision words and  4578 shell-pairs
 PRISM was handed    52092511 working-precision words and  4578 shell-pairs
 PRISM was handed    52092511 working-precision words and  4578 shell-pairs
 PRISM was handed    52092511 working-precision words and  4578 shell-pairs
 IPart= 31 NShTot=        1344 NBatch=         112 AvBLen=        12.0
 IPart= 11 NShTot=        1632 NBatch=         136 AvBLen=        12.0
 IPart= 35 NShTot=        1332 NBatch=         111 AvBLen=        12.0
 IPart= 24 NShTot=        1428 NBatch=         119 AvBLen=        12.0
 IPart= 27 NShTot=        1368 NBatch=         114 AvBLen=        12.0
 IPart= 29 NShTot=        1344 NBatch=         112 AvBLen=        12.0
 IPart=  9 NShTot=        1632 NBatch=         136 AvBLen=        12.0
 IPart= 21 NShTot=        1428 NBatch=         119 AvBLen=        12.0
 IPart= 23 NShTot=        1428 NBatch=         119 AvBLen=        12.0
 IPart=  0 NShTot=        1920 NBatch=         160 AvBLen=        12.0
 IPart= 17 NShTot=        1488 NBatch=         124 AvBLen=        12.0
 IPart= 19 NShTot=        1464 NBatch=         122 AvBLen=        12.0
 IPart=  1 NShTot=        1860 NBatch=         155 AvBLen=        12.0
 IPart= 15 NShTot=        1524 NBatch=         127 AvBLen=        12.0
 IPart= 12 NShTot=        1608 NBatch=         134 AvBLen=        12.0
 IPart=  5 NShTot=        1716 NBatch=         143 AvBLen=        12.0
 IPart= 13 NShTot=        1560 NBatch=         130 AvBLen=        12.0
 IPart= 14 NShTot=        1548 NBatch=         129 AvBLen=        12.0
 IPart=  7 NShTot=        1656 NBatch=         138 AvBLen=        12.0
 IPart= 30 NShTot=        1344 NBatch=         112 AvBLen=        12.0
 IPart= 34 NShTot=        1332 NBatch=         111 AvBLen=        12.0
 IPart= 26 NShTot=        1368 NBatch=         114 AvBLen=        12.0
 IPart= 28 NShTot=        1356 NBatch=         113 AvBLen=        12.0
 IPart= 32 NShTot=        1332 NBatch=         111 AvBLen=        12.0
 IPart= 25 NShTot=        1392 NBatch=         116 AvBLen=        12.0
 IPart= 33 NShTot=        1332 NBatch=         111 AvBLen=        12.0
 IPart= 18 NShTot=        1476 NBatch=         123 AvBLen=        12.0
 IPart= 20 NShTot=        1440 NBatch=         120 AvBLen=        12.0
 IPart=  4 NShTot=        1752 NBatch=         146 AvBLen=        12.0
 IPart=  3 NShTot=        1788 NBatch=         149 AvBLen=        12.0
 IPart=  6 NShTot=        1692 NBatch=         141 AvBLen=        12.0
 IPart=  2 NShTot=        1836 NBatch=         153 AvBLen=        12.0
 IPart= 16 NShTot=        1500 NBatch=         125 AvBLen=        12.0
 IPart= 10 NShTot=        1632 NBatch=         136 AvBLen=        12.0
 IPart= 22 NShTot=        1428 NBatch=         119 AvBLen=        12.0
 IPart=  8 NShTot=        1656 NBatch=         138 AvBLen=        12.0
 PrSmSu:  NxtVal=            541.
   2 Symmetry operations used in ECPInt.
 ECPInt:  NShTT=    4753 NPrTT=   14704 LenC2=    4696 LenP2D=   11982.
 LDataN:  DoStor=F MaxTD1= 8 Len=  415
 LDataN:  DoStor=T MaxTD1= 8 Len=  415
 ECPSu:  NPrtUS=  36 ThrOK=T ISkipM=0 DoSpLW=F IThBeg=    0 IThEnd=   35.
 Polarizability after L701:
                1             2             3 
      1  0.764597D+02
      2  0.396330D-01  0.105491D+03
      3  0.000000D+00  0.000000D+00  0.413104D+02
 Dipole Derivatives after L701:
                 1             2             3             4             5 
      1  -0.837080D-01 -0.642518D-01  0.000000D+00  0.601465D-02 -0.615188D-01
      2   0.379201D-01 -0.277305D+00  0.000000D+00  0.197775D-01  0.240878D+00
      3   0.000000D+00  0.000000D+00 -0.443287D+00  0.000000D+00  0.000000D+00
                 6             7             8             9            10 
      1   0.000000D+00  0.267573D-01  0.364180D-01  0.000000D+00  0.217226D-01
      2   0.000000D+00  0.964744D-01 -0.160273D+00  0.000000D+00  0.198061D+00
      3  -0.123265D+00  0.000000D+00  0.000000D+00  0.151315D+00  0.000000D+00
                11            12            13            14            15 
      1   0.176036D+00  0.000000D+00  0.167082D+00 -0.315560D-02  0.000000D+00
      2  -0.264257D+00  0.000000D+00 -0.189395D-01  0.148079D+00  0.000000D+00
      3   0.000000D+00 -0.130265D+00  0.000000D+00  0.000000D+00 -0.122225D+00
                16            17            18            19            20 
      1  -0.401959D-01 -0.161586D+00  0.000000D+00 -0.102917D+00  0.136347D-03
      2  -0.178694D+00 -0.202436D+00  0.000000D+00 -0.887001D-01  0.161158D+00
      3   0.000000D+00  0.000000D+00 -0.132485D+00  0.000000D+00  0.000000D+00
                21            22            23            24            25 
      1   0.000000D+00 -0.240343D-02  0.361984D-01  0.000000D+00 -0.375190D-01
      2   0.000000D+00  0.273357D-01  0.465011D-01  0.000000D+00 -0.669948D-01
      3  -0.122858D-01  0.000000D+00  0.000000D+00  0.128307D+00  0.000000D+00
                26            27            28            29            30 
      1  -0.582404D-01  0.000000D+00  0.635593D-01  0.206091D-02  0.000000D+00
      2   0.367202D-01  0.000000D+00 -0.132481D-01 -0.691378D-01  0.000000D+00
      3   0.000000D+00  0.142148D+00  0.000000D+00  0.000000D+00  0.141597D+00
                31            32            33            34            35 
      1   0.170555D-02  0.582791D-01  0.000000D+00 -0.200986D-01  0.396243D-01
      2   0.625086D-01  0.520105D-01  0.000000D+00 -0.755007D-01  0.288061D+00
      3   0.000000D+00  0.000000D+00  0.153440D+00  0.000000D+00  0.000000D+00
                36 
      1   0.000000D+00
      2   0.000000D+00
      3   0.247007D+00
 Hessian after L701:
                1             2             3             4             5 
      1  0.121753D+02
      2 -0.144688D+01  0.278439D+01
      3  0.000000D+00  0.000000D+00  0.169017D+02
      4  0.939127D-01  0.233927D+00  0.000000D+00  0.126209D+02
      5  0.224116D+00  0.720670D-01  0.000000D+00 -0.135295D+01  0.933202D+01
      6  0.000000D+00  0.000000D+00 -0.103698D+00  0.000000D+00  0.000000D+00
      7 -0.103386D+02 -0.482844D-01  0.000000D+00 -0.274551D+01  0.284118D+01
      8 -0.690317D-01 -0.107700D+00  0.000000D+00  0.307458D+01 -0.579514D+01
      9  0.000000D+00  0.000000D+00 -0.118111D+02  0.000000D+00  0.000000D+00
     10 -0.111236D+00  0.120021D+00  0.000000D+00 -0.866078D+01  0.129582D+00
     11  0.112942D+00  0.302429D+00  0.000000D+00 -0.259516D+00 -0.467773D+00
     12  0.000000D+00  0.000000D+00 -0.119416D+00  0.000000D+00  0.000000D+00
     13 -0.977305D-01 -0.162491D-01  0.000000D+00  0.395052D-01 -0.345971D+00
     14 -0.386515D-01  0.180285D+00  0.000000D+00 -0.294764D+00  0.327533D+00
     15  0.000000D+00  0.000000D+00 -0.892465D-01  0.000000D+00  0.000000D+00
     16 -0.189507D+00 -0.128028D+00  0.000000D+00  0.153625D+00 -0.311184D+00
     17 -0.169065D+00  0.398935D+00  0.000000D+00 -0.292832D+00 -0.816870D-01
     18  0.000000D+00  0.000000D+00 -0.174780D+00  0.000000D+00  0.000000D+00
     19  0.399639D+00 -0.302426D+00  0.000000D+00  0.469792D+00  0.188882D+00
     20 -0.351109D+00  0.182438D+00  0.000000D+00  0.184317D+00 -0.220428D+00
     21  0.000000D+00  0.000000D+00  0.171979D+00  0.000000D+00  0.000000D+00
     22  0.458143D-01  0.198032D+00  0.000000D+00 -0.214598D+01 -0.139416D+01
     23  0.880188D-01  0.298112D-01  0.000000D+00 -0.127361D+01 -0.336327D+01
     24  0.000000D+00  0.000000D+00 -0.886211D-01  0.000000D+00  0.000000D+00
     25 -0.312579D-03  0.379073D-01  0.000000D+00  0.765059D-01 -0.536964D-01
     26  0.100919D-01  0.268837D-01  0.000000D+00 -0.971327D-01 -0.543593D-01
     27  0.000000D+00  0.000000D+00 -0.108494D-01  0.000000D+00  0.000000D+00
     28 -0.658194D-02  0.674808D-04  0.000000D+00 -0.277722D-01 -0.526001D-01
     29 -0.917227D-02  0.390599D-01  0.000000D+00 -0.707792D-01  0.166372D+00
     30  0.000000D+00  0.000000D+00 -0.763160D-02  0.000000D+00  0.000000D+00
     31  0.161497D-01 -0.347038D-01  0.000000D+00  0.212555D-01 -0.249292D-01
     32 -0.226013D-01  0.237897D-01  0.000000D+00 -0.192918D-01  0.226562D-02
     33  0.000000D+00  0.000000D+00 -0.110182D-01  0.000000D+00  0.000000D+00
     34 -0.198679D+01  0.138662D+01  0.000000D+00  0.104556D+00  0.151736D+00
     35  0.167135D+01 -0.393239D+01  0.000000D+00  0.168056D+00  0.823991D-01
     36  0.000000D+00  0.000000D+00 -0.465733D+01  0.000000D+00  0.000000D+00
                6             7             8             9            10 
      6  0.237818D+02
      7  0.000000D+00  0.158502D+02
      8  0.000000D+00  0.834985D+00  0.100833D+02
      9 -0.852459D+01  0.000000D+00  0.000000D+00  0.295981D+02
     10  0.000000D+00 -0.796333D-01  0.382165D+00  0.000000D+00  0.122840D+02
     11  0.000000D+00  0.409330D+00  0.375652D+00  0.000000D+00  0.117537D+01
     12 -0.107205D+02  0.000000D+00  0.000000D+00 -0.236828D+00  0.000000D+00
     13  0.000000D+00 -0.162602D+00  0.497019D-01  0.000000D+00 -0.249890D+01
     14  0.000000D+00  0.277866D-01  0.252003D+00  0.000000D+00 -0.329738D+01
     15 -0.129550D+00  0.000000D+00  0.000000D+00 -0.148341D-01  0.000000D+00
     16  0.000000D+00 -0.653423D-01 -0.287932D+00  0.000000D+00  0.524562D+00
     17  0.000000D+00 -0.403814D+00  0.479246D-01  0.000000D+00 -0.557223D-01
     18 -0.454113D-01  0.000000D+00  0.000000D+00 -0.250494D+00  0.000000D+00
     19  0.000000D+00 -0.243692D+01 -0.399731D+01  0.000000D+00  0.214927D+00
     20  0.000000D+00 -0.343050D+01 -0.533234D+01  0.000000D+00  0.202102D+00
     21 -0.145900D+00  0.000000D+00  0.000000D+00 -0.896259D+01  0.000000D+00
     22  0.000000D+00 -0.121827D+00  0.409652D-01  0.000000D+00  0.882049D-01
     23  0.000000D+00 -0.658548D-02  0.105843D+00  0.000000D+00  0.846123D-01
     24 -0.410079D+01  0.000000D+00  0.000000D+00  0.870052D-01  0.000000D+00
     25  0.000000D+00  0.634516D-01  0.136898D+00  0.000000D+00 -0.196143D+01
     26  0.000000D+00  0.116278D+00  0.834333D-01  0.000000D+00  0.120635D+01
     27  0.885464D-01  0.000000D+00  0.000000D+00 -0.399930D-01  0.000000D+00
     28  0.000000D+00 -0.831050D-02  0.215785D-02  0.000000D+00  0.445489D-01
     29  0.000000D+00 -0.126728D-02  0.169615D-01  0.000000D+00  0.995012D-01
     30 -0.377243D-01  0.000000D+00  0.000000D+00 -0.903450D-02  0.000000D+00
     31  0.000000D+00  0.418081D-01 -0.984225D-01  0.000000D+00  0.150115D+00
     32  0.000000D+00 -0.817141D-01  0.704631D-01  0.000000D+00 -0.585778D-01
     33 -0.116789D-01  0.000000D+00  0.000000D+00 -0.254282D-01  0.000000D+00
     34  0.000000D+00  0.333575D-02 -0.687542D-01  0.000000D+00  0.558498D-02
     35  0.000000D+00 -0.257387D+00  0.199577D+00  0.000000D+00  0.119782D-01
     36 -0.504967D-01  0.000000D+00  0.000000D+00  0.189744D+00  0.000000D+00
               11            12            13            14            15 
     11  0.959483D+01
     12  0.000000D+00  0.242385D+02
     13 -0.295381D+01  0.000000D+00  0.908340D+01
     14 -0.588968D+01  0.000000D+00  0.141302D+00  0.116766D+02
     15  0.000000D+00 -0.914493D+01  0.000000D+00  0.000000D+00  0.225841D+02
     16 -0.123461D-01  0.000000D+00 -0.210912D+01  0.306475D+01  0.000000D+00
     17 -0.303963D+00  0.000000D+00  0.272860D+01 -0.596825D+01  0.000000D+00
     18  0.000000D+00 -0.214445D+00  0.000000D+00  0.000000D+00 -0.913617D+01
     19  0.175595D+00  0.000000D+00 -0.960695D-01  0.492641D+00  0.000000D+00
     20 -0.764661D-01  0.000000D+00  0.486304D+00  0.357043D+00  0.000000D+00
     21  0.000000D+00  0.553363D-01  0.000000D+00  0.000000D+00 -0.270519D+00
     22  0.605464D-01  0.000000D+00  0.632693D-01 -0.143153D+00  0.000000D+00
     23 -0.498866D-01  0.000000D+00 -0.119541D+00  0.904873D-01  0.000000D+00
     24  0.000000D+00  0.979405D-01  0.000000D+00  0.000000D+00 -0.431472D-01
     25  0.117354D+01  0.000000D+00 -0.120156D+00  0.120803D-01  0.000000D+00
     26 -0.342897D+01  0.000000D+00  0.305843D-01  0.128777D+00  0.000000D+00
     27  0.000000D+00 -0.401153D+01  0.000000D+00  0.000000D+00  0.103713D+00
     28  0.124417D+00  0.000000D+00 -0.402211D+01  0.441796D-01  0.000000D+00
     29 -0.492761D-01  0.000000D+00  0.445477D-01 -0.127172D+01  0.000000D+00
     30  0.000000D+00  0.964629D-01  0.000000D+00  0.000000D+00 -0.394141D+01
     31 -0.349008D-01  0.000000D+00 -0.779814D-01 -0.242474D-01  0.000000D+00
     32 -0.301475D-01  0.000000D+00 -0.476836D-01  0.108163D+00  0.000000D+00
     33  0.000000D+00 -0.314673D-01  0.000000D+00  0.000000D+00  0.874668D-01
     34  0.288332D-01  0.000000D+00 -0.150658D-02  0.154573D-01  0.000000D+00
     35  0.232479D-01  0.000000D+00  0.221709D-02  0.874545D-02  0.000000D+00
     36  0.000000D+00 -0.909894D-02  0.000000D+00  0.000000D+00 -0.550545D-02
               16            17            18            19            20 
     16  0.115670D+02
     17 -0.982492D+00  0.898360D+01
     18  0.000000D+00  0.000000D+00  0.238804D+02
     19 -0.815544D+01  0.371153D+00  0.000000D+00  0.925899D+01
     20 -0.133812D+00  0.150126D+00  0.000000D+00  0.308127D+01  0.514283D+01
     21  0.000000D+00  0.000000D+00 -0.101943D+02  0.000000D+00  0.000000D+00
     22 -0.198403D-01  0.155903D-02  0.000000D+00  0.255874D+00 -0.595884D-01
     23  0.960501D-02  0.112668D-02  0.000000D+00 -0.964881D-01 -0.628883D-01
     24  0.000000D+00  0.000000D+00  0.769969D-03  0.000000D+00  0.000000D+00
     25  0.186867D+00  0.313437D-01  0.000000D+00  0.167841D-01  0.181791D-01
     26  0.626459D-01 -0.435420D-01  0.000000D+00  0.124190D-01  0.335781D-02
     27  0.000000D+00  0.000000D+00 -0.419612D-01  0.000000D+00  0.000000D+00
     28  0.294999D-01 -0.120807D+00  0.000000D+00 -0.317088D-01  0.529447D-01
     29 -0.963884D-01 -0.244629D-01  0.000000D+00  0.869983D-01  0.178918D+00
     30  0.000000D+00  0.000000D+00  0.922628D-01  0.000000D+00  0.000000D+00
     31 -0.189008D+01 -0.114212D+01  0.000000D+00  0.628517D-01 -0.921623D-02
     32 -0.117616D+01 -0.330602D+01  0.000000D+00  0.590255D-01 -0.761391D-01
     33  0.000000D+00  0.000000D+00 -0.388717D+01  0.000000D+00  0.000000D+00
     34 -0.322574D-01  0.342035D-01  0.000000D+00  0.412759D-01 -0.408911D-01
     35 -0.865213D-02  0.146213D+00  0.000000D+00 -0.717582D-01 -0.246451D+00
     36  0.000000D+00  0.000000D+00 -0.287054D-01  0.000000D+00  0.000000D+00
               21            22            23            24            25 
     21  0.193941D+02
     22  0.000000D+00  0.181215D+01
     23  0.000000D+00  0.132647D+01  0.328972D+01
     24 -0.654494D-01  0.000000D+00  0.000000D+00  0.410628D+01
     25  0.000000D+00  0.612955D-02  0.672949D-02  0.000000D+00  0.173913D+01
     26  0.000000D+00 -0.693197D-02 -0.486252D-01  0.000000D+00 -0.137139D+01
     27 -0.684957D-02  0.000000D+00  0.000000D+00  0.891942D-02  0.000000D+00
     28  0.000000D+00  0.112027D-02 -0.863997D-03  0.000000D+00 -0.264696D-01
     29  0.000000D+00 -0.141300D-01  0.101355D-01  0.000000D+00  0.853229D-02
     30 -0.408778D-01  0.000000D+00  0.000000D+00 -0.207974D-02  0.000000D+00
     31  0.000000D+00  0.124990D-01 -0.786641D-02  0.000000D+00  0.121728D-01
     32  0.000000D+00 -0.806529D-02  0.360164D-02  0.000000D+00 -0.673026D-02
     33  0.355578D-01  0.000000D+00  0.000000D+00 -0.178959D-02  0.000000D+00
     34  0.000000D+00  0.259084D-02 -0.104754D-01  0.000000D+00  0.733552D-02
     35  0.000000D+00 -0.154006D-02 -0.606087D-02  0.000000D+00  0.660541D-02
     36  0.295489D-01  0.000000D+00  0.000000D+00  0.961429D-03  0.000000D+00
               26            27            28            29            30 
     26  0.334029D+01
     27  0.000000D+00  0.390703D+01
     28  0.247696D-01  0.000000D+00  0.406858D+01
     29 -0.851442D-02  0.000000D+00 -0.553319D-01  0.944648D+00
     30  0.000000D+00  0.610811D-02  0.000000D+00  0.000000D+00  0.384302D+01
     31  0.632760D-02  0.000000D+00 -0.206741D-01  0.312918D-03  0.000000D+00
     32 -0.293601D-02  0.000000D+00 -0.194921D-01 -0.872010D-02  0.000000D+00
     33  0.000000D+00 -0.142529D-02  0.000000D+00  0.000000D+00  0.158562D-02
     34  0.599168D-02  0.000000D+00 -0.114751D-03  0.717653D-02  0.000000D+00
     35  0.420534D-02  0.000000D+00  0.558454D-03  0.659644D-02  0.000000D+00
     36  0.000000D+00 -0.170939D-02  0.000000D+00  0.000000D+00 -0.675297D-03
               31            32            33            34            35 
     31  0.167843D+01
     32  0.137622D+01  0.321031D+01
     33  0.000000D+00  0.000000D+00  0.384597D+01
     34 -0.654823D-02  0.507624D-02  0.000000D+00  0.186254D+01
     35 -0.644868D-02  0.537027D-02  0.000000D+00 -0.151497D+01  0.370855D+01
     36  0.000000D+00  0.000000D+00 -0.606655D-03  0.000000D+00  0.000000D+00
               36 
     36  0.453387D+01
 Leave Link  701 at Mon Mar  2 00:49:53 2020, MaxMem=  1879048192 cpu:              63.6 elap:               1.9
 (Enter /opt/g16/l702.exe)
 L702 exits ... SP integral derivatives will be done elsewhere.
 Leave Link  702 at Mon Mar  2 00:49:53 2020, MaxMem=  1879048192 cpu:               2.6 elap:               0.1
 (Enter /opt/g16/l703.exe)
 Integral derivatives from FoFJK, PRISM(SPDF).
 Compute integral second derivatives, UseDBF=F ICtDFT=           0.
 ICntrl=    100127.
 Calling FoFJK, ICntrl=    100127 FMM=F ISym2X=1 I1Cent= 0 IOpClX= 1 NMat=1 NMatS=1 NMatT=0.
 FoFJK:  IHMeth= 1 ICntrl=  100127 DoSepK=T KAlg= 0 I1Cent=           0 FoldK=F
 IRaf=         1 NMat=       1 IRICut=       1 DoRegI=T DoRafI=F ISym2E= 1 IDoP0=0 IntGTp=1.
 FoFCou: FMM=F IPFlag=           0 FMFlag=      100000 FMFlg1=         800
         NFxFlg=           0 DoJE=F BraDBF=F KetDBF=F FulRan=T
         wScrn=  0.000000 ICntrl=    100527 IOpCl=  0 I1Cent=           0 NGrid=           0
         NMat0=    1 NMatS0=      1 NMatT0=    0 NMatD0=    1 NMtDS0=    0 NMtDT0=    0
 Petite list used in FoFCou.
 FoFCou:  KetSym=F NOpSet=  2 NOpAb=2 NOp=  2.
 FoFCou:  CnvScl= 1.00D+00 Thresh= 1.00D-12 IAcrcy=      10.
 PrismS was handed  1878562259 working-precision words and  4669 shell-pairs
 FoFCou: LinMIO=F DoNuc=F BraDBF=F KetDBF=F HaveP=T PDBF=F HaveZ=T HaveW=F
         NIJTC =      10 NIJTAt=       0 NIJTCD=       0 NIJTT =      10
         IJTBeg=       1 IJTEnd=      10 KLTBeg=       1 KLTEnd=      10
         IPTBeg=       1 IPTEnd=      10 IPTBCv=       1 IPTECv=      10
         IZTBeg=       1 IZTEnd=      10 IZTBCv=       1 IZTECv=      10
         IWTBeg=      11 IWTEnd=      10 IWTBCv=      11 IWTECv=      10
         INTBeg=       1 INTEnd=       0 IFTBCv=       1 IFTECv=      10
 NCel replicated for PrismC:     1
 CoulSu-InSpLW:  IPartL=    0 NPrtUS=   36 NPrtUL=    1 DoSpLW=F IThBeg=    0 IThEnd=   35 NThAct=   36.
 CoulSu:  IncTry=  1024 NBBP=       10902115 NTPThr=   100 NPartT=   36 Incr=        1024 LDynOK=F GPUOK=F.
 CoulSu:  NPrtUS=  36 ThrOK=T IAlg=2 LenDen=           0 LWGrdD=           0 DoCopy=F ISkipM=0
          DoSpLW=F IThBeg=    0 IThEnd=   35.
 Enter PrismC:  IPart=  0 JobTyp=22 DoJE=F Cont=F.
[...]
     36  0.435262D-04 -0.816989D-03  0.000000D+00  0.492392D-05 -0.694110D-04
               31            32            33            34            35 
     31  0.703057D-01
     32 -0.671938D-01  0.345859D+00
     33 -0.129628D-02  0.119806D-01  0.230727D-01
     34  0.201179D-03 -0.458879D-04 -0.913899D-05  0.212353D+00
     35 -0.280176D-04  0.959976D-04 -0.145781D-04  0.187292D+00  0.271369D+00
     36 -0.834532D-05 -0.152102D-04  0.400952D-03  0.152083D-01  0.178970D-01
               36 
     36  0.189038D-01
 Final forces over variables, Energy=-2.86265114D+02:
  3.94708876D-06 2.19730933D-06-1.87935732D-06-8.00310579D-06
  8.45755274D-06-1.11438458D-05 3.38516213D-06 2.35917911D-06
  2.07392669D-06 6.13310630D-07 9.34966150D-07-2.94218650D-06
 -2.42066796D-07 1.99683583D-06-1.44597365D-05 1.03006457D-05
 -5.33736974D-06-1.21441195D-05 1.95074269D-05 1.98130793D-07
 -9.15418506D-07 5.53410505D-07 4.22602314D-07 1.19659267D-07
  1.28871037D-07 1.66411397D-07-7.08676977D-07 1.74383792D-07
  6.21246397D-08-9.33550242D-07 9.86124583D-07 9.22517088D-08
  3.27054945D-08 4.62733992D-08 5.18418838D-08-9.87607022D-08
 Leave Link  716 at Mon Mar  2 00:51:24 2020, MaxMem=  1879048192 cpu:              19.6 elap:               0.7
 (Enter /opt/g16/l103.exe)

 GradGradGradGradGradGradGradGradGradGradGradGradGradGradGradGradGradGrad
 Berny optimization.
 Search for a local minimum.
 Step number   1 out of a maximum of    2
 All quantities printed in internal units (Hartrees-Bohrs-Radians)
 Second derivative matrix not updated -- analytic derivatives used.
 ITU=  0
     Eigenvalues ---    0.00628   0.01833   0.02074   0.02078   0.03592
     Eigenvalues ---    0.05038   0.05240   0.05470   0.05583   0.07571
     Eigenvalues ---    0.08405   0.10668   0.11957   0.17304   0.18090
     Eigenvalues ---    0.20150   0.22973   0.23294   0.27189   0.42682
     Eigenvalues ---    0.49529   0.67134   0.71309   0.77298   0.79425
     Eigenvalues ---    0.96033   1.03315   1.05337   1.18860   1.23169
 Angle between quadratic step and forces=  51.75 degrees.
 ClnCor:  largest displacement from symmetrization is 3.09D-15 for atom    12.
 Linear search not attempted -- first point.
 ClnCor:  largest displacement from symmetrization is 6.67D-15 for atom     9.
 B after Tr=    -0.000001    0.000000   -0.000000
         Rot=    1.000000   -0.000000   -0.000000    0.000000 Ang=  -0.00 deg.
 Variable       Old X    -DE/DX   Delta X   Delta X   Delta X     New X
                                 (Linear)    (Quad)   (Total)
    X1        4.53885   0.00000   0.00000  -0.00000  -0.00001   4.53884
    Y1       -1.85466  -0.00000   0.00000  -0.00002  -0.00003  -1.85468
    Z1        0.07818   0.00000   0.00000  -0.00000  -0.00000   0.07818
    X2        0.13690   0.00000   0.00000  -0.00000  -0.00001   0.13689
    Y2       -2.80745   0.00000   0.00000   0.00002   0.00002  -2.80743
    Z2       -0.11984   0.00000   0.00000   0.00000   0.00000  -0.11984
    X3        2.17784  -0.00000   0.00000  -0.00000  -0.00000   2.17783
    Y3       -1.02602  -0.00001   0.00000  -0.00001  -0.00001  -1.02602
    Z3        0.03147  -0.00000   0.00000  -0.00000  -0.00000   0.03147
    X4       -2.32996  -0.00001   0.00000  -0.00002  -0.00002  -2.32998
    Y4       -2.01479   0.00001   0.00000   0.00001   0.00001  -2.01478
    Z4       -0.17190   0.00000   0.00000  -0.00000  -0.00000  -0.17190
    X5       -2.94258   0.00001   0.00000   0.00001   0.00001  -2.94257
    Y5        0.56086  -0.00001   0.00000  -0.00002  -0.00001   0.56084
    Z5       -0.07918   0.00000   0.00000  -0.00000  -0.00000  -0.07918
    X6       -1.02850  -0.00001   0.00000  -0.00001  -0.00001  -1.02851
    Y6        2.38163  -0.00001   0.00000  -0.00003  -0.00002   2.38160
    Z6        0.06939  -0.00000   0.00000  -0.00000  -0.00000   0.06939
    X7        1.39194   0.00000   0.00000   0.00002   0.00002   1.39196
    Y7        1.52158   0.00002   0.00000   0.00005   0.00005   1.52163
    Z7        0.11682   0.00000   0.00000   0.00000   0.00000   0.11682
    X8        0.63698   0.00000   0.00000   0.00003   0.00003   0.63700
    Y8       -4.79078   0.00000   0.00000   0.00003   0.00003  -4.79076
    Z8       -0.19024   0.00000   0.00000   0.00000   0.00000  -0.19024
    X9       -3.83485   0.00000   0.00000   0.00001   0.00001  -3.83485
    Y9       -3.39549  -0.00000   0.00000  -0.00002  -0.00001  -3.39550
    Z9       -0.28646   0.00000   0.00000  -0.00000  -0.00000  -0.28646
   X10       -4.90123   0.00000   0.00000   0.00002   0.00002  -4.90121
   Y10        1.15113   0.00000   0.00000   0.00002   0.00002   1.15115
   Z10       -0.12225   0.00000   0.00000   0.00000   0.00000  -0.12225
   X11       -1.48029   0.00000   0.00000  -0.00001  -0.00001  -1.48030
   Y11        4.37639   0.00000   0.00000  -0.00002  -0.00002   4.37637
   Z11        0.14200   0.00000   0.00000  -0.00000  -0.00000   0.14200
   X12        5.73748  -0.00000   0.00000  -0.00003  -0.00003   5.73746
   Y12       -0.34958   0.00000   0.00000  -0.00001  -0.00001  -0.34959
   Z12        0.18743  -0.00000   0.00000  -0.00000  -0.00000   0.18743
         Item               Value     Threshold  Converged?
 Maximum Force            0.000020     0.000450     YES
 RMS     Force            0.000006     0.000300     YES
 Maximum Displacement     0.000046     0.001800     YES
 RMS     Displacement     0.000016     0.001200     YES
 Predicted change in Energy=-1.013258D-09
 Optimization completed.
    -- Stationary point found.
 GradGradGradGradGradGradGradGradGradGradGradGradGradGradGradGradGradGrad

 Leave Link  103 at Mon Mar  2 00:51:24 2020, MaxMem=  1879048192 cpu:               2.7 elap:               0.1
 (Enter /opt/g16/l9999.exe)

 ----------------------------------------------------------------------

 Electric dipole moment (input orientation):
 (Debye = 10**-18 statcoulomb cm , SI units = C m)
                  (au)            (Debye)         (10**-30 SI)
   Tot        0.102695D+01      0.261025D+01      0.870685D+01
   x         -0.883795D+00     -0.224638D+01     -0.749313D+01
   y          0.522942D+00      0.132919D+01      0.443369D+01
   z         -0.803749D-02     -0.204293D-01     -0.681446D-01

 Dipole polarizability, Alpha (input orientation).
 (esu units = cm**3 , SI units = C**2 m**2 J**-1)
 Alpha(0;0):
               (au)            (10**-24 esu)      (10**-40 SI)
   iso        0.744205D+02      0.110280D+02      0.122703D+02
   aniso      0.556666D+02      0.824894D+01      0.917818D+01
   xx         0.102744D+03      0.152251D+02      0.169402D+02
   yx        -0.847355D+01     -0.125565D+01     -0.139710D+01
   yy         0.790824D+02      0.117188D+02      0.130389D+02
   zx         0.179678D+01      0.266256D+00      0.296249D+00
   zy         0.137782D+01      0.204172D+00      0.227172D+00
   zz         0.414352D+02      0.614006D+01      0.683174D+01

 ----------------------------------------------------------------------

 Dipole orientation:
     7          0.39879971          0.59501331         -4.85117760
     6         -1.30845686         -1.95223057         -1.54648314
     6          0.12603031          0.18803864         -2.39696395
     6         -1.62855102         -2.42981426          0.98054024
     6         -0.56642644         -0.84511377          2.81860319
     6          0.85091581          1.26957505          2.09735937
     6          1.12548960          1.67924190         -0.42400179
     1         -2.11828136         -3.16049682         -2.98625014
     1         -2.71850308         -4.05603364          1.57347698
     1         -0.83933560         -1.25229695          4.80513472
     1          1.67993670          2.50648251          3.50136686
     1          1.46147554          2.18053628         -5.11716645

 Electric dipole moment (dipole orientation):
 (Debye = 10**-18 statcoulomb cm , SI units = C m)
                  (au)            (Debye)         (10**-30 SI)
   Tot        0.102695D+01      0.261025D+01      0.870685D+01
   x          0.000000D+00      0.000000D+00      0.000000D+00
   y          0.000000D+00      0.000000D+00      0.000000D+00
   z          0.102695D+01      0.261025D+01      0.870685D+01

 Dipole polarizability, Alpha (dipole orientation).
 (esu units = cm**3 , SI units = C**2 m**2 J**-1)
 Alpha(0;0):
               (au)            (10**-24 esu)      (10**-40 SI)
   iso        0.744205D+02      0.110280D+02      0.122703D+02
   aniso      0.556666D+02      0.824894D+01      0.917818D+01
   xx         0.526542D+02      0.780254D+01      0.868150D+01
   yx         0.169250D+02      0.250803D+01      0.279055D+01
   yy         0.665627D+02      0.986357D+01      0.109747D+02
   zx        -0.351721D+01     -0.521197D+00     -0.579909D+00
   zy        -0.524771D+01     -0.777630D+00     -0.865231D+00
   zz         0.104045D+03      0.154178D+02      0.171547D+02

 ----------------------------------------------------------------------

 Test job not archived.
 1\1\GINC-NODE05\Freq\UwB97XD\def2TZVP\C6H5N1(3)\ALONGD\02-Mar-2020\0\\
 #P guess=read uwb97xd/def2tzvp freq iop(7/33=1) scf=(tight, direct) in
 tegral=(grid=ultrafine, Acc2E=12) scf=xqc iop(2/9=2000)\\name\\0,3\N,2
 .4018549966,-0.9814420042,0.0413730951\C,0.0724439942,-1.4856380073,-0
 .0634188354\C,1.1524620098,-0.5429449876,0.0166527217\C,-1.2329599939,
 -1.0661819923,-0.0909661724\C,-1.5571439952,0.296792006,-0.0419001344\
 C,-0.5442610091,1.2603039885,0.0367212581\C,0.7365829993,0.8051869991,
 0.0618160208\H,0.3370729954,-2.5351740058,-0.1006708688\H,-2.029317017
 8,-1.7968150224,-0.1515854958\H,-2.5936170001,0.6091499999,-0.06469099
 67\H,-0.7833349922,2.3158860098,0.07514578\H,3.0361450083,-0.184989989
 6,0.099182766\\Version=ES64L-G16RevB.01\State=3-A"\HF=-286.265114\S2=2
 .081993\S2-1=0.\S2A=2.003248\RMSD=9.788e-09\RMSF=5.760e-06\ZeroPoint=0
 .0915838\Thermal=0.0968901\Dipole=-0.8837952,0.5229423,-0.0080375\Dipo
 leDeriv=-0.2672015,-0.0059074,0.0059664,0.0961002,-0.0948606,0.018874,
 0.0104968,0.0152656,-0.4422378,0.206564,-0.1261017,0.0060666,-0.044936
 2,0.0398629,0.0056554,0.0096714,0.0027843,-0.1227996,-0.1040443,0.0786
 252,-0.005541,0.1385849,-0.029137,-0.0031122,-0.002878,-0.0052332,0.15
 0981,-0.129187,0.2239345,0.0099837,0.2459243,-0.1141188,0.0094163,0.01
 09603,0.0086384,-0.1294932,0.1431006,0.0039847,0.0095624,-0.0117738,0.
 1711624,0.0126137,0.0088626,0.0131711,-0.1213268,-0.285917,-0.0825687,
 -0.0090945,-0.0996492,0.043416,0.0042873,-0.0098531,0.0048915,-0.13261
 64,0.1108075,-0.0683457,0.0013188,-0.1570393,-0.0522869,-0.0073316,-0.
 0026203,-0.0041942,-0.0125647,0.0604814,0.0161951,-0.00168,0.0073467,-
 0.0160511,-0.0061515,-0.0020729,-0.0058385,0.1279745,-0.0063172,-0.067
 8172,-0.0082637,-0.0765574,0.0061991,-0.008746,-0.0086518,-0.0084368,0
 .1414669,-0.0598198,0.0418473,-0.0052662,0.0265629,0.0545575,-0.002926
 ,-0.0059451,-0.0023854,0.1412805,0.0824758,0.0325359,-0.0010652,0.0367
 587,-0.0284211,-0.0067767,-0.0008777,-0.0069261,0.1531013,0.2490574,-0
 .046382,-0.0019874,-0.1613218,0.0196774,-0.0158028,-0.0070922,-0.01173
 7,0.2462344\Polar=102.7440693,-8.4735495,79.08239,1.7967823,1.377822,4
 1.4351649\Quadrupole=1.1579227,1.2980491,-2.4559718,2.7124995,0.249031
 2,0.2635881\PG=CS [SG(C6H5N1)]\NImag=0\\0.58235150,0.08304241,0.412794
 15,0.02273192,0.01931726,0.04564904,-0.09404974,-0.01088885,-0.0037968
 4,0.66288417,-0.01678759,0.02470601,0.00052054,-0.07996965,0.69726214,
 -0.00405882,0.00072920,-0.00049637,0.01520859,0.02225236,0.13406063,-0
 .29008896,0.03995436,-0.00695708,-0.10973500,-0.06859373,-0.00446167,0
 .56688951,0.08636113,-0.12275908,-0.00047638,-0.06929462,-0.20136840,-
 0.00829776,-0.01109742,0.58287405,-0.00489602,-0.00211794,-0.04351637,
 -0.00449280,-0.00827297,-0.07025305,0.01424094,0.01881631,0.15170644,0
 .01793086,-0.01055235,0.00000077,-0.34160437,0.09694819,-0.00565626,-0
 .06674088,-0.01763473,-0.00331993,0.71984761,-0.02468623,0.00339679,-0
 .00092934,0.02326682,-0.15232898,-0.00327845,0.02245626,0.03263334,0.0
 0202287,0.05686103,0.66159293,-0.00062695,-0.00042938,0.00461878,-0.00
 892866,-0.00067209,-0.06032573,-0.00153938,0.00060472,0.00494435,0.023
 32268,0.02553605,0.13386983,-0.01451953,0.00364822,-0.00034714,-0.0029
 1120,0.03566359,0.00128544,0.02133986,-0.01741482,0.00014535,-0.136496
 53,0.07090613,0.00046004,0.71167725,0.00736777,-0.00409955,0.00008412,
 0.09481308,-0.01428230,0.00247408,-0.02457356,-0.03449406,-0.00219541,
 -0.01432318,-0.28138881,-0.01031802,-0.03550832,0.60616730,-0.00018194
 ,-0.00004745,-0.00013405,0.00391244,0.00038177,0.00568212,-0.00017259,
 -0.00194218,-0.00472668,-0.00332523,-0.00730317,-0.06091808,0.01918509
 ,0.02012570,0.12630798,0.02264659,-0.00536552,0.00051187,-0.05006963,0
 .00207585,-0.00160109,-0.02773611,0.05521985,0.00129373,0.05606918,-0.
 06167969,-0.00096428,-0.19450930,-0.02993962,-0.00613686,0.59265498,0.
 00418351,-0.00863314,-0.00029936,-0.01526891,0.00384378,-0.00027166,0.
 03928617,0.00498416,0.00138803,-0.01106191,-0.04591188,-0.00269187,-0.
 13122660,-0.20860546,-0.01130358,-0.07144171,0.71399047,0.00093597,-0.
 00063715,0.00144420,-0.00237142,0.00034188,-0.00226934,0.00058607,0.00
 195166,0.00512878,0.00128380,-0.00448239,0.00573409,-0.01063530,-0.007
 72071,-0.05933083,0.01344292,0.02372363,0.12445685,-0.04776550,0.04987
 277,-0.00012574,0.03301826,-0.01740317,0.00000927,-0.06417333,0.032573
 68,0.00138359,-0.02971631,0.03108009,0.00044936,-0.07871534,-0.0609847
 7,-0.00593345,-0.31632496,0.11077377,-0.00449685,0.51308201,0.07055753
 ,-0.02835383,0.00041910,-0.01744418,-0.03624935,-0.00271135,-0.0301915
 3,-0.24861812,-0.00933892,0.01594238,-0.02293946,-0.00030399,0.0107896
 0,0.04938473,0.00202190,0.07401630,-0.13831249,-0.00129874,-0.14666903
 ,0.43243095,0.00079293,-0.00031259,0.01842070,0.00000745,-0.00270989,0
 .01078554,-0.00140399,-0.00711870,-0.06275530,-0.00022295,0.00023149,-
 0.00339492,-0.00274574,-0.00051700,0.01233310,-0.00612935,0.00000150,-
 0.05033520,0.00904965,0.01077070,0.07389891,0.00229290,0.00118414,0.00
 022211,-0.07301519,0.06590950,0.00165767,0.00652284,-0.02393802,-0.001
 00985,-0.00095521,0.02907674,0.00107612,-0.00492157,0.00077656,-0.0004
 0826,-0.00057889,0.00067188,0.00000630,-0.00276187,-0.00394410,-0.0003
 9239,0.07238124,0.00197961,0.00168972,0.00025607,0.06630881,-0.3278457
 4,-0.01056617,0.00588680,-0.01683217,-0.00076210,-0.00137593,-0.002469
 97,-0.00038622,0.00139349,0.00128538,-0.00023093,-0.00046308,0.0011145
 7,0.00002928,-0.00264711,-0.00351387,-0.00039977,-0.07162731,0.3454768
 5,0.00025743,0.00022793,-0.00248001,0.00167540,-0.01058029,-0.03753554
 ,0.00031476,-0.00181710,0.00494629,-0.00027637,0.00069100,0.00515111,-
 0.00038086,-0.00025275,0.00757017,-0.00004410,0.00006943,0.00008804,-0
 .00033479,-0.00044564,0.00334727,-0.00148351,0.01172673,0.02485705,-0.
 00112184,-0.00113170,-0.00009449,-0.01749599,-0.02293319,-0.00178020,-
 0.00321111,0.00366521,-0.00025844,-0.21316185,-0.14069512,-0.01244330,
 0.00893368,0.00678557,0.00051525,0.00117998,0.00206871,-0.00006795,-0.
 00031322,0.00087390,0.00005880,0.00082965,0.00040537,0.00021767,0.2238
 6295,0.00017207,0.00048805,0.00002206,0.00859466,0.01068209,0.00059917
 ,0.00267221,-0.00000938,-0.00029215,-0.14061284,-0.18958568,-0.0117045
 0,-0.02435533,-0.01490899,-0.00165191,0.00181582,-0.00492171,-0.000407
 43,0.00149367,-0.00012943,0.00008610,-0.00029417,0.00066755,0.00023309
 ,0.15100234,0.19773498,-0.00003658,-0.00002406,0.00012598,-0.00037996,
 -0.00051607,0.00400013,-0.00030255,-0.00025702,0.00867478,-0.01243965,
 -0.01170741,-0.03900050,-0.00086781,-0.00055036,0.00283217,-0.00007918
 ,-0.00039849,0.00567784,0.00008633,0.00006418,-0.00087247,0.00018661,0
 .00025784,-0.00479697,0.01369378,0.01295395,0.02739183,0.00008572,0.00
 009404,0.00002090,0.00133637,0.00136621,-0.00010766,0.00105042,-0.0003
 8671,0.00005968,-0.00225141,-0.00110591,-0.00026862,-0.31946104,0.0790
 7380,-0.00653686,-0.01592835,0.00842246,-0.00032010,-0.00320452,-0.003
 26787,-0.00050920,-0.00012294,-0.00011558,0.00000487,0.00064758,0.0003
 8727,0.00015196,0.33698547,0.00008001,0.00024923,0.00003108,0.00050705
 ,-0.00545618,-0.00049509,0.00038334,-0.00104085,0.00001717,0.02954512,
 -0.00247802,0.00075946,0.07818752,-0.08347163,0.00063007,-0.02163874,0
 .00838930,-0.00055697,-0.00468964,-0.00144032,-0.00054464,0.00147802,-
 0.00014544,0.00006385,-0.00040478,0.00081575,0.00016235,-0.08426894,0.
 08362332,0.00002027,0.00003158,-0.00038482,-0.00014582,-0.00046470,0.0
 0606944,0.00009388,-0.00001007,-0.00111933,0.00109268,-0.00032478,0.00
 397804,-0.00657622,0.00066143,-0.03558780,-0.00165520,0.00050640,0.003
 65940,-0.00057235,-0.00049435,0.00704544,0.00007565,0.00000747,-0.0004
 0278,0.00011678,0.00019037,-0.00314948,0.00735034,-0.00030571,0.023635
 56,-0.00007486,0.00149828,0.00009980,-0.00112638,-0.00028369,-0.000030
 54,-0.00525767,0.00080904,-0.00038429,-0.00270996,-0.00320646,-0.00045
 515,0.00973084,-0.02351847,-0.00091275,-0.06842208,0.06417126,0.001675
 21,-0.00379075,0.02806824,0.00113579,0.00006045,0.00002253,0.00002047,
 0.00028098,-0.00107610,-0.00003559,0.00080255,0.00073722,0.00019166,0.
 07030570,0.00019733,-0.00030521,0.00003851,-0.00025967,0.00057104,0.00
 004367,-0.00026334,0.00130931,-0.00024526,-0.00374097,-0.00077505,-0.0
 0043905,0.00779358,-0.01579281,-0.00069245,0.05777571,-0.32518321,-0.0
 1083480,0.00544827,-0.00584815,-0.00003776,0.00002899,-0.00007686,0.00
 001937,0.00034358,-0.00083421,-0.00002205,-0.00008375,0.00098032,0.000
 20446,-0.06719384,0.34585886,0.00004202,0.00008453,-0.00100988,-0.0000
 2948,0.00004282,-0.00061825,-0.00043191,-0.00020733,0.00659737,-0.0004
 7889,-0.00042015,0.00609551,0.00047790,-0.00180006,0.00594272,0.001391
 16,-0.01060857,-0.03563211,0.00013118,0.00076239,-0.00062009,0.0000207
 5,0.00001914,-0.00048829,0.00002747,-0.00007227,-0.00006632,0.00015520
 ,0.00023351,-0.00367425,-0.00129628,0.01198057,0.02307266,-0.17768716,
 -0.15135578,-0.01226610,-0.00723131,0.00400768,-0.00046472,-0.02885957
 ,-0.03886258,-0.00276196,-0.00021114,-0.00227366,-0.00008186,-0.000147
 12,0.00003113,-0.00000484,0.00101861,-0.00057861,-0.00003864,0.0006655
 1,0.00126876,0.00035899,0.00026859,0.00023241,0.00002903,-0.00043080,0
 .00020038,0.00002265,0.00006015,0.00008381,0.00000831,0.00020118,-0.00
 004589,-0.00000914,0.21235306,-0.21246754,-0.27917314,-0.01898366,-0.0
 0036455,0.00046590,-0.00047800,0.02408044,0.00332121,0.00098035,0.0000
 0520,0.00025481,0.00004488,0.00012295,0.00020620,0.00001223,-0.0003751
 6,-0.00075438,-0.00010826,0.00115148,0.00358934,0.00055057,0.00067776,
 0.00064999,0.00006440,0.00002009,0.00000100,0.00003715,-0.00011500,-0.
 00002549,-0.00000211,-0.00002802,0.00009600,-0.00001458,0.18729235,0.2
 7136858,-0.01498025,-0.01682193,-0.02223720,-0.00065890,-0.00032334,0.
 01090044,0.00003352,-0.00124616,0.00037273,0.00001935,-0.00003573,-0.0
 0075247,-0.00000076,0.00000898,0.00002917,-0.00002960,-0.00011546,0.00
 137827,0.00035378,0.00055472,-0.00785298,0.00004881,0.00004865,-0.0002
 5633,0.00001464,0.00004353,-0.00081699,-0.00000052,0.00000492,-0.00006
 941,-0.00000835,-0.00001521,0.00040095,0.01520828,0.01789703,0.0189038
 2\\-0.00000395,0.00000024,-0.00000013,-0.00000220,-0.00000200,-0.00000
 017,0.00000188,0.00001446,0.00000071,0.00000800,-0.00001030,-0.0000001
 7,-0.00000846,0.00000534,-0.00000006,0.00001114,0.00001214,0.00000093,
 -0.00000339,-0.00001951,-0.00000099,-0.00000236,-0.00000020,-0.0000000
 9,-0.00000207,0.00000092,-0.00000003,-0.00000061,-0.00000055,-0.000000
 05,-0.00000093,-0.00000042,-0.00000005,0.00000294,-0.00000012,0.000000
 10\\\@


 I DON'T EXACTLY UNDERSTAND WHAT YOU ARE SAYING,
 BUT YOU ARE ABSOLUTELY RIGHT.
     M.S.GORDON, IN A NDSU FACULTY MEETING
 Job cpu time:       0 days  3 hours 11 minutes 55.7 seconds.
 Elapsed time:       0 days  0 hours  6 minutes  3.4 seconds.
 File lengths (MBytes):  RWF=    122 Int=      0 D2E=      0 Chk=      8 Scr=      1
 Normal termination of Gaussian 16 at Mon Mar  2 00:51:24 2020.
