 Entering Gaussian System, Link 0=g16
 Initial command:
 /opt/g16/l1.exe "/scratch/alongd/g16/a4345-34519/Gau-16324.inp" -scrdir="/scratch/alongd/g16/a4345-34519/"
 Entering Link 1 = /opt/g16/l1.exe PID=     16326.
  
 Copyright (c) 1988-2017, Gaussian, Inc.  All Rights Reserved.
  
 This is part of the Gaussian(R) 16 program.  It is based on
 the Gaussian(R) 09 system (copyright 2009, Gaussian, Inc.),
 the Gaussian(R) 03 system (copyright 2003, Gaussian, Inc.),
 the Gaussian(R) 98 system (copyright 1998, Gaussian, Inc.),
 the Gaussian(R) 94 system (copyright 1995, Gaussian, Inc.),
 the Gaussian 92(TM) system (copyright 1992, Gaussian, Inc.),
 the Gaussian 90(TM) system (copyright 1990, Gaussian, Inc.),
 the Gaussian 88(TM) system (copyright 1988, Gaussian, Inc.),
 the Gaussian 86(TM) system (copyright 1986, Carnegie Mellon
 University), and the Gaussian 82(TM) system (copyright 1983,
 Carnegie Mellon University). Gaussian is a federally registered
 trademark of Gaussian, Inc.
  
 This software contains proprietary and confidential information,
 including trade secrets, belonging to Gaussian, Inc.
  
 This software is provided under written license and may be
 used, copied, transmitted, or stored only in accord with that
 written license.
  
 The following legend is applicable only to US Government
 contracts under FAR:
  
                    RESTRICTED RIGHTS LEGEND
  
 Use, reproduction and disclosure by the US Government is
 subject to restrictions as set forth in subparagraphs (a)
 and (c) of the Commercial Computer Software - Restricted
 Rights clause in FAR 52.227-19.
  
 Gaussian, Inc.
 340 Quinnipiac St., Bldg. 40, Wallingford CT 06492
  
  
 ---------------------------------------------------------------
 Warning -- This program may not be used in any manner that
 competes with the business of Gaussian, Inc. or will provide
 assistance to any competitor of Gaussian, Inc.  The licensee
 of this program is prohibited from giving any competitor of
 Gaussian, Inc. access to this program.  By using this program,
 the user acknowledges that Gaussian, Inc. is engaged in the
 business of creating and licensing software in the field of
 computational chemistry and represents and warrants to the
 licensee that it is not a competitor of Gaussian, Inc. and that
 it will not use this program in any manner prohibited above.
 ---------------------------------------------------------------
  

 Cite this work as:
 Gaussian 16, Revision B.01,
 M. J. Frisch, G. W. Trucks, H. B. Schlegel, G. E. Scuseria, 
 M. A. Robb, J. R. Cheeseman, G. Scalmani, V. Barone, 
 G. A. Petersson, H. Nakatsuji, X. Li, M. Caricato, A. V. Marenich, 
 J. Bloino, B. G. Janesko, R. Gomperts, B. Mennucci, H. P. Hratchian, 
 J. V. Ortiz, A. F. Izmaylov, J. L. Sonnenberg, D. Williams-Young, 
 F. Ding, F. Lipparini, F. Egidi, J. Goings, B. Peng, A. Petrone, 
 T. Henderson, D. Ranasinghe, V. G. Zakrzewski, J. Gao, N. Rega, 
 G. Zheng, W. Liang, M. Hada, M. Ehara, K. Toyota, R. Fukuda, 
 J. Hasegawa, M. Ishida, T. Nakajima, Y. Honda, O. Kitao, H. Nakai, 
 T. Vreven, K. Throssell, J. A. Montgomery, Jr., J. E. Peralta, 
 F. Ogliaro, M. J. Bearpark, J. J. Heyd, E. N. Brothers, K. N. Kudin, 
 V. N. Staroverov, T. A. Keith, R. Kobayashi, J. Normand, 
 K. Raghavachari, A. P. Rendell, J. C. Burant, S. S. Iyengar, 
 J. Tomasi, M. Cossi, J. M. Millam, M. Klene, C. Adamo, R. Cammi, 
 J. W. Ochterski, R. L. Martin, K. Morokuma, O. Farkas, 
 J. B. Foresman, and D. J. Fox, Gaussian, Inc., Wallingford CT, 2016.
 
 ******************************************
 Gaussian 16:  ES64L-G16RevB.01 20-Dec-2017
                 1-Mar-2020 
 ******************************************
 %chk=check.chk
 %mem=14336mb
 %NProcShared=36
 Will use up to   36 processors via shared memory.
 ----------------------------------------------------------------------
 #P guess=read uwb97xd/def2tzvp freq iop(7/33=1) scf=(tight, direct) in
 tegral=(grid=ultrafine, Acc2E=12) scf=xqc iop(2/9=2000)
 ----------------------------------------------------------------------
 1/10=4,30=1,38=1/1,3;
 2/9=2000,12=2,17=6,18=5,40=1/2;
 3/5=44,7=101,11=2,25=1,27=12,30=1,71=2,74=-58,75=-5,116=2,140=1/1,2,3;
 4/5=1/1;
 5/5=2,8=3,13=1,32=2,38=6,87=12,98=1/2,8;
 8/6=4,10=90,11=11,87=12/1;
 11/6=1,8=1,9=11,15=111,16=1,87=12/1,2,10;
 10/6=1,87=12/2;
 6/7=2,8=2,9=2,10=2,28=1,87=12/1;
 7/8=1,10=1,25=1,33=1,87=12/1,2,3,16;
 1/10=4,30=1/3;
 99//99;
 Leave Link    1 at Sun Mar  1 23:28:53 2020, MaxMem=  1879048192 cpu:               4.1 elap:               0.1
 (Enter /opt/g16/l101.exe)
 ----
 name
 ----
 Symbolic Z-matrix:
 Charge =  0 Multiplicity = 2
 N                     2.41574   0.57534   0.17236 
 C                     1.12588   0.26835   0.08033 
 C                     0.18306   1.33573   0.01044 
 H                     0.57073   2.34573   0.03625 
 C                    -1.16324   1.08185  -0.08575 
 C                    -1.63238  -0.23282  -0.11679 
 C                    -0.73438  -1.29985  -0.05012 
 C                     0.6155   -1.06423   0.04637 
 H                     2.96923  -0.28085   0.21386 
 H                    -1.86602   1.90373  -0.1379 
 H                    -2.69458  -0.42623  -0.19269 
 H                    -1.10558  -2.31666  -0.07472 
 H                     1.31604  -1.89009   0.09836 
 
 ITRead=  0  0  0  0  0  0  0  0  0  0  0  0  0
 MicOpt= -1 -1 -1 -1 -1 -1 -1 -1 -1 -1 -1 -1 -1
 NAtoms=     13 NQM=       13 NQMF=       0 NMMI=      0 NMMIF=      0
                NMic=       0 NMicF=      0.
                    Isotopes and Nuclear Properties:
 (Nuclear quadrupole moments (NQMom) in fm**2, nuclear magnetic moments (NMagM)
  in nuclear magnetons)

  Atom         1           2           3           4           5           6           7           8           9          10
 IAtWgt=          14          12          12           1          12          12          12          12           1           1
 AtmWgt=  14.0030740  12.0000000  12.0000000   1.0078250  12.0000000  12.0000000  12.0000000  12.0000000   1.0078250   1.0078250
 NucSpn=           2           0           0           1           0           0           0           0           1           1
 AtZEff=  -0.0000000  -0.0000000  -0.0000000  -0.0000000  -0.0000000  -0.0000000  -0.0000000  -0.0000000  -0.0000000  -0.0000000
 NQMom=    2.0440000   0.0000000   0.0000000   0.0000000   0.0000000   0.0000000   0.0000000   0.0000000   0.0000000   0.0000000
 NMagM=    0.4037610   0.0000000   0.0000000   2.7928460   0.0000000   0.0000000   0.0000000   0.0000000   2.7928460   2.7928460
 AtZNuc=   7.0000000   6.0000000   6.0000000   1.0000000   6.0000000   6.0000000   6.0000000   6.0000000   1.0000000   1.0000000

  Atom        11          12          13
 IAtWgt=           1           1           1
 AtmWgt=   1.0078250   1.0078250   1.0078250
 NucSpn=           1           1           1
 AtZEff=  -0.0000000  -0.0000000  -0.0000000
 NQMom=    0.0000000   0.0000000   0.0000000
 NMagM=    2.7928460   2.7928460   2.7928460
 AtZNuc=   1.0000000   1.0000000   1.0000000
 Leave Link  101 at Sun Mar  1 23:28:53 2020, MaxMem=  1879048192 cpu:              10.4 elap:               0.3
 (Enter /opt/g16/l103.exe)

 GradGradGradGradGradGradGradGradGradGradGradGradGradGradGradGradGradGrad
 Berny optimization.
 Initialization pass.
 Trust Radius=3.00D-01 FncErr=1.00D-07 GrdErr=1.00D-07 EigMax=2.50D+02 EigMin=1.00D-04
 Number of steps in this run=      2 maximum allowed number of steps=      2.
 GradGradGradGradGradGradGradGradGradGradGradGradGradGradGradGradGradGrad

 Leave Link  103 at Sun Mar  1 23:28:53 2020, MaxMem=  1879048192 cpu:               1.6 elap:               0.0
 (Enter /opt/g16/l202.exe)
                          Input orientation:                          
 ---------------------------------------------------------------------
 Center     Atomic      Atomic             Coordinates (Angstroms)
 Number     Number       Type             X           Y           Z
 ---------------------------------------------------------------------
      1          7           0        2.415741    0.575336    0.172363
      2          6           0        1.125883    0.268351    0.080331
      3          6           0        0.183058    1.335734    0.010444
      4          1           0        0.570728    2.345731    0.036246
      5          6           0       -1.163239    1.081846   -0.085749
      6          6           0       -1.632380   -0.232822   -0.116786
      7          6           0       -0.734381   -1.299846   -0.050119
      8          6           0        0.615504   -1.064231    0.046368
      9          1           0        2.969228   -0.280847    0.213855
     10          1           0       -1.866021    1.903726   -0.137896
     11          1           0       -2.694582   -0.426226   -0.192694
     12          1           0       -1.105584   -2.316662   -0.074724
     13          1           0        1.316041   -1.890089    0.098362
 ---------------------------------------------------------------------
                    Distance matrix (angstroms):
                    1          2          3          4          5
     1  N    0.000000
     2  C    1.329076   0.000000
     3  C    2.364169   1.425872   0.000000
     4  H    2.560644   2.150732   1.082150   0.000000
     5  C    3.623848   2.435043   1.373400   2.149170   0.000000
     6  C    4.138117   2.810346   2.402576   3.395002   1.396212
     7  C    3.672748   2.436563   2.791352   3.873112   2.420257
     8  C    2.438218   1.427380   2.438879   3.410271   2.790525
     9  H    1.020352   1.928048   3.227608   3.561356   4.361649
    10  H    4.493814   3.416660   2.131512   2.482628   1.082640
    11  H    5.220325   3.892677   3.380322   4.289337   2.151913
    12  H    4.563380   3.418447   3.873996   4.955829   3.399015
    13  H    2.700581   2.166875   3.420134   4.301339   3.874677
                    6          7          8          9         10
     6  C    0.000000
     7  C    1.396204   0.000000
     8  C    2.402258   1.373686   0.000000
     9  H    4.613721   3.850294   2.486314   0.000000
    10  H    2.149389   3.398704   3.873072   5.317492   0.000000
    11  H    1.082331   2.150797   3.379478   5.680243   2.473498
    12  H    2.149808   1.082734   2.131992   4.564199   4.288815
    13  H    3.389101   2.138846   1.084203   2.309984   4.957254
                   11         12         13
    11  H    0.000000
    12  H    2.472363   0.000000
    13  H    4.279335   2.464993   0.000000
 Stoichiometry    C6H6N(2)
 Framework group  CS[SG(C6H6N)]
 Deg. of freedom    23
 Full point group                 CS      NOp   2
 Largest Abelian subgroup         CS      NOp   2
 Largest concise Abelian subgroup C1      NOp   1
                         Standard orientation:                         
 ---------------------------------------------------------------------
 Center     Atomic      Atomic             Coordinates (Angstroms)
 Number     Number       Type             X           Y           Z
 ---------------------------------------------------------------------
      1          7           0        1.908086   -1.359120    0.000000
      2          6           0        0.810480   -0.609651    0.000000
      3          6           0        0.963201    0.808018   -0.000000
      4          1           0        1.971575    1.200737   -0.000000
      5          6           0       -0.133247    1.635080   -0.000000
      6          6           0       -1.421860    1.097599   -0.000000
      7          6           0       -1.604573   -0.286598   -0.000000
      8          6           0       -0.519213   -1.128624    0.000000
      9          1           0        1.648705   -2.345953    0.000000
     10          1           0       -0.000000    2.709488   -0.000000
     11          1           0       -2.281828    1.754787   -0.000000
     12          1           0       -2.606873   -0.696116   -0.000000
     13          1           0       -0.656916   -2.204047    0.000000
 ---------------------------------------------------------------------
 Rotational constants (GHZ):           5.5990934           2.7868411           1.8607090
 Leave Link  202 at Sun Mar  1 23:28:54 2020, MaxMem=  1879048192 cpu:               4.8 elap:               0.2
 (Enter /opt/g16/l301.exe)
 Standard basis: def2TZVP (5D, 7F)
 Ernie: Thresh=  0.10000D-02 Tol=  0.10000D-05 Strict=F.
 There are   205 symmetry adapted cartesian basis functions of A'  symmetry.
 There are    83 symmetry adapted cartesian basis functions of A"  symmetry.
 There are   177 symmetry adapted basis functions of A'  symmetry.
 There are    76 symmetry adapted basis functions of A"  symmetry.
   253 basis functions,   405 primitive gaussians,   288 cartesian basis functions
    25 alpha electrons       24 beta electrons
       nuclear repulsion energy       262.2145123048 Hartrees.
 IExCor= 4639 DFT=T Ex+Corr=wB97XD ExCW=0 ScaHFX=  1.000000
 ScaDFX=  1.000000  1.000000  1.000000  1.000000 ScalE2=  1.000000  1.000000
 IRadAn=      5 IRanWt=     -1 IRanGd=            0 ICorTp=0 IEmpDi=121
 HFx  wShort=  0.000000 wLong=  0.200000 cFull=  0.222036 cShort=  0.000000 cLong=  0.777964
 DFx  wShort=  0.000000 wLong=  0.200000 cFull=  0.000000 cShort=  0.000000 cLong=  1.000000
 NAtoms=   13 NActive=   13 NUniq=   13 SFac= 1.00D+00 NAtFMM=   60 NAOKFM=F Big=F
 Integral buffers will be    131072 words long.
 Raffenetti 2 integral format.
 Two-electron integral symmetry is turned on.
 R6Disp:  Grimme-D2 Dispersion energy=       -0.0050108666 Hartrees.
 Nuclear repulsion after empirical dispersion term =      262.2095014382 Hartrees.
 Leave Link  301 at Sun Mar  1 23:28:54 2020, MaxMem=  1879048192 cpu:               3.2 elap:               0.1
 (Enter /opt/g16/l302.exe)
 NPDir=0 NMtPBC=     1 NCelOv=     1 NCel=       1 NClECP=     1 NCelD=      1
         NCelK=      1 NCelE2=     1 NClLst=     1 CellRange=     0.0.
 One-electron integrals computed using PRISM.
 One-electron integral symmetry used in STVInt
   2 Symmetry operations used in ECPInt.
 ECPInt:  NShTT=    5151 NPrTT=   15748 LenC2=    5095 LenP2D=   12865.
 LDataN:  DoStor=T MaxTD1= 6 Len=  172
 NBasis=   253 RedAO= T EigKep=  1.04D-05  NBF=   177    76
 NBsUse=   253 1.00D-06 EigRej= -1.00D+00 NBFU=   177    76
 Precomputing XC quadrature grid using
 IXCGrd= 4 IRadAn=           5 IRanWt=          -1 IRanGd=           0 AccXCQ= 1.00D-12.
 Generated NRdTot=       0 NPtTot=           0 NUsed=           0 NTot=          32
 NSgBfM=   287   287   287   287   287 MxSgAt=    13 MxSgA2=    13.
 Leave Link  302 at Sun Mar  1 23:28:54 2020, MaxMem=  1879048192 cpu:              14.5 elap:               0.4
 (Enter /opt/g16/l303.exe)
 DipDrv:  MaxL=1.
 Leave Link  303 at Sun Mar  1 23:28:55 2020, MaxMem=  1879048192 cpu:              14.0 elap:               0.4
 (Enter /opt/g16/l401.exe)
 Initial guess from the checkpoint file:  "check.chk"
 B after Tr=     0.000000   -0.000000    0.000000
         Rot=   -0.000000    0.894743    0.446582   -0.000000 Ang= 180.00 deg.
 Guess basis will be translated and rotated to current coordinates.
 JPrj=2 DoOrth=T DoCkMO=T.
 Initial guess orbital symmetries:
 Alpha Orbitals:
       Occupied  (A') (A') (A') (A') (A') (A') (A') (A') (A') (A')
                 (A') (A') (A') (A') (A') (A') (A') (A') (A") (A')
                 (A') (A") (A') (A") (A")
       Virtual   (A") (A") (A') (A') (A') (A') (A') (A') (A') (A")
                 (A') (A') (A") (A') (A') (A') (A") (A") (A') (A')
                 (A') (A") (A') (A") (A') (A') (A') (A') (A") (A')
                 (A') (A") (A') (A') (A') (A') (A') (A') (A') (A")
                 (A') (A') (A') (A") (A') (A') (A') (A') (A') (A")
                 (A') (A') (A") (A") (A') (A") (A') (A') (A') (A")
                 (A') (A') (A') (A") (A") (A') (A') (A') (A") (A')
                 (A') (A") (A') (A") (A') (A') (A') (A') (A") (A')
                 (A') (A') (A") (A") (A') (A") (A') (A') (A") (A')
                 (A') (A") (A") (A') (A') (A') (A") (A') (A") (A')
                 (A") (A') (A") (A") (A') (A") (A') (A') (A') (A')
                 (A') (A') (A') (A') (A") (A') (A") (A') (A") (A')
                 (A') (A') (A') (A') (A") (A') (A') (A') (A') (A")
                 (A") (A') (A") (A') (A") (A') (A") (A') (A') (A")
                 (A') (A') (A") (A') (A") (A') (A") (A") (A') (A')
                 (A") (A') (A") (A') (A') (A") (A') (A') (A') (A")
                 (A') (A") (A") (A") (A') (A') (A') (A') (A") (A')
                 (A") (A') (A') (A') (A") (A") (A') (A') (A') (A')
                 (A') (A') (A") (A") (A') (A') (A') (A") (A') (A')
                 (A") (A") (A') (A') (A") (A') (A") (A') (A') (A")
                 (A') (A") (A') (A") (A') (A') (A") (A') (A') (A')
                 (A') (A') (A") (A') (A') (A') (A') (A') (A') (A')
                 (A') (A') (A') (A') (A') (A') (A') (A')
 Beta  Orbitals:
       Occupied  (A') (A') (A') (A') (A') (A') (A') (A') (A') (A')
                 (A') (A') (A') (A') (A') (A') (A') (A') (A") (A')
                 (A') (A") (A') (A")
       Virtual   (A") (A") (A") (A') (A') (A') (A') (A') (A') (A')
                 (A") (A') (A') (A") (A') (A') (A') (A") (A') (A")
                 (A') (A') (A") (A') (A") (A') (A') (A') (A') (A")
                 (A') (A') (A') (A") (A') (A') (A') (A') (A') (A')
                 (A") (A') (A') (A') (A") (A') (A') (A') (A') (A')
                 (A") (A') (A') (A") (A") (A') (A') (A") (A') (A')
                 (A') (A') (A") (A') (A") (A') (A") (A') (A') (A")
                 (A') (A') (A") (A') (A") (A') (A') (A') (A') (A")
                 (A') (A') (A') (A") (A") (A') (A') (A") (A') (A")
                 (A') (A') (A") (A") (A') (A') (A') (A") (A') (A")
                 (A') (A") (A') (A") (A") (A') (A") (A') (A') (A')
                 (A') (A') (A') (A') (A') (A") (A') (A") (A') (A")
                 (A') (A') (A') (A') (A') (A") (A') (A') (A') (A')
                 (A") (A") (A') (A") (A') (A") (A') (A") (A') (A')
                 (A") (A') (A') (A") (A') (A") (A') (A") (A") (A')
                 (A') (A") (A') (A") (A') (A') (A") (A') (A') (A')
                 (A") (A') (A") (A") (A") (A') (A') (A') (A') (A")
                 (A') (A") (A') (A') (A') (A") (A') (A") (A') (A')
                 (A') (A') (A') (A") (A") (A') (A') (A') (A") (A')
                 (A') (A") (A") (A') (A') (A") (A') (A") (A') (A')
                 (A") (A') (A") (A') (A") (A') (A') (A") (A') (A')
                 (A') (A') (A') (A") (A') (A') (A') (A') (A') (A')
                 (A') (A') (A') (A') (A') (A') (A') (A') (A')
 The electronic state of the initial guess is 2-A".
 Initial guess <Sx>= 0.0000 <Sy>= 0.0000 <Sz>= 0.5000 <S**2>= 0.8078 S= 0.5285
 Leave Link  401 at Sun Mar  1 23:29:00 2020, MaxMem=  1879048192 cpu:             181.5 elap:               5.2
 (Enter /opt/g16/l502.exe)
 Integral symmetry usage will be decided dynamically.
 UHF open shell SCF:
 Using DIIS extrapolation, IDIIS=  1040.
 NGot=  1879048192 LenX=  1878868665 LenY=  1878785280
 Requested convergence on RMS density matrix=1.00D-08 within  32 cycles.
 Requested convergence on MAX density matrix=1.00D-06.
 Requested convergence on             energy=1.00D-06.
 No special actions if energy rises.
 Fock matrices will be formed incrementally for  20 cycles.

 Cycle   1  Pass 1  IDiag  1:
 FoFJK:  IHMeth= 1 ICntrl=       0 DoSepK=T KAlg= 0 I1Cent=           0 FoldK=F
 IRaf=         1 NMat=       1 IRICut=       1 DoRegI=T DoRafI=F ISym2E= 1 IDoP0=0 IntGTp=1.
 FoFCou: FMM=F IPFlag=           0 FMFlag=      100000 FMFlg1=           0
         NFxFlg=           0 DoJE=T BraDBF=F KetDBF=F FulRan=T
         wScrn=  0.000000 ICntrl=       500 IOpCl=  0 I1Cent=           0 NGrid=           0
         NMat0=    1 NMatS0=      1 NMatT0=    0 NMatD0=    1 NMtDS0=    0 NMtDT0=    0
 Petite list used in FoFCou.
 E= -286.953780398148    
 DIIS: error= 3.13D-06 at cycle   1 NSaved=   1.
 NSaved= 1 IEnMin= 1 EnMin= -286.953780398148     IErMin= 1 ErrMin= 3.13D-06
 ErrMax= 3.13D-06  0.00D+00 EMaxC= 1.00D-01 BMatC= 8.61D-09 BMatP= 8.61D-09
 IDIUse=1 WtCom= 1.00D+00 WtEn= 0.00D+00
 Coeff-Com:  0.100D+01
 Coeff:      0.100D+01
 Gap=     0.337 Goal=   None    Shift=    0.000
 Gap=     0.296 Goal=   None    Shift=    0.000
 RMSDP=6.29D-07 MaxDP=1.73D-05              OVMax= 1.20D-05

 Cycle   2  Pass 1  IDiag  1:
 RMSU=  6.29D-07    CP:  1.00D+00
 E= -286.953780399933     Delta-E=       -0.000000001785 Rises=F Damp=F
 DIIS: error= 3.71D-07 at cycle   2 NSaved=   2.
 NSaved= 2 IEnMin= 2 EnMin= -286.953780399933     IErMin= 2 ErrMin= 3.71D-07
 ErrMax= 3.71D-07  0.00D+00 EMaxC= 1.00D-01 BMatC= 1.36D-10 BMatP= 8.61D-09
 IDIUse=1 WtCom= 1.00D+00 WtEn= 0.00D+00
 Coeff-Com: -0.960D-01 0.110D+01
 Coeff:     -0.960D-01 0.110D+01
 Gap=     0.337 Goal=   None    Shift=    0.000
 Gap=     0.296 Goal=   None    Shift=    0.000
 RMSDP=6.85D-08 MaxDP=3.52D-06 DE=-1.78D-09 OVMax= 1.99D-06

 Cycle   3  Pass 1  IDiag  1:
 RMSU=  3.80D-08    CP:  1.00D+00  1.09D+00
 E= -286.953780399978     Delta-E=       -0.000000000045 Rises=F Damp=F
 DIIS: error= 2.51D-07 at cycle   3 NSaved=   3.
 NSaved= 3 IEnMin= 3 EnMin= -286.953780399978     IErMin= 3 ErrMin= 2.51D-07
 ErrMax= 2.51D-07  0.00D+00 EMaxC= 1.00D-01 BMatC= 2.38D-11 BMatP= 1.36D-10
 IDIUse=1 WtCom= 1.00D+00 WtEn= 0.00D+00
 Coeff-Com: -0.372D-01 0.345D+00 0.692D+00
 Coeff:     -0.372D-01 0.345D+00 0.692D+00
 Gap=     0.337 Goal=   None    Shift=    0.000
 Gap=     0.296 Goal=   None    Shift=    0.000
 RMSDP=1.21D-08 MaxDP=7.37D-07 DE=-4.49D-11 OVMax= 1.48D-06

 Cycle   4  Pass 1  IDiag  1:
 RMSU=  1.13D-08    CP:  1.00D+00  1.09D+00  9.19D-01
 E= -286.953780399979     Delta-E=       -0.000000000001 Rises=F Damp=F
 DIIS: error= 9.46D-08 at cycle   4 NSaved=   4.
 NSaved= 4 IEnMin= 4 EnMin= -286.953780399979     IErMin= 4 ErrMin= 9.46D-08
 ErrMax= 9.46D-08  0.00D+00 EMaxC= 1.00D-01 BMatC= 4.77D-12 BMatP= 2.38D-11
 IDIUse=1 WtCom= 1.00D+00 WtEn= 0.00D+00
 Coeff-Com:  0.205D-02-0.534D-01 0.267D+00 0.784D+00
 Coeff:      0.205D-02-0.534D-01 0.267D+00 0.784D+00
 Gap=     0.337 Goal=   None    Shift=    0.000
 Gap=     0.296 Goal=   None    Shift=    0.000
 RMSDP=7.86D-09 MaxDP=5.37D-07 DE=-9.09D-13 OVMax= 8.14D-07

 SCF Done:  E(UwB97XD) =  -286.953780400     A.U. after    4 cycles
            NFock=  4  Conv=0.79D-08     -V/T= 2.0048
 <Sx>= 0.0000 <Sy>= 0.0000 <Sz>= 0.5000 <S**2>= 0.8078 S= 0.5285
 <L.S>= 0.000000000000E+00
 KE= 2.855939808689D+02 PE=-1.190960898994D+03 EE= 3.562036362864D+02
 Annihilation of the first spin contaminant:
 S**2 before annihilation     0.8078,   after     0.7522
 Leave Link  502 at Sun Mar  1 23:30:00 2020, MaxMem=  1879048192 cpu:            2148.3 elap:              59.9
 (Enter /opt/g16/l508.exe)
 QCSCF skips out because SCF is already converged.
 Leave Link  508 at Sun Mar  1 23:30:00 2020, MaxMem=  1879048192 cpu:               1.6 elap:               0.1
 (Enter /opt/g16/l801.exe)
 DoSCS=F DFT=T ScalE2(SS,OS)=  1.000000  1.000000
 Range of M.O.s used for correlation:     1   253
 NBasis=   253 NAE=    25 NBE=    24 NFC=     0 NFV=     0
 NROrb=    253 NOA=    25 NOB=    24 NVA=   228 NVB=   229

 **** Warning!!: The largest alpha MO coefficient is  0.68891907D+02


 **** Warning!!: The largest beta MO coefficient is  0.69879902D+02

 Leave Link  801 at Sun Mar  1 23:30:00 2020, MaxMem=  1879048192 cpu:               2.4 elap:               0.1
 (Enter /opt/g16/l1101.exe)
 Using compressed storage, NAtomX=    13.
 Will process     14 centers per pass.
   2 Symmetry operations used in ECPInt.
 ECPInt:  NShTT=    5151 NPrTT=   15748 LenC2=    5095 LenP2D=   12865.
 LDataN:  DoStor=T MaxTD1= 7 Len=  274
 Number of processors reduced to  31 by ecpmxn.
 R6Disp: Adding Grimme-D2 dispersion energy 1st derivatives to the gradient.
 Leave Link 1101 at Sun Mar  1 23:30:01 2020, MaxMem=  1879048192 cpu:              29.9 elap:               0.9
 (Enter /opt/g16/l1102.exe)
 Symmetrizing basis deriv contribution to polar:
 IMax=3 JMax=2 DiffMx= 0.00D+00
 Leave Link 1102 at Sun Mar  1 23:30:01 2020, MaxMem=  1879048192 cpu:               6.6 elap:               0.2
 (Enter /opt/g16/l1110.exe)
 Forming Gx(P) for the SCF density, NAtomX=    13.
 Integral derivatives from FoFJK, PRISM(SPDF).
 Do as many integral derivatives as possible in FoFJK.
 G2DrvN: MDV=    1879047042.
 G2DrvN: will do    14 centers at a time, making    1 passes.
 Calling FoFCou, ICntrl=  3107 FMM=F I1Cent=   0 AccDes= 1.00D-12.
 FoFJK:  IHMeth= 1 ICntrl=    3107 DoSepK=T KAlg= 0 I1Cent=           0 FoldK=F
 IRaf=         1 NMat=       1 IRICut=       1 DoRegI=T DoRafI=F ISym2E= 1 IDoP0=0 IntGTp=1.
 FoFCou: FMM=F IPFlag=           0 FMFlag=      100000 FMFlg1=           0
         NFxFlg=           0 DoJE=F BraDBF=F KetDBF=F FulRan=T
         wScrn=  0.000000 ICntrl=      3507 IOpCl=  0 I1Cent=           0 NGrid=           0
         NMat0=    1 NMatS0=      1 NMatT0=    0 NMatD0=    1 NMtDS0=    0 NMtDT0=    0
 Petite list used in FoFCou.
 End of G2Drv F.D. properties file   721 does not exist.
 End of G2Drv F.D. properties file   722 does not exist.
 End of G2Drv F.D. properties file   788 does not exist.
 Leave Link 1110 at Sun Mar  1 23:30:46 2020, MaxMem=  1879048192 cpu:            1600.8 elap:              44.5
 (Enter /opt/g16/l1002.exe)
 Minotr:  UHF open shell wavefunction.
          IDoAtm=1111111111111
          Direct CPHF calculation.
          Differentiating once with respect to electric field.
                with respect to dipole field.
          Differentiating once with respect to nuclear coordinates.
          Using symmetry in CPHF.
          Requested convergence is 1.0D-08 RMS, and 1.0D-07 maximum.
          Secondary convergence is 1.0D-12 RMS, and 1.0D-12 maximum.
          NewPWx=T KeepS1=F KeepF1=F KeepIn=T MapXYZ=F SortEE=F KeepMc=T.
         3924 words used for storage of precomputed grid.
 Keep R1 and R2 ints in memory in symmetry-blocked form, NReq=1562402839.
 FoFCou: FMM=F IPFlag=           0 FMFlag=           0 FMFlg1=           0
         NFxFlg=           0 DoJE=F BraDBF=F KetDBF=F FulRan=T
         wScrn=  0.000000 ICntrl=       600 IOpCl=  0 I1Cent=           0 NGrid=           0
         NMat0=    1 NMatS0=  32131 NMatT0=    0 NMatD0=    1 NMtDS0=    0 NMtDT0=    0
 Petite list used in FoFCou.
          MDV=    1879048192 using IRadAn=       1.
          Solving linear equations simultaneously, MaxMat=       0.
          There are    42 degrees of freedom in the 1st order CPHF.  IDoFFX=6 NUNeed=     3.
     39 vectors produced by pass  0 Test12= 2.67D-14 2.38D-09 XBig12= 1.08D+02 5.21D+00.
 AX will form    39 AO Fock derivatives at one time.
     39 vectors produced by pass  1 Test12= 2.67D-14 2.38D-09 XBig12= 1.30D+01 5.48D-01.
     39 vectors produced by pass  2 Test12= 2.67D-14 2.38D-09 XBig12= 8.31D-01 2.44D-01.
     39 vectors produced by pass  3 Test12= 2.67D-14 2.38D-09 XBig12= 1.55D-02 2.98D-02.
     39 vectors produced by pass  4 Test12= 2.67D-14 2.38D-09 XBig12= 1.18D-04 2.19D-03.
     39 vectors produced by pass  5 Test12= 2.67D-14 2.38D-09 XBig12= 1.10D-06 1.76D-04.
     39 vectors produced by pass  6 Test12= 2.67D-14 2.38D-09 XBig12= 1.03D-08 1.25D-05.
     30 vectors produced by pass  7 Test12= 2.67D-14 2.38D-09 XBig12= 1.03D-10 1.07D-06.
     10 vectors produced by pass  8 Test12= 2.67D-14 2.38D-09 XBig12= 1.20D-12 1.17D-07.
      3 vectors produced by pass  9 Test12= 2.67D-14 2.38D-09 XBig12= 1.04D-14 1.38D-08.
 InvSVY:  IOpt=1 It=  1 EMax= 7.11D-15
 Solved reduced A of dimension   316 with    42 vectors.
 FullF1:  Do perturbations      1 to       3.
 Isotropic polarizability for W=    0.000000       76.09 Bohr**3.
 End of Minotr F.D. properties file   721 does not exist.
 End of Minotr F.D. properties file   722 does not exist.
 End of Minotr F.D. properties file   788 does not exist.
 Leave Link 1002 at Sun Mar  1 23:33:10 2020, MaxMem=  1879048192 cpu:            5174.4 elap:             143.8
 (Enter /opt/g16/l601.exe)
 Copying SCF densities to generalized density rwf, IOpCl= 1 IROHF=0.

 **********************************************************************

            Population analysis using the SCF Density.

 **********************************************************************

 Orbital symmetries:
 Alpha Orbitals:
       Occupied  (A') (A') (A') (A') (A') (A') (A') (A') (A') (A')
                 (A') (A') (A') (A') (A') (A') (A') (A') (A") (A')
                 (A') (A") (A') (A") (A")
       Virtual   (A") (A") (A') (A') (A') (A') (A') (A') (A') (A")
                 (A') (A') (A") (A') (A') (A') (A") (A") (A') (A')
                 (A') (A") (A') (A") (A') (A') (A') (A') (A") (A')
                 (A') (A") (A') (A') (A') (A') (A') (A') (A') (A")
                 (A') (A') (A') (A") (A') (A') (A') (A') (A') (A")
                 (A') (A') (A") (A") (A') (A") (A') (A') (A') (A")
                 (A') (A') (A') (A") (A") (A') (A') (A') (A") (A')
                 (A') (A") (A') (A") (A') (A') (A') (A') (A") (A')
                 (A') (A') (A") (A") (A') (A") (A') (A') (A") (A')
                 (A') (A") (A") (A') (A') (A') (A") (A') (A") (A')
                 (A") (A') (A") (A") (A') (A") (A') (A') (A') (A')
                 (A') (A') (A') (A') (A") (A') (A") (A') (A") (A')
                 (A') (A') (A') (A') (A") (A') (A') (A') (A') (A")
                 (A") (A') (A") (A') (A") (A') (A") (A') (A') (A")
                 (A') (A') (A") (A') (A") (A') (A") (A") (A') (A')
                 (A") (A') (A") (A') (A') (A") (A') (A') (A') (A")
                 (A') (A") (A") (A") (A') (A') (A') (A') (A") (A')
                 (A") (A') (A') (A') (A") (A") (A') (A') (A') (A')
                 (A') (A') (A") (A") (A') (A') (A') (A") (A') (A')
                 (A") (A") (A') (A') (A") (A') (A") (A') (A') (A")
                 (A') (A") (A') (A") (A') (A') (A") (A') (A') (A')
                 (A') (A') (A") (A') (A') (A') (A') (A') (A') (A')
                 (A') (A') (A') (A') (A') (A') (A') (A')
 Beta  Orbitals:
       Occupied  (A') (A') (A') (A') (A') (A') (A') (A') (A') (A')
                 (A') (A') (A') (A') (A') (A') (A') (A') (A") (A')
                 (A') (A") (A') (A")
       Virtual   (A") (A") (A") (A') (A') (A') (A') (A') (A') (A')
                 (A") (A') (A') (A") (A') (A') (A') (A") (A') (A")
                 (A') (A') (A") (A') (A") (A') (A') (A') (A') (A")
                 (A') (A') (A') (A") (A') (A') (A') (A') (A') (A')
                 (A") (A') (A') (A') (A") (A') (A') (A') (A') (A')
                 (A") (A') (A') (A") (A") (A') (A') (A") (A') (A')
                 (A') (A') (A") (A') (A") (A') (A") (A') (A') (A")
                 (A') (A') (A") (A') (A") (A') (A') (A') (A') (A")
                 (A') (A') (A') (A") (A") (A') (A') (A") (A') (A")
                 (A') (A') (A") (A") (A') (A') (A') (A") (A') (A")
                 (A') (A") (A') (A") (A") (A') (A") (A') (A') (A')
                 (A') (A') (A') (A') (A') (A") (A') (A") (A') (A")
                 (A') (A') (A') (A') (A') (A") (A') (A') (A') (A')
                 (A") (A") (A') (A") (A') (A") (A') (A") (A') (A')
                 (A") (A') (A') (A") (A') (A") (A') (A") (A") (A')
                 (A') (A") (A') (A") (A') (A') (A") (A') (A') (A')
                 (A") (A') (A") (A") (A") (A') (A') (A') (A') (A")
                 (A') (A") (A') (A') (A') (A") (A') (A") (A') (A')
                 (A') (A') (A') (A") (A") (A') (A') (A') (A") (A')
                 (A') (A") (A") (A') (A') (A") (A') (A") (A') (A')
                 (A") (A') (A") (A') (A") (A') (A') (A") (A') (A')
                 (A') (A') (A') (A") (A') (A') (A') (A') (A') (A')
                 (A') (A') (A') (A') (A') (A') (A') (A') (A')
 The electronic state is 2-A".
 Alpha  occ. eigenvalues --  -14.43226 -10.32749 -10.30825 -10.30572 -10.30139
 Alpha  occ. eigenvalues --  -10.30028 -10.29878  -1.01998  -0.95177  -0.86587
 Alpha  occ. eigenvalues --   -0.82721  -0.71843  -0.69351  -0.62188  -0.58372
 Alpha  occ. eigenvalues --   -0.55440  -0.52401  -0.52242  -0.49630  -0.46211
 Alpha  occ. eigenvalues --   -0.44157  -0.41950  -0.36969  -0.35723  -0.29229
 Alpha virt. eigenvalues --    0.04425   0.06818   0.11806   0.13295   0.15497
 Alpha virt. eigenvalues --    0.16796   0.18756   0.19854   0.20442   0.21591
 Alpha virt. eigenvalues --    0.26512   0.27115   0.27649   0.28651   0.29805
 Alpha virt. eigenvalues --    0.31188   0.31670   0.33166   0.33366   0.36334
 Alpha virt. eigenvalues --    0.39766   0.39962   0.40303   0.40497   0.41844
 Alpha virt. eigenvalues --    0.43527   0.44471   0.47347   0.47722   0.48640
 Alpha virt. eigenvalues --    0.49227   0.49374   0.50122   0.52062   0.53645
 Alpha virt. eigenvalues --    0.54976   0.55677   0.57122   0.57400   0.59191
 Alpha virt. eigenvalues --    0.60140   0.65619   0.68717   0.69767   0.70313
 Alpha virt. eigenvalues --    0.72528   0.74380   0.76500   0.78224   0.80875
 Alpha virt. eigenvalues --    0.81362   0.83095   0.83599   0.87659   0.89315
 Alpha virt. eigenvalues --    0.93737   0.94186   0.95190   0.96534   1.06844
 Alpha virt. eigenvalues --    1.06974   1.07882   1.10378   1.13806   1.15193
 Alpha virt. eigenvalues --    1.15571   1.20531   1.25097   1.25762   1.28007
 Alpha virt. eigenvalues --    1.28756   1.29382   1.32844   1.34908   1.36008
 Alpha virt. eigenvalues --    1.37646   1.44081   1.45152   1.46423   1.49718
 Alpha virt. eigenvalues --    1.53348   1.55601   1.56574   1.57151   1.57555
 Alpha virt. eigenvalues --    1.62183   1.63061   1.63923   1.69277   1.70350
 Alpha virt. eigenvalues --    1.72445   1.74164   1.76850   1.77895   1.79283
 Alpha virt. eigenvalues --    1.82722   1.83407   1.84781   1.92426   1.96646
 Alpha virt. eigenvalues --    1.97295   2.02876   2.03956   2.07025   2.08415
 Alpha virt. eigenvalues --    2.12473   2.15192   2.16476   2.18750   2.20780
 Alpha virt. eigenvalues --    2.24656   2.25882   2.29703   2.31502   2.31990
 Alpha virt. eigenvalues --    2.37174   2.42195   2.49050   2.54738   2.58573
 Alpha virt. eigenvalues --    2.60258   2.61846   2.63697   2.65772   2.66672
 Alpha virt. eigenvalues --    2.69508   2.73190   2.74488   2.74936   2.75960
 Alpha virt. eigenvalues --    2.76025   2.79162   2.82343   2.82943   2.82957
 Alpha virt. eigenvalues --    2.86100   2.89259   2.89850   2.91775   2.94090
 Alpha virt. eigenvalues --    2.95157   2.97177   2.97194   3.05009   3.05252
 Alpha virt. eigenvalues --    3.09866   3.13679   3.16633   3.17481   3.18446
 Alpha virt. eigenvalues --    3.20076   3.20806   3.21606   3.26194   3.28253
 Alpha virt. eigenvalues --    3.29059   3.29733   3.32593   3.33612   3.36883
 Alpha virt. eigenvalues --    3.39132   3.41334   3.42232   3.43615   3.47626
 Alpha virt. eigenvalues --    3.49031   3.53049   3.53387   3.55587   3.55869
 Alpha virt. eigenvalues --    3.57984   3.58237   3.64314   3.68448   3.76730
 Alpha virt. eigenvalues --    3.77511   3.77688   3.78754   3.86667   3.90854
 Alpha virt. eigenvalues --    4.00061   4.04857   4.06206   4.07651   4.10689
 Alpha virt. eigenvalues --    4.11862   4.13547   4.14887   4.21214   4.24431
 Alpha virt. eigenvalues --    4.28604   4.29486   4.31502   4.33690   4.34027
 Alpha virt. eigenvalues --    4.38991   4.48462   4.52200   4.64948   4.68168
 Alpha virt. eigenvalues --    4.70585   4.73461   4.76219   4.82465   4.84867
 Alpha virt. eigenvalues --    4.89610   4.91948   4.95449   5.02716   5.06707
 Alpha virt. eigenvalues --    5.17435   5.23516   5.31060   5.34045   5.36274
 Alpha virt. eigenvalues --    5.41705   5.55703   5.61720   5.68502   5.76683
 Alpha virt. eigenvalues --    6.09011  22.17557  22.67401  22.69608  22.80444
 Alpha virt. eigenvalues --   22.94887  23.34151  32.13259
  Beta  occ. eigenvalues --  -14.42166 -10.32993 -10.30450 -10.30331 -10.30224
  Beta  occ. eigenvalues --  -10.30074 -10.29682  -1.00457  -0.94047  -0.86216
  Beta  occ. eigenvalues --   -0.81140  -0.71540  -0.68931  -0.61762  -0.57861
  Beta  occ. eigenvalues --   -0.55193  -0.52245  -0.51849  -0.47748  -0.45863
  Beta  occ. eigenvalues --   -0.43892  -0.37469  -0.35453  -0.34563
  Beta virt. eigenvalues --   -0.05005   0.05615   0.09563   0.11946   0.13444
  Beta virt. eigenvalues --    0.15501   0.16965   0.18787   0.19922   0.20546
  Beta virt. eigenvalues --    0.22213   0.26517   0.27133   0.28036   0.28669
  Beta virt. eigenvalues --    0.29760   0.31206   0.31793   0.33451   0.34059
  Beta virt. eigenvalues --    0.36547   0.39911   0.40257   0.40521   0.40824
  Beta virt. eigenvalues --    0.42078   0.43590   0.44799   0.47558   0.47861
  Beta virt. eigenvalues --    0.48738   0.49492   0.50304   0.51231   0.52213
  Beta virt. eigenvalues --    0.53843   0.55004   0.55873   0.57285   0.57615
  Beta virt. eigenvalues --    0.59768   0.60504   0.65603   0.68793   0.70330
  Beta virt. eigenvalues --    0.70448   0.72742   0.74632   0.76798   0.78566
  Beta virt. eigenvalues --    0.81132   0.81526   0.83067   0.84572   0.88348
  Beta virt. eigenvalues --    0.89454   0.94266   0.94329   0.95324   0.96663
  Beta virt. eigenvalues --    1.07322   1.07876   1.07940   1.10900   1.14397
  Beta virt. eigenvalues --    1.15830   1.16174   1.21062   1.25200   1.26411
  Beta virt. eigenvalues --    1.28212   1.28850   1.29883   1.32948   1.35619
  Beta virt. eigenvalues --    1.36295   1.37761   1.44387   1.45298   1.47119
  Beta virt. eigenvalues --    1.50287   1.53613   1.56371   1.57385   1.57527
  Beta virt. eigenvalues --    1.57940   1.63123   1.63305   1.64328   1.69496
  Beta virt. eigenvalues --    1.70638   1.72591   1.74708   1.77449   1.78060
  Beta virt. eigenvalues --    1.79706   1.82937   1.84129   1.84851   1.92779
  Beta virt. eigenvalues --    1.97088   1.97522   2.03622   2.04789   2.07655
  Beta virt. eigenvalues --    2.08805   2.12807   2.15475   2.16808   2.19207
  Beta virt. eigenvalues --    2.21410   2.25076   2.26034   2.30183   2.31998
  Beta virt. eigenvalues --    2.34889   2.37464   2.42626   2.49453   2.55968
  Beta virt. eigenvalues --    2.58927   2.60960   2.62133   2.64124   2.65817
  Beta virt. eigenvalues --    2.67170   2.69807   2.73321   2.74718   2.75086
  Beta virt. eigenvalues --    2.76301   2.76496   2.79448   2.82665   2.83256
  Beta virt. eigenvalues --    2.83301   2.86263   2.89655   2.90408   2.92021
  Beta virt. eigenvalues --    2.94380   2.95668   2.97229   2.97765   3.05625
  Beta virt. eigenvalues --    3.05967   3.10315   3.13973   3.16924   3.17641
  Beta virt. eigenvalues --    3.18861   3.20428   3.21224   3.22161   3.26408
  Beta virt. eigenvalues --    3.28465   3.29448   3.29951   3.33113   3.33885
  Beta virt. eigenvalues --    3.37961   3.40018   3.41984   3.42691   3.43986
  Beta virt. eigenvalues --    3.47980   3.49314   3.53223   3.53941   3.56006
  Beta virt. eigenvalues --    3.56156   3.58426   3.58706   3.64494   3.68487
  Beta virt. eigenvalues --    3.77610   3.78033   3.78160   3.79853   3.87641
  Beta virt. eigenvalues --    3.91438   4.00278   4.05338   4.07094   4.09129
  Beta virt. eigenvalues --    4.11182   4.12250   4.14226   4.16006   4.21444
  Beta virt. eigenvalues --    4.25004   4.29173   4.30093   4.31713   4.34114
  Beta virt. eigenvalues --    4.35941   4.39338   4.49855   4.52985   4.66360
  Beta virt. eigenvalues --    4.69389   4.71561   4.76718   4.76849   4.84093
  Beta virt. eigenvalues --    4.85229   4.90087   4.95528   4.95739   5.05488
  Beta virt. eigenvalues --    5.07453   5.18320   5.24248   5.33340   5.34523
  Beta virt. eigenvalues --    5.36678   5.42352   5.56472   5.62208   5.69312
  Beta virt. eigenvalues --    5.77407   6.09419  22.17750  22.67424  22.70135
  Beta virt. eigenvalues --   22.80723  22.94747  23.34049  32.14642
          Condensed to atoms (all electrons):
               1          2          3          4          5          6
     1  N    6.541555   0.577619  -0.059433   0.010618   0.001548  -0.002643
     2  C    0.577619   4.710401   0.415251  -0.040269   0.001309  -0.061595
     3  C   -0.059433   0.415251   4.975050   0.420053   0.493028  -0.008313
     4  H    0.010618  -0.040269   0.420053   0.514119  -0.054118   0.012344
     5  C    0.001548   0.001309   0.493028  -0.054118   4.890490   0.428656
     6  C   -0.002643  -0.061595  -0.008313   0.012344   0.428656   4.932538
     7  C    0.027384   0.064422  -0.057600  -0.007521   0.024236   0.409749
     8  C   -0.129290   0.322207   0.002480   0.019766  -0.081703   0.041834
     9  H    0.356775  -0.089455   0.011569  -0.001653   0.000093  -0.001081
    10  H   -0.000104   0.010904  -0.051312  -0.007749   0.443891  -0.056440
    11  H   -0.000005  -0.003460   0.009353  -0.000015  -0.053153   0.441190
    12  H   -0.000308   0.005654  -0.001812   0.000063   0.007514  -0.048097
    13  H   -0.004839  -0.050419   0.008245  -0.000105  -0.001963   0.007103
               7          8          9         10         11         12
     1  N    0.027384  -0.129290   0.356775  -0.000104  -0.000005  -0.000308
     2  C    0.064422   0.322207  -0.089455   0.010904  -0.003460   0.005654
     3  C   -0.057600   0.002480   0.011569  -0.051312   0.009353  -0.001812
     4  H   -0.007521   0.019766  -0.001653  -0.007749  -0.000015   0.000063
     5  C    0.024236  -0.081703   0.000093   0.443891  -0.053153   0.007514
     6  C    0.409749   0.041834  -0.001081  -0.056440   0.441190  -0.048097
     7  C    5.075214   0.229711   0.010155   0.010958  -0.055015   0.423283
     8  C    0.229711   5.414507  -0.027465  -0.004558   0.012567  -0.033030
     9  H    0.010155  -0.027465   0.535358   0.000038  -0.000009  -0.000072
    10  H    0.010958  -0.004558   0.000038   0.534623  -0.006523  -0.000147
    11  H   -0.055015   0.012567  -0.000009  -0.006523   0.529860  -0.005976
    12  H    0.423283  -0.033030  -0.000072  -0.000147  -0.005976   0.532586
    13  H   -0.032912   0.424463   0.002892   0.000042  -0.000117  -0.006238
              13
     1  N   -0.004839
     2  C   -0.050419
     3  C    0.008245
     4  H   -0.000105
     5  C   -0.001963
     6  C    0.007103
     7  C   -0.032912
     8  C    0.424463
     9  H    0.002892
    10  H    0.000042
    11  H   -0.000117
    12  H   -0.006238
    13  H    0.528810
          Atomic-Atomic Spin Densities.
               1          2          3          4          5          6
     1  N    0.678962  -0.015707  -0.026530  -0.000470   0.000124   0.001099
     2  C   -0.015707  -0.173791   0.015026   0.002022   0.006099   0.001440
     3  C   -0.026530   0.015026   0.294921  -0.001995   0.001903  -0.026188
     4  H   -0.000470   0.002022  -0.001995  -0.011098   0.001213  -0.000594
     5  C    0.000124   0.006099   0.001903   0.001213  -0.154813   0.008634
     6  C    0.001099   0.001440  -0.026188  -0.000594   0.008634   0.329243
     7  C   -0.001426   0.004054   0.004956   0.000370   0.003087   0.015880
     8  C   -0.017365   0.017074  -0.001470  -0.000659   0.001684  -0.026484
     9  H   -0.002353   0.006390   0.001997   0.000118  -0.000059   0.000113
    10  H    0.000009  -0.000282  -0.000098   0.000177   0.000348   0.000297
    11  H   -0.000000   0.000128  -0.000365  -0.000000   0.001852  -0.002431
    12  H    0.000026   0.000127  -0.000042  -0.000003   0.000005  -0.000066
    13  H    0.000376   0.000466  -0.000400   0.000004   0.000087  -0.000279
               7          8          9         10         11         12
     1  N   -0.001426  -0.017365  -0.002353   0.000009  -0.000000   0.000026
     2  C    0.004054   0.017074   0.006390  -0.000282   0.000128   0.000127
     3  C    0.004956  -0.001470   0.001997  -0.000098  -0.000365  -0.000042
     4  H    0.000370  -0.000659   0.000118   0.000177  -0.000000  -0.000003
     5  C    0.003087   0.001684  -0.000059   0.000348   0.001852   0.000005
     6  C    0.015880  -0.026484   0.000113   0.000297  -0.002431  -0.000066
     7  C   -0.164914   0.007532  -0.000822  -0.000201   0.001824   0.001082
     8  C    0.007532   0.278530  -0.001247   0.000155  -0.000421  -0.000833
     9  H   -0.000822  -0.001247  -0.021587  -0.000002   0.000001   0.000002
    10  H   -0.000201   0.000155  -0.000002   0.004755   0.000167  -0.000004
    11  H    0.001824  -0.000421   0.000001   0.000167  -0.013201   0.000131
    12  H    0.001082  -0.000833   0.000002  -0.000004   0.000131   0.004818
    13  H    0.001755  -0.001579   0.000206  -0.000000   0.000005   0.000061
              13
     1  N    0.000376
     2  C    0.000466
     3  C   -0.000400
     4  H    0.000004
     5  C    0.000087
     6  C   -0.000279
     7  C    0.001755
     8  C   -0.001579
     9  H    0.000206
    10  H   -0.000000
    11  H    0.000005
    12  H    0.000061
    13  H   -0.011280
 Mulliken charges and spin densities:
               1          2
     1  N   -0.318876   0.616744
     2  C    0.137431  -0.136953
     3  C   -0.156556   0.261714
     4  H    0.134466  -0.010914
     5  C   -0.099828  -0.129836
     6  C   -0.095245   0.300662
     7  C   -0.122062  -0.126823
     8  C   -0.191488   0.254917
     9  H    0.202856  -0.017244
    10  H    0.126379   0.005320
    11  H    0.131304  -0.012311
    12  H    0.126580   0.005304
    13  H    0.125040  -0.010579
 Sum of Mulliken charges =  -0.00000   1.00000
 Mulliken charges and spin densities with hydrogens summed into heavy atoms:
               1          2
     1  N   -0.116020   0.599500
     2  C    0.137431  -0.136953
     3  C   -0.022090   0.250800
     5  C    0.026551  -0.124516
     6  C    0.036059   0.288350
     7  C    0.004517  -0.121519
     8  C   -0.066448   0.244338
 APT charges:
               1
     1  N   -0.255537
     2  C   -0.029435
     3  C    0.032917
     4  H    0.058168
     5  C   -0.094522
     6  C    0.039600
     7  C   -0.111002
     8  C    0.040491
     9  H    0.158076
    10  H    0.041076
    11  H    0.043433
    12  H    0.039088
    13  H    0.037648
 Sum of APT charges =  -0.00000
 APT charges with hydrogens summed into heavy atoms:
               1
     1  N   -0.097461
     2  C   -0.029435
     3  C    0.091085
     5  C   -0.053446
     6  C    0.083033
     7  C   -0.071914
     8  C    0.078139
 Electronic spatial extent (au):  <R**2>=            649.4787
 Charge=              0.0000 electrons
 Dipole moment (field-independent basis, Debye):
    X=             -2.5045    Y=              0.2685    Z=             -0.0000  Tot=              2.5189
 Quadrupole moment (field-independent basis, Debye-Ang):
   XX=            -43.6898   YY=            -33.6512   ZZ=            -44.4048
   XY=              1.9195   XZ=              0.0000   YZ=             -0.0000
 Traceless Quadrupole moment (field-independent basis, Debye-Ang):
   XX=             -3.1079   YY=              6.9308   ZZ=             -3.8229
   XY=              1.9195   XZ=              0.0000   YZ=             -0.0000
 Octapole moment (field-independent basis, Debye-Ang**2):
  XXX=            -25.1751  YYY=             -7.7696  ZZZ=              0.0000  XYY=              0.8057
  XXY=              8.8101  XXZ=             -0.0000  XZZ=              1.7431  YZZ=             -1.6564
  YYZ=              0.0000  XYZ=              0.0000
 Hexadecapole moment (field-independent basis, Debye-Ang**3):
 XXXX=           -473.7359 YYYY=           -328.5001 ZZZZ=            -50.0067 XXXY=             78.2550
 XXXZ=             -0.0000 YYYX=             40.3046 YYYZ=              0.0000 ZZZX=             -0.0000
 ZZZY=              0.0000 XXYY=           -130.5260 XXZZ=            -90.0598 YYZZ=            -79.5246
 XXYZ=              0.0000 YYXZ=              0.0000 ZZXY=             18.8282
 N-N= 2.622095014382D+02 E-N=-1.190960899278D+03  KE= 2.855939808689D+02
 Symmetry A'   KE= 2.774982292204D+02
 Symmetry A"   KE= 8.095751648565D+00
 Symmetry A'   SP= 1.699662235897D-14
 Symmetry A"   SP= 1.000000000000D+00
  Exact polarizability:  95.547 -13.151  90.879  -0.000  -0.000  41.856
 Approx polarizability: 105.865 -13.024 100.052   0.000  -0.000  50.928
                          Isotropic Fermi Contact Couplings
        Atom                 a.u.       MegaHertz       Gauss      10(-4) cm-1
     1  N(14)              0.05833      18.84640       6.72486       6.28648
     2  C(13)             -0.03946     -44.36015     -15.82880     -14.79695
     3  C(13)              0.01751      19.68802       7.02518       6.56722
     4  H(1)              -0.00422     -18.88333      -6.73804      -6.29880
     5  C(13)             -0.02212     -24.87102      -8.87460      -8.29608
     6  C(13)              0.02176      24.46404       8.72938       8.16033
     7  C(13)             -0.02192     -24.64447      -8.79376      -8.22051
     8  C(13)              0.01831      20.58768       7.34620       6.86731
     9  H(1)              -0.00892     -39.87899     -14.22981     -13.30220
    10  H(1)               0.00198       8.86757       3.16417       2.95790
    11  H(1)              -0.00482     -21.56043      -7.69330      -7.19178
    12  H(1)               0.00194       8.69351       3.10206       2.89984
    13  H(1)              -0.00414     -18.51170      -6.60544      -6.17484
 --------------------------------------------------------
       Center         ----  Spin Dipole Couplings  ----
                      3XX-RR        3YY-RR        3ZZ-RR
 --------------------------------------------------------
     1   Atom       -0.712365     -0.697588      1.409953
     2   Atom        0.101399      0.083243     -0.184641
     3   Atom       -0.161317     -0.159299      0.320616
     4   Atom        0.011774     -0.007359     -0.004415
     5   Atom        0.084059      0.071831     -0.155890
     6   Atom       -0.182598     -0.186638      0.369237
     7   Atom        0.072957      0.079697     -0.152654
     8   Atom       -0.158699     -0.158052      0.316751
     9   Atom       -0.054736      0.066035     -0.011300
    10   Atom        0.008869     -0.003728     -0.005141
    11   Atom        0.006328     -0.006448      0.000120
    12   Atom       -0.002157      0.007258     -0.005101
    13   Atom       -0.014061      0.017884     -0.003823
 --------------------------------------------------------
                        XY            XZ            YZ
 --------------------------------------------------------
     1   Atom       -0.001450      0.000000      0.000000
     2   Atom       -0.021917     -0.000000      0.000000
     3   Atom        0.001926      0.000000      0.000000
     4   Atom        0.014647      0.000000     -0.000000
     5   Atom       -0.004024      0.000000      0.000000
     6   Atom       -0.007536      0.000000      0.000000
     7   Atom       -0.006283      0.000000      0.000000
     8   Atom        0.002755      0.000000     -0.000000
     9   Atom        0.032909      0.000000      0.000000
    10   Atom       -0.001907      0.000000     -0.000000
    11   Atom       -0.024452     -0.000000      0.000000
    12   Atom       -0.004277      0.000000     -0.000000
    13   Atom        0.008846      0.000000      0.000000
 --------------------------------------------------------


 ---------------------------------------------------------------------------------
              Anisotropic Spin Dipole Couplings in Principal Axis System
 ---------------------------------------------------------------------------------

       Atom             a.u.   MegaHertz   Gauss  10(-4) cm-1        Axes

              Baa    -0.7125   -27.480    -9.805    -9.166  0.9953  0.0967 -0.0000
     1 N(14)  Bbb    -0.6974   -26.899    -9.598    -8.973 -0.0967  0.9953 -0.0000
              Bcc     1.4100    54.379    19.404    18.139  0.0000  0.0000  1.0000
 
              Baa    -0.1846   -24.777    -8.841    -8.265  0.0000  0.0000  1.0000
     2 C(13)  Bbb     0.0686     9.205     3.285     3.071  0.5556  0.8315  0.0000
              Bcc     0.1160    15.572     5.556     5.194  0.8315 -0.5556  0.0000
 
              Baa    -0.1625   -21.804    -7.780    -7.273  0.8556 -0.5176 -0.0000
     3 C(13)  Bbb    -0.1581   -21.220    -7.572    -7.078  0.5176  0.8556 -0.0000
              Bcc     0.3206    43.024    15.352    14.351  0.0000  0.0000  1.0000
 
              Baa    -0.0153    -8.156    -2.910    -2.721 -0.4760  0.8794 -0.0000
     4 H(1)   Bbb    -0.0044    -2.356    -0.841    -0.786  0.0000  0.0000  1.0000
              Bcc     0.0197    10.512     3.751     3.506  0.8794  0.4760 -0.0000
 
              Baa    -0.1559   -20.919    -7.464    -6.978  0.0000  0.0000  1.0000
     5 C(13)  Bbb     0.0706     9.477     3.382     3.161  0.2870  0.9579 -0.0000
              Bcc     0.0853    11.442     4.083     3.817  0.9579 -0.2870 -0.0000
 
              Baa    -0.1924   -25.821    -9.214    -8.613  0.6087  0.7934 -0.0000
     6 C(13)  Bbb    -0.1768   -23.727    -8.466    -7.914  0.7934 -0.6087  0.0000
              Bcc     0.3692    49.548    17.680    16.527  0.0000  0.0000  1.0000
 
              Baa    -0.1527   -20.485    -7.309    -6.833  0.0000  0.0000  1.0000
     7 C(13)  Bbb     0.0692     9.286     3.313     3.097  0.8581  0.5135 -0.0000
              Bcc     0.0835    11.199     3.996     3.736 -0.5135  0.8581  0.0000
 
              Baa    -0.1611   -21.625    -7.716    -7.213  0.7472 -0.6646  0.0000
     8 C(13)  Bbb    -0.1556   -20.880    -7.451    -6.965  0.6646  0.7472 -0.0000
              Bcc     0.3168    42.505    15.167    14.178  0.0000  0.0000  1.0000
 
              Baa    -0.0631   -33.678   -12.017   -11.234  0.9690 -0.2469 -0.0000
     9 H(1)   Bbb    -0.0113    -6.029    -2.151    -2.011  0.0000  0.0000  1.0000
              Bcc     0.0744    39.707    14.169    13.245  0.2469  0.9690 -0.0000
 
              Baa    -0.0051    -2.743    -0.979    -0.915  0.0000  0.0000  1.0000
    10 H(1)   Bbb    -0.0040    -2.140    -0.764    -0.714  0.1464  0.9892  0.0000
              Bcc     0.0092     4.883     1.742     1.629  0.9892 -0.1464  0.0000
 
              Baa    -0.0253   -13.517    -4.823    -4.509  0.6112  0.7914 -0.0000
    11 H(1)   Bbb     0.0001     0.064     0.023     0.021  0.0000  0.0000  1.0000
              Bcc     0.0252    13.452     4.800     4.487  0.7914 -0.6112  0.0000
 
              Baa    -0.0051    -2.722    -0.971    -0.908  0.0000  0.0000  1.0000
    12 H(1)   Bbb    -0.0038    -2.033    -0.725    -0.678  0.9328  0.3604  0.0000
              Bcc     0.0089     4.754     1.696     1.586 -0.3604  0.9328 -0.0000
 
              Baa    -0.0163    -8.722    -3.112    -2.909  0.9682 -0.2502  0.0000
    13 H(1)   Bbb    -0.0038    -2.040    -0.728    -0.680  0.0000  0.0000  1.0000
              Bcc     0.0202    10.762     3.840     3.590  0.2502  0.9682 -0.0000
 

 ---------------------------------------------------------------------------------

 No NMR shielding tensors so no spin-rotation constants.
 Leave Link  601 at Sun Mar  1 23:33:11 2020, MaxMem=  1879048192 cpu:              24.5 elap:               0.7
 (Enter /opt/g16/l701.exe)
 SCFChk:  SCF convergence  7.86D-09 required  1.00D-08
 ... and contract with generalized density number  0.
 Compute integral second derivatives.
 R6Disp: Adding Grimme-D2 dispersion energy 2nd derivatives to the Hessian.
 Entering OneElI...
 Calculate overlap and kinetic energy integrals
    NBasis = 288  MinDer = 2  MaxDer = 2
 Requested accuracy = 0.1000D-14
 PrmmSu-InSpLW:  IPartL=    0 NPrtUS=   36 NPrtUL=    1 DoSpLW=F IThBeg=    0 IThEnd=   35 NThAct=   36.
 PrSmSu:  IncTry=   512 NBBP=           5128 NTPThr=   100 NPartT=   36 Incr=           1 LDynOK=F GPUOK=F.
 PrsmSu:  NPrtUS=  36 ThrOK=T IAlg=2 LenDen=           0 ISkipM=0 DoSpLW=F IThBeg=    0 IThEnd=   35.
 Prism:   IPart=     0 DynPar=F LinDyn=F Incr=           1.
 PRISM was handed    52071452 working-precision words and  5128 shell-pairs
 PRISM was handed    52071452 working-precision words and  5128 shell-pairs
 PRISM was handed    52071452 working-precision words and  5128 shell-pairs
 PRISM was handed    52071452 working-precision words and  5128 shell-pairs
 PRISM was handed    52071452 working-precision words and  5128 shell-pairs
 PRISM was handed    52071452 working-precision words and  5128 shell-pairs
 PRISM was handed    52071452 working-precision words and  5128 shell-pairs
 PRISM was handed    52071452 working-precision words and  5128 shell-pairs
 PRISM was handed    52071452 working-precision words and  5128 shell-pairs
 PRISM was handed    52071452 working-precision words and  5128 shell-pairs
 PRISM was handed    52071452 working-precision words and  5128 shell-pairs
 PRISM was handed    52071452 working-precision words and  5128 shell-pairs
 PRISM was handed    52071452 working-precision words and  5128 shell-pairs
 PRISM was handed    52071452 working-precision words and  5128 shell-pairs
 PRISM was handed    52071452 working-precision words and  5128 shell-pairs
 PRISM was handed    52071452 working-precision words and  5128 shell-pairs
 PRISM was handed    52071452 working-precision words and  5128 shell-pairs
 PRISM was handed    52071452 working-precision words and  5128 shell-pairs
 PRISM was handed    52071452 working-precision words and  5128 shell-pairs
 PRISM was handed    52071452 working-precision words and  5128 shell-pairs
 PRISM was handed    52071452 working-precision words and  5128 shell-pairs
 PRISM was handed    52071452 working-precision words and  5128 shell-pairs
 PRISM was handed    52071452 working-precision words and  5128 shell-pairs
 PRISM was handed    52071452 working-precision words and  5128 shell-pairs
 PRISM was handed    52071452 working-precision words and  5128 shell-pairs
 PRISM was handed    52071452 working-precision words and  5128 shell-pairs
 PRISM was handed    52071452 working-precision words and  5128 shell-pairs
 PRISM was handed    52071452 working-precision words and  5128 shell-pairs
 PRISM was handed    52071452 working-precision words and  5128 shell-pairs
 PRISM was handed    52071452 working-precision words and  5128 shell-pairs
 PRISM was handed    52071452 working-precision words and  5128 shell-pairs
 PRISM was handed    52071452 working-precision words and  5128 shell-pairs
 PRISM was handed    52071452 working-precision words and  5128 shell-pairs
 PRISM was handed    52071452 working-precision words and  5128 shell-pairs
 PRISM was handed    52071452 working-precision words and  5128 shell-pairs
 PRISM was handed    52071452 working-precision words and  5128 shell-pairs
 IPart= 33 NShTot=         123 NBatch=          25 AvBLen=         4.9
 IPart= 24 NShTot=         137 NBatch=          28 AvBLen=         4.9
 IPart= 16 NShTot=         141 NBatch=          31 AvBLen=         4.5
 IPart= 29 NShTot=         128 NBatch=          26 AvBLen=         4.9
 IPart= 27 NShTot=         131 NBatch=          28 AvBLen=         4.7
 IPart= 12 NShTot=         150 NBatch=          33 AvBLen=         4.5
 IPart= 30 NShTot=         127 NBatch=          26 AvBLen=         4.9
 IPart=  1 NShTot=         166 NBatch=          45 AvBLen=         3.7
 IPart= 26 NShTot=         132 NBatch=          28 AvBLen=         4.7
 IPart= 18 NShTot=         140 NBatch=          31 AvBLen=         4.5
 IPart= 22 NShTot=         139 NBatch=          30 AvBLen=         4.6
 IPart= 28 NShTot=         128 NBatch=          26 AvBLen=         4.9
 IPart= 19 NShTot=         140 NBatch=          31 AvBLen=         4.5
 IPart=  5 NShTot=         159 NBatch=          41 AvBLen=         3.9
 IPart=  2 NShTot=         163 NBatch=          42 AvBLen=         3.9
 IPart=  3 NShTot=         161 NBatch=          41 AvBLen=         3.9
 IPart= 10 NShTot=         151 NBatch=          34 AvBLen=         4.4
 IPart= 14 NShTot=         145 NBatch=          32 AvBLen=         4.5
 IPart= 31 NShTot=         127 NBatch=          26 AvBLen=         4.9
 IPart= 32 NShTot=         124 NBatch=          25 AvBLen=         5.0
 IPart= 25 NShTot=         134 NBatch=          28 AvBLen=         4.8
 IPart= 35 NShTot=         121 NBatch=          25 AvBLen=         4.8
 IPart= 34 NShTot=         121 NBatch=          25 AvBLen=         4.8
 IPart= 17 NShTot=         141 NBatch=          31 AvBLen=         4.5
 IPart= 11 NShTot=         150 NBatch=          33 AvBLen=         4.5
 IPart=  9 NShTot=         151 NBatch=          34 AvBLen=         4.4
 IPart= 20 NShTot=         140 NBatch=          31 AvBLen=         4.5
 IPart=  0 NShTot=         168 NBatch=          47 AvBLen=         3.6
 IPart= 23 NShTot=         138 NBatch=          29 AvBLen=         4.8
 IPart=  4 NShTot=         160 NBatch=          41 AvBLen=         3.9
 IPart=  8 NShTot=         152 NBatch=          34 AvBLen=         4.5
 IPart= 13 NShTot=         147 NBatch=          33 AvBLen=         4.5
 IPart=  7 NShTot=         153 NBatch=          35 AvBLen=         4.4
 IPart=  6 NShTot=         157 NBatch=          39 AvBLen=         4.0
 IPart= 21 NShTot=         140 NBatch=          31 AvBLen=         4.5
 IPart= 15 NShTot=         143 NBatch=          32 AvBLen=         4.5
 PrSmSu:  NxtVal=             37.
 Entering OneElI...
 Calculate potential energy integrals
    NBasis = 288  MinDer = 2  MaxDer = 2
 Requested accuracy = 0.1000D-14
 PrmmSu-InSpLW:  IPartL=    0 NPrtUS=   36 NPrtUL=    1 DoSpLW=F IThBeg=    0 IThEnd=   35 NThAct=   36.
 PrSmSu:  IncTry=   512 NBBP=          64597 NTPThr=   100 NPartT=   36 Incr=          17 LDynOK=F GPUOK=F.
 PrsmSu:  NPrtUS=  36 ThrOK=T IAlg=2 LenDen=           0 ISkipM=0 DoSpLW=F IThBeg=    0 IThEnd=   35.
 Prism:   IPart=     0 DynPar=F LinDyn=F Incr=          17.
 PRISM was handed    52085164 working-precision words and  4969 shell-pairs
 PRISM was handed    52085164 working-precision words and  4969 shell-pairs
 PRISM was handed    52085164 working-precision words and  4969 shell-pairs
 PRISM was handed    52085164 working-precision words and  4969 shell-pairs
 PRISM was handed    52085164 working-precision words and  4969 shell-pairs
 PRISM was handed    52085164 working-precision words and  4969 shell-pairs
 PRISM was handed    52085164 working-precision words and  4969 shell-pairs
 PRISM was handed    52085164 working-precision words and  4969 shell-pairs
 PRISM was handed    52085164 working-precision words and  4969 shell-pairs
 PRISM was handed    52085164 working-precision words and  4969 shell-pairs
 PRISM was handed    52085164 working-precision words and  4969 shell-pairs
 PRISM was handed    52085164 working-precision words and  4969 shell-pairs
 PRISM was handed    52085164 working-precision words and  4969 shell-pairs
 PRISM was handed    52085164 working-precision words and  4969 shell-pairs
 PRISM was handed    52085164 working-precision words and  4969 shell-pairs
 PRISM was handed    52085164 working-precision words and  4969 shell-pairs
 PRISM was handed    52085164 working-precision words and  4969 shell-pairs
 PRISM was handed    52085164 working-precision words and  4969 shell-pairs
 PRISM was handed    52085164 working-precision words and  4969 shell-pairs
 PRISM was handed    52085164 working-precision words and  4969 shell-pairs
 PRISM was handed    52085164 working-precision words and  4969 shell-pairs
 PRISM was handed    52085164 working-precision words and  4969 shell-pairs
 PRISM was handed    52085164 working-precision words and  4969 shell-pairs
 PRISM was handed    52085164 working-precision words and  4969 shell-pairs
 PRISM was handed    52085164 working-precision words and  4969 shell-pairs
 PRISM was handed    52085164 working-precision words and  4969 shell-pairs
 PRISM was handed    52085164 working-precision words and  4969 shell-pairs
 PRISM was handed    52085164 working-precision words and  4969 shell-pairs
 PRISM was handed    52085164 working-precision words and  4969 shell-pairs
 PRISM was handed    52085164 working-precision words and  4969 shell-pairs
 PRISM was handed    52085164 working-precision words and  4969 shell-pairs
 PRISM was handed    52085164 working-precision words and  4969 shell-pairs
 PRISM was handed    52085164 working-precision words and  4969 shell-pairs
 PRISM was handed    52085164 working-precision words and  4969 shell-pairs
 PRISM was handed    52085164 working-precision words and  4969 shell-pairs
 PRISM was handed    52085164 working-precision words and  4969 shell-pairs
 IPart= 33 NShTot=        1547 NBatch=         119 AvBLen=        13.0
 IPart= 28 NShTot=        1651 NBatch=         127 AvBLen=        13.0
 IPart= 30 NShTot=        1638 NBatch=         126 AvBLen=        13.0
 IPart= 26 NShTot=        1677 NBatch=         129 AvBLen=        13.0
 IPart= 19 NShTot=        1768 NBatch=         136 AvBLen=        13.0
 IPart= 18 NShTot=        1768 NBatch=         136 AvBLen=        13.0
 IPart= 29 NShTot=        1638 NBatch=         126 AvBLen=        13.0
 IPart= 24 NShTot=        1690 NBatch=         130 AvBLen=        13.0
 IPart= 27 NShTot=        1664 NBatch=         128 AvBLen=        13.0
 IPart= 22 NShTot=        1716 NBatch=         132 AvBLen=        13.0
 IPart= 34 NShTot=        1547 NBatch=         119 AvBLen=        13.0
 IPart= 12 NShTot=        1846 NBatch=         142 AvBLen=        13.0
 IPart= 35 NShTot=        1534 NBatch=         118 AvBLen=        13.0
 IPart=  2 NShTot=        2067 NBatch=         159 AvBLen=        13.0
 IPart=  9 NShTot=        1872 NBatch=         144 AvBLen=        13.0
 IPart=  1 NShTot=        2145 NBatch=         165 AvBLen=        13.0
 IPart= 16 NShTot=        1781 NBatch=         137 AvBLen=        13.0
 IPart=  3 NShTot=        2041 NBatch=         157 AvBLen=        13.0
 IPart=  5 NShTot=        2002 NBatch=         154 AvBLen=        13.0
 IPart= 14 NShTot=        1833 NBatch=         141 AvBLen=        13.0
 IPart= 20 NShTot=        1742 NBatch=         134 AvBLen=        13.0
 IPart= 32 NShTot=        1560 NBatch=         120 AvBLen=        13.0
 IPart= 21 NShTot=        1716 NBatch=         132 AvBLen=        13.0
 IPart= 23 NShTot=        1716 NBatch=         132 AvBLen=        13.0
 IPart=  4 NShTot=        2015 NBatch=         155 AvBLen=        13.0
 IPart= 25 NShTot=        1690 NBatch=         130 AvBLen=        13.0
 IPart=  0 NShTot=        2197 NBatch=         169 AvBLen=        13.0
 IPart=  7 NShTot=        1924 NBatch=         148 AvBLen=        13.0
 IPart=  8 NShTot=        1924 NBatch=         148 AvBLen=        13.0
 IPart=  6 NShTot=        1963 NBatch=         151 AvBLen=        13.0
 IPart= 31 NShTot=        1599 NBatch=         123 AvBLen=        13.0
 IPart= 17 NShTot=        1781 NBatch=         137 AvBLen=        13.0
 IPart= 11 NShTot=        1846 NBatch=         142 AvBLen=        13.0
 IPart= 10 NShTot=        1859 NBatch=         143 AvBLen=        13.0
 IPart= 15 NShTot=        1807 NBatch=         139 AvBLen=        13.0
 IPart= 13 NShTot=        1833 NBatch=         141 AvBLen=        13.0
 PrSmSu:  NxtVal=            613.
   2 Symmetry operations used in ECPInt.
 ECPInt:  NShTT=    5151 NPrTT=   15748 LenC2=    5095 LenP2D=   12865.
 LDataN:  DoStor=F MaxTD1= 8 Len=  415
 LDataN:  DoStor=T MaxTD1= 8 Len=  415
 ECPSu:  NPrtUS=  36 ThrOK=T ISkipM=0 DoSpLW=F IThBeg=    0 IThEnd=   35.
 Polarizability after L701:
                1             2             3 
      1  0.955472D+02
      2 -0.131509D+02  0.908789D+02
      3  0.000000D+00  0.000000D+00  0.418561D+02
 Dipole Derivatives after L701:
                 1             2             3             4             5 
      1  -0.204469D+00  0.336223D-01  0.000000D+00 -0.163357D+00  0.116243D+00
      2   0.101338D+00 -0.105738D+00  0.000000D+00  0.147141D+00 -0.394565D-01
      3   0.000000D+00  0.000000D+00 -0.456404D+00  0.000000D+00  0.000000D+00
                 6             7             8             9            10 
      1   0.000000D+00  0.198086D+00 -0.155467D+00  0.000000D+00 -0.138869D-01
      2   0.000000D+00 -0.848585D-02  0.118634D-01  0.000000D+00 -0.476039D-01
      3   0.114509D+00  0.000000D+00  0.000000D+00 -0.111199D+00  0.000000D+00
                11            12            13            14            15 
      1  -0.187996D-01  0.000000D+00 -0.284515D+00  0.492790D-01  0.000000D+00
      2   0.554533D-01  0.000000D+00  0.474173D-01  0.134162D+00  0.000000D+00
      3   0.000000D+00  0.132938D+00  0.000000D+00  0.000000D+00 -0.133214D+00
                16            17            18            19            20 
      1   0.113225D+00 -0.663180D-01  0.000000D+00  0.452796D-01  0.204621D+00
      2  -0.211913D-01  0.111886D+00  0.000000D+00  0.145005D+00 -0.230852D+00
      3   0.000000D+00  0.000000D+00 -0.106312D+00  0.000000D+00  0.000000D+00
                21            22            23            24            25 
      1   0.000000D+00  0.707996D-01 -0.634388D-01  0.000000D+00  0.201944D+00
      2   0.000000D+00 -0.167740D+00  0.131420D+00  0.000000D+00 -0.212709D+00
      3  -0.147434D+00  0.000000D+00  0.000000D+00 -0.807468D-01  0.000000D+00
                26            27            28            29            30 
      1  -0.800799D-01  0.000000D+00  0.706467D-01 -0.135962D-01  0.000000D+00
      2   0.272495D-01  0.000000D+00 -0.218287D-01 -0.830185D-01  0.000000D+00
      3   0.000000D+00  0.245035D+00  0.000000D+00  0.000000D+00  0.135600D+00
                31            32            33            34            35 
      1  -0.220841D-01  0.693145D-01  0.000000D+00 -0.647399D-01 -0.591129D-01
      2   0.694847D-01  0.159061D-01  0.000000D+00 -0.486533D-01  0.485139D-01
      3   0.000000D+00  0.000000D+00  0.136477D+00  0.000000D+00  0.000000D+00
                36            37            38            39 
      1   0.000000D+00  0.530710D-01 -0.162668D-01  0.000000D+00
      2   0.000000D+00  0.178254D-01 -0.773898D-01  0.000000D+00
      3   0.133489D+00  0.000000D+00  0.000000D+00  0.137262D+00
 Hessian after L701:
                1             2             3             4             5 
      1  0.745341D+01
      2  0.488585D+01  0.772689D+01
      3  0.000000D+00  0.000000D+00  0.170559D+02
      4 -0.366419D+01 -0.469978D+01  0.000000D+00  0.116824D+02
      5 -0.466948D+01 -0.697694D+01  0.000000D+00  0.262784D+01  0.147931D+02
      6  0.000000D+00  0.000000D+00 -0.118141D+02  0.000000D+00  0.000000D+00
      7 -0.374857D-01 -0.140995D+00  0.000000D+00 -0.776499D+01  0.775232D+00
      8 -0.162187D+00  0.282947D+00  0.000000D+00  0.547907D+00 -0.109383D+01
      9  0.000000D+00  0.000000D+00 -0.129214D+00  0.000000D+00  0.000000D+00
     10 -0.101430D+00  0.112989D-01  0.000000D+00 -0.301866D-02 -0.101459D+00
     11 -0.100120D+00  0.166412D+00  0.000000D+00 -0.155071D+00 -0.750378D-02
     12  0.000000D+00  0.000000D+00 -0.890306D-01  0.000000D+00  0.000000D+00
     13  0.159369D-01 -0.223152D+00  0.000000D+00 -0.203229D+00 -0.350290D+00
     14 -0.230254D+00  0.162156D+00  0.000000D+00 -0.325992D+00  0.536711D+00
     15  0.000000D+00  0.000000D+00 -0.124849D+00  0.000000D+00  0.000000D+00
     16  0.130894D+00 -0.112189D+00  0.000000D+00  0.106118D+00 -0.171914D+00
     17 -0.135171D+00 -0.402241D-01  0.000000D+00 -0.189692D+00  0.279220D-01
     18  0.000000D+00  0.000000D+00 -0.873856D-01  0.000000D+00  0.000000D+00
     19  0.320925D+00 -0.256796D+00  0.000000D+00  0.369024D+00  0.101916D+00
     20 -0.279838D+00 -0.127619D+00  0.000000D+00  0.103307D+00 -0.495258D+00
     21  0.000000D+00  0.000000D+00 -0.199751D+00  0.000000D+00  0.000000D+00
     22  0.610673D+00  0.280607D+00  0.000000D+00 -0.981606D+00  0.195442D+01
     23  0.112305D+00 -0.223538D-01  0.000000D+00  0.239208D+01 -0.679326D+01
     24  0.000000D+00  0.000000D+00  0.207283D+00  0.000000D+00  0.000000D+00
     25 -0.484760D+01  0.241883D+00  0.000000D+00  0.331538D+00  0.824545D-01
     26  0.531181D+00 -0.121134D+01  0.000000D+00 -0.981020D-01 -0.102739D+00
     27  0.000000D+00  0.000000D+00 -0.475668D+01  0.000000D+00  0.000000D+00
     28 -0.597742D-02 -0.595964D-02  0.000000D+00 -0.487962D-01 -0.372180D-01
     29 -0.339445D-01  0.319014D-01  0.000000D+00 -0.576698D-01  0.211772D+00
     30  0.000000D+00  0.000000D+00 -0.110275D-01  0.000000D+00  0.000000D+00
     31  0.270015D-01 -0.149459D-01  0.000000D+00 -0.196901D-02 -0.732487D-02
     32 -0.247968D-01  0.446277D-02  0.000000D+00 -0.378783D-02  0.881988D-03
     33  0.000000D+00  0.000000D+00 -0.771717D-02  0.000000D+00  0.000000D+00
     34  0.448751D-01 -0.149226D-03  0.000000D+00  0.173922D+00 -0.354850D-02
     35  0.105071D-01 -0.818572D-02  0.000000D+00  0.198376D-01 -0.422847D-01
     36  0.000000D+00  0.000000D+00 -0.112723D-01  0.000000D+00  0.000000D+00
     37  0.529711D-01  0.343290D-01  0.000000D+00  0.476549D-02 -0.200626D+00
     38  0.959431D-01  0.118887D-01  0.000000D+00 -0.160868D+00 -0.586130D-01
     39  0.000000D+00  0.000000D+00 -0.320824D-01  0.000000D+00  0.000000D+00
                6             7             8             9            10 
      6  0.295837D+02
      7  0.000000D+00  0.120808D+02
      8  0.000000D+00  0.180274D+01  0.102239D+02
      9 -0.884657D+01  0.000000D+00  0.000000D+00  0.241749D+02
     10  0.000000D+00 -0.168371D+01  0.908263D+00  0.000000D+00  0.153284D+01
     11  0.000000D+00  0.104349D+01 -0.394303D+01  0.000000D+00 -0.109599D+01
     12  0.955309D-01  0.000000D+00  0.000000D+00 -0.417740D+01  0.000000D+00
     13  0.000000D+00 -0.336019D+01 -0.360465D+01  0.000000D+00 -0.773459D-01
     14  0.000000D+00 -0.396516D+01 -0.571461D+01  0.000000D+00  0.433502D-01
     15 -0.266924D+00  0.000000D+00  0.000000D+00 -0.105404D+02  0.000000D+00
     16  0.000000D+00  0.581790D+00 -0.592062D-01  0.000000D+00  0.221467D+00
     17  0.000000D+00 -0.458997D-01 -0.275128D+00  0.000000D+00  0.116300D-01
     18  0.282728D-01  0.000000D+00  0.000000D+00 -0.209267D+00  0.000000D+00
     19  0.000000D+00  0.247333D+00  0.995725D-01  0.000000D+00 -0.268181D-01
     20  0.000000D+00  0.132970D+00 -0.170575D+00  0.000000D+00 -0.185970D-01
     21 -0.369444D+00  0.000000D+00  0.000000D+00  0.448041D-01  0.000000D+00
     22  0.000000D+00 -0.265582D+00  0.365945D+00  0.000000D+00  0.134562D+00
     23  0.000000D+00  0.318302D+00  0.395108D+00  0.000000D+00  0.197404D+00
     24 -0.870913D+01  0.000000D+00  0.000000D+00 -0.278666D+00  0.000000D+00
     25  0.000000D+00 -0.614224D-01 -0.410659D-01  0.000000D+00  0.253147D-02
     26  0.000000D+00 -0.237923D-01  0.241404D+00  0.000000D+00  0.999808D-02
     27  0.245033D+00  0.000000D+00  0.000000D+00 -0.482960D-01  0.000000D+00
     28  0.000000D+00  0.791369D-01  0.117758D+00  0.000000D+00 -0.305976D-01
     29  0.000000D+00  0.841063D-01 -0.706635D-01  0.000000D+00  0.226776D-01
     30 -0.433988D-01  0.000000D+00  0.000000D+00  0.106218D+00  0.000000D+00
     31  0.000000D+00  0.173477D+00 -0.718100D-01  0.000000D+00  0.139514D-01
     32  0.000000D+00 -0.948303D-01 -0.213605D-01  0.000000D+00 -0.876764D-02
     33 -0.639089D-02  0.000000D+00  0.000000D+00 -0.425210D-01  0.000000D+00
     34  0.000000D+00  0.206946D-01  0.103793D-01  0.000000D+00  0.142751D-01
     35  0.000000D+00  0.133269D-01 -0.621747D-02  0.000000D+00  0.626925D-02
     36 -0.297207D-01  0.000000D+00  0.000000D+00 -0.106825D-01  0.000000D+00
     37  0.000000D+00 -0.988713D-02  0.863578D-01  0.000000D+00  0.329914D-02
     38  0.000000D+00  0.100518D+00  0.152066D+00  0.000000D+00  0.139184D-01
     39  0.133216D+00  0.000000D+00  0.000000D+00 -0.429631D-01  0.000000D+00
               11            12            13            14            15 
     11  0.367361D+01
     12  0.000000D+00  0.417157D+01
     13  0.598710D-01  0.000000D+00  0.968831D+01
     14  0.118929D+00  0.000000D+00  0.753083D+00  0.124289D+02
     15  0.000000D+00  0.107509D+00  0.000000D+00  0.000000D+00  0.243193D+02
     16  0.405163D-01  0.000000D+00 -0.179536D+01  0.270232D+01  0.000000D+00
     17 -0.586333D-01  0.000000D+00  0.236380D+01 -0.675442D+01  0.000000D+00
     18  0.000000D+00 -0.471810D-01  0.000000D+00  0.000000D+00 -0.930803D+01
     19 -0.179611D-01  0.000000D+00 -0.423226D-01  0.459876D+00  0.000000D+00
     20 -0.582107D-02  0.000000D+00  0.433987D+00  0.312324D+00  0.000000D+00
     21  0.000000D+00  0.310405D-02  0.000000D+00  0.000000D+00 -0.289020D+00
     22  0.176377D+00  0.000000D+00 -0.737863D-01  0.628995D-01  0.000000D+00
     23  0.721449D-01  0.000000D+00  0.982386D-01  0.197284D-01  0.000000D+00
     24  0.000000D+00 -0.703105D-01  0.000000D+00  0.000000D+00  0.111513D+00
     25  0.121653D-02  0.000000D+00 -0.123651D-02 -0.864432D-02  0.000000D+00
     26 -0.736952D-02  0.000000D+00 -0.233444D-01  0.306196D-01  0.000000D+00
     27  0.000000D+00  0.126024D-02  0.000000D+00  0.000000D+00 -0.964020D-02
     28  0.351567D-01  0.000000D+00 -0.409836D+01  0.351845D+00  0.000000D+00
     29 -0.145663D-01  0.000000D+00  0.382371D+00 -0.134757D+01  0.000000D+00
     30  0.000000D+00  0.101139D-01  0.000000D+00  0.000000D+00 -0.406290D+01
     31  0.454068D-02  0.000000D+00 -0.133530D+00  0.240412D-01  0.000000D+00
     32 -0.301942D-02  0.000000D+00  0.547022D-02  0.134988D+00  0.000000D+00
     33  0.000000D+00 -0.189507D-02  0.000000D+00  0.000000D+00  0.111355D+00
     34  0.667963D-02  0.000000D+00  0.905951D-01  0.127881D+00  0.000000D+00
     35  0.169623D-02  0.000000D+00  0.102566D+00  0.479382D-01  0.000000D+00
     36  0.000000D+00 -0.223191D-02  0.000000D+00  0.000000D+00 -0.378155D-01
     37  0.129020D-02  0.000000D+00 -0.948593D-02  0.476304D-02  0.000000D+00
     38  0.715181D-02  0.000000D+00  0.205327D-02  0.243174D-01  0.000000D+00
     39  0.000000D+00 -0.103590D-02  0.000000D+00  0.000000D+00 -0.100826D-01
               16            17            18            19            20 
     16  0.109143D+02
     17 -0.106976D+01  0.103907D+02
     18  0.000000D+00  0.000000D+00  0.230729D+02
     19 -0.760406D+01  0.107752D+01  0.000000D+00  0.113402D+02
     20  0.750529D+00 -0.874397D+00  0.000000D+00  0.123491D+01  0.962963D+01
     21  0.000000D+00  0.000000D+00 -0.928415D+01  0.000000D+00  0.000000D+00
     22 -0.280894D+00 -0.389055D+00  0.000000D+00 -0.308694D+01 -0.357169D+01
     23 -0.408588D+00  0.546278D+00  0.000000D+00 -0.384424D+01 -0.464549D+01
     24  0.000000D+00  0.000000D+00 -0.323449D+00  0.000000D+00  0.000000D+00
     25 -0.485235D-02  0.203833D-02  0.000000D+00  0.991787D-01 -0.875296D-01
     26 -0.109025D-01  0.739178D-02  0.000000D+00 -0.132143D+00  0.449805D-01
     27  0.000000D+00  0.000000D+00 -0.468042D-02  0.000000D+00  0.000000D+00
     28  0.260840D-01 -0.148411D+00  0.000000D+00 -0.951123D-02  0.914147D-01
     29 -0.134571D+00 -0.201791D-01  0.000000D+00  0.118974D+00  0.175054D+00
     30  0.000000D+00  0.000000D+00  0.119286D+00  0.000000D+00  0.000000D+00
     31 -0.232436D+01 -0.135672D+01  0.000000D+00  0.106022D+00  0.900130D-01
     32 -0.135890D+01 -0.306803D+01  0.000000D+00  0.106721D+00 -0.125262D+00
     33  0.000000D+00  0.000000D+00 -0.401966D+01  0.000000D+00  0.000000D+00
     34  0.684318D-01 -0.926255D-01  0.000000D+00 -0.173954D+01  0.100701D+01
     35 -0.112577D+00 -0.530608D-01  0.000000D+00  0.971006D+00 -0.367793D+01
     36  0.000000D+00  0.000000D+00  0.988919D-01  0.000000D+00  0.000000D+00
     37 -0.395604D-01 -0.276521D-01  0.000000D+00  0.264847D-01  0.113511D+00
     38 -0.547527D-01  0.171818D+00  0.000000D+00  0.806410D-01 -0.396448D-01
     39  0.000000D+00  0.000000D+00 -0.355497D-01  0.000000D+00  0.000000D+00
               21            22            23            24            25 
     21  0.238519D+02
     22  0.000000D+00  0.830384D+01
     23  0.000000D+00  0.603361D+00  0.117217D+02
     24 -0.984518D+01  0.000000D+00  0.000000D+00  0.230692D+02
     25  0.000000D+00 -0.130738D+00  0.175833D+00  0.000000D+00  0.457516D+01
     26  0.000000D+00  0.157030D+00 -0.933208D-01  0.000000D+00 -0.373197D+00
     27 -0.369900D-01  0.000000D+00  0.000000D+00  0.291384D-01  0.000000D+00
[...]
     Eigenvalues ---    0.29350   0.40344   0.45721   0.65551   0.69558
     Eigenvalues ---    0.74290   0.78350   0.94755   0.99302   1.07293
     Eigenvalues ---    1.12797   1.22194   1.26275
 Angle between quadratic step and forces=  60.20 degrees.
 ClnCor:  largest displacement from symmetrization is 4.48D-15 for atom     9.
 Linear search not attempted -- first point.
 ClnCor:  largest displacement from symmetrization is 4.46D-15 for atom    11.
 B after Tr=     0.000004    0.000007    0.000000
         Rot=    1.000000    0.000000   -0.000000   -0.000000 Ang=   0.00 deg.
 Variable       Old X    -DE/DX   Delta X   Delta X   Delta X     New X
                                 (Linear)    (Quad)   (Total)
    X1        4.56509   0.00000   0.00000   0.00008   0.00009   4.56517
    Y1        1.08723   0.00000   0.00000  -0.00001  -0.00000   1.08723
    Z1        0.32572   0.00000   0.00000   0.00001   0.00001   0.32572
    X2        2.12761   0.00001   0.00000   0.00006   0.00007   2.12768
    Y2        0.50711   0.00002   0.00000   0.00005   0.00005   0.50716
    Z2        0.15180   0.00000   0.00000   0.00000   0.00000   0.15181
    X3        0.34593   0.00002   0.00000   0.00000   0.00001   0.34594
    Y3        2.52417   0.00001   0.00000  -0.00001  -0.00001   2.52417
    Z3        0.01974   0.00000   0.00000   0.00000   0.00000   0.01974
    X4        1.07852  -0.00000   0.00000  -0.00010  -0.00010   1.07842
    Y4        4.43279  -0.00000   0.00000   0.00001   0.00002   4.43281
    Z4        0.06849  -0.00000   0.00000  -0.00001  -0.00001   0.06849
    X5       -2.19820  -0.00003   0.00000  -0.00004  -0.00003  -2.19824
    Y5        2.04439  -0.00003   0.00000  -0.00008  -0.00007   2.04432
    Z5       -0.16204  -0.00000   0.00000  -0.00000  -0.00000  -0.16204
    X6       -3.08475  -0.00001   0.00000  -0.00008  -0.00008  -3.08483
    Y6       -0.43997  -0.00001   0.00000  -0.00002  -0.00002  -0.43999
    Z6       -0.22069  -0.00000   0.00000  -0.00001  -0.00001  -0.22070
    X7       -1.38778  -0.00003   0.00000  -0.00003  -0.00002  -1.38780
    Y7       -2.45635   0.00002   0.00000   0.00009   0.00009  -2.45626
    Z7       -0.09471  -0.00000   0.00000  -0.00000  -0.00000  -0.09471
    X8        1.16313   0.00003   0.00000   0.00003   0.00003   1.16316
    Y8       -2.01111  -0.00001   0.00000   0.00005   0.00005  -2.01105
    Z8        0.08762   0.00000   0.00000   0.00000   0.00000   0.08763
    X9        5.61103   0.00000   0.00000  -0.00001  -0.00000   5.61102
    Y9       -0.53072  -0.00000   0.00000  -0.00008  -0.00007  -0.53079
    Z9        0.40413   0.00000   0.00000  -0.00000  -0.00000   0.40413
   X10       -3.52627   0.00001   0.00000   0.00008   0.00009  -3.52618
   Y10        3.59752  -0.00000   0.00000   0.00001   0.00001   3.59753
   Z10       -0.26059   0.00000   0.00000   0.00001   0.00001  -0.26058
   X11       -5.09202   0.00001   0.00000  -0.00005  -0.00004  -5.09207
   Y11       -0.80545  -0.00000   0.00000  -0.00008  -0.00008  -0.80553
   Z11       -0.36414   0.00000   0.00000  -0.00000  -0.00000  -0.36414
   X12       -2.08925   0.00001   0.00000   0.00012   0.00013  -2.08913
   Y12       -4.37786   0.00001   0.00000   0.00006   0.00007  -4.37779
   Z12       -0.14121   0.00000   0.00000   0.00001   0.00001  -0.14120
   X13        2.48696  -0.00001   0.00000  -0.00013  -0.00013   2.48683
   Y13       -3.57175  -0.00000   0.00000  -0.00007  -0.00006  -3.57181
   Z13        0.18588  -0.00000   0.00000  -0.00001  -0.00001   0.18587
         Item               Value     Threshold  Converged?
 Maximum Force            0.000031     0.000450     YES
 RMS     Force            0.000011     0.000300     YES
 Maximum Displacement     0.000126     0.001800     YES
 RMS     Displacement     0.000053     0.001200     YES
 Predicted change in Energy=-5.806735D-09
 Optimization completed.
    -- Stationary point found.
 GradGradGradGradGradGradGradGradGradGradGradGradGradGradGradGradGradGrad

 Leave Link  103 at Sun Mar  1 23:34:48 2020, MaxMem=  1879048192 cpu:              11.2 elap:               0.3
 (Enter /opt/g16/l9999.exe)

 ----------------------------------------------------------------------

 Electric dipole moment (input orientation):
 (Debye = 10**-18 statcoulomb cm , SI units = C m)
                  (au)            (Debye)         (10**-30 SI)
   Tot        0.991005D+00      0.251888D+01      0.840209D+01
   x         -0.739702D+00     -0.188013D+01     -0.627145D+01
   y         -0.657456D+00     -0.167109D+01     -0.557415D+01
   z         -0.518028D-01     -0.131670D+00     -0.439202D+00

 Dipole polarizability, Alpha (input orientation).
 (esu units = cm**3 , SI units = C**2 m**2 J**-1)
 Alpha(0;0):
               (au)            (10**-24 esu)      (10**-40 SI)
   iso        0.760940D+02      0.112760D+02      0.125462D+02
   aniso      0.563269D+02      0.834679D+01      0.928705D+01
   xx         0.105760D+03      0.156720D+02      0.174374D+02
   yx         0.354914D+01      0.525929D+00      0.585174D+00
   yy         0.803376D+02      0.119048D+02      0.132459D+02
   zx         0.458314D+01      0.679151D+00      0.755658D+00
   zy         0.177003D+00      0.262292D-01      0.291839D-01
   zz         0.421849D+02      0.625116D+01      0.695535D+01

 ----------------------------------------------------------------------

 Dipole orientation:
     7          1.55647059         -1.58687070         -4.14577297
     6          0.72520326         -0.73936746         -1.93244593
     6         -1.16158540          1.18427308         -1.93383422
     1         -1.82052431          1.85608207         -3.74942214
     6         -2.09510595          2.13602672          0.29294512
     6         -1.20617445          1.22973302          2.60592950
     6          0.64080555         -0.65332133          2.67041381
     6          1.59557873         -1.62674269          0.46145314
     1          2.89144728         -2.94792154         -3.85718940
     1         -3.52751503          3.59641294          0.25900315
     1         -1.94954514          1.98762288          4.35415486
     1          1.32099024         -1.34679107          4.47120534
     1          3.02995109         -3.08913054          0.50356402

 Electric dipole moment (dipole orientation):
 (Debye = 10**-18 statcoulomb cm , SI units = C m)
                  (au)            (Debye)         (10**-30 SI)
   Tot        0.991005D+00      0.251888D+01      0.840209D+01
   x          0.000000D+00      0.000000D+00      0.000000D+00
   y          0.000000D+00      0.000000D+00      0.000000D+00
   z          0.991005D+00      0.251888D+01      0.840209D+01

 Dipole polarizability, Alpha (dipole orientation).
 (esu units = cm**3 , SI units = C**2 m**2 J**-1)
 Alpha(0;0):
               (au)            (10**-24 esu)      (10**-40 SI)
   iso        0.760940D+02      0.112760D+02      0.125462D+02
   aniso      0.563269D+02      0.834679D+01      0.928705D+01
   xx         0.645525D+02      0.956570D+01      0.106433D+02
   yx        -0.231398D+02     -0.342896D+01     -0.381523D+01
   yy         0.654478D+02      0.969836D+01      0.107909D+02
   zx        -0.865297D+01     -0.128224D+01     -0.142668D+01
   zy         0.882197D+01      0.130728D+01      0.145455D+01
   zz         0.982818D+02      0.145639D+02      0.162045D+02

 ----------------------------------------------------------------------

 Test job not archived.
 1\1\GINC-NODE08\Freq\UwB97XD\def2TZVP\C6H6N1(2)\ALONGD\01-Mar-2020\0\\
 #P guess=read uwb97xd/def2tzvp freq iop(7/33=1) scf=(tight, direct) in
 tegral=(grid=ultrafine, Acc2E=12) scf=xqc iop(2/9=2000)\\name\\0,2\N,2
 .4157410212,0.5753359994,0.1723627042\C,1.1258829885,0.2683510003,0.08
 03311598\C,0.1830579888,1.3357340003,0.0104441564\H,0.5707280198,2.345
 7309994,0.0362457247\C,-1.1632389956,1.0818459999,-0.0857490611\C,-1.6
 323800145,-0.2328219996,-0.1167857978\C,-0.7343809665,-1.2998460009,-0
 .0501194668\C,0.6155039648,-1.064230999,0.0463684901\H,2.9692280031,-0
 .2808470001,0.2138549565\H,-1.8660209984,1.903726,-0.1378960225\H,-2.6
 945819745,-0.4262260007,-0.1926943554\H,-1.105583974,-2.3166620007,-0.
 0747243622\H,1.3160409823,-1.8900889995,0.0983622463\\Version=ES64L-G1
 6RevB.01\State=2-A"\HF=-286.9537804\S2=0.807761\S2-1=0.\S2A=0.752196\R
 MSD=7.860e-09\RMSF=1.114e-05\ZeroPoint=0.1045516\Thermal=0.1098793\Dip
 ole=-0.7397016,-0.6574561,-0.0518028\DipoleDeriv=-0.2189173,-0.0214884
 ,0.0171027,-0.0890299,-0.0925326,-0.0071322,0.0172395,-0.0022805,-0.45
 5161,-0.2250038,-0.0583978,-0.0242696,-0.0892157,0.0239213,-0.0062251,
 -0.0242072,-0.0040114,0.1127779,0.1764376,0.1734279,0.0203103,0.026824
 3,0.032056,0.0016367,0.0206072,0.0121676,-0.1097432,0.0574595,-0.04572
 2,-0.0053292,-0.0169917,-0.0155122,-0.0009199,-0.0053873,-0.0029836,0.
 1325566,-0.1039658,-0.2133086,0.002533,-0.2114517,-0.0466001,-0.015364
 5,0.0025292,-0.0154978,-0.1330008,0.1547107,0.0272732,0.0186946,-0.017
 7374,0.0690541,-0.0016293,0.0187857,0.0016039,-0.1049653,-0.2790205,0.
 0911202,-0.0096367,0.1505821,0.0941616,0.0103273,-0.0097572,0.006056,-
 0.1481468,0.2174811,-0.0713346,0.0215668,0.032698,-0.0168061,0.0022193
 ,0.0213561,-0.0052536,-0.0792021,0.2521814,0.0342023,0.0004441,0.16648
 99,-0.0229946,0.0125022,0.0001762,0.0029997,0.2450415,0.0049668,0.0738
 227,-0.0095332,0.0820341,-0.0166413,0.006201,-0.0095498,0.0056112,0.13
 49025,-0.0693555,-0.0252567,-0.0147342,-0.0254265,0.0642325,-0.0016801
 ,-0.0147339,-0.0016679,0.1354217,0.0512349,-0.0460251,-0.0058153,-0.05
 64578,-0.0670506,-0.0036493,-0.0057942,-0.0028999,0.1330789,-0.0182092
 ,0.081687,-0.0113333,0.0476825,-0.005288,0.0037138,-0.0112644,0.006156
 5,0.1364401\Polar=105.7595675,3.5491422,80.3376422,4.5831395,0.1770034
 ,42.1849153\Quadrupole=0.3314792,2.49324,-2.8247192,-3.8380897,0.23574
 82,-0.2865046\PG=CS [SG(C6H6N1)]\NImag=0\\0.55202687,-0.10147625,0.433
 12377,0.03675797,-0.00807906,0.04582465,-0.29222261,-0.01390203,-0.017
 78964,0.59533799,-0.07512839,-0.11864049,-0.00524582,-0.01742724,0.635
 63575,-0.01766563,-0.00084779,-0.04544231,0.03123285,-0.00221309,0.163
 27428,-0.09111765,0.02189478,-0.00657551,-0.10828862,0.06939170,-0.002
 70068,0.68986082,0.03202339,0.02009079,0.00225922,0.05790095,-0.238021
 91,0.00449409,0.07104720,0.69889558,-0.00659602,0.00153166,-0.00067205
 ,-0.00267740,0.00531950,-0.07285125,0.03960291,0.00396448,0.13936871,0
 .00178519,-0.00040791,0.00033967,0.01009787,0.01986077,0.00035727,-0.0
 9375999,-0.09491577,-0.00384248,0.09422002,-0.00208445,0.00171970,-0.0
 0015915,-0.01080346,-0.01862954,-0.00072906,-0.09361394,-0.31066969,-0
 .00617141,0.10195866,0.32666453,0.00034307,-0.00003872,-0.00290729,0.0
 0041937,0.00147362,0.00459137,-0.00384512,-0.00626492,-0.03785475,0.00
 477754,0.00671260,0.02516507,0.01955504,0.00848581,0.00101591,-0.06420
 839,0.03176683,-0.00509522,-0.34937417,-0.07097246,-0.02060454,-0.0043
 1901,0.00140066,-0.00068345,0.70117682,0.02148631,-0.00056736,0.001555
 03,-0.01067805,0.03809534,-0.00083238,0.00774971,-0.14254151,0.0007227
 8,-0.02925661,0.00082399,-0.00209279,-0.06229826,0.68664471,0.00098958
 ,0.00062118,0.00524279,-0.00500925,0.00221653,0.00546386,-0.02076398,-
 0.00493200,-0.06201185,-0.00062136,0.00010939,0.00511123,0.04096492,-0
 .00559707,0.13560074,-0.01612226,-0.00311911,-0.00112262,0.02044093,0.
 01349404,0.00202787,-0.01507841,-0.03447123,-0.00148337,-0.00554396,-0
 .00041316,-0.00098061,-0.14811723,-0.08987604,-0.00607921,0.73005049,-
 0.00188737,-0.00187847,-0.00013259,0.01099918,-0.04543247,0.00086556,-
 0.09608066,0.00433985,-0.00689722,-0.00013008,0.00170199,0.00000365,-0
 .00152866,-0.28624929,0.00034650,0.02070208,0.62591816,-0.00112512,-0.
 00022107,-0.00048631,0.00203293,0.00104478,-0.00802635,-0.00135859,-0.
 00247168,0.00645147,-0.00098119,-0.00001668,0.00804870,-0.00625814,-0.
 00599968,-0.06138982,0.04297769,0.00048501,0.13424599,0.02836377,0.004
 73106,0.00189879,-0.04666301,-0.06668025,-0.00368693,-0.04906811,0.005
 28824,-0.00329752,-0.00080507,0.00078198,0.00000097,0.06843950,0.04836
 572,0.00437063,-0.19365759,0.03562100,-0.00962874,0.65697459,-0.012063
 17,-0.00939737,-0.00084385,-0.02126484,0.01810365,-0.00155091,0.017953
 60,-0.00351876,0.00129007,0.00048469,0.00028688,0.00003253,-0.00186357
 ,-0.05435690,-0.00001115,0.12388831,-0.23966744,0.00926181,0.05106993,
 0.72939630,0.00193281,0.00036251,0.00193471,-0.00377891,-0.00481320,0.
 00628237,-0.00332317,0.00038029,-0.00355076,0.00000157,0.00005389,-0.0
 0084062,0.00447236,0.00359693,0.00654478,-0.00980751,0.00292138,-0.061
 32742,0.03772664,0.00245514,0.13303427,-0.06111860,-0.05088946,-0.0058
 0333,-0.08551336,-0.00635549,-0.00083802,0.03921021,0.01509615,0.00228
 182,-0.00286433,0.00363443,-0.00052214,-0.03588555,-0.03068788,-0.0022
 6307,-0.05606649,0.07400866,-0.00463129,-0.34282799,-0.08399442,-0.020
 27626,0.72355924,-0.05765281,-0.01521026,-0.00406777,0.00148812,-0.255
 19148,0.00047455,0.01040263,-0.02899786,0.00082019,0.00302448,-0.00215
 164,0.00023033,-0.01701320,-0.01656050,-0.00119567,0.01120580,0.044192
 06,0.00072823,-0.00441042,-0.14474647,-0.00014150,-0.05644446,0.643640
 15,-0.00578963,-0.00358195,0.02069771,-0.00085391,-0.00008888,-0.07372
 891,0.00229133,0.00115734,0.00718082,-0.00052091,0.00027414,0.00426413
 ,-0.00229077,-0.00217796,-0.00367540,-0.00450409,0.00523950,0.00598639
 ,-0.02043745,-0.00585819,-0.05964322,0.04278908,-0.00509591,0.13255333
 ,-0.14198436,0.13615875,-0.00906204,-0.02831518,0.04242043,-0.00213293
 ,-0.00714223,-0.00311378,-0.00124139,0.00008299,-0.00006436,0.00001611
 ,-0.00004998,0.00248436,0.00005664,0.00007449,-0.00007442,-0.00000341,
 0.00080886,-0.00020145,-0.00003142,0.00217268,0.00101216,0.00068322,0.
 17492292,0.19552982,-0.31189099,0.01463719,-0.01580437,0.00024137,-0.0
 0113538,0.00090373,0.00122804,0.00008314,-0.00059050,0.00063161,-0.000
 04398,0.00008308,-0.00031063,0.00000476,-0.00031634,0.00015148,-0.0000
 2278,0.00021970,0.00001331,0.00001829,-0.00448413,0.00268707,-0.000342
 47,-0.17645724,0.30718838,-0.00918229,0.01037244,-0.02034831,-0.002015
 01,0.00304703,0.00003111,-0.00124952,-0.00020544,0.01013798,0.00001718
 ,-0.00000618,-0.00013821,0.00006151,0.00017725,-0.00090453,-0.00000292
 ,-0.00000540,0.00012388,-0.00003227,-0.00001196,0.00124964,0.00069435,
 0.00005234,-0.00731745,0.01174066,-0.01326415,0.01732282,-0.00095219,0
 .00137633,-0.00008010,-0.00374209,-0.00357743,-0.00092400,-0.01518151,
 0.02634168,-0.00142657,0.00087527,-0.00042343,0.00040703,-0.17908848,0
 .13866913,-0.01035304,0.01090375,-0.00978285,0.00059790,0.00033986,-0.
 00261447,-0.00043808,-0.00054162,-0.00067350,0.00001168,-0.00049622,0.
 00011035,0.00001605,0.18682651,-0.00004618,0.00033578,-0.00000375,-0.0
 0199380,0.00062532,-0.00012581,-0.00546340,0.00865461,-0.00040201,0.00
 031587,0.00070785,0.00001158,0.13868239,-0.22340123,0.01033560,0.02164
 665,-0.01670465,0.00159454,-0.00309702,-0.00438765,-0.00020039,-0.0011
 3856,0.00018206,-0.00008354,-0.00015421,0.00003919,-0.00001262,-0.1494
 9227,0.23403301,-0.00007722,0.00009844,0.00011837,-0.00092720,-0.00023
 956,0.00915592,-0.00136215,0.00188262,0.00383386,0.00040553,-0.0000415
 3,-0.00475000,-0.01035307,0.01033465,-0.03963478,0.00053425,-0.0006631
 1,0.00289572,-0.00043710,-0.00016573,0.00648116,0.00001262,-0.00005014
 ,-0.00068417,0.00001658,0.00000638,-0.00072152,0.01180883,-0.01115839,
 0.02751775,0.00002776,-0.00010393,0.00003260,0.00055395,0.00030168,0.0
 0011922,0.00129124,-0.00195759,-0.00037064,-0.00036787,0.00012001,-0.0
 0001061,-0.00573428,0.00118354,-0.00070410,-0.33327421,-0.04953982,-0.
 02126713,-0.01448175,-0.00675397,-0.00130700,-0.00061801,0.00371500,-0
 .00051565,0.00006842,0.00008098,0.00000498,0.00066880,-0.00036392,0.00
 029340,0.35196997,-0.00008443,0.00030261,-0.00000753,0.00038221,-0.001
 25170,0.00002773,-0.00157456,-0.00560618,-0.00008857,-0.00139055,-0.00
 008072,-0.00010018,-0.02977257,0.00061533,-0.00213170,-0.04962605,-0.0
 7032604,-0.00349484,0.02433292,0.00902187,0.00173752,0.00330686,-0.003
 52768,0.00025776,-0.00011376,0.00003465,-0.00000825,0.00046976,0.00085
 362,0.00002512,0.05332896,0.06890798,0.00003256,-0.00000894,-0.0004207
 4,0.00011905,0.00002195,-0.00110570,-0.00037141,-0.00011609,0.00647974
 ,-0.00000755,0.00000833,-0.00022416,-0.00064141,0.00009194,0.00398814,
 -0.02126696,-0.00348865,-0.03733099,-0.00136996,-0.00049552,0.00380643
 ,-0.00051482,0.00028708,0.00641823,0.00000538,0.00000574,-0.00000288,0
 .00029171,-0.00003477,-0.00338440,0.02347808,0.00373901,0.02529895,-0.
 00064003,-0.00192381,0.00004790,-0.00529094,0.00144872,-0.00106235,-0.
 00101711,0.00023674,-0.00000921,0.00008465,-0.00008215,0.00007039,-0.0
 0217201,0.00341374,-0.00063417,0.01152200,0.02025415,0.00059062,-0.093
 65292,-0.09044417,-0.00380493,-0.00549344,-0.03140939,-0.00059280,0.00
 020419,0.00007442,-0.00001141,0.00037290,0.00100435,0.00001727,0.00073
 060,-0.00050325,0.00029744,0.09457399,-0.00029830,-0.00032811,-0.00002
 330,-0.00016877,0.00198391,0.00000301,0.00070947,0.00068911,0.00004775
 ,-0.00007572,-0.00002174,-0.00000720,0.00397696,-0.00195867,0.00030293
 ,-0.01127735,-0.01716998,-0.00076977,-0.09026431,-0.30913031,-0.005935
 01,0.00026289,-0.00125033,0.00002880,0.00007497,0.00002688,0.00000606,
 -0.00050971,-0.00097027,-0.00003444,0.00030920,0.00081526,0.00001368,0
 .09755078,0.32650019,0.00004461,-0.00014006,-0.00124920,-0.00105907,0.
 00011920,0.00938118,-0.00001016,0.00001380,-0.00089637,0.00007038,-0.0
 0000767,-0.00088789,-0.00063531,0.00026247,0.00651408,0.00065448,0.001
 49520,0.00277269,-0.00380529,-0.00594793,-0.03839435,-0.00065695,-0.00
 224629,0.00360216,-0.00001141,0.00000602,0.00036014,0.00002033,0.00007
 432,0.00010553,0.00029580,-0.00004468,-0.00337466,0.00470596,0.0063992
 9,0.02663524,0.00239908,-0.00082423,0.00034038,0.00781347,-0.00951536,
 0.00036854,-0.00033446,-0.00250355,-0.00033560,0.00051424,-0.00041078,
 0.00000745,-0.00022226,-0.00055566,0.00004641,-0.00513150,-0.00256122,
 -0.00094553,-0.01377016,0.02580353,-0.00136610,-0.17401275,0.13675559,
 -0.01027010,-0.00034657,0.00065051,-0.00004130,0.00001501,0.00010010,0
 .00006828,-0.00083462,0.00124448,-0.00005211,0.00077811,-0.00029012,0.
 00038664,0.18313242,0.00168183,0.00234039,0.00011138,0.02127209,-0.017
 51776,0.00156948,-0.00332025,-0.00454207,-0.00022037,0.00112267,-0.000
 98323,0.00008349,-0.00094700,-0.00023329,-0.00006928,-0.00183759,0.001
 12481,-0.00011786,-0.00595856,0.00838287,-0.00043584,0.13768540,-0.223
 06514,0.01027135,-0.00197146,-0.00004035,-0.00014111,0.00010640,0.0000
 3236,0.00000568,-0.00032015,0.00024100,-0.00002378,0.00037988,0.000814
 05,0.00001633,-0.14789328,0.23344637,0.00033531,-0.00006864,-0.0022920
 2,0.00030619,-0.00064205,0.00297443,-0.00033394,-0.00016171,0.00438445
 ,0.00000435,-0.00002666,0.00042242,0.00004720,-0.00004117,-0.00084924,
 -0.00094699,-0.00016984,0.00803605,-0.00130177,0.00184570,0.00442301,-
 0.01027199,0.01020456,-0.03565360,-0.00003599,0.00004723,0.00020733,0.
 00006827,0.00000522,-0.00093344,-0.00004894,0.00008861,-0.00014796,0.0
 0038529,-0.00003180,-0.00456855,0.01179303,-0.01104947,0.02399712\\-0.
 00000144,-0.00000390,-0.00000010,-0.00000579,-0.00001536,-0.00000038,-
 0.00001666,-0.00001121,-0.00000117,0.00000354,0.00000474,0.00000024,0.
 00002648,0.00002837,0.00000184,0.00000778,0.00000569,0.00000055,0.0000
 3122,-0.00001701,0.00000228,-0.00002871,0.00000775,-0.00000208,-0.0000
 0004,0.00000362,0.,-0.00000801,0.00000171,-0.00000058,-0.00000751,0.00
 000250,-0.00000054,-0.00000919,-0.00000753,-0.00000064,0.00000834,0.00
 000065,0.00000060\\\@


 I KNOW YOU BELIEVE YOU UNDERSTAND WHAT YOU THINK I SAID,
 BUT I AM NOT SURE YOU REALIZE THAT WHAT YOU HEARD IS NOT WHAT I MEANT.
 Job cpu time:       0 days  3 hours 31 minutes 42.7 seconds.
 Elapsed time:       0 days  0 hours  5 minutes 53.9 seconds.
 File lengths (MBytes):  RWF=    144 Int=      0 D2E=      0 Chk=      8 Scr=      1
 Normal termination of Gaussian 16 at Sun Mar  1 23:34:49 2020.
