 Entering Gaussian System, Link 0=g09
 Initial command:
 /cm/shared/c3ddb/gaussian/09.d01/g09/l1.exe "/scratch/users/alongd/g09/a16787-7359114/Gau-56457.inp" -scrdir="/scratch/users/alongd/g09/a16787-7359114/"
 Entering Link 1 = /cm/shared/c3ddb/gaussian/09.d01/g09/l1.exe PID=     56458.
  
 Copyright (c) 1988,1990,1992,1993,1995,1998,2003,2009,2013,
            Gaussian, Inc.  All Rights Reserved.
  
 This is part of the Gaussian(R) 09 program.  It is based on
 the Gaussian(R) 03 system (copyright 2003, Gaussian, Inc.),
 the Gaussian(R) 98 system (copyright 1998, Gaussian, Inc.),
 the Gaussian(R) 94 system (copyright 1995, Gaussian, Inc.),
 the Gaussian 92(TM) system (copyright 1992, Gaussian, Inc.),
 the Gaussian 90(TM) system (copyright 1990, Gaussian, Inc.),
 the Gaussian 88(TM) system (copyright 1988, Gaussian, Inc.),
 the Gaussian 86(TM) system (copyright 1986, Carnegie Mellon
 University), and the Gaussian 82(TM) system (copyright 1983,
 Carnegie Mellon University). Gaussian is a federally registered
 trademark of Gaussian, Inc.
  
 This software contains proprietary and confidential information,
 including trade secrets, belonging to Gaussian, Inc.
  
 This software is provided under written license and may be
 used, copied, transmitted, or stored only in accord with that
 written license.
  
 The following legend is applicable only to US Government
 contracts under FAR:
  
                    RESTRICTED RIGHTS LEGEND
  
 Use, reproduction and disclosure by the US Government is
 subject to restrictions as set forth in subparagraphs (a)
 and (c) of the Commercial Computer Software - Restricted
 Rights clause in FAR 52.227-19.
  
 Gaussian, Inc.
 340 Quinnipiac St., Bldg. 40, Wallingford CT 06492
  
  
 ---------------------------------------------------------------
 Warning -- This program may not be used in any manner that
 competes with the business of Gaussian, Inc. or will provide
 assistance to any competitor of Gaussian, Inc.  The licensee
 of this program is prohibited from giving any competitor of
 Gaussian, Inc. access to this program.  By using this program,
 the user acknowledges that Gaussian, Inc. is engaged in the
 business of creating and licensing software in the field of
 computational chemistry and represents and warrants to the
 licensee that it is not a competitor of Gaussian, Inc. and that
 it will not use this program in any manner prohibited above.
 ---------------------------------------------------------------
  

 Cite this work as:
 Gaussian 09, Revision D.01,
 M. J. Frisch, G. W. Trucks, H. B. Schlegel, G. E. Scuseria, 
 M. A. Robb, J. R. Cheeseman, G. Scalmani, V. Barone, B. Mennucci, 
 G. A. Petersson, H. Nakatsuji, M. Caricato, X. Li, H. P. Hratchian, 
 A. F. Izmaylov, J. Bloino, G. Zheng, J. L. Sonnenberg, M. Hada, 
 M. Ehara, K. Toyota, R. Fukuda, J. Hasegawa, M. Ishida, T. Nakajima, 
 Y. Honda, O. Kitao, H. Nakai, T. Vreven, J. A. Montgomery, Jr., 
 J. E. Peralta, F. Ogliaro, M. Bearpark, J. J. Heyd, E. Brothers, 
 K. N. Kudin, V. N. Staroverov, T. Keith, R. Kobayashi, J. Normand, 
 K. Raghavachari, A. Rendell, J. C. Burant, S. S. Iyengar, J. Tomasi, 
 M. Cossi, N. Rega, J. M. Millam, M. Klene, J. E. Knox, J. B. Cross, 
 V. Bakken, C. Adamo, J. Jaramillo, R. Gomperts, R. E. Stratmann, 
 O. Yazyev, A. J. Austin, R. Cammi, C. Pomelli, J. W. Ochterski, 
 R. L. Martin, K. Morokuma, V. G. Zakrzewski, G. A. Voth, 
 P. Salvador, J. J. Dannenberg, S. Dapprich, A. D. Daniels, 
 O. Farkas, J. B. Foresman, J. V. Ortiz, J. Cioslowski, 
 and D. J. Fox, Gaussian, Inc., Wallingford CT, 2013.
 
 ******************************************
 Gaussian 09:  AS64L-G09RevD.01 24-Apr-2013
                19-Feb-2019 
 ******************************************
 %chk=check.chk
 %mem=1500mb
 %nproc=8
 Will use up to    8 processors via shared memory.
 -------------------------------------------------
 #P uwb97xd/6-311++g(d,p) freq iop(7/33=1) scf=xqc
 -------------------------------------------------
 1/10=4,30=1,38=1/1,3;
 2/12=2,17=6,18=5,40=1/2;
 3/5=4,6=6,7=1111,11=2,16=1,25=1,30=1,71=2,74=-58,116=2,140=1/1,2,3;
 4//1;
 5/5=2,8=3,13=1,38=5,98=1/2,8;
 8/6=4,10=90,11=11/1;
 11/6=1,8=1,9=11,15=111,16=1/1,2,10;
 10/6=1/2;
 6/7=2,8=2,9=2,10=2,18=1,28=1/1;
 7/8=1,10=1,25=1,33=1/1,2,3,16;
 1/10=4,30=1/3;
 99//99;
 Leave Link    1 at Tue Feb 19 10:58:00 2019, MaxMem=   196608000 cpu:         0.8
 (Enter /cm/shared/c3ddb/gaussian/09.d01/g09/l101.exe)
 ----
 name
 ----
 Symbolic Z-matrix:
 Charge =  0 Multiplicity = 2
 O                    -0.80317  -1.03768  -0.0531 
 O                    -0.81647   1.0222    0.05343 
 C                     1.38663   0.00653  -0.0018 
 C                    -0.10178  -0.0036    0.00839 
 H                     1.77041  -0.9121    0.44322 
 H                     1.72489   0.06231  -1.03953 
 H                     1.75885   0.8793    0.53574 
 
 NAtoms=      7 NQM=        7 NQMF=       0 NMMI=      0 NMMIF=      0
                NMic=       0 NMicF=      0.
                    Isotopes and Nuclear Properties:
 (Nuclear quadrupole moments (NQMom) in fm**2, nuclear magnetic moments (NMagM)
  in nuclear magnetons)

  Atom         1           2           3           4           5           6           7
 IAtWgt=          16          16          12          12           1           1           1
 AtmWgt=  15.9949146  15.9949146  12.0000000  12.0000000   1.0078250   1.0078250   1.0078250
 NucSpn=           0           0           0           0           1           1           1
 AtZEff=   0.0000000   0.0000000   0.0000000   0.0000000   0.0000000   0.0000000   0.0000000
 NQMom=    0.0000000   0.0000000   0.0000000   0.0000000   0.0000000   0.0000000   0.0000000
 NMagM=    0.0000000   0.0000000   0.0000000   0.0000000   2.7928460   2.7928460   2.7928460
 AtZNuc=   8.0000000   8.0000000   6.0000000   6.0000000   1.0000000   1.0000000   1.0000000
 Leave Link  101 at Tue Feb 19 10:58:00 2019, MaxMem=   196608000 cpu:         0.5
 (Enter /cm/shared/c3ddb/gaussian/09.d01/g09/l103.exe)

 GradGradGradGradGradGradGradGradGradGradGradGradGradGradGradGradGradGrad
 Berny optimization.
 Initialization pass.
 Trust Radius=3.00D-01 FncErr=1.00D-07 GrdErr=1.00D-07
 Number of steps in this run=      2 maximum allowed number of steps=      2.
 GradGradGradGradGradGradGradGradGradGradGradGradGradGradGradGradGradGrad

 Leave Link  103 at Tue Feb 19 10:58:00 2019, MaxMem=   196608000 cpu:         0.1
 (Enter /cm/shared/c3ddb/gaussian/09.d01/g09/l202.exe)
                          Input orientation:                          
 ---------------------------------------------------------------------
 Center     Atomic      Atomic             Coordinates (Angstroms)
 Number     Number       Type             X           Y           Z
 ---------------------------------------------------------------------
      1          8           0       -0.803174   -1.037684   -0.053100
      2          8           0       -0.816466    1.022198    0.053431
      3          6           0        1.386630    0.006532   -0.001795
      4          6           0       -0.101780   -0.003598    0.008386
      5          1           0        1.770406   -0.912098    0.443223
      6          1           0        1.724888    0.062313   -1.039531
      7          1           0        1.758846    0.879295    0.535743
 ---------------------------------------------------------------------
                    Distance matrix (angstroms):
                    1          2          3          4          5
     1  O    0.000000
     2  O    2.062678   0.000000
     3  C    2.426574   2.426574   0.000000
     4  C    1.251027   1.251025   1.488479   0.000000
     5  H    2.624009   3.253513   1.090507   2.125920   0.000000
     6  H    2.928163   2.928212   1.092898   2.106939   1.774854
     7  H    3.253535   2.623981   1.090508   2.125920   1.793818
                    6          7
     6  H    0.000000
     7  H    1.774852   0.000000
 Stoichiometry    C2H3O2(2)
 Framework group  C1[X(C2H3O2)]
 Deg. of freedom    15
 Full point group                 C1      NOp   1
 Largest Abelian subgroup         C1      NOp   1
 Largest concise Abelian subgroup C1      NOp   1
                         Standard orientation:                         
 ---------------------------------------------------------------------
 Center     Atomic      Atomic             Coordinates (Angstroms)
 Number     Number       Type             X           Y           Z
 ---------------------------------------------------------------------
      1          8           0        0.810034   -1.031339    0.001650
      2          8           0        0.810033    1.031339    0.001649
      3          6           0       -1.386459   -0.000001   -0.002918
      4          6           0        0.102009    0.000001   -0.008687
      5          1           0       -1.762835   -0.896875   -0.496035
      6          1           0       -1.728158   -0.000071    1.035189
      7          1           0       -1.762835    0.896943   -0.495910
 ---------------------------------------------------------------------
 Rotational constants (GHZ):     13.5764669      9.2604418      5.7011638
 Leave Link  202 at Tue Feb 19 10:58:00 2019, MaxMem=   196608000 cpu:         0.3
 (Enter /cm/shared/c3ddb/gaussian/09.d01/g09/l301.exe)
 Standard basis: 6-311++G(d,p) (5D, 7F)
 Ernie: Thresh=  0.10000D-02 Tol=  0.10000D-05 Strict=F.
 There are   113 symmetry adapted cartesian basis functions of A   symmetry.
 There are   109 symmetry adapted basis functions of A   symmetry.
   109 basis functions,   171 primitive gaussians,   113 cartesian basis functions
    16 alpha electrons       15 beta electrons
       nuclear repulsion energy       113.5945232897 Hartrees.
 IExCor= 4639 DFT=T Ex+Corr=wB97XD ExCW=0 ScaHFX=  1.000000
 ScaDFX=  1.000000  1.000000  1.000000  1.000000 ScalE2=  1.000000  1.000000
 IRadAn=      0 IRanWt=     -1 IRanGd=            0 ICorTp=0 IEmpDi=121
  HFx wShort=  0.000000 wLong=  0.200000 cFull=  0.222036 cShort=  0.000000 cLong=  0.777964
  DFx wShort=  0.000000 wLong=  0.200000 cFull=  0.000000 cShort=  0.000000 cLong=  1.000000
 NAtoms=    7 NActive=    7 NUniq=    7 SFac= 1.00D+00 NAtFMM=   60 NAOKFM=F Big=F
 Integral buffers will be    131072 words long.
 Raffenetti 2 integral format.
 Two-electron integral symmetry is turned on.
 R6Disp:  Grimme-D2 Dispersion energy=       -0.0012639984 Hartrees.
 Nuclear repulsion after empirical dispersion term =      113.5932592912 Hartrees.
 Leave Link  301 at Tue Feb 19 10:58:00 2019, MaxMem=   196608000 cpu:         0.4
 (Enter /cm/shared/c3ddb/gaussian/09.d01/g09/l302.exe)
 NPDir=0 NMtPBC=     1 NCelOv=     1 NCel=       1 NClECP=     1 NCelD=      1
         NCelK=      1 NCelE2=     1 NClLst=     1 CellRange=     0.0.
 One-electron integrals computed using PRISM.
 NBasis=   109 RedAO= T EigKep=  1.28D-04  NBF=   109
 NBsUse=   109 1.00D-06 EigRej= -1.00D+00 NBFU=   109
 Precomputing XC quadrature grid using
 IXCGrd= 4 IRadAn=           0 IRanWt=          -1 IRanGd=           0 AccXCQ= 0.00D+00.
 Generated NRdTot=       0 NPtTot=           0 NUsed=           0 NTot=          32
 NSgBfM=   113   113   113   113   113 MxSgAt=     7 MxSgA2=     7.
 Leave Link  302 at Tue Feb 19 10:58:01 2019, MaxMem=   196608000 cpu:         5.3
 (Enter /cm/shared/c3ddb/gaussian/09.d01/g09/l303.exe)
 DipDrv:  MaxL=1.
 Leave Link  303 at Tue Feb 19 10:58:01 2019, MaxMem=   196608000 cpu:         0.9
 (Enter /cm/shared/c3ddb/gaussian/09.d01/g09/l401.exe)
 ExpMin= 3.60D-02 ExpMax= 8.59D+03 ExpMxC= 1.30D+03 IAcc=3 IRadAn=         5 AccDes= 0.00D+00
 Harris functional with IExCor= 4639 and IRadAn=       5 diagonalized for initial guess.
 HarFok:  IExCor= 4639 AccDes= 0.00D+00 IRadAn=         5 IDoV= 1 UseB2=F ITyADJ=14
 ICtDFT=  3500011 ScaDFX=  1.000000  1.000000  1.000000  1.000000
 FoFCou: FMM=F IPFlag=           0 FMFlag=      100000 FMFlg1=           0
         NFxFlg=           0 DoJE=T BraDBF=F KetDBF=T FulRan=T
         wScrn=  0.000000 ICntrl=     500 IOpCl=  0 I1Cent=   200000004 NGrid=           0
         NMat0=    1 NMatS0=      1 NMatT0=    0 NMatD0=    1 NMtDS0=    0 NMtDT0=    0
 Petite list used in FoFCou.
 Harris En= -219.655513389746    
 JPrj=0 DoOrth=F DoCkMO=F.
 Initial guess <Sx>= 0.0000 <Sy>= 0.0000 <Sz>= 0.5000 <S**2>= 0.7500 S= 0.5000
 Leave Link  401 at Tue Feb 19 10:58:03 2019, MaxMem=   196608000 cpu:        13.7
 (Enter /cm/shared/c3ddb/gaussian/09.d01/g09/l502.exe)
 UHF open shell SCF:
 Using DIIS extrapolation, IDIIS=  1040.
 Integral symmetry usage will be decided dynamically.
 Keep R1 and R2 ints in memory in canonical form, NReq=72873449.
 IVT=       45993 IEndB=       45993 NGot=   196608000 MDV=   124669968
 LenX=   124669968 LenY=   124656758
 Requested convergence on RMS density matrix=1.00D-08 within  64 cycles.
 Requested convergence on MAX density matrix=1.00D-06.
 Requested convergence on             energy=1.00D-06.
 No special actions if energy rises.
 FoFCou: FMM=F IPFlag=           0 FMFlag=           0 FMFlg1=           0
         NFxFlg=           0 DoJE=F BraDBF=F KetDBF=F FulRan=T
         wScrn=  0.000000 ICntrl=     600 IOpCl=  0 I1Cent=           0 NGrid=           0
         NMat0=    1 NMatS0=   5995 NMatT0=    0 NMatD0=    1 NMtDS0=    0 NMtDT0=    0
 Symmetry not used in FoFCou.

 Cycle   1  Pass 1  IDiag  1:
 E= -228.303270586013    
 DIIS: error= 1.04D-01 at cycle   1 NSaved=   1.
 NSaved= 1 IEnMin= 1 EnMin= -228.303270586013     IErMin= 1 ErrMin= 1.04D-01
 ErrMax= 1.04D-01  0.00D+00 EMaxC= 1.00D-01 BMatC= 2.04D+00 BMatP= 2.04D+00
 IDIUse=3 WtCom= 0.00D+00 WtEn= 1.00D+00
 Coeff-Com:  0.100D+01
 Coeff-En:   0.100D+01
 Coeff:      0.100D+01
 Gap=     0.577 Goal=   None    Shift=    0.000
 Gap=     0.282 Goal=   None    Shift=    0.000
 GapD=    0.282 DampG=1.000 DampE=0.250 DampFc=0.2500 IDamp=-1.
 Damping current iteration by 2.50D-01
 RMSDP=5.96D-03 MaxDP=1.95D-01              OVMax= 1.18D-01

 Cycle   2  Pass 1  IDiag  1:
 E= -228.334576538365     Delta-E=       -0.031305952352 Rises=F Damp=T
 DIIS: error= 7.60D-02 at cycle   2 NSaved=   2.
 NSaved= 2 IEnMin= 2 EnMin= -228.334576538365     IErMin= 2 ErrMin= 7.60D-02
 ErrMax= 7.60D-02  0.00D+00 EMaxC= 1.00D-01 BMatC= 1.00D+00 BMatP= 2.04D+00
 IDIUse=3 WtCom= 2.40D-01 WtEn= 7.60D-01
 Coeff-Com: -0.209D+01 0.309D+01
 Coeff-En:   0.000D+00 0.100D+01
 Coeff:     -0.503D+00 0.150D+01
 Gap=     0.529 Goal=   None    Shift=    0.000
 Gap=     0.271 Goal=   None    Shift=    0.000
 RMSDP=4.35D-03 MaxDP=1.50D-01 DE=-3.13D-02 OVMax= 3.91D-02

 Cycle   3  Pass 1  IDiag  1:
 E= -228.396814294412     Delta-E=       -0.062237756047 Rises=F Damp=F
 DIIS: error= 8.75D-03 at cycle   3 NSaved=   3.
 NSaved= 3 IEnMin= 3 EnMin= -228.396814294412     IErMin= 3 ErrMin= 8.75D-03
 ErrMax= 8.75D-03  0.00D+00 EMaxC= 1.00D-01 BMatC= 2.54D-02 BMatP= 1.00D+00
 IDIUse=3 WtCom= 9.12D-01 WtEn= 8.75D-02
 Coeff-Com:  0.902D+00-0.117D+01 0.126D+01
 Coeff-En:   0.000D+00 0.000D+00 0.100D+01
 Coeff:      0.823D+00-0.106D+01 0.124D+01
 Gap=     0.485 Goal=   None    Shift=    0.000
 Gap=     0.270 Goal=   None    Shift=    0.000
 RMSDP=7.17D-04 MaxDP=1.60D-02 DE=-6.22D-02 OVMax= 2.15D-02

 Cycle   4  Pass 1  IDiag  1:
 E= -228.400868020855     Delta-E=       -0.004053726443 Rises=F Damp=F
 DIIS: error= 3.56D-03 at cycle   4 NSaved=   4.
 NSaved= 4 IEnMin= 4 EnMin= -228.400868020855     IErMin= 4 ErrMin= 3.56D-03
 ErrMax= 3.56D-03  0.00D+00 EMaxC= 1.00D-01 BMatC= 1.91D-03 BMatP= 2.54D-02
 IDIUse=3 WtCom= 9.64D-01 WtEn= 3.56D-02
 Coeff-Com:  0.383D+00-0.505D+00 0.492D+00 0.630D+00
 Coeff-En:   0.000D+00 0.000D+00 0.000D+00 0.100D+01
 Coeff:      0.370D+00-0.487D+00 0.474D+00 0.643D+00
 Gap=     0.464 Goal=   None    Shift=    0.000
 Gap=     0.271 Goal=   None    Shift=    0.000
 RMSDP=1.92D-04 MaxDP=6.76D-03 DE=-4.05D-03 OVMax= 6.44D-03

 Cycle   5  Pass 1  IDiag  1:
 E= -228.401259873663     Delta-E=       -0.000391852808 Rises=F Damp=F
 DIIS: error= 6.52D-04 at cycle   5 NSaved=   5.
 NSaved= 5 IEnMin= 5 EnMin= -228.401259873663     IErMin= 5 ErrMin= 6.52D-04
 ErrMax= 6.52D-04  0.00D+00 EMaxC= 1.00D-01 BMatC= 7.19D-05 BMatP= 1.91D-03
 IDIUse=3 WtCom= 9.93D-01 WtEn= 6.52D-03
 Coeff-Com: -0.673D-01 0.874D-01-0.886D-01 0.536D-01 0.101D+01
 Coeff-En:   0.000D+00 0.000D+00 0.000D+00 0.000D+00 0.100D+01
 Coeff:     -0.669D-01 0.868D-01-0.880D-01 0.532D-01 0.101D+01
 Gap=     0.465 Goal=   None    Shift=    0.000
 Gap=     0.271 Goal=   None    Shift=    0.000
 RMSDP=9.62D-05 MaxDP=1.91D-03 DE=-3.92D-04 OVMax= 2.93D-03

 Cycle   6  Pass 1  IDiag  1:
 E= -228.401291149326     Delta-E=       -0.000031275664 Rises=F Damp=F
 DIIS: error= 1.72D-04 at cycle   6 NSaved=   6.
 NSaved= 6 IEnMin= 6 EnMin= -228.401291149326     IErMin= 6 ErrMin= 1.72D-04
 ErrMax= 1.72D-04  0.00D+00 EMaxC= 1.00D-01 BMatC= 8.65D-06 BMatP= 7.19D-05
 IDIUse=3 WtCom= 9.98D-01 WtEn= 1.72D-03
 Coeff-Com: -0.471D-01 0.620D-01-0.593D-01-0.479D-01 0.169D+00 0.923D+00
 Coeff-En:   0.000D+00 0.000D+00 0.000D+00 0.000D+00 0.000D+00 0.100D+01
 Coeff:     -0.470D-01 0.619D-01-0.592D-01-0.478D-01 0.169D+00 0.924D+00
 Gap=     0.465 Goal=   None    Shift=    0.000
 Gap=     0.271 Goal=   None    Shift=    0.000
 RMSDP=2.41D-05 MaxDP=4.10D-04 DE=-3.13D-05 OVMax= 1.23D-03

 Cycle   7  Pass 1  IDiag  1:
 E= -228.401296078034     Delta-E=       -0.000004928708 Rises=F Damp=F
 DIIS: error= 9.63D-05 at cycle   7 NSaved=   7.
 NSaved= 7 IEnMin= 7 EnMin= -228.401296078034     IErMin= 7 ErrMin= 9.63D-05
 ErrMax= 9.63D-05  0.00D+00 EMaxC= 1.00D-01 BMatC= 1.48D-06 BMatP= 8.65D-06
 IDIUse=1 WtCom= 1.00D+00 WtEn= 0.00D+00
 Coeff-Com:  0.677D-02-0.886D-02 0.849D-02-0.170D-01-0.161D+00 0.130D+00
 Coeff-Com:  0.104D+01
 Coeff:      0.677D-02-0.886D-02 0.849D-02-0.170D-01-0.161D+00 0.130D+00
 Coeff:      0.104D+01
 Gap=     0.465 Goal=   None    Shift=    0.000
 Gap=     0.271 Goal=   None    Shift=    0.000
 RMSDP=1.17D-05 MaxDP=2.00D-04 DE=-4.93D-06 OVMax= 7.47D-04

 Cycle   8  Pass 1  IDiag  1:
 E= -228.401297269748     Delta-E=       -0.000001191714 Rises=F Damp=F
 DIIS: error= 3.24D-05 at cycle   8 NSaved=   8.
 NSaved= 8 IEnMin= 8 EnMin= -228.401297269748     IErMin= 8 ErrMin= 3.24D-05
 ErrMax= 3.24D-05  0.00D+00 EMaxC= 1.00D-01 BMatC= 1.41D-07 BMatP= 1.48D-06
 IDIUse=1 WtCom= 1.00D+00 WtEn= 0.00D+00
 Coeff-Com:  0.413D-02-0.545D-02 0.523D-02 0.121D-01 0.248D-01-0.167D+00
 Coeff-Com: -0.279D+00 0.140D+01
 Coeff:      0.413D-02-0.545D-02 0.523D-02 0.121D-01 0.248D-01-0.167D+00
 Coeff:     -0.279D+00 0.140D+01
 Gap=     0.465 Goal=   None    Shift=    0.000
 Gap=     0.271 Goal=   None    Shift=    0.000
 RMSDP=6.15D-06 MaxDP=1.40D-04 DE=-1.19D-06 OVMax= 2.83D-04

 Cycle   9  Pass 1  IDiag  1:
 E= -228.401297450718     Delta-E=       -0.000000180969 Rises=F Damp=F
 DIIS: error= 8.14D-06 at cycle   9 NSaved=   9.
 NSaved= 9 IEnMin= 9 EnMin= -228.401297450718     IErMin= 9 ErrMin= 8.14D-06
 ErrMax= 8.14D-06  0.00D+00 EMaxC= 1.00D-01 BMatC= 9.65D-09 BMatP= 1.41D-07
 IDIUse=1 WtCom= 1.00D+00 WtEn= 0.00D+00
 Coeff-Com: -0.208D-03 0.284D-03-0.904D-04 0.973D-03 0.729D-02-0.620D-02
 Coeff-Com: -0.561D-01-0.456D-01 0.110D+01
 Coeff:     -0.208D-03 0.284D-03-0.904D-04 0.973D-03 0.729D-02-0.620D-02
 Coeff:     -0.561D-01-0.456D-01 0.110D+01
 Gap=     0.465 Goal=   None    Shift=    0.000
 Gap=     0.271 Goal=   None    Shift=    0.000
 RMSDP=1.26D-06 MaxDP=2.17D-05 DE=-1.81D-07 OVMax= 6.61D-05

 Cycle  10  Pass 1  IDiag  1:
 E= -228.401297458271     Delta-E=       -0.000000007553 Rises=F Damp=F
 DIIS: error= 7.16D-06 at cycle  10 NSaved=  10.
 NSaved=10 IEnMin=10 EnMin= -228.401297458271     IErMin=10 ErrMin= 7.16D-06
 ErrMax= 7.16D-06  0.00D+00 EMaxC= 1.00D-01 BMatC= 1.30D-08 BMatP= 9.65D-09
 IDIUse=1 WtCom= 1.00D+00 WtEn= 0.00D+00
 Coeff-Com: -0.567D-03 0.755D-03-0.604D-03-0.737D-03 0.169D-02 0.153D-01
 Coeff-Com: -0.503D-02-0.195D+00 0.747D+00 0.438D+00
 Coeff:     -0.567D-03 0.755D-03-0.604D-03-0.737D-03 0.169D-02 0.153D-01
 Coeff:     -0.503D-02-0.195D+00 0.747D+00 0.438D+00
 Gap=     0.465 Goal=   None    Shift=    0.000
 Gap=     0.271 Goal=   None    Shift=    0.000
 RMSDP=5.14D-07 MaxDP=9.99D-06 DE=-7.55D-09 OVMax= 2.94D-05

 Cycle  11  Pass 1  IDiag  1:
 E= -228.401297461020     Delta-E=       -0.000000002749 Rises=F Damp=F
 DIIS: error= 1.43D-06 at cycle  11 NSaved=  11.
 NSaved=11 IEnMin=11 EnMin= -228.401297461020     IErMin=11 ErrMin= 1.43D-06
 ErrMax= 1.43D-06  0.00D+00 EMaxC= 1.00D-01 BMatC= 8.14D-10 BMatP= 9.65D-09
 IDIUse=1 WtCom= 1.00D+00 WtEn= 0.00D+00
 Coeff-Com: -0.130D-03 0.170D-03-0.204D-03-0.696D-03-0.221D-02 0.964D-02
 Coeff-Com:  0.189D-01-0.722D-01-0.780D-01 0.166D+00 0.958D+00
 Coeff:     -0.130D-03 0.170D-03-0.204D-03-0.696D-03-0.221D-02 0.964D-02
 Coeff:      0.189D-01-0.722D-01-0.780D-01 0.166D+00 0.958D+00
 Gap=     0.465 Goal=   None    Shift=    0.000
 Gap=     0.271 Goal=   None    Shift=    0.000
 RMSDP=5.72D-07 MaxDP=1.52D-05 DE=-2.75D-09 OVMax= 2.02D-05

 Cycle  12  Pass 1  IDiag  1:
 E= -228.401297461549     Delta-E=       -0.000000000529 Rises=F Damp=F
 DIIS: error= 1.23D-06 at cycle  12 NSaved=  12.
 NSaved=12 IEnMin=12 EnMin= -228.401297461549     IErMin=12 ErrMin= 1.23D-06
 ErrMax= 1.23D-06  0.00D+00 EMaxC= 1.00D-01 BMatC= 7.30D-11 BMatP= 8.14D-10
 IDIUse=1 WtCom= 1.00D+00 WtEn= 0.00D+00
 Coeff-Com:  0.504D-04-0.677D-04 0.494D-04 0.180D-03 0.508D-03-0.293D-02
 Coeff-Com: -0.383D-02 0.267D-01-0.168D-01-0.713D-01-0.265D+00 0.133D+01
 Coeff:      0.504D-04-0.677D-04 0.494D-04 0.180D-03 0.508D-03-0.293D-02
 Coeff:     -0.383D-02 0.267D-01-0.168D-01-0.713D-01-0.265D+00 0.133D+01
 Gap=     0.465 Goal=   None    Shift=    0.000
 Gap=     0.271 Goal=   None    Shift=    0.000
 RMSDP=1.73D-07 MaxDP=3.75D-06 DE=-5.29D-10 OVMax= 2.12D-05

 Cycle  13  Pass 1  IDiag  1:
 E= -228.401297461763     Delta-E=       -0.000000000214 Rises=F Damp=F
 DIIS: error= 1.08D-06 at cycle  13 NSaved=  13.
 NSaved=13 IEnMin=13 EnMin= -228.401297461763     IErMin=13 ErrMin= 1.08D-06
 ErrMax= 1.08D-06  0.00D+00 EMaxC= 1.00D-01 BMatC= 4.27D-11 BMatP= 7.30D-11
 IDIUse=1 WtCom= 1.00D+00 WtEn= 0.00D+00
 Coeff-Com: -0.559D-05 0.858D-05 0.141D-04 0.167D-04 0.701D-04 0.206D-04
 Coeff-Com: -0.100D-02-0.299D-02 0.251D-01 0.678D-02-0.386D-01-0.702D+00
 Coeff-Com:  0.171D+01
 Coeff:     -0.559D-05 0.858D-05 0.141D-04 0.167D-04 0.701D-04 0.206D-04
 Coeff:     -0.100D-02-0.299D-02 0.251D-01 0.678D-02-0.386D-01-0.702D+00
 Coeff:      0.171D+01
 Gap=     0.465 Goal=   None    Shift=    0.000
 Gap=     0.271 Goal=   None    Shift=    0.000
 RMSDP=1.40D-07 MaxDP=2.54D-06 DE=-2.14D-10 OVMax= 2.66D-05

 Cycle  14  Pass 1  IDiag  1:
 E= -228.401297461972     Delta-E=       -0.000000000208 Rises=F Damp=F
 DIIS: error= 8.84D-07 at cycle  14 NSaved=  14.
 NSaved=14 IEnMin=14 EnMin= -228.401297461972     IErMin=14 ErrMin= 8.84D-07
 ErrMax= 8.84D-07  0.00D+00 EMaxC= 1.00D-01 BMatC= 2.81D-11 BMatP= 4.27D-11
 IDIUse=1 WtCom= 1.00D+00 WtEn= 0.00D+00
 Coeff-Com: -0.430D-04 0.571D-04-0.547D-04-0.187D-03-0.591D-03 0.288D-02
 Coeff-Com:  0.450D-02-0.235D-01-0.525D-02 0.667D-01 0.310D+00-0.779D+00
 Coeff-Com: -0.139D+01 0.281D+01
 Coeff:     -0.430D-04 0.571D-04-0.547D-04-0.187D-03-0.591D-03 0.288D-02
 Coeff:      0.450D-02-0.235D-01-0.525D-02 0.667D-01 0.310D+00-0.779D+00
 Coeff:     -0.139D+01 0.281D+01
 Gap=     0.465 Goal=   None    Shift=    0.000
 Gap=     0.271 Goal=   None    Shift=    0.000
 RMSDP=2.93D-07 MaxDP=5.44D-06 DE=-2.08D-10 OVMax= 5.69D-05

 Cycle  15  Pass 1  IDiag  1:
 E= -228.401297462274     Delta-E=       -0.000000000302 Rises=F Damp=F
 DIIS: error= 4.71D-07 at cycle  15 NSaved=  15.
 NSaved=15 IEnMin=15 EnMin= -228.401297462274     IErMin=15 ErrMin= 4.71D-07
 ErrMax= 4.71D-07  0.00D+00 EMaxC= 1.00D-01 BMatC= 9.28D-12 BMatP= 2.81D-11
 IDIUse=1 WtCom= 1.00D+00 WtEn= 0.00D+00
 Coeff-Com:  0.124D-04-0.176D-04-0.411D-05 0.466D-04 0.211D-03-0.987D-03
 Coeff-Com: -0.847D-03 0.931D-02-0.162D-01-0.221D-01-0.545D-01 0.609D+00
 Coeff-Com: -0.428D+00-0.110D+01 0.201D+01
 Coeff:      0.124D-04-0.176D-04-0.411D-05 0.466D-04 0.211D-03-0.987D-03
 Coeff:     -0.847D-03 0.931D-02-0.162D-01-0.221D-01-0.545D-01 0.609D+00
 Coeff:     -0.428D+00-0.110D+01 0.201D+01
 Gap=     0.465 Goal=   None    Shift=    0.000
 Gap=     0.271 Goal=   None    Shift=    0.000
 RMSDP=2.44D-07 MaxDP=4.52D-06 DE=-3.02D-10 OVMax= 4.74D-05

 Cycle  16  Pass 1  IDiag  1:
 E= -228.401297462385     Delta-E=       -0.000000000111 Rises=F Damp=F
 DIIS: error= 1.24D-07 at cycle  16 NSaved=  16.
 NSaved=16 IEnMin=16 EnMin= -228.401297462385     IErMin=16 ErrMin= 1.24D-07
 ErrMax= 1.24D-07  0.00D+00 EMaxC= 1.00D-01 BMatC= 1.15D-12 BMatP= 9.28D-12
 IDIUse=1 WtCom= 1.00D+00 WtEn= 0.00D+00
 Coeff-Com:  0.624D-05-0.794D-05 0.134D-04 0.238D-04 0.468D-04-0.312D-03
 Coeff-Com: -0.548D-03 0.219D-02 0.229D-02-0.541D-02-0.328D-01-0.510D-01
 Coeff-Com:  0.477D+00-0.362D+00-0.543D+00 0.151D+01
 Coeff:      0.624D-05-0.794D-05 0.134D-04 0.238D-04 0.468D-04-0.312D-03
 Coeff:     -0.548D-03 0.219D-02 0.229D-02-0.541D-02-0.328D-01-0.510D-01
 Coeff:      0.477D+00-0.362D+00-0.543D+00 0.151D+01
 Gap=     0.465 Goal=   None    Shift=    0.000
 Gap=     0.271 Goal=   None    Shift=    0.000
 RMSDP=7.66D-08 MaxDP=1.42D-06 DE=-1.11D-10 OVMax= 1.48D-05

 Cycle  17  Pass 1  IDiag  1:
 E= -228.401297462394     Delta-E=       -0.000000000009 Rises=F Damp=F
 DIIS: error= 3.07D-08 at cycle  17 NSaved=  17.
 NSaved=17 IEnMin=17 EnMin= -228.401297462394     IErMin=17 ErrMin= 3.07D-08
 ErrMax= 3.07D-08  0.00D+00 EMaxC= 1.00D-01 BMatC= 9.59D-14 BMatP= 1.15D-12
 IDIUse=1 WtCom= 1.00D+00 WtEn= 0.00D+00
 Coeff-Com: -0.301D-06 0.550D-06 0.193D-05-0.588D-05-0.389D-04 0.134D-03
 Coeff-Com:  0.128D-03-0.105D-02 0.866D-03 0.360D-02 0.128D-01-0.756D-01
 Coeff-Com:  0.307D-01 0.141D+00-0.187D+00-0.118D+00 0.119D+01
 Coeff:     -0.301D-06 0.550D-06 0.193D-05-0.588D-05-0.389D-04 0.134D-03
 Coeff:      0.128D-03-0.105D-02 0.866D-03 0.360D-02 0.128D-01-0.756D-01
 Coeff:      0.307D-01 0.141D+00-0.187D+00-0.118D+00 0.119D+01
 Gap=     0.465 Goal=   None    Shift=    0.000
 Gap=     0.271 Goal=   None    Shift=    0.000
 RMSDP=1.03D-08 MaxDP=1.56D-07 DE=-9.09D-12 OVMax= 1.63D-06

 Cycle  18  Pass 1  IDiag  1:
 E= -228.401297462394     Delta-E=        0.000000000000 Rises=F Damp=F
 DIIS: error= 6.58D-09 at cycle  18 NSaved=  18.
 NSaved=18 IEnMin=18 EnMin= -228.401297462394     IErMin=18 ErrMin= 6.58D-09
 ErrMax= 6.58D-09  0.00D+00 EMaxC= 1.00D-01 BMatC= 7.66D-15 BMatP= 9.59D-14
 IDIUse=1 WtCom= 1.00D+00 WtEn= 0.00D+00
 Coeff-Com: -0.352D-06 0.427D-06-0.113D-05-0.136D-05-0.180D-05 0.173D-04
 Coeff-Com:  0.341D-04-0.965D-04-0.398D-03 0.408D-03 0.253D-02 0.690D-02
 Coeff-Com: -0.435D-01 0.232D-01 0.663D-01-0.142D+00-0.956D-01 0.118D+01
 Coeff:     -0.352D-06 0.427D-06-0.113D-05-0.136D-05-0.180D-05 0.173D-04
 Coeff:      0.341D-04-0.965D-04-0.398D-03 0.408D-03 0.253D-02 0.690D-02
 Coeff:     -0.435D-01 0.232D-01 0.663D-01-0.142D+00-0.956D-01 0.118D+01
 Gap=     0.465 Goal=   None    Shift=    0.000
 Gap=     0.271 Goal=   None    Shift=    0.000
 RMSDP=2.59D-09 MaxDP=5.56D-08 DE=-1.71D-13 OVMax= 2.46D-07

 SCF Done:  E(UwB97XD) =  -228.401297462     A.U. after   18 cycles
            NFock= 18  Conv=0.26D-08     -V/T= 2.0031
 <Sx>= 0.0000 <Sy>= 0.0000 <Sz>= 0.5000 <S**2>= 0.7576 S= 0.5038
 <L.S>= 0.000000000000E+00
 KE= 2.276908934137D+02 PE=-7.635868197381D+02 EE= 1.939013695708D+02
 Annihilation of the first spin contaminant:
 S**2 before annihilation     0.7576,   after     0.7500
 Leave Link  502 at Tue Feb 19 10:58:18 2019, MaxMem=   196608000 cpu:        91.2
 (Enter /cm/shared/c3ddb/gaussian/09.d01/g09/l508.exe)
 QCSCF skips out because SCF is already converged.
 Leave Link  508 at Tue Feb 19 10:58:18 2019, MaxMem=   196608000 cpu:         0.0
 (Enter /cm/shared/c3ddb/gaussian/09.d01/g09/l801.exe)
 DoSCS=F DFT=T ScalE2(SS,OS)=  1.000000  1.000000
 Range of M.O.s used for correlation:     1   109
 NBasis=   109 NAE=    16 NBE=    15 NFC=     0 NFV=     0
 NROrb=    109 NOA=    16 NOB=    15 NVA=    93 NVB=    94

 **** Warning!!: The largest alpha MO coefficient is  0.38580450D+02


 **** Warning!!: The largest beta MO coefficient is  0.38518516D+02

 Leave Link  801 at Tue Feb 19 10:58:18 2019, MaxMem=   196608000 cpu:         0.2
 (Enter /cm/shared/c3ddb/gaussian/09.d01/g09/l1101.exe)
 Using compressed storage, NAtomX=     7.
 Will process      8 centers per pass.
 R6Disp: Adding Grimme-D2 dispersion energy 1st derivatives to the gradient.
 Leave Link 1101 at Tue Feb 19 10:58:19 2019, MaxMem=   196608000 cpu:         5.7
 (Enter /cm/shared/c3ddb/gaussian/09.d01/g09/l1102.exe)
 Symmetrizing basis deriv contribution to polar:
 IMax=3 JMax=2 DiffMx= 0.00D+00
 Leave Link 1102 at Tue Feb 19 10:58:19 2019, MaxMem=   196608000 cpu:         1.0
 (Enter /cm/shared/c3ddb/gaussian/09.d01/g09/l1110.exe)
 Forming Gx(P) for the SCF density, NAtomX=     7.
 Integral derivatives from FoFJK, PRISM(SPDF).
 Do as many integral derivatives as possible in FoFJK.
 G2DrvN: MDV=     196607840.
 G2DrvN: will do     8 centers at a time, making    1 passes.
 Calling FoFCou, ICntrl=  3107 FMM=F I1Cent=   0 AccDes= 0.00D+00.
 FoFJK:  IHMeth= 1 ICntrl=    3107 DoSepK=T KAlg= 0 I1Cent=   0 FoldK=F
 IRaf=         1 NMat=   1 IRICut=       1 DoRegI=T DoRafI=F ISym2E= 0.
 FoFCou: FMM=F IPFlag=           0 FMFlag=      100000 FMFlg1=           0
         NFxFlg=           0 DoJE=F BraDBF=F KetDBF=F FulRan=T
         wScrn=  0.000000 ICntrl=    3507 IOpCl=  0 I1Cent=           0 NGrid=           0
         NMat0=    1 NMatS0=      1 NMatT0=    0 NMatD0=    1 NMtDS0=    0 NMtDT0=    0
 Symmetry not used in FoFCou.
 End of G2Drv F.D. properties file   721 does not exist.
 End of G2Drv F.D. properties file   722 does not exist.
 End of G2Drv F.D. properties file   788 does not exist.
 Leave Link 1110 at Tue Feb 19 10:58:31 2019, MaxMem=   196608000 cpu:        82.8
 (Enter /cm/shared/c3ddb/gaussian/09.d01/g09/l1002.exe)
 Minotr:  UHF open shell wavefunction.
          IDoAtm=1111111
          Direct CPHF calculation.
          Differentiating once with respect to electric field.
                with respect to dipole field.
          Differentiating once with respect to nuclear coordinates.
          Requested convergence is 1.0D-08 RMS, and 1.0D-07 maximum.
          Secondary convergence is 1.0D-12 RMS, and 1.0D-12 maximum.
          NewPWx=T KeepS1=F KeepF1=F KeepIn=T MapXYZ=F SortEE=F KeepMc=T.
          MDV=     196607708 using IRadAn=       2.
 Generate precomputed XC quadrature information.
 Keep R1 and R2 ints in memory in canonical form, NReq=72828714.
 FoFCou: FMM=F IPFlag=           0 FMFlag=           0 FMFlg1=           0
         NFxFlg=           0 DoJE=F BraDBF=F KetDBF=F FulRan=T
         wScrn=  0.000000 ICntrl=     600 IOpCl=  0 I1Cent=           0 NGrid=           0
         NMat0=    1 NMatS0=   5995 NMatT0=    0 NMatD0=    1 NMtDS0=    0 NMtDT0=    0
 Symmetry not used in FoFCou.
          Solving linear equations simultaneously, MaxMat=       0.
          There are    24 degrees of freedom in the 1st order CPHF.  IDoFFX=6 NUNeed=     3.
     21 vectors produced by pass  0 Test12= 1.21D-14 4.17D-09 XBig12= 6.16D+01 5.52D+00.
 AX will form    21 AO Fock derivatives at one time.
     21 vectors produced by pass  1 Test12= 1.21D-14 4.17D-09 XBig12= 3.34D+01 1.48D+00.
     21 vectors produced by pass  2 Test12= 1.21D-14 4.17D-09 XBig12= 4.85D+00 6.40D-01.
     21 vectors produced by pass  3 Test12= 1.21D-14 4.17D-09 XBig12= 6.04D-02 4.87D-02.
     21 vectors produced by pass  4 Test12= 1.21D-14 4.17D-09 XBig12= 8.79D-04 9.62D-03.
     21 vectors produced by pass  5 Test12= 1.21D-14 4.17D-09 XBig12= 1.13D-05 6.20D-04.
     21 vectors produced by pass  6 Test12= 1.21D-14 4.17D-09 XBig12= 9.54D-08 5.56D-05.
     13 vectors produced by pass  7 Test12= 1.21D-14 4.17D-09 XBig12= 1.27D-09 5.99D-06.
      5 vectors produced by pass  8 Test12= 1.21D-14 4.17D-09 XBig12= 1.25D-11 5.71D-07.
      2 vectors produced by pass  9 Test12= 1.21D-14 4.17D-09 XBig12= 1.36D-13 5.83D-08.
      1 vectors produced by pass 10 Test12= 1.21D-14 4.17D-09 XBig12= 2.54D-15 1.58D-08.
 InvSVY:  IOpt=1 It=  1 EMax= 3.45D-15
 Solved reduced A of dimension   168 with    24 vectors.
 FullF1:  Do perturbations    1 to     3.
 Isotropic polarizability for W=    0.000000       36.29 Bohr**3.
 End of Minotr F.D. properties file   721 does not exist.
 End of Minotr F.D. properties file   722 does not exist.
 End of Minotr F.D. properties file   788 does not exist.
 Leave Link 1002 at Tue Feb 19 10:59:12 2019, MaxMem=   196608000 cpu:       245.8
 (Enter /cm/shared/c3ddb/gaussian/09.d01/g09/l601.exe)
 Copying SCF densities to generalized density rwf, IOpCl= 1 IROHF=0.

 **********************************************************************

            Population analysis using the SCF density.

 **********************************************************************

 Orbital symmetries:
 Alpha Orbitals:
       Occupied  (A) (A) (A) (A) (A) (A) (A) (A) (A) (A) (A) (A)
                 (A) (A) (A) (A)
       Virtual   (A) (A) (A) (A) (A) (A) (A) (A) (A) (A) (A) (A)
                 (A) (A) (A) (A) (A) (A) (A) (A) (A) (A) (A) (A)
                 (A) (A) (A) (A) (A) (A) (A) (A) (A) (A) (A) (A)
                 (A) (A) (A) (A) (A) (A) (A) (A) (A) (A) (A) (A)
                 (A) (A) (A) (A) (A) (A) (A) (A) (A) (A) (A) (A)
                 (A) (A) (A) (A) (A) (A) (A) (A) (A) (A) (A) (A)
                 (A) (A) (A) (A) (A) (A) (A) (A) (A) (A) (A) (A)
                 (A) (A) (A) (A) (A) (A) (A) (A) (A)
 Beta  Orbitals:
       Occupied  (A) (A) (A) (A) (A) (A) (A) (A) (A) (A) (A) (A)
                 (A) (A) (A)
       Virtual   (A) (A) (A) (A) (A) (A) (A) (A) (A) (A) (A) (A)
                 (A) (A) (A) (A) (A) (A) (A) (A) (A) (A) (A) (A)
                 (A) (A) (A) (A) (A) (A) (A) (A) (A) (A) (A) (A)
                 (A) (A) (A) (A) (A) (A) (A) (A) (A) (A) (A) (A)
                 (A) (A) (A) (A) (A) (A) (A) (A) (A) (A) (A) (A)
                 (A) (A) (A) (A) (A) (A) (A) (A) (A) (A) (A) (A)
                 (A) (A) (A) (A) (A) (A) (A) (A) (A) (A) (A) (A)
                 (A) (A) (A) (A) (A) (A) (A) (A) (A) (A)
 The electronic state is 2-A.
 Alpha  occ. eigenvalues --  -19.31431 -19.31428 -10.44749 -10.32329  -1.25965
 Alpha  occ. eigenvalues --   -1.13655  -0.88528  -0.66966  -0.62039  -0.59781
 Alpha  occ. eigenvalues --   -0.59605  -0.52521  -0.51134  -0.45264  -0.43493
 Alpha  occ. eigenvalues --   -0.42968
 Alpha virt. eigenvalues --    0.03548   0.04912   0.07141   0.07461   0.09540
 Alpha virt. eigenvalues --    0.12879   0.12982   0.13510   0.14604   0.14631
 Alpha virt. eigenvalues --    0.16262   0.18608   0.21830   0.23573   0.28153
 Alpha virt. eigenvalues --    0.28987   0.29128   0.30860   0.33202   0.35277
 Alpha virt. eigenvalues --    0.35372   0.36160   0.36893   0.40011   0.46494
 Alpha virt. eigenvalues --    0.49183   0.51516   0.52092   0.61877   0.62530
 Alpha virt. eigenvalues --    0.69136   0.69757   0.74767   0.76063   0.77780
 Alpha virt. eigenvalues --    0.86479   0.93096   1.05596   1.12066   1.15422
 Alpha virt. eigenvalues --    1.15521   1.21133   1.21671   1.23005   1.31786
 Alpha virt. eigenvalues --    1.39909   1.47831   1.49353   1.54557   1.60164
 Alpha virt. eigenvalues --    1.61945   1.63284   1.63612   1.76908   1.82120
 Alpha virt. eigenvalues --    1.89381   1.93102   2.09208   2.13616   2.27125
 Alpha virt. eigenvalues --    2.42300   2.51431   2.56946   2.57569   2.61639
 Alpha virt. eigenvalues --    2.62181   2.74003   2.83284   2.85501   2.89897
 Alpha virt. eigenvalues --    2.92353   2.95202   3.14424   3.15143   3.29113
 Alpha virt. eigenvalues --    3.33215   3.40316   3.64557   3.68945   3.86435
 Alpha virt. eigenvalues --    3.90840   4.09295   4.22634   5.03821   5.06498
 Alpha virt. eigenvalues --    5.10642   5.26360   5.60120   5.85879  23.92964
 Alpha virt. eigenvalues --   24.05604  49.93400  50.06703
  Beta  occ. eigenvalues --  -19.30104 -19.30104 -10.44856 -10.32335  -1.23064
  Beta  occ. eigenvalues --   -1.09821  -0.88240  -0.65513  -0.59135  -0.58303
  Beta  occ. eigenvalues --   -0.57639  -0.51763  -0.50617  -0.40952  -0.38874
  Beta virt. eigenvalues --   -0.11742   0.03536   0.05149   0.07152   0.07588
  Beta virt. eigenvalues --    0.09428   0.12798   0.13089   0.13334   0.14567
  Beta virt. eigenvalues --    0.14635   0.16266   0.18469   0.21891   0.23600
  Beta virt. eigenvalues --    0.28242   0.29055   0.29305   0.30925   0.33302
  Beta virt. eigenvalues --    0.35565   0.35801   0.36432   0.37336   0.40253
  Beta virt. eigenvalues --    0.46895   0.49399   0.52155   0.52535   0.62288
  Beta virt. eigenvalues --    0.62911   0.69293   0.69777   0.74828   0.76351
  Beta virt. eigenvalues --    0.77933   0.86632   0.93473   1.05714   1.12871
  Beta virt. eigenvalues --    1.16107   1.16456   1.22393   1.24015   1.25332
  Beta virt. eigenvalues --    1.32139   1.39990   1.47836   1.49429   1.55737
  Beta virt. eigenvalues --    1.60235   1.62218   1.63989   1.64035   1.77549
  Beta virt. eigenvalues --    1.82294   1.89526   1.93097   2.09801   2.13848
  Beta virt. eigenvalues --    2.27205   2.43273   2.51480   2.57164   2.57645
  Beta virt. eigenvalues --    2.61731   2.62490   2.74543   2.88060   2.90473
  Beta virt. eigenvalues --    2.92289   2.95313   2.96792   3.15707   3.16320
  Beta virt. eigenvalues --    3.30335   3.34441   3.41627   3.66178   3.72442
  Beta virt. eigenvalues --    3.86488   3.90991   4.11027   4.23055   5.05397
  Beta virt. eigenvalues --    5.12178   5.12388   5.31776   5.62055   5.87533
  Beta virt. eigenvalues --   23.92821  24.05600  49.94658  50.07958
          Condensed to atoms (all electrons):
               1          2          3          4          5          6
     1  O    8.004707  -0.087539  -0.128191   0.335741   0.007588  -0.008680
     2  O   -0.087539   8.004703  -0.128190   0.335749   0.011089  -0.008680
     3  C   -0.128191  -0.128190   5.497180   0.047802   0.390046   0.396507
     4  C    0.335741   0.335749   0.047802   5.243442  -0.042796  -0.025351
     5  H    0.007588   0.011089   0.390046  -0.042796   0.510469  -0.031204
     6  H   -0.008680  -0.008680   0.396507  -0.025351  -0.031204   0.491075
     7  H    0.011091   0.007591   0.390045  -0.042797  -0.029640  -0.031201
               7
     1  O    0.011091
     2  O    0.007591
     3  C    0.390045
     4  C   -0.042797
     5  H   -0.029640
     6  H   -0.031201
     7  H    0.510467
          Atomic-Atomic Spin Densities.
               1          2          3          4          5          6
     1  O    0.588166  -0.069458   0.031426  -0.005295  -0.004946   0.000410
     2  O   -0.069458   0.588159   0.031426  -0.005297  -0.001995   0.000410
     3  C    0.031426   0.031426  -0.106739   0.026040   0.012710  -0.002267
     4  C   -0.005295  -0.005297   0.026040  -0.090627  -0.004874   0.001141
     5  H   -0.004946  -0.001995   0.012710  -0.004874   0.003399   0.000339
     6  H    0.000410   0.000410  -0.002267   0.001141   0.000339  -0.001755
     7  H   -0.001995  -0.004946   0.012714  -0.004876  -0.003004   0.000338
               7
     1  O   -0.001995
     2  O   -0.004946
     3  C    0.012714
     4  C   -0.004876
     5  H   -0.003004
     6  H    0.000338
     7  H    0.003398
 Mulliken charges and spin densities:
               1          2
     1  O   -0.134717   0.538307
     2  O   -0.134723   0.538299
     3  C   -0.465198   0.005309
     4  C    0.148210  -0.083789
     5  H    0.184448   0.001629
     6  H    0.217535  -0.001384
     7  H    0.184445   0.001629
 Sum of Mulliken charges =   0.00000   1.00000
 Mulliken charges and spin densities with hydrogens summed into heavy atoms:
               1          2
     1  O   -0.134717   0.538307
     2  O   -0.134723   0.538299
     3  C    0.121229   0.007183
     4  C    0.148210  -0.083789
 APT charges:
               1
     1  O   -0.126214
     2  O   -0.126225
     3  C    0.021930
     4  C    0.064295
     5  H    0.053047
     6  H    0.060123
     7  H    0.053045
 Sum of APT charges =   0.00000
 APT charges with hydrogens summed into heavy atoms:
               1
     1  O   -0.126214
     2  O   -0.126225
     3  C    0.188144
     4  C    0.064295
 Electronic spatial extent (au):  <R**2>=            236.4755
 Charge=              0.0000 electrons
 Dipole moment (field-independent basis, Debye):
    X=             -3.5063    Y=              0.0000    Z=              0.0221  Tot=              3.5064
 Quadrupole moment (field-independent basis, Debye-Ang):
   XX=            -23.1301   YY=            -25.5337   ZZ=            -22.0973
   XY=              0.0000   XZ=             -0.0779   YZ=              0.0000
 Traceless Quadrupole moment (field-independent basis, Debye-Ang):
   XX=              0.4569   YY=             -1.9467   ZZ=              1.4897
   XY=              0.0000   XZ=             -0.0779   YZ=              0.0000
 Octapole moment (field-independent basis, Debye-Ang**2):
  XXX=             -1.1027  YYY=              0.0001  ZZZ=              0.9241  XYY=             -3.0410
  XXY=              0.0000  XXZ=              0.0840  XZZ=              0.0115  YZZ=             -0.0002
  YYZ=             -0.8521  XYZ=              0.0000
 Hexadecapole moment (field-independent basis, Debye-Ang**3):
 XXXX=           -163.2411 YYYY=            -99.4299 ZZZZ=            -26.0422 XXXY=              0.0000
 XXXZ=             -0.0767 YYYX=             -0.0003 YYYZ=              0.0000 ZZZX=             -1.7440
 ZZZY=              0.0000 XXYY=            -43.8957 XXZZ=            -29.8971 YYZZ=            -21.0888
 XXYZ=              0.0000 YYXZ=              1.5962 ZZXY=              0.0003
 N-N= 1.135932592912D+02 E-N=-7.635868197216D+02  KE= 2.276908934137D+02
  Exact polarizability:  32.159   0.000  54.281  -0.282   0.000  22.432
 Approx polarizability:  30.504   0.000  55.882  -0.291   0.000  23.261
                          Isotropic Fermi Contact Couplings
        Atom                 a.u.       MegaHertz       Gauss      10(-4) cm-1
     1  O(17)              0.05631     -34.13759     -12.18114     -11.38708
     2  O(17)              0.05631     -34.13712     -12.18097     -11.38692
     3  C(13)             -0.01093     -12.28524      -4.38368      -4.09792
     4  C(13)             -0.03604     -40.51841     -14.45797     -13.51549
     5  H(1)               0.00270      12.06712       4.30585       4.02516
     6  H(1)              -0.00081      -3.61581      -1.29021      -1.20610
     7  H(1)               0.00270      12.06953       4.30671       4.02596
 --------------------------------------------------------
       Center         ----  Spin Dipole Couplings  ----
                      3XX-RR        3YY-RR        3ZZ-RR
 --------------------------------------------------------
     1   Atom        0.172732      0.919164     -1.091896
     2   Atom        0.172721      0.919160     -1.091880
     3   Atom        0.002026      0.011811     -0.013837
     4   Atom        0.024151      0.067309     -0.091460
     5   Atom        0.008353     -0.003227     -0.005127
     6   Atom        0.005517     -0.002395     -0.003123
     7   Atom        0.008354     -0.003226     -0.005127
 --------------------------------------------------------
                        XY            XZ            YZ
 --------------------------------------------------------
     1   Atom        1.683399      0.039576      0.051146
     2   Atom       -1.683374      0.039577     -0.051147
     3   Atom       -0.000001      0.001628      0.000000
     4   Atom        0.000000      0.001285      0.000000
     5   Atom        0.001368      0.003382      0.001282
     6   Atom        0.000000     -0.004532      0.000000
     7   Atom       -0.001369      0.003381     -0.001282
 --------------------------------------------------------


 ---------------------------------------------------------------------------------
              Anisotropic Spin Dipole Couplings in Principal Axis System
 ---------------------------------------------------------------------------------

       Atom             a.u.   MegaHertz   Gauss  10(-4) cm-1        Axes

              Baa    -1.1783    85.264    30.424    28.441  0.7797 -0.6261  0.0135
     1 O(17)  Bbb    -1.0931    79.098    28.224    26.384 -0.0225 -0.0066  0.9997
              Bcc     2.2715  -164.362   -58.648   -54.825  0.6258  0.7797  0.0192
 
              Baa    -1.1783    85.263    30.424    28.441  0.7797  0.6261  0.0135
     2 O(17)  Bbb    -1.0931    79.097    28.224    26.384 -0.0225  0.0066  0.9997
              Bcc     2.2714  -164.359   -58.648   -54.824 -0.6258  0.7797 -0.0192
 
              Baa    -0.0140    -1.879    -0.670    -0.627 -0.1011  0.0000  0.9949
     3 C(13)  Bbb     0.0022     0.294     0.105     0.098  0.9949  0.0001  0.1011
              Bcc     0.0118     1.585     0.566     0.529 -0.0001  1.0000  0.0000
 
              Baa    -0.0915   -12.275    -4.380    -4.094 -0.0111  0.0000  0.9999
     4 C(13)  Bbb     0.0242     3.243     1.157     1.082  0.9999  0.0000  0.0111
              Bcc     0.0673     9.032     3.223     3.013  0.0000  1.0000  0.0000
 
              Baa    -0.0062    -3.326    -1.187    -1.109 -0.1867 -0.3121  0.9315
     5 H(1)   Bbb    -0.0031    -1.671    -0.596    -0.557 -0.1936  0.9413  0.2766
              Bcc     0.0094     4.997     1.783     1.667  0.9632  0.1287  0.2362
 
              Baa    -0.0051    -2.702    -0.964    -0.901  0.3937  0.0000  0.9192
     6 H(1)   Bbb    -0.0024    -1.278    -0.456    -0.426  0.0000  1.0000  0.0000
              Bcc     0.0075     3.980     1.420     1.327  0.9192  0.0000 -0.3937
 
              Baa    -0.0062    -3.326    -1.187    -1.110 -0.1866  0.3121  0.9315
     7 H(1)   Bbb    -0.0031    -1.671    -0.596    -0.557  0.1936  0.9413 -0.2765
              Bcc     0.0094     4.997     1.783     1.667  0.9632 -0.1287  0.2361
 

 ---------------------------------------------------------------------------------

 No NMR shielding tensors so no spin-rotation constants.
 Leave Link  601 at Tue Feb 19 10:59:14 2019, MaxMem=   196608000 cpu:         8.1
 (Enter /cm/shared/c3ddb/gaussian/09.d01/g09/l701.exe)
 Compute integral second derivatives.
 ... and contract with generalized density number  0.
 R6Disp: Adding Grimme-D2 dispersion energy 2nd derivatives to the Hessian.
 Entering OneElI...
 Calculate overlap and kinetic energy integrals
    NBasis = 113  MinDer = 2  MaxDer = 2
 Requested accuracy = 0.1000D-12
 PrsmSu:  NPrtUS=   8 ThrOK=T IAlg=1 NPAlg=1 LenDen=           0.
 Prism:   IPart=     0 DynPar=F LinDyn=F Incr=           1.
 PRISM was handed    24545185 working-precision words and   780 shell-pairs
 PRISM was handed    24545185 working-precision words and   780 shell-pairs
 PRISM was handed    24545185 working-precision words and   780 shell-pairs
 PRISM was handed    24545185 working-precision words and   780 shell-pairs
 PRISM was handed    24545185 working-precision words and   780 shell-pairs
 PRISM was handed    24545185 working-precision words and   780 shell-pairs
 PRISM was handed    24545185 working-precision words and   780 shell-pairs
 PRISM was handed    24545185 working-precision words and   780 shell-pairs
 IPart=  0 NShTot=         116 NBatch=          39 AvBLen=         3.0
 IPart=  3 NShTot=         100 NBatch=          28 AvBLen=         3.6
 IPart=  2 NShTot=         108 NBatch=          34 AvBLen=         3.2
 IPart=  4 NShTot=          89 NBatch=          24 AvBLen=         3.7
 IPart=  5 NShTot=          88 NBatch=          24 AvBLen=         3.7
 IPart=  6 NShTot=          83 NBatch=          21 AvBLen=         4.0
 IPart=  1 NShTot=         113 NBatch=          38 AvBLen=         3.0
 IPart=  7 NShTot=          83 NBatch=          21 AvBLen=         4.0
 PrSmSu:  NxtVal=              9.
 Entering OneElI...
 Calculate potential energy integrals
    NBasis = 113  MinDer = 2  MaxDer = 2
 Requested accuracy = 0.1000D-12
 PrsmSu:  NPrtUS=   8 ThrOK=T IAlg=1 NPAlg=1 LenDen=           0.
 Prism:   IPart=     0 DynPar=F LinDyn=F Incr=           6.
 PRISM was handed    24548419 working-precision words and   775 shell-pairs
 PRISM was handed    24548419 working-precision words and   775 shell-pairs
 PRISM was handed    24548419 working-precision words and   775 shell-pairs
 PRISM was handed    24548419 working-precision words and   775 shell-pairs
 PRISM was handed    24548419 working-precision words and   775 shell-pairs
 PRISM was handed    24548419 working-precision words and   775 shell-pairs
 PRISM was handed    24548419 working-precision words and   775 shell-pairs
 PRISM was handed    24548419 working-precision words and   775 shell-pairs
 IPart=  0 NShTot=         798 NBatch=         114 AvBLen=         7.0
 IPart=  3 NShTot=         679 NBatch=          97 AvBLen=         7.0
 IPart=  2 NShTot=         749 NBatch=         107 AvBLen=         7.0
 IPart=  5 NShTot=         616 NBatch=          88 AvBLen=         7.0
 IPart=  1 NShTot=         784 NBatch=         112 AvBLen=         7.0
 IPart=  6 NShTot=         595 NBatch=          85 AvBLen=         7.0
 IPart=  7 NShTot=         588 NBatch=          84 AvBLen=         7.0
 IPart=  4 NShTot=         616 NBatch=          88 AvBLen=         7.0
 PrSmSu:  NxtVal=             49.
 Polarizability after L701:
                1             2             3 
      1  0.321589D+02
      2  0.117762D-04  0.542808D+02
      3 -0.282304D+00 -0.480888D-05  0.224319D+02
 Dipole Derivatives after L701:
                 1             2             3             4             5 
      1  -0.613722D+00  0.179211D+00  0.972894D-03 -0.613728D+00 -0.179219D+00
      2  -0.358514D+00  0.524238D+00 -0.112518D-01  0.358513D+00  0.524209D+00
      3   0.897591D-02 -0.394271D-02 -0.289157D+00  0.897548D-02  0.394205D-02
                 6             7             8             9            10 
      1   0.972587D-03 -0.412077D+00 -0.104319D-04  0.743819D-01  0.145150D+01
      2   0.112511D-01 -0.175275D-05  0.452464D+00  0.186593D-05  0.255224D-05
      3  -0.289157D+00  0.263028D-01  0.000000D+00  0.254022D-01 -0.360506D-01
                11            12            13            14            15 
      1   0.113475D-04 -0.247891D-01  0.618104D-01 -0.246513D-01 -0.346668D-01
      2  -0.166204D+01  0.000000D+00  0.136010D+00  0.141403D-01 -0.617517D-01
      3   0.000000D+00  0.403427D+00 -0.361731D-02 -0.567191D-01  0.831900D-01
                16            17            18            19            20 
      1   0.644064D-01  0.000000D+00  0.177915D-01  0.618095D-01  0.246587D-01
      2   0.108219D-04  0.132869D+00  0.960084D-05 -0.136020D+00  0.141221D-01
      3  -0.969026D-03  0.960694D-05 -0.169080D-01 -0.361728D-02  0.567090D-01
                21 
      1  -0.346629D-01
      2   0.617409D-01
      3   0.832030D-01
 Hessian after L701:
                1             2             3             4             5 
      1  0.670484D+01
      2  0.699632D+01  0.492614D-01
      3 -0.852280D-01  0.110089D+00  0.125669D+02
      4 -0.789450D+00  0.796626D-01 -0.114051D-01  0.670490D+01
      5 -0.796926D-01  0.154573D+01 -0.141620D-03 -0.699633D+01  0.493243D-01
      6 -0.114051D-01  0.141305D-03 -0.105723D+00 -0.852229D-01 -0.110081D+00
      7  0.706473D+00 -0.952760D-01  0.407864D-01  0.706499D+00  0.952818D-01
      8 -0.137720D+00 -0.166129D+00  0.218559D-01  0.137730D+00 -0.166123D+00
      9  0.418609D-01  0.693098D-02 -0.232773D-01  0.418616D-01 -0.693124D-02
     10 -0.689169D+01 -0.678856D+01  0.363941D-01 -0.689178D+01  0.678861D+01
     11 -0.668434D+01 -0.139306D+01 -0.116201D+00  0.668439D+01 -0.139312D+01
     12  0.358704D-01 -0.103252D+00 -0.123620D+02  0.358649D-01  0.103244D+00
     13  0.160290D+00 -0.513242D-01  0.194090D-01  0.631038D-01  0.112011D+00
     14  0.501491D-01 -0.811313D-01  0.944122D-02  0.126182D+00  0.645613D-01
     15  0.550692D-01 -0.915296D-02 -0.621023D-01  0.563767D-01  0.495451D-01
     16  0.464269D-01 -0.287951D-01 -0.510694D-01  0.464201D-01  0.287974D-01
     17 -0.185148D-01 -0.192497D-01  0.160293D-01  0.185245D-01 -0.192424D-01
     18 -0.925315D-01  0.447794D-01  0.201416D-01 -0.925315D-01 -0.447856D-01
     19  0.631085D-01 -0.112022D+00  0.511129D-01  0.160303D+00  0.513275D-01
     20 -0.126195D+00  0.645726D-01 -0.410728D-01 -0.501565D-01 -0.811388D-01
     21  0.563641D-01 -0.495354D-01 -0.339364D-01  0.550562D-01  0.915016D-02
                6             7             8             9            10 
      6  0.125670D+02
      7  0.407871D-01  0.647072D+01
      8 -0.218564D-01 -0.525913D-05  0.118862D+02
      9 -0.233020D-01 -0.101148D+00 -0.229386D-04  0.115671D+02
     10  0.363885D-01  0.724191D+00  0.471976D-05 -0.673509D-02  0.128536D+02
     11  0.116193D+00  0.463820D-05 -0.514621D+01  0.000000D+00 -0.601290D-04
     12 -0.123621D+02 -0.428871D-02  0.000000D+00 -0.500705D+01  0.165921D-01
     13  0.511228D-01 -0.285490D+01  0.741690D+00  0.395499D+00  0.441906D-01
     14  0.410794D-01  0.595225D+00 -0.164915D+01  0.799859D+00  0.188535D-01
     15 -0.339256D-01  0.321752D+00  0.815566D+00 -0.267310D+01  0.122810D-01
     16 -0.510742D-01 -0.289808D+01  0.496879D-04 -0.766735D+00  0.117317D+00
     17 -0.160366D-01  0.407145D-04 -0.310963D+01 -0.123890D-03  0.602162D-05
     18  0.201450D-01 -0.619557D+00 -0.123842D-03 -0.116705D+01 -0.107193D+00
     19  0.194038D-01 -0.285490D+01 -0.741749D+00  0.395396D+00  0.441798D-01
     20 -0.943982D-02 -0.595270D+00 -0.164892D+01 -0.799712D+00 -0.188483D-01
     21 -0.621130D-01  0.321668D+00 -0.815419D+00 -0.267333D+01  0.122726D-01
               11            12            13            14            15 
     11  0.790590D+01
     12  0.853800D-05  0.296483D+02
     13 -0.330161D-01 -0.355831D-01  0.249241D+01
     14  0.220525D-01  0.225425D-02 -0.786496D+00  0.166514D+01
     15  0.466171D-02  0.121251D-01 -0.442316D+00 -0.826633D+00  0.271055D+01
     16  0.200800D-05 -0.128756D-01  0.436058D-01  0.304065D-02 -0.129941D-01
     17 -0.176256D-01 -0.458877D-05  0.101826D-01  0.280559D-01 -0.544736D-01
     18 -0.521873D-05  0.585219D-01  0.203574D-02 -0.549994D-02 -0.580280D-02
     19  0.330251D-01 -0.355801D-01  0.513014D-01 -0.695399D-02  0.983137D-02
     20  0.220535D-01 -0.225038D-02  0.695280D-02 -0.495208D-01  0.204867D-01
     21 -0.465741D-02  0.121258D-01  0.983236D-02 -0.205007D-01  0.522499D-01
               16            17            18            19            20 
     16  0.260070D+01
     17 -0.562083D-04  0.310965D+01
     18  0.907743D+00  0.130404D-03  0.107984D+01
     19  0.436038D-01 -0.101829D-01  0.203463D-02  0.249240D+01
     20 -0.303852D-02  0.280455D-01  0.550475D-02  0.786556D+00  0.166491D+01
     21 -0.129949D-01  0.544789D-01 -0.579697D-02 -0.442198D+00  0.826484D+00
               21 
     21  0.271080D+01
 Leave Link  701 at Tue Feb 19 10:59:15 2019, MaxMem=   196608000 cpu:         5.3
 (Enter /cm/shared/c3ddb/gaussian/09.d01/g09/l702.exe)
 L702 exits ... SP integral derivatives will be done elsewhere.
 Leave Link  702 at Tue Feb 19 10:59:15 2019, MaxMem=   196608000 cpu:         0.2
 (Enter /cm/shared/c3ddb/gaussian/09.d01/g09/l703.exe)
 Compute integral second derivatives, UseDBF=F ICtDFT=           0.
 Integral derivatives from FoFJK, PRISM(SPDF).
 ICntrl=    100127.
 Calling FoFJK, ICntrl=    100127 FMM=F ISym2X=0 I1Cent= 0 IOpClX= 1 NMat=1 NMatS=1 NMatT=0.
 FoFJK:  IHMeth= 1 ICntrl=  100127 DoSepK=T KAlg= 0 I1Cent=   0 FoldK=F
 IRaf=         1 NMat=   1 IRICut=       1 DoRegI=T DoRafI=F ISym2E= 0.
 FoFCou: FMM=F IPFlag=           0 FMFlag=      100000 FMFlg1=         800
         NFxFlg=           0 DoJE=F BraDBF=F KetDBF=F FulRan=T
         wScrn=  0.000000 ICntrl=  100527 IOpCl=  0 I1Cent=           0 NGrid=           0
         NMat0=    1 NMatS0=      1 NMatT0=    0 NMatD0=    1 NMtDS0=    0 NMtDT0=    0
 Symmetry not used in FoFCou.
 FoFCou:  KetSym=F NOpSet=  1 NOpAb=1 NOp=  1.
 FoFCou:  CnvScl= 1.00D+00 Thresh= 1.00D-10 IAcrcy=      10.
 PrismS was handed   196518269 working-precision words and   780 shell-pairs
 FoFCou: LinMIO=F DoNuc=F BraDBF=F KetDBF=F HaveP=T PDBF=F HaveZ=T HaveW=F
         NIJTC =      10 NIJTAt=       0 NIJTCD=       0 NIJTT =      10
         IJTBeg=       1 IJTEnd=      10 KLTBeg=       1 KLTEnd=      10
         IPTBeg=       1 IPTEnd=      10 IPTBCv=       1 IPTECv=      10
         IZTBeg=       1 IZTEnd=      10 IZTBCv=       1 IZTECv=      10
         IWTBeg=      11 IWTEnd=      10 IWTBCv=      11 IWTECv=      10
         INTBeg=       1 INTEnd=       0 IFTBCv=       1 IFTECv=      10
 NCel replicated for PrismC:     1
 CoulSu:  IncDef=  1024 NBBP=         304590 NTPThr=   100 NPartT=    8 Incr=         380 LDynOK=F.
 CoulSu:  NPrtUS=   8 ThrOK=T IAlg=1 NPAlg=1 LenDen=           0 LWGrdD=           0 DoCopy=F.
 Enter PrismC: JobTyp=22 DoJE=F Cont=F.
 PrismC:  IPart=     0 DynPar=T LinDyn=F Incr=         380 UseFst=F UseS4=T IGathr=2.
 Enter PrismC: JobTyp=22 DoJE=F Cont=F.
 PrismC was handed    24546002 working-precision words and   780 shell-pairs
 PrismC was handed    24546002 working-precision words and   780 shell-pairs
 Enter PrismC: JobTyp=22 DoJE=F Cont=F.
 Enter PrismC: JobTyp=22 DoJE=F Cont=F.
 Enter PrismC: JobTyp=22 DoJE=F Cont=F.
 PrismC was handed    24546002 working-precision words and   780 shell-pairs
 Enter PrismC: JobTyp=22 DoJE=F Cont=F.
 PrismC was handed    24546002 working-precision words and   780 shell-pairs
 PrismC was handed    24546002 working-precision words and   780 shell-pairs
 PrismC was handed    24546002 working-precision words and   780 shell-pairs
 Enter PrismC: JobTyp=22 DoJE=F Cont=F.
 PrismC was handed    24546002 working-precision words and   780 shell-pairs
 Enter PrismC: JobTyp=22 DoJE=F Cont=F.
 PrismC was handed    24546002 working-precision words and   780 shell-pairs
 IPart=  6 NShTot=       58188 NShNF=       58188 NShFF=           0 NBatch=        3374 AvBLen=        17.2
 IPart=  4 NShTot=       43000 NShNF=       43000 NShFF=           0 NBatch=        2646 AvBLen=        16.3
 IPart=  7 NShTot=       57932 NShNF=       57932 NShFF=           0 NBatch=        3423 AvBLen=        16.9
 IPart=  0 NShTot=       47891 NShNF=       47891 NShFF=           0 NBatch=        2688 AvBLen=        17.8
 IPart=  2 NShTot=       17976 NShNF=       17976 NShFF=           0 NBatch=        1120 AvBLen=        16.1
 IPart=  1 NShTot=       16622 NShNF=       16622 NShFF=           0 NBatch=        1116 AvBLen=        14.9
 IPart=  5 NShTot=       18069 NShNF=       18069 NShFF=           0 NBatch=        1098 AvBLen=        16.5
 IPart=  3 NShTot=       18923 NShNF=       18923 NShFF=           0 NBatch=        1152 AvBLen=        16.4
 CoulSu:  NxtVal=         327561.
 FoFCou: FMM=F IPFlag=           0 FMFlag=      100000 FMFlg1=         800
         NFxFlg=           0 DoJE=F BraDBF=F KetDBF=F FulRan=T
         wScrn=  0.000000 ICntrl=  100127 IOpCl=  1 I1Cent=           0 NGrid=           0
         NMat0=    1 NMatS0=      0 NMatT0=    1 NMatD0=    1 NMtDS0=    0 NMtDT0=    0
         CW=    0.222036    0.777964
         WU=    0.000000   12.500000
 Symmetry not used in FoFCou.
 FoFCou:  KetSym=F NOpSet=  1 NOpAb=1 NOp=  1.
 FoFCou:  CnvScl= 1.00D+00 Thresh= 1.00D-10 IAcrcy=      10.
 PrismS was handed   196517538 working-precision words and   780 shell-pairs
 FoFCou: LinMIO=F DoNuc=F BraDBF=F KetDBF=F HaveP=T PDBF=F HaveZ=T HaveW=F
         NIJTC =      10 NIJTAt=       0 NIJTCD=       0 NIJTT =      10
         IJTBeg=       1 IJTEnd=      10 KLTBeg=       1 KLTEnd=      10
         IPTBeg=       1 IPTEnd=      10 IPTBCv=       1 IPTECv=      10
         IZTBeg=       1 IZTEnd=      10 IZTBCv=       1 IZTECv=      10
         IWTBeg=      11 IWTEnd=      10 IWTBCv=      11 IWTECv=      10
         INTBeg=       1 INTEnd=       0 IFTBCv=       1 IFTECv=      10
 NCel replicated for PrismC:     1
 CoulSu:  IncDef=  1024 NBBP=         304590 NTPThr=   100 NPartT=    8 Incr=         380 LDynOK=F.
 CoulSu:  NPrtUS=   8 ThrOK=T IAlg=1 NPAlg=1 LenDen=           0 LWGrdD=           0 DoCopy=F.
 Enter PrismC: JobTyp=22 DoJE=F Cont=F.
 Enter PrismC: JobTyp=22 DoJE=F Cont=F.
 Enter PrismC: JobTyp=22 DoJE=F Cont=F.
 Enter PrismC: JobTyp=22 DoJE=F Cont=F.
 Linear combination for Coulomb/exchange, wScrn=  0.000000
 CW=    0.222036    0.777964
 WU=    0.000000   12.500000
 Enter PrismC: JobTyp=22 DoJE=F Cont=F.
 Linear combination for Coulomb/exchange, wScrn=  0.000000
 CW=    0.222036    0.777964
 WU=    0.000000   12.500000
 Linear combination for Coulomb/exchange, wScrn=  0.000000
 CW=    0.222036    0.777964
 WU=    0.000000   12.500000
 Enter PrismC: JobTyp=22 DoJE=F Cont=F.
 Linear combination for Coulomb/exchange, wScrn=  0.000000
 CW=    0.222036    0.777964
 WU=    0.000000   12.500000
 PrismC was handed    24545911 working-precision words and   780 shell-pairs
 PrismC was handed    24545911 working-precision words and   780 shell-pairs
 Linear combination for Coulomb/exchange, wScrn=  0.000000
 CW=    0.222036    0.777964
 WU=    0.000000   12.500000
 PrismC:  IPart=     0 DynPar=T LinDyn=F Incr=         380 UseFst=F UseS4=T IGathr=2.
 PrismC was handed    24545911 working-precision words and   780 shell-pairs
 Linear combination for Coulomb/exchange, wScrn=  0.000000
 CW=    0.222036    0.777964
 WU=    0.000000   12.500000
 PrismC was handed    24545911 working-precision words and   780 shell-pairs
 PrismC was handed    24545911 working-precision words and   780 shell-pairs
 PrismC was handed    24545911 working-precision words and   780 shell-pairs
 Enter PrismC: JobTyp=22 DoJE=F Cont=F.
 Linear combination for Coulomb/exchange, wScrn=  0.000000
 CW=    0.222036    0.777964
 WU=    0.000000   12.500000
 Enter PrismC: JobTyp=22 DoJE=F Cont=F.
 Linear combination for Coulomb/exchange, wScrn=  0.000000
 CW=    0.222036    0.777964
 WU=    0.000000   12.500000
 PrismC was handed    24545911 working-precision words and   780 shell-pairs
 PrismC was handed    24545911 working-precision words and   780 shell-pairs
 IPart=  6 NShTot=       52144 NShNF=       52144 NShFF=           0 NBatch=        3364 AvBLen=        15.5
 IPart=  7 NShTot=       52651 NShNF=       52651 NShFF=           0 NBatch=        3304 AvBLen=        15.9
 IPart=  0 NShTot=       47442 NShNF=       47442 NShFF=           0 NBatch=        3001 AvBLen=        15.8
 IPart=  4 NShTot=       48141 NShNF=       48141 NShFF=           0 NBatch=        3145 AvBLen=        15.3
 IPart=  1 NShTot=       18267 NShNF=       18267 NShFF=           0 NBatch=        1222 AvBLen=        14.9
 IPart=  2 NShTot=       20753 NShNF=       20753 NShFF=           0 NBatch=        1333 AvBLen=        15.6
 IPart=  5 NShTot=       19285 NShNF=       19285 NShFF=           0 NBatch=        1355 AvBLen=        14.2
 IPart=  3 NShTot=       19332 NShNF=       19332 NShFF=           0 NBatch=        1234 AvBLen=        15.7
 CoulSu:  NxtVal=         327561.
 ReadGW:  IGet=0 IStart=           1 Next=           1 LGW=           0.
 Remaining memory in FofDFT      187.47 Mw
 CkSvGd:  ISavGI=        -1 IRadAn=       4 IRASav=       0 ISavGd=        -1.
 CalDSu:  NPrtUS=   8 ThrOK=T IAlg=1 NPAlg=2 DoDPD=T LenP=        6441 LenD1P=             0.
 IPart=  0 IRanGd=          0 ScrnBf=T ScrnGd=T RCrit=4.00D+00 DoMicB=T.
 IPart=  7         9321 of        10376 points in      23 batches and       78 microbatches, Max-NSigAt=       7 Max-NSgAt2=       7
 IPart=  6        10939 of        12668 points in      30 batches and       79 microbatches, Max-NSigAt=       7 Max-NSgAt2=       7
 IPart=  0         8405 of         9194 points in      20 batches and       65 microbatches, Max-NSigAt=       7 Max-NSgAt2=       7
 IPart=  3         3996 of         4052 points in       7 batches and       18 microbatches, Max-NSigAt=       7 Max-NSgAt2=       7
 IPart=  4         8080 of         8922 points in      20 batches and       84 microbatches, Max-NSigAt=       7 Max-NSgAt2=       7
 IPart=  2         3794 of         3916 points in       7 batches and       24 microbatches, Max-NSigAt=       7 Max-NSgAt2=       7
 IPart=  5         3673 of         3916 points in       7 batches and       32 microbatches, Max-NSigAt=       7 Max-NSgAt2=       7
 IPart=  1         4174 of         4228 points in       7 batches and       16 microbatches, Max-NSigAt=       7 Max-NSgAt2=       7
 Polarizability after L703:
                1             2             3 
      1  0.321589D+02
      2  0.117762D-04  0.542808D+02
      3 -0.282304D+00 -0.480888D-05  0.224319D+02
 Dipole Derivatives after L703:
                 1             2             3             4             5 
      1  -0.613722D+00  0.179211D+00  0.972894D-03 -0.613728D+00 -0.179219D+00
      2  -0.358514D+00  0.524238D+00 -0.112518D-01  0.358513D+00  0.524209D+00
      3   0.897591D-02 -0.394271D-02 -0.289157D+00  0.897548D-02  0.394205D-02
                 6             7             8             9            10 
      1   0.972587D-03 -0.412077D+00 -0.104319D-04  0.743819D-01  0.145150D+01
      2   0.112511D-01 -0.175275D-05  0.452464D+00  0.186593D-05  0.255224D-05
      3  -0.289157D+00  0.263028D-01  0.000000D+00  0.254022D-01 -0.360506D-01
                11            12            13            14            15 
      1   0.113475D-04 -0.247891D-01  0.618104D-01 -0.246513D-01 -0.346668D-01
      2  -0.166204D+01  0.000000D+00  0.136010D+00  0.141403D-01 -0.617517D-01
      3   0.000000D+00  0.403427D+00 -0.361731D-02 -0.567191D-01  0.831900D-01
                16            17            18            19            20 
      1   0.644064D-01  0.000000D+00  0.177915D-01  0.618095D-01  0.246587D-01
      2   0.108219D-04  0.132869D+00  0.960084D-05 -0.136020D+00  0.141221D-01
      3  -0.969026D-03  0.960694D-05 -0.169080D-01 -0.361728D-02  0.567090D-01
                21 
      1  -0.346629D-01
      2   0.617409D-01
      3   0.832030D-01
 Hessian after L703:
                1             2             3             4             5 
      1  0.228377D+00
      2 -0.208798D+00  0.389356D+00
      3  0.269775D-02 -0.234615D-02  0.192386D-01
      4  0.739275D-01 -0.727657D-01  0.149449D-02  0.228381D+00
      5  0.727648D-01 -0.229851D+00  0.128391D-02  0.208803D+00  0.389366D+00
      6  0.149442D-02 -0.128375D-02  0.185169D-01  0.269772D-02  0.234602D-02
      7 -0.181250D-01  0.106736D-01 -0.299727D-03 -0.181251D-01 -0.106738D-01
      8  0.468987D-01 -0.207459D-01 -0.136507D-02 -0.469003D-01 -0.207457D-01
      9  0.226609D-02 -0.135160D-02  0.216531D-01  0.226594D-02  0.135154D-02
     10 -0.276797D+00  0.268601D+00 -0.339710D-02 -0.276800D+00 -0.268605D+00
     11  0.853190D-01 -0.135768D+00  0.977669D-03 -0.853226D-01 -0.135777D+00
     12 -0.417387D-02  0.369361D-02 -0.601016D-01 -0.417390D-02 -0.369366D-02
     13  0.531399D-02 -0.460321D-02  0.228295D-02 -0.108852D-01 -0.621047D-02
     14  0.595897D-03 -0.155660D-02 -0.579516D-04 -0.137821D-02 -0.159863D-03
     15 -0.151262D-02  0.219684D-03  0.403141D-04 -0.319076D-03 -0.898655D-04
     16 -0.181148D-02  0.681137D-03 -0.486581D-02 -0.181274D-02 -0.681924D-03
     17  0.184130D-02 -0.127533D-02  0.841191D-03 -0.184100D-02 -0.127509D-02
     18 -0.452632D-03  0.978255D-03 -0.191433D-03 -0.452672D-03 -0.978249D-03
     19 -0.108859D-01  0.621123D-02  0.208745D-02  0.531467D-02  0.460354D-02
     20  0.137843D-02 -0.159934D-03  0.666399D-03 -0.595330D-03 -0.155646D-02
     21 -0.319138D-03  0.899556D-04  0.844046D-03 -0.151250D-02 -0.219687D-03
                6             7             8             9            10 
      6  0.192380D-01
      7 -0.299773D-03  0.501945D+00
      8  0.136509D-02  0.000000D+00  0.593798D+00
      9  0.216540D-01  0.128460D-01  0.241656D-05  0.543885D+00
     10 -0.339693D-02 -0.232864D+00  0.273033D-05 -0.116659D-01  0.811139D+00
     11 -0.977690D-03  0.000000D+00 -0.390335D-01  0.000000D+00  0.364765D-05
     12 -0.601011D-01 -0.337753D-03  0.000000D+00 -0.929398D-01  0.719984D-02
     13  0.208805D-02 -0.805090D-01 -0.772948D-01 -0.452203D-01 -0.799039D-02
     14 -0.666366D-03 -0.778315D-01 -0.236027D+00 -0.104312D+00  0.986956D-03
     15  0.843516D-03 -0.463660D-01 -0.103852D+00 -0.101662D+00  0.492800D-02
     16 -0.486590D-02 -0.718118D-01 -0.564713D-05  0.847169D-01 -0.869746D-02
     17 -0.841236D-03 -0.532394D-05 -0.411910D-01  0.174630D-04  0.000000D+00
     18 -0.191645D-03  0.808119D-01  0.173322D-04 -0.290956D+00  0.140439D-02
     19  0.228242D-02 -0.805094D-01  0.773001D-01 -0.452087D-01 -0.799051D-02
     20  0.579351D-04  0.778375D-01 -0.236055D+00  0.104292D+00 -0.988501D-03
     21  0.402818D-04 -0.463545D-01  0.103832D+00 -0.101634D+00  0.492766D-02
               11            12            13            14            15 
     11  0.305075D+00
     12  0.000000D+00  0.215616D+00
     13 -0.170910D-01 -0.187629D-01  0.851381D-01
     14  0.294898D-02  0.241959D-02  0.859490D-01  0.250489D+00
     15  0.232173D-02 -0.179920D-02  0.481023D-01  0.113587D+00  0.106889D+00
     16 -0.143539D-05  0.390068D-01  0.380702D-02  0.109641D-02 -0.119705D-01
     17 -0.395519D-03  0.000000D+00  0.983283D-02  0.118998D-02 -0.247792D-01
     18  0.000000D+00  0.112547D-02  0.437067D-02  0.162483D-02 -0.118788D-01
     19  0.170921D-01 -0.187583D-01  0.512555D-02 -0.941859D-02  0.713797D-02
     20  0.294963D-02 -0.241931D-02  0.941763D-02 -0.168844D-01  0.125922D-01
     21 -0.232140D-02 -0.180017D-02  0.713925D-02 -0.125956D-01  0.756717D-02
               16            17            18            19            20 
     16  0.765193D-01
     17  0.618382D-05  0.417601D-01
     18 -0.900509D-01 -0.189831D-04  0.313968D+00
     19  0.380712D-02 -0.983338D-02  0.436927D-02  0.851385D-01
     20 -0.109472D-02  0.118682D-02 -0.162294D-02 -0.859550D-01  0.250519D+00
     21 -0.119706D-01  0.247810D-01 -0.118757D-01  0.480899D-01 -0.113566D+00
               21 
     21  0.106859D+00
 Leave Link  703 at Tue Feb 19 10:59:35 2019, MaxMem=   196608000 cpu:       120.3
 (Enter /cm/shared/c3ddb/gaussian/09.d01/g09/l716.exe)
 FrcOut:
 IF    =    49 IFX   =    70 IFXYZ =    91
 IFFX  =   112 IFFFX =   343 IFLen =    21
 IFFLen=   231 IFFFLn=     0 IEDerv=   343
 LEDerv=  1061 IFroze=  1655 ICStrt= 25721
 Dipole        =-1.37948364D+00-5.30039893D-06 8.69012955D-03
 DipoleDeriv   =-6.13721729D-01-3.58514073D-01 8.97591062D-03
                 1.79210873D-01 5.24237976D-01-3.94271022D-03
                 9.72894046D-04-1.12517826D-02-2.89157472D-01
                -6.13727846D-01 3.58512858D-01 8.97547555D-03
                -1.79219121D-01 5.24208902D-01 3.94204717D-03
                 9.72586656D-04 1.12510942D-02-2.89157158D-01
                -4.12076807D-01-1.75275422D-06 2.63028355D-02
                -1.04318856D-05 4.52463667D-01 9.44658571D-07
                 7.43818942D-02 1.86593424D-06 2.54021510D-02
                 1.45150007D+00 2.55224347D-06-3.60506093D-02
                 1.13475112D-05-1.66204237D+00 2.09241641D-07
                -2.47890971D-02 1.59772742D-08 4.03427444D-01
                 6.18103967D-02 1.36009880D-01-3.61730559D-03
                -2.46513166D-02 1.41403171D-02-5.67191400D-02
                -3.46667949D-02-6.17517019D-02 8.31900223D-02
                 6.44063942D-02 1.08219076D-05-9.69025651D-04
                -2.32612665D-08 1.32869430D-01 9.60694329D-06
                 1.77914659D-02 9.60083705D-06-1.69080206D-02
                 6.18095205D-02-1.36020287D-01-3.61728047D-03
                 2.46586727D-02 1.41220818D-02 5.67090438D-02
                -3.46629489D-02 6.17409078D-02 8.32030321D-02
 Polarizability= 3.21589239D+01 1.17762149D-05 5.42807743D+01
                -2.82303547D-01-4.80887588D-06 2.24318845D+01
 VibFq2-Diag1:  N=     21 IV=           8 MDV=   196580427 NE2=     9360972
 Full mass-weighted force constant matrix:
 Low frequencies ---  -20.4164  -20.1356    0.0010    0.0012    0.0012   31.9076
 Low frequencies ---   51.5415  393.5699  550.1479
 OrtVCM:  Ph=1 IPass= 1 DotMx1= 0.00D+00
 OrtVCM:  IS=    1 I=    1 IndO=    1 Dot= 1.00D+00 DotN= 1.00D+00 ElMax1= 5.21D-01 ElMax1N= 5.21D-01
 OrtVCM:  Ph=2 NNew=    0 IAdd=    2 IPass= 1 DotMx2= 0.00D+00
 OrtVCM:  IS=    1 I=    2 IndO=    2 Dot= 1.00D+00 DotN= 1.00D+00 ElMax1= 5.21D-01 ElMax1N= 5.21D-01
 OrtVCM:  Ph=2 NNew=    0 IAdd=    3 IPass= 1 DotMx2= 0.00D+00
 OrtVCM:  IS=    1 I=    3 IndO=    3 Dot= 1.00D+00 DotN= 1.00D+00 ElMax1= 5.21D-01 ElMax1N= 5.21D-01
 OrtVCM:  Ph=2 NNew=    0 IAdd=    4 IPass= 1 DotMx2= 1.25D-16
 OrtVCM:  IS=    1 I=    4 IndO=    4 Dot= 1.00D+00 DotN= 1.00D+00 ElMax1= 6.76D-01 ElMax1N= 6.76D-01
 OrtVCM:  Ph=2 NNew=    0 IAdd=    5 IPass= 1 DotMx2= 3.61D-16
 OrtVCM:  IS=    1 I=    5 IndO=    5 Dot= 1.00D+00 DotN= 1.00D+00 ElMax1= 6.91D-01 ElMax1N= 6.91D-01
 OrtVCM:  Ph=2 NNew=    0 IAdd=    6 IPass= 1 DotMx2= 2.60D-17
 OrtVCM:  IS=    1 I=    6 IndO=    6 Dot= 1.00D+00 DotN= 1.00D+00 ElMax1= 5.43D-01 ElMax1N= 5.43D-01
 OrtVCM:  Ph=1 IPass= 1 DotMx1= 6.91D-01
 OrtVCM:  Ph=1 IPass= 2 DotMx1= 3.00D-16
 OrtVCM:  IS=    1 I=    1 IndO=    7 Dot= 5.37D-01 DotN= 5.37D-01 ElMax1= 5.37D-01 ElMax1N= 5.37D-01
 OrtVCM:  Ph=2 NNew=    0 IAdd=    2 IPass= 1 DotMx2= 1.83D-01
 OrtVCM:  Ph=2 NNew=    0 IAdd=    2 IPass= 2 DotMx2= 3.59D-17
 OrtVCM:  IS=    1 I=    2 IndO=    8 Dot= 6.01D-01 DotN= 6.01D-01 ElMax1= 6.01D-01 ElMax1N= 6.01D-01
 OrtVCM:  Ph=2 NNew=    0 IAdd=    3 IPass= 1 DotMx2= 9.94D-04
 OrtVCM:  Ph=2 NNew=    0 IAdd=    3 IPass= 2 DotMx2= 5.83D-19
 OrtVCM:  IS=    1 I=    3 IndO=    9 Dot= 1.19D-01 DotN= 1.19D-01 ElMax1= 2.37D-01 ElMax1N= 2.37D-01
 OrtVCM:  Ph=2 NNew=    0 IAdd=    4 IPass= 1 DotMx2= 1.48D-01
 OrtVCM:  Ph=2 NNew=    0 IAdd=    4 IPass= 2 DotMx2= 2.18D-17
 OrtVCM:  IS=    1 I=    4 IndO=   10 Dot= 5.04D-01 DotN= 5.04D-01 ElMax1= 5.04D-01 ElMax1N= 5.04D-01
 OrtVCM:  Ph=2 NNew=    0 IAdd=    5 IPass= 1 DotMx2= 5.14D-01
 OrtVCM:  Ph=2 NNew=    0 IAdd=    5 IPass= 2 DotMx2= 2.84D-16
 OrtVCM:  IS=    1 I=    5 IndO=   11 Dot= 2.65D-01 DotN= 2.65D-01 ElMax1= 4.12D-01 ElMax1N= 4.12D-01
 OrtVCM:  Ph=2 NNew=    0 IAdd=    6 IPass= 1 DotMx2= 9.64D-02
 OrtVCM:  Ph=2 NNew=    0 IAdd=    6 IPass= 2 DotMx2= 4.16D-17
 OrtVCM:  IS=    1 I=    6 IndO=   12 Dot= 1.10D-01 DotN= 1.10D-01 ElMax1= 1.71D-01 ElMax1N= 1.71D-01
 OrtVCM:  Ph=2 NNew=    0 IAdd=    7 IPass= 1 DotMx2= 3.64D-01
 OrtVCM:  Ph=2 NNew=    0 IAdd=    7 IPass= 2 DotMx2= 4.88D-17
 OrtVCM:  IS=    1 I=    7 IndO=   13 Dot= 5.56D-01 DotN= 5.56D-01 ElMax1= 5.56D-01 ElMax1N= 5.56D-01
 OrtVCM:  Ph=2 NNew=    0 IAdd=    8 IPass= 1 DotMx2= 3.24D-01
 OrtVCM:  Ph=2 NNew=    0 IAdd=    8 IPass= 2 DotMx2= 4.48D-17
 OrtVCM:  IS=    1 I=    8 IndO=   14 Dot= 3.03D-01 DotN= 3.03D-01 ElMax1= 3.03D-01 ElMax1N= 3.03D-01
 OrtVCM:  Ph=2 NNew=    0 IAdd=    9 IPass= 1 DotMx2= 1.03D-01
 OrtVCM:  Ph=2 NNew=    0 IAdd=    9 IPass= 2 DotMx2= 5.55D-17
 OrtVCM:  IS=    1 I=    9 IndO=   15 Dot= 3.02D-01 DotN= 3.02D-01 ElMax1= 3.02D-01 ElMax1N= 3.02D-01
 OrtVCM:  Ph=2 NNew=    0 IAdd=   10 IPass= 1 DotMx2= 5.96D-01
 OrtVCM:  Ph=2 NNew=    0 IAdd=   10 IPass= 2 DotMx2= 1.97D-16
 OrtVCM:  IS=    1 I=   10 IndO=   16 Dot= 2.01D-01 DotN= 2.01D-01 ElMax1= 2.32D-01 ElMax1N= 2.32D-01
 OrtVCM:  Ph=2 NNew=    0 IAdd=   11 IPass= 1 DotMx2= 8.00D-01
 OrtVCM:  Ph=2 NNew=    0 IAdd=   11 IPass= 2 DotMx2= 2.85D-16
 OrtVCM:  IS=    1 I=   11 IndO=   17 Dot= 3.29D-02 DotN= 3.29D-02 ElMax1= 1.17D-01 ElMax1N= 1.17D-01
 OrtVCM:  Ph=2 NNew=    0 IAdd=   12 IPass= 1 DotMx2= 6.87D-01
 OrtVCM:  Ph=2 NNew=    0 IAdd=   12 IPass= 2 DotMx2= 9.37D-17
 OrtVCM:  IS=    1 I=   12 IndO=   18 Dot= 3.21D-02 DotN= 3.21D-02 ElMax1= 1.34D-01 ElMax1N= 1.34D-01
 OrtVCM:  Ph=2 NNew=    0 IAdd=   13 IPass= 1 DotMx2= 6.47D-01
 OrtVCM:  Ph=2 NNew=    0 IAdd=   13 IPass= 2 DotMx2= 2.10D-16
 OrtVCM:  IS=    1 I=   13 IndO=    0 Dot= 2.12D-04 DotN= 2.12D-04 ElMax1= 9.35D-03 ElMax1N= 9.35D-03
 OrtVCM:  Ph=2 NNew=    0 IAdd=   14 IPass= 1 DotMx2= 4.50D-01
 OrtVCM:  Ph=2 NNew=    0 IAdd=   14 IPass= 2 DotMx2= 1.93D-16
 OrtVCM:  IS=    1 I=   14 IndO=   19 Dot= 5.84D-01 DotN= 5.84D-01 ElMax1= 5.84D-01 ElMax1N= 5.84D-01
 OrtVCM:  Ph=2 NNew=    0 IAdd=   15 IPass= 1 DotMx2= 4.51D-01
 OrtVCM:  Ph=2 NNew=    0 IAdd=   15 IPass= 2 DotMx2= 1.91D-16
 OrtVCM:  IS=    1 I=   15 IndO=   20 Dot= 3.77D-01 DotN= 3.77D-01 ElMax1= 3.77D-01 ElMax1N= 3.77D-01
 SchOr2:  IPass= 1 Test2A= 1.00D-01 IOff=     0 NDo=    15 NNew=    14
 OrtVCM:  Ph=1 IPass= 1 DotMx1= 7.48D-01
 OrtVCM:  Ph=1 IPass= 2 DotMx1= 3.46D-16
 OrtVCM:  IS=    1 I=    1 IndO=    0 Dot= 1.91D-04 DotN= 1.91D-04 ElMax1= 8.43D-03 ElMax1N= 8.43D-03
 SchOr2:  IPass= 1 Test2A= 1.00D-01 IOff=    15 NDo=     1 NNew=     0
 OrtVCM:  Ph=1 IPass= 1 DotMx1= 4.44D-01
 OrtVCM:  Ph=1 IPass= 2 DotMx1= 1.42D-16
 OrtVCM:  IS=    1 I=    1 IndO=   21 Dot= 1.28D-01 DotN= 1.28D-01 ElMax1= 2.18D-01 ElMax1N= 2.18D-01
 SchOr2:  IPass= 1 Test2A= 1.00D-01 IOff=    16 NDo=     1 NNew=     1
 VibFq2-Diag2:  N=     15 IV=           8 MDV=   196580427 NE2=    13105361
 Dipole derivatives wrt mode   1: -2.14915D-05  4.89887D-01  3.39732D-05
 Vibrational polarizability contributions from mode   1       0.0000000       2.7621402       0.0000000
 Vibrational hyperpolarizability contributions from mode   1       0.0000000       0.0000000       0.0000000
 Dipole derivatives wrt mode   2: -3.77722D-05  3.78605D+00 -8.17508D-06
 Vibrational polarizability contributions from mode   2       0.0000000       2.4904255       0.0000000
 Vibrational hyperpolarizability contributions from mode   2       0.0000000       0.0000000       0.0000000
 Dipole derivatives wrt mode   3:  9.31407D-01 -6.14022D-05 -2.81603D+00
 Vibrational polarizability contributions from mode   3       0.0771393       0.0000000       0.7051366
 Vibrational hyperpolarizability contributions from mode   3       0.0000000       0.0000000       0.0000000
 Dipole derivatives wrt mode   4: -4.30885D+00  1.62831D-04 -6.53027D-01
 Vibrational polarizability contributions from mode   4       1.4574022       0.0000000       0.0334748
 Vibrational hyperpolarizability contributions from mode   4       0.0000000       0.0000000       0.0000000
 Dipole derivatives wrt mode   5: -2.35155D+00  8.22676D-04  5.00140D-01
 Vibrational polarizability contributions from mode   5       0.1760844       0.0000000       0.0079652
 Vibrational hyperpolarizability contributions from mode   5       0.0000000       0.0000000       0.0000000
 Dipole derivatives wrt mode   6:  1.39107D-04  7.48722D+00 -6.87588D-05
 Vibrational polarizability contributions from mode   6       0.0000000       1.5569062       0.0000000
 Vibrational hyperpolarizability contributions from mode   6       0.0000000       0.0000000       0.0000000
 Dipole derivatives wrt mode   7:  4.61939D-05  1.51107D+01  8.83533D-05
 Vibrational polarizability contributions from mode   7       0.0000000       5.6992936       0.0000000
 Vibrational hyperpolarizability contributions from mode   7       0.0000000       0.0000000       0.0000000
 Dipole derivatives wrt mode   8:  8.26646D-01  3.67488D-04 -3.63512D+00
 Vibrational polarizability contributions from mode   8       0.0164241       0.0000000       0.3175983
 Vibrational hyperpolarizability contributions from mode   8       0.0000000       0.0000000       0.0000000
 Dipole derivatives wrt mode   9: -3.15081D+00 -3.52257D-04  7.08392D-01
 Vibrational polarizability contributions from mode   9       0.1382293       0.0000000       0.0069872
 Vibrational hyperpolarizability contributions from mode   9       0.0000000       0.0000000       0.0000000
 Dipole derivatives wrt mode  10: -3.62146D-04 -6.79326D+00  4.63770D-04
 Vibrational polarizability contributions from mode  10       0.0000000       0.5836169       0.0000000
[...]
          (Kelvin)           1416.28  1493.94  1522.44  2000.24  2098.81
                             2123.02  2354.02  4417.49  4536.46  4569.77
 
 Zero-point correction=                           0.047700 (Hartree/Particle)
 Thermal correction to Energy=                    0.052216
 Thermal correction to Enthalpy=                  0.053161
 Thermal correction to Gibbs Free Energy=         0.019679
 Sum of electronic and zero-point Energies=           -228.353597
 Sum of electronic and thermal Energies=              -228.349081
 Sum of electronic and thermal Enthalpies=            -228.348137
 Sum of electronic and thermal Free Energies=         -228.381619
 
                     E (Thermal)             CV                S
                      KCal/Mol        Cal/Mol-Kelvin    Cal/Mol-Kelvin
 Total                   32.766             13.474             70.469
 Electronic               0.000              0.000              1.377
 Translational            0.889              2.981             38.146
 Rotational               0.889              2.981             23.621
 Vibrational             30.989              7.512              7.325
 Vibration     1          0.595              1.978              4.884
 Vibration     2          0.761              1.484              0.987
 Vibration     3          0.905              1.139              0.544
 Vibration     4          0.943              1.063              0.475
                       Q            Log10(Q)             Ln(Q)
 Total Bot       0.888144D-09         -9.051516        -20.841887
 Total V=0       0.774307D+13         12.888913         29.677819
 Vib (Bot)       0.768769D-21        -21.114204        -48.617252
 Vib (Bot)    1  0.427580D+01          0.631017          1.452970
 Vib (Bot)    2  0.454999D+00         -0.341989         -0.787460
 Vib (Bot)    3  0.285226D+00         -0.544810         -1.254472
 Vib (Bot)    4  0.258814D+00         -0.587013         -1.351647
 Vib (V=0)       0.670232D+01          0.826225          1.902453
 Vib (V=0)    1  0.480493D+01          0.681687          1.569643
 Vib (V=0)    2  0.117604D+01          0.070420          0.162149
 Vib (V=0)    3  0.107563D+01          0.031664          0.072910
 Vib (V=0)    4  0.106301D+01          0.026539          0.061108
 Electronic      0.200000D+01          0.301030          0.693147
 Translational   0.178189D+08          7.250880         16.695768
 Rotational      0.324174D+05          4.510778         10.386450
 
                                                                 name
                                                             IR Spectrum
 
     33   3                                                        1     11  1            11                                         
     11   0                                                        6     44  3            00 9  9            5 5     3               
     75   7                                                        3     75  9            53 8  1            8 5     9             4 
     63   0                                                        6     69  0            88 4  9            6 0     4             8 
 
      X   X                                                        X     XX  X            XX X  X            X X     X             X 
                                                                   X      X                X X               X                       
                                                                   X      X                X X                                       
                                                                   X      X                X X                                       
                                                                   X                       X X                                       
                                                                   X                       X                                         
                                                                   X                       X                                         
                                                                   X                       X                                         
                                                                   X                       X                                         
                                                                   X                       X                                         
                                                                   X                       X                                         
                                                                   X                       X                                         
                                                                   X                       X                                         
                                                                   X                       X                                         
                                                                   X                       X                                         
                                                                   X                       X                                         
                                                                   X                       X                                         
                                                                   X                       X                                         
                                                                   X                       X                                         
                                                                                           X                                         
 
 Forces in standard orientation:
 -------------------------------------------------------------------
 Center     Atomic                   Forces (Hartrees/Bohr)
 Number     Number              X              Y              Z
 -------------------------------------------------------------------
      1        8           0.000000392    0.000000993    0.000008903
      2        8          -0.000000151   -0.000001614    0.000008850
      3        6           0.000000209   -0.000000970   -0.000006972
      4        6          -0.000000397    0.000000623    0.000003234
      5        1           0.000002935    0.000000096   -0.000004739
      6        1          -0.000005771    0.000000480   -0.000004922
      7        1           0.000002782    0.000000391   -0.000004355
 -------------------------------------------------------------------
 ***** Axes restored to original set *****
 Rotating derivatives, DoTrsp=F IDiff=-2 LEDeriv=   1060 LFDPrp=       0 LDFDPr=       0.
 -------------------------------------------------------------------
 Center     Atomic                   Forces (Hartrees/Bohr)
 Number     Number              X              Y              Z
 -------------------------------------------------------------------
      1        8           0.000000428   -0.000001449    0.000008839
      2        8          -0.000000132    0.000001154    0.000008922
      3        6           0.000000180    0.000001330   -0.000006913
      4        6          -0.000000382   -0.000000792    0.000003199
      5        1           0.000002919    0.000000168   -0.000004746
      6        1          -0.000005784   -0.000000264   -0.000004923
      7        1           0.000002770   -0.000000148   -0.000004378
 -------------------------------------------------------------------
 Cartesian Forces:  Max     0.000008922 RMS     0.000004010
 Z-matrix is all fixed cartesians, so copy forces.
 Force constants in Cartesian coordinates: 
                1             2             3             4             5 
      1  0.225708D+00
      2  0.207370D+00  0.390874D+00
      3  0.127226D-01  0.208892D-01  0.203897D-01
      4  0.739242D-01  0.745594D-01  0.517566D-02  0.231094D+00
      5 -0.707838D-01 -0.229177D+00 -0.138443D-01 -0.209654D+00  0.385857D+00
      6 -0.235454D-02 -0.117579D-01  0.178461D-01 -0.882317D-02  0.173185D-01
      7 -0.177472D-01 -0.106263D-01 -0.727811D-03 -0.184892D-01  0.106777D-01
      8 -0.469354D-01 -0.211534D-01 -0.694437D-03  0.467232D-01 -0.201133D-01
      9 -0.355435D-04 -0.811144D-03  0.216828D-01  0.482592D-02 -0.353106D-02
     10 -0.274533D+00 -0.269008D+00 -0.165918D-01 -0.279098D+00  0.267474D+00
     11 -0.859233D-01 -0.137664D+00 -0.472524D-02  0.844686D-01 -0.133485D+00
     12 -0.788739D-02 -0.684010D-02 -0.604695D-01  0.888493D-03 -0.101320D-02
     13  0.529037D-02  0.452340D-02  0.250203D-02 -0.109277D-01  0.602352D-02
     14 -0.471895D-03 -0.151753D-02 -0.591735D-05  0.132376D-02 -0.147181D-03
     15 -0.155497D-02 -0.325197D-03  0.248605D-04 -0.212669D-03  0.165954D-04
     16 -0.181273D-02 -0.436168D-03 -0.488395D-02 -0.184659D-02  0.931868D-03
     17 -0.182230D-02 -0.119349D-02 -0.919135D-03  0.186106D-02 -0.134757D-02
     18 -0.535750D-03 -0.103159D-02 -0.272023D-03 -0.357892D-03  0.912397D-03
     19 -0.108305D-01 -0.638192D-02  0.180323D-02  0.534270D-02 -0.466924D-02
     20 -0.143300D-02 -0.169409D-03 -0.700225D-03  0.717838D-03 -0.158696D-02
     21 -0.354403D-03 -0.123326D-03  0.798174D-03 -0.149635D-02  0.141017D-03
                6             7             8             9            10 
      6  0.200331D-01
      7  0.393543D-03  0.502034D+00
      8 -0.368093D-02 -0.126037D-02  0.593653D+00
      9  0.213858D-01  0.129363D-01  0.265951D-02  0.543941D+00
     10  0.111445D-01 -0.232894D+00 -0.671813D-03 -0.112525D-01  0.811159D+00
     11 -0.311808D-02 -0.125451D-02 -0.391816D-01  0.270619D-02  0.298337D-02
     12 -0.600958D-01  0.603280D-04  0.277923D-02 -0.927617D-01  0.539174D-02
     13  0.243686D-02 -0.818227D-01  0.809003D-01 -0.418364D-01 -0.813929D-02
     14  0.624571D-03  0.814968D-01 -0.245340D+00  0.963135D-01 -0.132136D-02
     15  0.873331D-03 -0.429498D-01  0.958479D-01 -0.910357D-01  0.490215D-02
     16 -0.482408D-02 -0.712657D-01 -0.452581D-02  0.838671D-01 -0.856340D-02
     17  0.743114D-03 -0.432445D-02 -0.419126D-01  0.134317D-01 -0.126148D-03
     18 -0.853201D-04  0.799673D-01  0.134066D-01 -0.290780D+00  0.143179D-02
     19  0.202686D-02 -0.798147D-01 -0.742300D-01 -0.485047D-01 -0.793204D-02
     20 -0.129332D-03 -0.747089D-01 -0.225952D+00 -0.110769D+00  0.670360D-03
     21  0.427436D-04 -0.496798D-01 -0.110318D+00 -0.112432D+00  0.497411D-02
               11            12            13            14            15 
     11  0.304854D+00
     12  0.465083D-02  0.215818D+00
     13  0.179562D-01 -0.178227D-01  0.865759D-01
     14  0.329126D-02 -0.227615D-02 -0.897896D-01  0.260644D+00
     15 -0.208539D-02 -0.199258D-02  0.443241D-01 -0.105021D+00  0.952957D-01
     16 -0.206736D-02  0.389833D-01  0.385155D-02 -0.454006D-03 -0.122217D-01
     17 -0.405617D-03  0.179456D-03 -0.994429D-02 -0.108005D-03  0.253411D-01
     18 -0.627686D-04  0.100151D-02  0.382074D-02 -0.985893D-03 -0.106254D-01
     19 -0.161630D-01 -0.196138D-01  0.517186D-02  0.921627D-02  0.771298D-02
     20  0.259055D-02  0.251994D-02 -0.966958D-02 -0.168233D-01 -0.137736D-01
     21  0.263446D-02 -0.149956D-02  0.657541D-02  0.113513D-01  0.745977D-02
               16            17            18            19            20 
     16  0.759250D-01
     17  0.482395D-02  0.425465D-01
     18 -0.891319D-01 -0.146239D-01  0.313776D+00
     19  0.371178D-02  0.953218D-02  0.480571D-02  0.843509D-01
     20  0.172752D-02  0.242075D-02  0.238516D-02  0.826957D-01  0.239521D+00
     21 -0.117888D-01 -0.241522D-01 -0.130142D-01  0.517698D-01  0.120467D+00
               21 
     21  0.118645D+00
 Final forces over variables, Energy=-2.28401297D+02:
  4.28055926D-07-1.32200647D-07 1.79660526D-07-3.81785913D-07
  2.91947336D-06-5.78357562D-06 2.77037246D-06-1.44877120D-06
  1.15354581D-06 1.33016696D-06-7.91582583D-07 1.68131779D-07
 -2.63821079D-07-1.47669648D-07 8.83889096D-06 8.92223482D-06
 -6.91319834D-06 3.19868392D-06-4.74605068D-06-4.92273924D-06
 -4.37782146D-06
 Leave Link  716 at Tue Feb 19 10:59:35 2019, MaxMem=   196608000 cpu:         1.8
 (Enter /cm/shared/c3ddb/gaussian/09.d01/g09/l103.exe)

 GradGradGradGradGradGradGradGradGradGradGradGradGradGradGradGradGradGrad
 Berny optimization.
 Search for a local minimum.
 Step number   1 out of a maximum of    2
 All quantities printed in internal units (Hartrees-Bohrs-Radians)
 Second derivative matrix not updated -- analytic derivatives used.
 ITU=  0
     Eigenvalues ---    0.00023   0.02450   0.03262   0.06689   0.09021
     Eigenvalues ---    0.09972   0.14555   0.20590   0.27207   0.33216
     Eigenvalues ---    0.52012   0.66173   0.74563   0.80618   1.35776
 Angle between quadratic step and forces=  83.06 degrees.
 Linear search not attempted -- first point.
 TrRot=  0.000001  0.000000 -0.000006  0.000000 -0.000005  0.000000
 Variable       Old X    -DE/DX   Delta X   Delta X   Delta X     New X
                                 (Linear)    (Quad)   (Total)
    X1       -1.51778   0.00000   0.00000   0.00000   0.00001  -1.51777
    Y1       -1.96094   0.00000   0.00000   0.00000   0.00000  -1.96094
    Z1       -0.10034   0.00001   0.00000   0.00002   0.00001  -0.10033
    X2       -1.54290   0.00000   0.00000   0.00000   0.00000  -1.54289
    Y2        1.93167   0.00000   0.00000   0.00001   0.00001   1.93168
    Z2        0.10097   0.00001   0.00000  -0.00006  -0.00007   0.10090
    X3        2.62035   0.00000   0.00000   0.00000   0.00000   2.62035
    Y3        0.01234   0.00000   0.00000   0.00000   0.00000   0.01234
    Z3       -0.00339  -0.00001   0.00000   0.00002   0.00003  -0.00336
    X4       -0.19234   0.00000   0.00000   0.00000   0.00000  -0.19234
    Y4       -0.00680   0.00000   0.00000   0.00000   0.00000  -0.00680
    Z4        0.01585   0.00000   0.00000   0.00002   0.00002   0.01586
    X5        3.34558   0.00000   0.00000   0.00004   0.00003   3.34562
    Y5       -1.72362   0.00000   0.00000  -0.00003  -0.00003  -1.72365
    Z5        0.83757   0.00000   0.00000  -0.00008  -0.00007   0.83750
    X6        3.25957  -0.00001   0.00000  -0.00008  -0.00007   3.25949
    Y6        0.11775   0.00000   0.00000   0.00007   0.00007   0.11783
    Z6       -1.96443   0.00000   0.00000   0.00000   0.00001  -1.96442
    X7        3.32374   0.00000   0.00000   0.00004   0.00003   3.32377
    Y7        1.66163   0.00000   0.00000  -0.00004  -0.00004   1.66158
    Z7        1.01241   0.00000   0.00000   0.00006   0.00007   1.01248
         Item               Value     Threshold  Converged?
 Maximum Force            0.000009     0.000450     YES
 RMS     Force            0.000004     0.000300     YES
 Maximum Displacement     0.000075     0.001800     YES
 RMS     Displacement     0.000039     0.001200     YES
 Predicted change in Energy=-3.003720D-10
 Optimization completed.
    -- Stationary point found.
 GradGradGradGradGradGradGradGradGradGradGradGradGradGradGradGradGradGrad

 Leave Link  103 at Tue Feb 19 10:59:36 2019, MaxMem=   196608000 cpu:         1.9
 (Enter /cm/shared/c3ddb/gaussian/09.d01/g09/l9999.exe)

 Test job not archived.
 1\1\GINC-NODE006\Freq\UwB97XD\6-311++G(d,p)\C2H3O2(2)\ALONGD\19-Feb-20
 19\0\\#P uwb97xd/6-311++g(d,p) freq iop(7/33=1) scf=xqc\\name\\0,2\O,-
 0.803174,-1.037684,-0.0531\O,-0.816466,1.022198,0.053431\C,1.38663,0.0
 06532,-0.001795\C,-0.10178,-0.003598,0.008386\H,1.770406,-0.912098,0.4
 43223\H,1.724888,0.062313,-1.039531\H,1.758846,0.879295,0.535743\\Vers
 ion=AS64L-G09RevD.01\State=2-A\HF=-228.4012975\S2=0.757625\S2-1=0.\S2A
 =0.75003\RMSD=2.591e-09\RMSF=4.010e-06\ZeroPoint=0.0477\Thermal=0.0522
 165\Dipole=1.3794188,0.009557,-0.0127749\DipoleDeriv=-0.6147938,0.3502
 225,0.0281453,-0.1863908,0.5224166,0.0465738,-0.0076558,0.0520531,-0.2
 86264,-0.6124884,-0.3659058,-0.0088324,0.1715412,0.5215884,0.0374612,0
 .0109849,0.0318788,-0.2877761,-0.4117033,-0.0069931,0.0274231,-0.00946
 76,0.4512536,0.022219,0.0754375,0.0225279,0.0262387,1.4511582,0.022074
 8,-0.0384258,0.0214844,-1.6563808,-0.1067924,-0.02718,-0.1067196,0.398
 1077,0.0623972,-0.1351111,-0.0109039,0.0269236,0.0074969,0.0526922,-0.
 0336502,0.0580557,0.0892467,0.064464,-0.0003872,-0.0012597,-0.0013452,
 0.1324624,0.0077102,0.017476,0.0078311,-0.0165587,0.0609661,0.1360999,
 0.0038533,-0.0227456,0.0211629,-0.0598639,-0.0354123,-0.065627,0.07700
 57\Polar=32.1578696,-0.1261538,54.1951151,-0.3213982,1.6405669,22.5185
 979\PG=C01 [X(C2H3O2)]\NImag=0\\0.22570850,0.20736973,0.39087439,0.012
 72260,0.02088922,0.02038970,0.07392419,0.07455941,0.00517566,0.2310942
 2,-0.07078378,-0.22917691,-0.01384426,-0.20965385,0.38585701,-0.002354
 54,-0.01175787,0.01784605,-0.00882317,0.01731852,0.02003314,-0.0177472
 2,-0.01062632,-0.00072781,-0.01848921,0.01067775,0.00039354,0.50203382
 ,-0.04693543,-0.02115338,-0.00069444,0.04672318,-0.02011334,-0.0036809
 3,-0.00126037,0.59365262,-0.00003554,-0.00081114,0.02168277,0.00482592
 ,-0.00353106,0.02138580,0.01293627,0.00265951,0.54394105,-0.27453258,-
 0.26900814,-0.01659177,-0.27909762,0.26747373,0.01114453,-0.23289442,-
 0.00067181,-0.01125255,0.81115936,-0.08592333,-0.13766367,-0.00472524,
 0.08446860,-0.13348506,-0.00311808,-0.00125451,-0.03918158,0.00270619,
 0.00298337,0.30485412,-0.00788739,-0.00684010,-0.06046954,0.00088849,-
 0.00101320,-0.06009575,0.00006033,0.00277923,-0.09276168,0.00539174,0.
 00465083,0.21581759,0.00529037,0.00452340,0.00250203,-0.01092769,0.006
 02352,0.00243686,-0.08182266,0.08090027,-0.04183644,-0.00813929,0.0179
 5623,-0.01782267,0.08657586,-0.00047190,-0.00151753,-0.00000592,0.0013
 2376,-0.00014718,0.00062457,0.08149678,-0.24533952,0.09631353,-0.00132
 136,0.00329126,-0.00227615,-0.08978955,0.26064427,-0.00155497,-0.00032
 520,0.00002486,-0.00021267,0.00001660,0.00087333,-0.04294983,0.0958479
 4,-0.09103574,0.00490215,-0.00208539,-0.00199258,0.04432406,-0.1050214
 0,0.09529572,-0.00181273,-0.00043617,-0.00488395,-0.00184659,0.0009318
 7,-0.00482408,-0.07126565,-0.00452581,0.08386705,-0.00856340,-0.002067
 36,0.03898332,0.00385155,-0.00045401,-0.01222172,0.07592504,-0.0018223
 0,-0.00119349,-0.00091913,0.00186106,-0.00134757,0.00074311,-0.0043244
 5,-0.04191257,0.01343168,-0.00012615,-0.00040562,0.00017946,-0.0099442
 9,-0.00010801,0.02534107,0.00482395,0.04254650,-0.00053575,-0.00103159
 ,-0.00027202,-0.00035789,0.00091240,-0.00008532,0.07996727,0.01340664,
 -0.29078029,0.00143179,-0.00006277,0.00100151,0.00382074,-0.00098589,-
 0.01062536,-0.08913187,-0.01462395,0.31377572,-0.01083053,-0.00638192,
 0.00180323,0.00534270,-0.00466924,0.00202686,-0.07981466,-0.07423002,-
 0.04850472,-0.00793204,-0.01616300,-0.01961382,0.00517186,0.00921627,0
 .00771298,0.00371178,0.00953218,0.00480571,0.08435090,-0.00143300,-0.0
 0016941,-0.00070023,0.00071784,-0.00158696,-0.00012933,-0.07470888,-0.
 22595223,-0.11076870,0.00067036,0.00259055,0.00251994,-0.00966958,-0.0
 1682329,-0.01377362,0.00172752,0.00242075,0.00238516,0.08269574,0.2395
 2058,-0.00035440,-0.00012333,0.00079817,-0.00149635,0.00014102,0.00004
 274,-0.04967977,-0.11031795,-0.11243191,0.00497411,0.00263446,-0.00149
 956,0.00657541,0.01135126,0.00745977,-0.01178875,-0.02415224,-0.013014
 24,0.05176975,0.12046678,0.11864502\\-0.00000043,0.00000145,-0.0000088
 4,0.00000013,-0.00000115,-0.00000892,-0.00000018,-0.00000133,0.0000069
 1,0.00000038,0.00000079,-0.00000320,-0.00000292,-0.00000017,0.00000475
 ,0.00000578,0.00000026,0.00000492,-0.00000277,0.00000015,0.00000438\\\
 @


 "TIGER, TIGER BURNING BRIGHT
 IN THE FOREST OF THE NIGHT.
 WHAT IMMORTAL HAND OR EYE
 CAN FRAME THY FEARFUL SYMMETRYE?"
                     - WILLIAM BLAKE
 Job cpu time:       0 days  0 hours  9 minutes 51.3 seconds.
 File lengths (MBytes):  RWF=     22 Int=      0 D2E=      0 Chk=      2 Scr=      1
 Normal termination of Gaussian 09 at Tue Feb 19 10:59:36 2019.
