 Entering Gaussian System, Link 0=g09
 Initial command:
 /cm/shared/c3ddb/gaussian/09.d01/g09/l1.exe "/scratch/users/alongd/g09/a16776-7359101/Gau-12317.inp" -scrdir="/scratch/users/alongd/g09/a16776-7359101/"
 Entering Link 1 = /cm/shared/c3ddb/gaussian/09.d01/g09/l1.exe PID=     12318.
  
 Copyright (c) 1988,1990,1992,1993,1995,1998,2003,2009,2013,
            Gaussian, Inc.  All Rights Reserved.
  
 This is part of the Gaussian(R) 09 program.  It is based on
 the Gaussian(R) 03 system (copyright 2003, Gaussian, Inc.),
 the Gaussian(R) 98 system (copyright 1998, Gaussian, Inc.),
 the Gaussian(R) 94 system (copyright 1995, Gaussian, Inc.),
 the Gaussian 92(TM) system (copyright 1992, Gaussian, Inc.),
 the Gaussian 90(TM) system (copyright 1990, Gaussian, Inc.),
 the Gaussian 88(TM) system (copyright 1988, Gaussian, Inc.),
 the Gaussian 86(TM) system (copyright 1986, Carnegie Mellon
 University), and the Gaussian 82(TM) system (copyright 1983,
 Carnegie Mellon University). Gaussian is a federally registered
 trademark of Gaussian, Inc.
  
 This software contains proprietary and confidential information,
 including trade secrets, belonging to Gaussian, Inc.
  
 This software is provided under written license and may be
 used, copied, transmitted, or stored only in accord with that
 written license.
  
 The following legend is applicable only to US Government
 contracts under FAR:
  
                    RESTRICTED RIGHTS LEGEND
  
 Use, reproduction and disclosure by the US Government is
 subject to restrictions as set forth in subparagraphs (a)
 and (c) of the Commercial Computer Software - Restricted
 Rights clause in FAR 52.227-19.
  
 Gaussian, Inc.
 340 Quinnipiac St., Bldg. 40, Wallingford CT 06492
  
  
 ---------------------------------------------------------------
 Warning -- This program may not be used in any manner that
 competes with the business of Gaussian, Inc. or will provide
 assistance to any competitor of Gaussian, Inc.  The licensee
 of this program is prohibited from giving any competitor of
 Gaussian, Inc. access to this program.  By using this program,
 the user acknowledges that Gaussian, Inc. is engaged in the
 business of creating and licensing software in the field of
 computational chemistry and represents and warrants to the
 licensee that it is not a competitor of Gaussian, Inc. and that
 it will not use this program in any manner prohibited above.
 ---------------------------------------------------------------
  

 Cite this work as:
 Gaussian 09, Revision D.01,
 M. J. Frisch, G. W. Trucks, H. B. Schlegel, G. E. Scuseria, 
 M. A. Robb, J. R. Cheeseman, G. Scalmani, V. Barone, B. Mennucci, 
 G. A. Petersson, H. Nakatsuji, M. Caricato, X. Li, H. P. Hratchian, 
 A. F. Izmaylov, J. Bloino, G. Zheng, J. L. Sonnenberg, M. Hada, 
 M. Ehara, K. Toyota, R. Fukuda, J. Hasegawa, M. Ishida, T. Nakajima, 
 Y. Honda, O. Kitao, H. Nakai, T. Vreven, J. A. Montgomery, Jr., 
 J. E. Peralta, F. Ogliaro, M. Bearpark, J. J. Heyd, E. Brothers, 
 K. N. Kudin, V. N. Staroverov, T. Keith, R. Kobayashi, J. Normand, 
 K. Raghavachari, A. Rendell, J. C. Burant, S. S. Iyengar, J. Tomasi, 
 M. Cossi, N. Rega, J. M. Millam, M. Klene, J. E. Knox, J. B. Cross, 
 V. Bakken, C. Adamo, J. Jaramillo, R. Gomperts, R. E. Stratmann, 
 O. Yazyev, A. J. Austin, R. Cammi, C. Pomelli, J. W. Ochterski, 
 R. L. Martin, K. Morokuma, V. G. Zakrzewski, G. A. Voth, 
 P. Salvador, J. J. Dannenberg, S. Dapprich, A. D. Daniels, 
 O. Farkas, J. B. Foresman, J. V. Ortiz, J. Cioslowski, 
 and D. J. Fox, Gaussian, Inc., Wallingford CT, 2013.
 
 ******************************************
 Gaussian 09:  AS64L-G09RevD.01 24-Apr-2013
                19-Feb-2019 
 ******************************************
 %chk=check.chk
 %mem=1500mb
 %nproc=8
 Will use up to    8 processors via shared memory.
 -------------------------------------------------
 #P uwb97xd/6-311++g(d,p) freq iop(7/33=1) scf=xqc
 -------------------------------------------------
 1/10=4,30=1,38=1/1,3;
 2/12=2,17=6,18=5,40=1/2;
 3/5=4,6=6,7=1111,11=2,16=1,25=1,30=1,71=2,74=-58,116=2,140=1/1,2,3;
 4//1;
 5/5=2,8=3,13=1,38=5,98=1/2,8;
 8/6=4,10=90,11=11/1;
 11/6=1,8=1,9=11,15=111,16=1/1,2,10;
 10/6=1/2;
 6/7=2,8=2,9=2,10=2,18=1,28=1/1;
 7/8=1,10=1,25=1,33=1/1,2,3,16;
 1/10=4,30=1/3;
 99//99;
 Leave Link    1 at Tue Feb 19 10:36:13 2019, MaxMem=   196608000 cpu:         0.9
 (Enter /cm/shared/c3ddb/gaussian/09.d01/g09/l101.exe)
 ----
 name
 ----
 Symbolic Z-matrix:
 Charge =  0 Multiplicity = 2
 N                    -0.57412  -0.00739  -0.00383 
 N                     0.74727   0.20696  -0.11978 
 H                    -1.11521   0.82619   0.16336 
 H                    -0.93404  -0.84976   0.42657 
 H                     1.18505  -0.71608  -0.10237 
 
 NAtoms=      5 NQM=        5 NQMF=       0 NMMI=      0 NMMIF=      0
                NMic=       0 NMicF=      0.
                    Isotopes and Nuclear Properties:
 (Nuclear quadrupole moments (NQMom) in fm**2, nuclear magnetic moments (NMagM)
  in nuclear magnetons)

  Atom         1           2           3           4           5
 IAtWgt=          14          14           1           1           1
 AtmWgt=  14.0030740  14.0030740   1.0078250   1.0078250   1.0078250
 NucSpn=           2           2           1           1           1
 AtZEff=   0.0000000   0.0000000   0.0000000   0.0000000   0.0000000
 NQMom=    2.0440000   2.0440000   0.0000000   0.0000000   0.0000000
 NMagM=    0.4037610   0.4037610   2.7928460   2.7928460   2.7928460
 AtZNuc=   7.0000000   7.0000000   1.0000000   1.0000000   1.0000000
 Leave Link  101 at Tue Feb 19 10:36:13 2019, MaxMem=   196608000 cpu:         0.7
 (Enter /cm/shared/c3ddb/gaussian/09.d01/g09/l103.exe)

 GradGradGradGradGradGradGradGradGradGradGradGradGradGradGradGradGradGrad
 Berny optimization.
 Initialization pass.
 Trust Radius=3.00D-01 FncErr=1.00D-07 GrdErr=1.00D-07
 Number of steps in this run=      2 maximum allowed number of steps=      2.
 GradGradGradGradGradGradGradGradGradGradGradGradGradGradGradGradGradGrad

 Leave Link  103 at Tue Feb 19 10:36:14 2019, MaxMem=   196608000 cpu:         0.2
 (Enter /cm/shared/c3ddb/gaussian/09.d01/g09/l202.exe)
                          Input orientation:                          
 ---------------------------------------------------------------------
 Center     Atomic      Atomic             Coordinates (Angstroms)
 Number     Number       Type             X           Y           Z
 ---------------------------------------------------------------------
      1          7           0       -0.574115   -0.007393   -0.003832
      2          7           0        0.747272    0.206962   -0.119775
      3          1           0       -1.115208    0.826192    0.163357
      4          1           0       -0.934041   -0.849759    0.426565
      5          1           0        1.185046   -0.716081   -0.102369
 ---------------------------------------------------------------------
                    Distance matrix (angstroms):
                    1          2          3          4          5
     1  N    0.000000
     2  N    1.343672   0.000000
     3  H    1.007769   1.983038   0.000000
     4  H    1.012111   2.059602   1.706139   0.000000
     5  H    1.899104   1.021742   2.782155   2.188189   0.000000
 Stoichiometry    H3N2(2)
 Framework group  C1[X(H3N2)]
 Deg. of freedom     9
 Full point group                 C1      NOp   1
 Largest Abelian subgroup         C1      NOp   1
 Largest concise Abelian subgroup C1      NOp   1
                         Standard orientation:                         
 ---------------------------------------------------------------------
 Center     Atomic      Atomic             Coordinates (Angstroms)
 Number     Number       Type             X           Y           Z
 ---------------------------------------------------------------------
      1          7           0        0.592436    0.024531   -0.066345
      2          7           0       -0.736730   -0.150973    0.022922
      3          1           0        1.133368   -0.799750    0.142347
      4          1           0        1.025116    0.902224    0.192135
      5          1           0       -1.148427    0.782626   -0.030525
 ---------------------------------------------------------------------
 Rotational constants (GHZ):    206.4531353     30.9253891     27.2280582
 Leave Link  202 at Tue Feb 19 10:36:14 2019, MaxMem=   196608000 cpu:         0.8
 (Enter /cm/shared/c3ddb/gaussian/09.d01/g09/l301.exe)
 Standard basis: 6-311++G(d,p) (5D, 7F)
 Ernie: Thresh=  0.10000D-02 Tol=  0.10000D-05 Strict=F.
 There are    67 symmetry adapted cartesian basis functions of A   symmetry.
 There are    65 symmetry adapted basis functions of A   symmetry.
    65 basis functions,    99 primitive gaussians,    67 cartesian basis functions
     9 alpha electrons        8 beta electrons
       nuclear repulsion energy        36.6178470527 Hartrees.
 IExCor= 4639 DFT=T Ex+Corr=wB97XD ExCW=0 ScaHFX=  1.000000
 ScaDFX=  1.000000  1.000000  1.000000  1.000000 ScalE2=  1.000000  1.000000
 IRadAn=      0 IRanWt=     -1 IRanGd=            0 ICorTp=0 IEmpDi=121
  HFx wShort=  0.000000 wLong=  0.200000 cFull=  0.222036 cShort=  0.000000 cLong=  0.777964
  DFx wShort=  0.000000 wLong=  0.200000 cFull=  0.000000 cShort=  0.000000 cLong=  1.000000
 NAtoms=    5 NActive=    5 NUniq=    5 SFac= 1.00D+00 NAtFMM=   60 NAOKFM=F Big=F
 Integral buffers will be    131072 words long.
 Raffenetti 2 integral format.
 Two-electron integral symmetry is turned on.
 R6Disp:  Grimme-D2 Dispersion energy=       -0.0004491732 Hartrees.
 Nuclear repulsion after empirical dispersion term =       36.6173978795 Hartrees.
 Leave Link  301 at Tue Feb 19 10:36:14 2019, MaxMem=   196608000 cpu:         0.4
 (Enter /cm/shared/c3ddb/gaussian/09.d01/g09/l302.exe)
 NPDir=0 NMtPBC=     1 NCelOv=     1 NCel=       1 NClECP=     1 NCelD=      1
         NCelK=      1 NCelE2=     1 NClLst=     1 CellRange=     0.0.
 One-electron integrals computed using PRISM.
 NBasis=    65 RedAO= T EigKep=  3.66D-04  NBF=    65
 NBsUse=    65 1.00D-06 EigRej= -1.00D+00 NBFU=    65
 Precomputing XC quadrature grid using
 IXCGrd= 4 IRadAn=           0 IRanWt=          -1 IRanGd=           0 AccXCQ= 0.00D+00.
 Generated NRdTot=       0 NPtTot=           0 NUsed=           0 NTot=          32
 NSgBfM=    67    67    67    67    67 MxSgAt=     5 MxSgA2=     5.
 Leave Link  302 at Tue Feb 19 10:36:16 2019, MaxMem=   196608000 cpu:         5.0
 (Enter /cm/shared/c3ddb/gaussian/09.d01/g09/l303.exe)
 DipDrv:  MaxL=1.
 Leave Link  303 at Tue Feb 19 10:36:16 2019, MaxMem=   196608000 cpu:         2.2
 (Enter /cm/shared/c3ddb/gaussian/09.d01/g09/l401.exe)
 ExpMin= 3.60D-02 ExpMax= 6.29D+03 ExpMxC= 9.49D+02 IAcc=3 IRadAn=         5 AccDes= 0.00D+00
 Harris functional with IExCor= 4639 and IRadAn=       5 diagonalized for initial guess.
 HarFok:  IExCor= 4639 AccDes= 0.00D+00 IRadAn=         5 IDoV= 1 UseB2=F ITyADJ=14
 ICtDFT=  3500011 ScaDFX=  1.000000  1.000000  1.000000  1.000000
 FoFCou: FMM=F IPFlag=           0 FMFlag=      100000 FMFlg1=           0
         NFxFlg=           0 DoJE=T BraDBF=F KetDBF=T FulRan=T
         wScrn=  0.000000 ICntrl=     500 IOpCl=  0 I1Cent=   200000004 NGrid=           0
         NMat0=    1 NMatS0=      1 NMatT0=    0 NMatD0=    1 NMtDS0=    0 NMtDT0=    0
 Petite list used in FoFCou.
 Harris En= -106.660082021077    
 JPrj=0 DoOrth=F DoCkMO=F.
 Initial guess <Sx>= 0.0000 <Sy>= 0.0000 <Sz>= 0.5000 <S**2>= 0.7500 S= 0.5000
 Leave Link  401 at Tue Feb 19 10:36:18 2019, MaxMem=   196608000 cpu:         8.1
 (Enter /cm/shared/c3ddb/gaussian/09.d01/g09/l502.exe)
 UHF open shell SCF:
 Using DIIS extrapolation, IDIIS=  1040.
 Integral symmetry usage will be decided dynamically.
 Keep R1 and R2 ints in memory in canonical form, NReq=10112505.
 IVT=       20449 IEndB=       20449 NGot=   196608000 MDV=   187381212
 LenX=   187381212 LenY=   187376282
 Requested convergence on RMS density matrix=1.00D-08 within  64 cycles.
 Requested convergence on MAX density matrix=1.00D-06.
 Requested convergence on             energy=1.00D-06.
 No special actions if energy rises.
 FoFCou: FMM=F IPFlag=           0 FMFlag=           0 FMFlg1=           0
         NFxFlg=           0 DoJE=F BraDBF=F KetDBF=F FulRan=T
         wScrn=  0.000000 ICntrl=     600 IOpCl=  0 I1Cent=           0 NGrid=           0
         NMat0=    1 NMatS0=   2145 NMatT0=    0 NMatD0=    1 NMtDS0=    0 NMtDT0=    0
 Symmetry not used in FoFCou.

 Cycle   1  Pass 1  IDiag  1:
 E= -111.184183386000    
 DIIS: error= 9.32D-02 at cycle   1 NSaved=   1.
 NSaved= 1 IEnMin= 1 EnMin= -111.184183386000     IErMin= 1 ErrMin= 9.32D-02
 ErrMax= 9.32D-02  0.00D+00 EMaxC= 1.00D-01 BMatC= 1.02D+00 BMatP= 1.02D+00
 IDIUse=3 WtCom= 6.77D-02 WtEn= 9.32D-01
 Coeff-Com:  0.100D+01
 Coeff-En:   0.100D+01
 Coeff:      0.100D+01
 Gap=     0.343 Goal=   None    Shift=    0.000
 Gap=     0.368 Goal=   None    Shift=    0.000
 GapD=    0.343 DampG=1.000 DampE=0.500 DampFc=0.5000 IDamp=-1.
 Damping current iteration by 5.00D-01
 RMSDP=4.82D-03 MaxDP=7.87D-02              OVMax= 1.11D-01

 Cycle   2  Pass 1  IDiag  1:
 E= -111.205961082967     Delta-E=       -0.021777696966 Rises=F Damp=T
 DIIS: error= 4.38D-02 at cycle   2 NSaved=   2.
 NSaved= 2 IEnMin= 2 EnMin= -111.205961082967     IErMin= 2 ErrMin= 4.38D-02
 ErrMax= 4.38D-02  0.00D+00 EMaxC= 1.00D-01 BMatC= 2.03D-01 BMatP= 1.02D+00
 IDIUse=3 WtCom= 5.62D-01 WtEn= 4.38D-01
 Coeff-Com: -0.655D+00 0.166D+01
 Coeff-En:   0.000D+00 0.100D+01
 Coeff:     -0.368D+00 0.137D+01
 Gap=     0.298 Goal=   None    Shift=    0.000
 Gap=     0.397 Goal=   None    Shift=    0.000
 RMSDP=2.07D-03 MaxDP=3.86D-02 DE=-2.18D-02 OVMax= 4.40D-02

 Cycle   3  Pass 1  IDiag  1:
 E= -111.226619074073     Delta-E=       -0.020657991106 Rises=F Damp=F
 DIIS: error= 8.81D-03 at cycle   3 NSaved=   3.
 NSaved= 3 IEnMin= 3 EnMin= -111.226619074073     IErMin= 3 ErrMin= 8.81D-03
 ErrMax= 8.81D-03  0.00D+00 EMaxC= 1.00D-01 BMatC= 1.07D-02 BMatP= 2.03D-01
 IDIUse=3 WtCom= 9.12D-01 WtEn= 8.81D-02
 Coeff-Com: -0.236D+00 0.513D+00 0.724D+00
 Coeff-En:   0.000D+00 0.000D+00 0.100D+01
 Coeff:     -0.216D+00 0.468D+00 0.748D+00
 Gap=     0.307 Goal=   None    Shift=    0.000
 Gap=     0.391 Goal=   None    Shift=    0.000
 RMSDP=7.27D-04 MaxDP=1.28D-02 DE=-2.07D-02 OVMax= 3.15D-02

 Cycle   4  Pass 1  IDiag  1:
 E= -111.228887394030     Delta-E=       -0.002268319957 Rises=F Damp=F
 DIIS: error= 2.33D-03 at cycle   4 NSaved=   4.
 NSaved= 4 IEnMin= 4 EnMin= -111.228887394030     IErMin= 4 ErrMin= 2.33D-03
 ErrMax= 2.33D-03  0.00D+00 EMaxC= 1.00D-01 BMatC= 1.30D-03 BMatP= 1.07D-02
 IDIUse=3 WtCom= 9.77D-01 WtEn= 2.33D-02
 Coeff-Com: -0.722D-01 0.152D+00 0.343D+00 0.578D+00
 Coeff-En:   0.000D+00 0.000D+00 0.000D+00 0.100D+01
 Coeff:     -0.705D-01 0.148D+00 0.335D+00 0.587D+00
 Gap=     0.310 Goal=   None    Shift=    0.000
 Gap=     0.395 Goal=   None    Shift=    0.000
 RMSDP=2.37D-04 MaxDP=4.22D-03 DE=-2.27D-03 OVMax= 6.81D-03

 Cycle   5  Pass 1  IDiag  1:
 E= -111.229175792206     Delta-E=       -0.000288398176 Rises=F Damp=F
 DIIS: error= 1.70D-03 at cycle   5 NSaved=   5.
 NSaved= 5 IEnMin= 5 EnMin= -111.229175792206     IErMin= 5 ErrMin= 1.70D-03
 ErrMax= 1.70D-03  0.00D+00 EMaxC= 1.00D-01 BMatC= 1.11D-04 BMatP= 1.30D-03
 IDIUse=3 WtCom= 9.83D-01 WtEn= 1.70D-02
 Coeff-Com:  0.715D-01-0.153D+00-0.172D+00 0.231D-01 0.123D+01
 Coeff-En:   0.000D+00 0.000D+00 0.000D+00 0.000D+00 0.100D+01
 Coeff:      0.703D-01-0.151D+00-0.169D+00 0.227D-01 0.123D+01
 Gap=     0.310 Goal=   None    Shift=    0.000
 Gap=     0.395 Goal=   None    Shift=    0.000
 RMSDP=2.42D-04 MaxDP=4.44D-03 DE=-2.88D-04 OVMax= 1.17D-02

 Cycle   6  Pass 1  IDiag  1:
 E= -111.229282300796     Delta-E=       -0.000106508590 Rises=F Damp=F
 DIIS: error= 3.61D-04 at cycle   6 NSaved=   6.
 NSaved= 6 IEnMin= 6 EnMin= -111.229282300796     IErMin= 6 ErrMin= 3.61D-04
 ErrMax= 3.61D-04  0.00D+00 EMaxC= 1.00D-01 BMatC= 1.70D-05 BMatP= 1.11D-04
 IDIUse=3 WtCom= 9.96D-01 WtEn= 3.61D-03
 Coeff-Com:  0.728D-02-0.154D-01-0.394D-01-0.127D+00 0.917D-01 0.108D+01
 Coeff-En:   0.000D+00 0.000D+00 0.000D+00 0.000D+00 0.000D+00 0.100D+01
 Coeff:      0.726D-02-0.153D-01-0.393D-01-0.126D+00 0.913D-01 0.108D+01
 Gap=     0.311 Goal=   None    Shift=    0.000
 Gap=     0.396 Goal=   None    Shift=    0.000
 RMSDP=8.31D-05 MaxDP=1.45D-03 DE=-1.07D-04 OVMax= 3.84D-03

 Cycle   7  Pass 1  IDiag  1:
 E= -111.229296251536     Delta-E=       -0.000013950740 Rises=F Damp=F
 DIIS: error= 1.53D-04 at cycle   7 NSaved=   7.
 NSaved= 7 IEnMin= 7 EnMin= -111.229296251536     IErMin= 7 ErrMin= 1.53D-04
 ErrMax= 1.53D-04  0.00D+00 EMaxC= 1.00D-01 BMatC= 1.75D-06 BMatP= 1.70D-05
 IDIUse=3 WtCom= 9.98D-01 WtEn= 1.53D-03
 Coeff-Com: -0.113D-01 0.241D-01 0.288D-01-0.174D-02-0.152D+00-0.226D+00
 Coeff-Com:  0.134D+01
 Coeff-En:   0.000D+00 0.000D+00 0.000D+00 0.000D+00 0.000D+00 0.000D+00
 Coeff-En:   0.100D+01
 Coeff:     -0.112D-01 0.241D-01 0.288D-01-0.174D-02-0.151D+00-0.226D+00
 Coeff:      0.134D+01
 Gap=     0.311 Goal=   None    Shift=    0.000
 Gap=     0.396 Goal=   None    Shift=    0.000
 RMSDP=4.21D-05 MaxDP=5.80D-04 DE=-1.40D-05 OVMax= 1.76D-03

 Cycle   8  Pass 1  IDiag  1:
 E= -111.229298422025     Delta-E=       -0.000002170489 Rises=F Damp=F
 DIIS: error= 3.57D-05 at cycle   8 NSaved=   8.
 NSaved= 8 IEnMin= 8 EnMin= -111.229298422025     IErMin= 8 ErrMin= 3.57D-05
 ErrMax= 3.57D-05  0.00D+00 EMaxC= 1.00D-01 BMatC= 1.23D-07 BMatP= 1.75D-06
 IDIUse=1 WtCom= 1.00D+00 WtEn= 0.00D+00
 Coeff-Com:  0.161D-02-0.346D-02-0.116D-02 0.126D-01 0.208D-01-0.754D-01
 Coeff-Com: -0.215D+00 0.126D+01
 Coeff:      0.161D-02-0.346D-02-0.116D-02 0.126D-01 0.208D-01-0.754D-01
 Coeff:     -0.215D+00 0.126D+01
 Gap=     0.311 Goal=   None    Shift=    0.000
 Gap=     0.396 Goal=   None    Shift=    0.000
 RMSDP=1.40D-05 MaxDP=2.14D-04 DE=-2.17D-06 OVMax= 3.94D-04

 Cycle   9  Pass 1  IDiag  1:
 E= -111.229298584507     Delta-E=       -0.000000162482 Rises=F Damp=F
 DIIS: error= 1.04D-05 at cycle   9 NSaved=   9.
 NSaved= 9 IEnMin= 9 EnMin= -111.229298584507     IErMin= 9 ErrMin= 1.04D-05
 ErrMax= 1.04D-05  0.00D+00 EMaxC= 1.00D-01 BMatC= 9.48D-09 BMatP= 1.23D-07
 IDIUse=1 WtCom= 1.00D+00 WtEn= 0.00D+00
 Coeff-Com:  0.500D-03-0.107D-02-0.164D-02-0.233D-02 0.756D-02 0.263D-01
 Coeff-Com: -0.574D-01-0.251D+00 0.128D+01
 Coeff:      0.500D-03-0.107D-02-0.164D-02-0.233D-02 0.756D-02 0.263D-01
 Coeff:     -0.574D-01-0.251D+00 0.128D+01
 Gap=     0.311 Goal=   None    Shift=    0.000
 Gap=     0.396 Goal=   None    Shift=    0.000
 RMSDP=3.59D-06 MaxDP=5.55D-05 DE=-1.62D-07 OVMax= 1.38D-04

 Cycle  10  Pass 1  IDiag  1:
 E= -111.229298597589     Delta-E=       -0.000000013083 Rises=F Damp=F
 DIIS: error= 5.06D-06 at cycle  10 NSaved=  10.
 NSaved=10 IEnMin=10 EnMin= -111.229298597589     IErMin=10 ErrMin= 5.06D-06
 ErrMax= 5.06D-06  0.00D+00 EMaxC= 1.00D-01 BMatC= 1.00D-09 BMatP= 9.48D-09
 IDIUse=1 WtCom= 1.00D+00 WtEn= 0.00D+00
 Coeff-Com: -0.299D-03 0.641D-03 0.646D-03-0.110D-04-0.405D-02-0.360D-02
 Coeff-Com:  0.376D-01-0.269D-01-0.356D+00 0.135D+01
 Coeff:     -0.299D-03 0.641D-03 0.646D-03-0.110D-04-0.405D-02-0.360D-02
 Coeff:      0.376D-01-0.269D-01-0.356D+00 0.135D+01
 Gap=     0.311 Goal=   None    Shift=    0.000
 Gap=     0.396 Goal=   None    Shift=    0.000
 RMSDP=1.02D-06 MaxDP=1.27D-05 DE=-1.31D-08 OVMax= 5.98D-05

 Cycle  11  Pass 1  IDiag  1:
 E= -111.229298599338     Delta-E=       -0.000000001749 Rises=F Damp=F
 DIIS: error= 2.38D-06 at cycle  11 NSaved=  11.
 NSaved=11 IEnMin=11 EnMin= -111.229298599338     IErMin=11 ErrMin= 2.38D-06
 ErrMax= 2.38D-06  0.00D+00 EMaxC= 1.00D-01 BMatC= 1.72D-10 BMatP= 1.00D-09
 IDIUse=1 WtCom= 1.00D+00 WtEn= 0.00D+00
 Coeff-Com:  0.595D-04-0.129D-03-0.425D-04 0.266D-03 0.519D-03-0.205D-02
 Coeff-Com: -0.494D-02 0.357D-01-0.102D-01-0.594D+00 0.157D+01
 Coeff:      0.595D-04-0.129D-03-0.425D-04 0.266D-03 0.519D-03-0.205D-02
 Coeff:     -0.494D-02 0.357D-01-0.102D-01-0.594D+00 0.157D+01
 Gap=     0.311 Goal=   None    Shift=    0.000
 Gap=     0.396 Goal=   None    Shift=    0.000
 RMSDP=6.51D-07 MaxDP=8.74D-06 DE=-1.75D-09 OVMax= 3.54D-05

 Cycle  12  Pass 1  IDiag  1:
 E= -111.229298599734     Delta-E=       -0.000000000396 Rises=F Damp=F
 DIIS: error= 7.18D-07 at cycle  12 NSaved=  12.
 NSaved=12 IEnMin=12 EnMin= -111.229298599734     IErMin=12 ErrMin= 7.18D-07
 ErrMax= 7.18D-07  0.00D+00 EMaxC= 1.00D-01 BMatC= 1.92D-11 BMatP= 1.72D-10
 IDIUse=1 WtCom= 1.00D+00 WtEn= 0.00D+00
 Coeff-Com:  0.213D-04-0.451D-04-0.770D-04-0.810D-04 0.432D-03 0.887D-03
 Coeff-Com: -0.346D-02-0.907D-02 0.633D-01-0.466D-01-0.396D+00 0.139D+01
 Coeff:      0.213D-04-0.451D-04-0.770D-04-0.810D-04 0.432D-03 0.887D-03
 Coeff:     -0.346D-02-0.907D-02 0.633D-01-0.466D-01-0.396D+00 0.139D+01
 Gap=     0.311 Goal=   None    Shift=    0.000
 Gap=     0.396 Goal=   None    Shift=    0.000
 RMSDP=2.07D-07 MaxDP=2.77D-06 DE=-3.96D-10 OVMax= 1.21D-05

 Cycle  13  Pass 1  IDiag  1:
 E= -111.229298599773     Delta-E=       -0.000000000039 Rises=F Damp=F
 DIIS: error= 1.46D-07 at cycle  13 NSaved=  13.
 NSaved=13 IEnMin=13 EnMin= -111.229298599773     IErMin=13 ErrMin= 1.46D-07
 ErrMax= 1.46D-07  0.00D+00 EMaxC= 1.00D-01 BMatC= 1.41D-12 BMatP= 1.92D-11
 IDIUse=1 WtCom= 1.00D+00 WtEn= 0.00D+00
 Coeff-Com: -0.100D-04 0.215D-04 0.153D-04-0.201D-04-0.968D-04 0.697D-04
 Coeff-Com:  0.111D-02-0.324D-02-0.571D-02 0.699D-01-0.127D+00-0.174D+00
 Coeff-Com:  0.124D+01
 Coeff:     -0.100D-04 0.215D-04 0.153D-04-0.201D-04-0.968D-04 0.697D-04
 Coeff:      0.111D-02-0.324D-02-0.571D-02 0.699D-01-0.127D+00-0.174D+00
 Coeff:      0.124D+01
 Gap=     0.311 Goal=   None    Shift=    0.000
 Gap=     0.396 Goal=   None    Shift=    0.000
 RMSDP=4.47D-08 MaxDP=4.19D-07 DE=-3.86D-11 OVMax= 2.74D-06

 Cycle  14  Pass 1  IDiag  1:
 E= -111.229298599775     Delta-E=       -0.000000000002 Rises=F Damp=F
 DIIS: error= 1.68D-08 at cycle  14 NSaved=  14.
 NSaved=14 IEnMin=14 EnMin= -111.229298599775     IErMin=14 ErrMin= 1.68D-08
 ErrMax= 1.68D-08  0.00D+00 EMaxC= 1.00D-01 BMatC= 6.40D-14 BMatP= 1.41D-12
 IDIUse=1 WtCom= 1.00D+00 WtEn= 0.00D+00
 Coeff-Com:  0.499D-07-0.122D-06 0.303D-05 0.623D-05-0.195D-04-0.551D-04
 Coeff-Com:  0.115D-03 0.759D-03-0.344D-02-0.174D-02 0.346D-01-0.738D-01
 Coeff-Com: -0.854D-01 0.113D+01
 Coeff:      0.499D-07-0.122D-06 0.303D-05 0.623D-05-0.195D-04-0.551D-04
 Coeff:      0.115D-03 0.759D-03-0.344D-02-0.174D-02 0.346D-01-0.738D-01
 Coeff:     -0.854D-01 0.113D+01
 Gap=     0.311 Goal=   None    Shift=    0.000
 Gap=     0.396 Goal=   None    Shift=    0.000
 RMSDP=1.11D-08 MaxDP=1.73D-07 DE=-2.02D-12 OVMax= 2.64D-07

 Cycle  15  Pass 1  IDiag  1:
 E= -111.229298599775     Delta-E=        0.000000000000 Rises=F Damp=F
 DIIS: error= 3.89D-09 at cycle  15 NSaved=  15.
 NSaved=15 IEnMin=14 EnMin= -111.229298599775     IErMin=15 ErrMin= 3.89D-09
 ErrMax= 3.89D-09  0.00D+00 EMaxC= 1.00D-01 BMatC= 2.88D-15 BMatP= 6.40D-14
 IDIUse=1 WtCom= 1.00D+00 WtEn= 0.00D+00
 Coeff-Com:  0.276D-06-0.590D-06-0.620D-06 0.722D-06 0.347D-05 0.386D-05
 Coeff-Com: -0.461D-04 0.407D-04 0.500D-03-0.247D-02 0.806D-03 0.139D-01
 Coeff-Com: -0.381D-01-0.128D+00 0.115D+01
 Coeff:      0.276D-06-0.590D-06-0.620D-06 0.722D-06 0.347D-05 0.386D-05
 Coeff:     -0.461D-04 0.407D-04 0.500D-03-0.247D-02 0.806D-03 0.139D-01
 Coeff:     -0.381D-01-0.128D+00 0.115D+01
 Gap=     0.311 Goal=   None    Shift=    0.000
 Gap=     0.396 Goal=   None    Shift=    0.000
 RMSDP=3.31D-09 MaxDP=5.26D-08 DE= 8.53D-14 OVMax= 6.17D-08

 SCF Done:  E(UwB97XD) =  -111.229298600     A.U. after   15 cycles
            NFock= 15  Conv=0.33D-08     -V/T= 2.0033
 <Sx>= 0.0000 <Sy>= 0.0000 <Sz>= 0.5000 <S**2>= 0.7545 S= 0.5023
 <L.S>= 0.000000000000E+00
 KE= 1.108594469065D+02 PE=-3.335930122723D+02 EE= 7.488686888656D+01
 Annihilation of the first spin contaminant:
 S**2 before annihilation     0.7545,   after     0.7500
 Leave Link  502 at Tue Feb 19 10:36:41 2019, MaxMem=   196608000 cpu:       104.8
 (Enter /cm/shared/c3ddb/gaussian/09.d01/g09/l508.exe)
 QCSCF skips out because SCF is already converged.
 Leave Link  508 at Tue Feb 19 10:36:41 2019, MaxMem=   196608000 cpu:         0.0
 (Enter /cm/shared/c3ddb/gaussian/09.d01/g09/l801.exe)
 DoSCS=F DFT=T ScalE2(SS,OS)=  1.000000  1.000000
 Range of M.O.s used for correlation:     1    65
 NBasis=    65 NAE=     9 NBE=     8 NFC=     0 NFV=     0
 NROrb=     65 NOA=     9 NOB=     8 NVA=    56 NVB=    57

 **** Warning!!: The largest alpha MO coefficient is  0.26906907D+02


 **** Warning!!: The largest beta MO coefficient is  0.27016044D+02

 Leave Link  801 at Tue Feb 19 10:36:41 2019, MaxMem=   196608000 cpu:         0.2
 (Enter /cm/shared/c3ddb/gaussian/09.d01/g09/l1101.exe)
 Using compressed storage, NAtomX=     5.
 Will process      6 centers per pass.
 R6Disp: Adding Grimme-D2 dispersion energy 1st derivatives to the gradient.
 Leave Link 1101 at Tue Feb 19 10:36:43 2019, MaxMem=   196608000 cpu:         7.4
 (Enter /cm/shared/c3ddb/gaussian/09.d01/g09/l1102.exe)
 Symmetrizing basis deriv contribution to polar:
 IMax=3 JMax=2 DiffMx= 0.00D+00
 Leave Link 1102 at Tue Feb 19 10:36:44 2019, MaxMem=   196608000 cpu:         1.1
 (Enter /cm/shared/c3ddb/gaussian/09.d01/g09/l1110.exe)
 Forming Gx(P) for the SCF density, NAtomX=     5.
 Integral derivatives from FoFJK, PRISM(SPDF).
 Do as many integral derivatives as possible in FoFJK.
 G2DrvN: MDV=     196607856.
 G2DrvN: will do     6 centers at a time, making    1 passes.
 Calling FoFCou, ICntrl=  3107 FMM=F I1Cent=   0 AccDes= 0.00D+00.
 FoFJK:  IHMeth= 1 ICntrl=    3107 DoSepK=T KAlg= 0 I1Cent=   0 FoldK=F
 IRaf=         1 NMat=   1 IRICut=       1 DoRegI=T DoRafI=F ISym2E= 0.
 FoFCou: FMM=F IPFlag=           0 FMFlag=      100000 FMFlg1=           0
         NFxFlg=           0 DoJE=F BraDBF=F KetDBF=F FulRan=T
         wScrn=  0.000000 ICntrl=    3507 IOpCl=  0 I1Cent=           0 NGrid=           0
         NMat0=    1 NMatS0=      1 NMatT0=    0 NMatD0=    1 NMtDS0=    0 NMtDT0=    0
 Symmetry not used in FoFCou.
 End of G2Drv F.D. properties file   721 does not exist.
 End of G2Drv F.D. properties file   722 does not exist.
 End of G2Drv F.D. properties file   788 does not exist.
 Leave Link 1110 at Tue Feb 19 10:36:49 2019, MaxMem=   196608000 cpu:        26.3
 (Enter /cm/shared/c3ddb/gaussian/09.d01/g09/l1002.exe)
 Minotr:  UHF open shell wavefunction.
          IDoAtm=11111
          Direct CPHF calculation.
          Differentiating once with respect to electric field.
                with respect to dipole field.
          Differentiating once with respect to nuclear coordinates.
          Requested convergence is 1.0D-08 RMS, and 1.0D-07 maximum.
          Secondary convergence is 1.0D-12 RMS, and 1.0D-12 maximum.
          NewPWx=T KeepS1=F KeepF1=F KeepIn=T MapXYZ=F SortEE=F KeepMc=T.
          MDV=     196607816 using IRadAn=       2.
 Generate precomputed XC quadrature information.
 Keep R1 and R2 ints in memory in canonical form, NReq=10092399.
 FoFCou: FMM=F IPFlag=           0 FMFlag=           0 FMFlg1=           0
         NFxFlg=           0 DoJE=F BraDBF=F KetDBF=F FulRan=T
         wScrn=  0.000000 ICntrl=     600 IOpCl=  0 I1Cent=           0 NGrid=           0
         NMat0=    1 NMatS0=   2145 NMatT0=    0 NMatD0=    1 NMtDS0=    0 NMtDT0=    0
 Symmetry not used in FoFCou.
          Solving linear equations simultaneously, MaxMat=       0.
          There are    18 degrees of freedom in the 1st order CPHF.  IDoFFX=6 NUNeed=     3.
     15 vectors produced by pass  0 Test12= 5.33D-15 5.56D-09 XBig12= 1.82D+01 2.64D+00.
 AX will form    15 AO Fock derivatives at one time.
     15 vectors produced by pass  1 Test12= 5.33D-15 5.56D-09 XBig12= 2.01D+00 5.06D-01.
     15 vectors produced by pass  2 Test12= 5.33D-15 5.56D-09 XBig12= 1.28D-01 9.81D-02.
     15 vectors produced by pass  3 Test12= 5.33D-15 5.56D-09 XBig12= 1.75D-03 1.29D-02.
     15 vectors produced by pass  4 Test12= 5.33D-15 5.56D-09 XBig12= 2.56D-05 1.30D-03.
     15 vectors produced by pass  5 Test12= 5.33D-15 5.56D-09 XBig12= 4.48D-07 1.86D-04.
     15 vectors produced by pass  6 Test12= 5.33D-15 5.56D-09 XBig12= 5.64D-09 1.76D-05.
      9 vectors produced by pass  7 Test12= 5.33D-15 5.56D-09 XBig12= 5.25D-11 1.41D-06.
      3 vectors produced by pass  8 Test12= 5.33D-15 5.56D-09 XBig12= 4.73D-13 1.24D-07.
      1 vectors produced by pass  9 Test12= 5.33D-15 5.56D-09 XBig12= 5.98D-15 1.65D-08.
 InvSVY:  IOpt=1 It=  1 EMax= 1.55D-15
 Solved reduced A of dimension   118 with    15 vectors.
 FullF1:  Do perturbations    1 to     3.
 Isotropic polarizability for W=    0.000000       19.47 Bohr**3.
 End of Minotr F.D. properties file   721 does not exist.
 End of Minotr F.D. properties file   722 does not exist.
 End of Minotr F.D. properties file   788 does not exist.
 Leave Link 1002 at Tue Feb 19 10:37:20 2019, MaxMem=   196608000 cpu:       137.0
 (Enter /cm/shared/c3ddb/gaussian/09.d01/g09/l601.exe)
 Copying SCF densities to generalized density rwf, IOpCl= 1 IROHF=0.

 **********************************************************************

            Population analysis using the SCF density.

 **********************************************************************

 Orbital symmetries:
 Alpha Orbitals:
       Occupied  (A) (A) (A) (A) (A) (A) (A) (A) (A)
       Virtual   (A) (A) (A) (A) (A) (A) (A) (A) (A) (A) (A) (A)
                 (A) (A) (A) (A) (A) (A) (A) (A) (A) (A) (A) (A)
                 (A) (A) (A) (A) (A) (A) (A) (A) (A) (A) (A) (A)
                 (A) (A) (A) (A) (A) (A) (A) (A) (A) (A) (A) (A)
                 (A) (A) (A) (A) (A) (A) (A) (A)
 Beta  Orbitals:
       Occupied  (A) (A) (A) (A) (A) (A) (A) (A)
       Virtual   (A) (A) (A) (A) (A) (A) (A) (A) (A) (A) (A) (A)
                 (A) (A) (A) (A) (A) (A) (A) (A) (A) (A) (A) (A)
                 (A) (A) (A) (A) (A) (A) (A) (A) (A) (A) (A) (A)
                 (A) (A) (A) (A) (A) (A) (A) (A) (A) (A) (A) (A)
                 (A) (A) (A) (A) (A) (A) (A) (A) (A)
 The electronic state is 2-A.
 Alpha  occ. eigenvalues --  -14.48253 -14.44429  -1.09404  -0.84205  -0.64965
 Alpha  occ. eigenvalues --   -0.56795  -0.48448  -0.38602  -0.27222
 Alpha virt. eigenvalues --    0.03862   0.06095   0.07506   0.16334   0.17907
 Alpha virt. eigenvalues --    0.18815   0.21054   0.22158   0.22445   0.23521
 Alpha virt. eigenvalues --    0.24309   0.26786   0.28324   0.32416   0.38797
 Alpha virt. eigenvalues --    0.58585   0.61913   0.67486   0.77982   0.82627
 Alpha virt. eigenvalues --    0.85452   0.87735   0.88181   0.91936   1.09879
 Alpha virt. eigenvalues --    1.23792   1.25603   1.34604   1.45882   1.52213
 Alpha virt. eigenvalues --    1.71191   1.83461   1.88747   1.93186   2.03597
 Alpha virt. eigenvalues --    2.21368   2.28346   2.31428   2.44264   2.60413
 Alpha virt. eigenvalues --    2.64930   2.69818   2.77333   2.80929   2.94391
 Alpha virt. eigenvalues --    3.03983   3.18633   3.32833   3.82104   3.97963
 Alpha virt. eigenvalues --    4.09385   4.48009   4.83150   5.31977  35.57057
 Alpha virt. eigenvalues --   35.66019
  Beta  occ. eigenvalues --  -14.47688 -14.43067  -1.07126  -0.81115  -0.64167
  Beta  occ. eigenvalues --   -0.55488  -0.41881  -0.36327
  Beta virt. eigenvalues --    0.03291   0.04219   0.06468   0.07836   0.16860
  Beta virt. eigenvalues --    0.18202   0.19219   0.21369   0.22744   0.23267
  Beta virt. eigenvalues --    0.24336   0.24669   0.26992   0.28726   0.32824
  Beta virt. eigenvalues --    0.40615   0.58892   0.62345   0.68305   0.78531
  Beta virt. eigenvalues --    0.84627   0.85878   0.88685   0.92333   0.92892
  Beta virt. eigenvalues --    1.10768   1.25199   1.26932   1.36356   1.47458
  Beta virt. eigenvalues --    1.52562   1.71414   1.83940   1.90390   1.94178
  Beta virt. eigenvalues --    2.05618   2.23165   2.30670   2.33206   2.47203
  Beta virt. eigenvalues --    2.61443   2.65581   2.71352   2.78882   2.82940
  Beta virt. eigenvalues --    2.96110   3.05753   3.19684   3.33733   3.86543
  Beta virt. eigenvalues --    4.02686   4.11834   4.49695   4.83928   5.33563
  Beta virt. eigenvalues --   35.58638  35.66903
          Condensed to atoms (all electrons):
               1          2          3          4          5
     1  N    6.558883   0.107257   0.382648   0.359967  -0.027285
     2  N    0.107257   7.015387  -0.068552  -0.006819   0.262331
     3  H    0.382648  -0.068552   0.457762  -0.058569   0.016309
     4  H    0.359967  -0.006819  -0.058569   0.499812  -0.029261
     5  H   -0.027285   0.262331   0.016309  -0.029261   0.592103
          Atomic-Atomic Spin Densities.
               1          2          3          4          5
     1  N    0.529988  -0.300698   0.011902   0.003394   0.008686
     2  N   -0.300698   1.111223  -0.011896  -0.005230  -0.012008
     3  H    0.011902  -0.011896  -0.008857   0.002826  -0.000281
     4  H    0.003394  -0.005230   0.002826  -0.003744   0.000893
     5  H    0.008686  -0.012008  -0.000281   0.000893  -0.023784
 Mulliken charges and spin densities:
               1          2
     1  N   -0.381470   0.253272
     2  N   -0.309605   0.781390
     3  H    0.270403  -0.006306
     4  H    0.234869  -0.001861
     5  H    0.185803  -0.026495
 Sum of Mulliken charges =   0.00000   1.00000
 Mulliken charges and spin densities with hydrogens summed into heavy atoms:
               1          2
     1  N    0.123801   0.245104
     2  N   -0.123801   0.754896
 APT charges:
               1
     1  N   -0.358544
     2  N   -0.135398
     3  H    0.195482
     4  H    0.175055
     5  H    0.123405
 Sum of APT charges =   0.00000
 APT charges with hydrogens summed into heavy atoms:
               1
     1  N    0.011993
     2  N   -0.011993
 Electronic spatial extent (au):  <R**2>=             71.4909
 Charge=              0.0000 electrons
 Dipole moment (field-independent basis, Debye):
    X=              2.0878    Y=              1.7648    Z=              0.6315  Tot=              2.8057
 Quadrupole moment (field-independent basis, Debye-Ang):
   XX=            -11.8422   YY=            -10.9637   ZZ=            -14.5942
   XY=             -2.3925   XZ=              0.9750   YZ=              0.1162
 Traceless Quadrupole moment (field-independent basis, Debye-Ang):
   XX=              0.6245   YY=              1.5030   ZZ=             -2.1275
   XY=             -2.3925   XZ=              0.9750   YZ=              0.1162
 Octapole moment (field-independent basis, Debye-Ang**2):
  XXX=              4.6650  YYY=              2.5652  ZZZ=              0.4964  XYY=              3.0445
  XXY=              2.6238  XXZ=              0.8629  XZZ=              0.3869  YZZ=              0.5461
  YYZ=              0.5362  XYZ=              0.1125
 Hexadecapole moment (field-independent basis, Debye-Ang**3):
 XXXX=            -53.5178 YYYY=            -18.0558 ZZZZ=            -16.0389 XXXY=             -5.0189
 XXXZ=              1.5903 YYYX=             -2.9521 YYYZ=              0.1746 ZZZX=              0.9090
 ZZZY=              0.1217 XXYY=            -10.2643 XXZZ=            -13.4502 YYZZ=             -6.1068
 XXYZ=              0.0391 YYXZ=              0.7462 ZZXY=             -0.8037
 N-N= 3.661739787945D+01 E-N=-3.335930122482D+02  KE= 1.108594469065D+02
  Exact polarizability:  25.776   0.336  17.483  -0.360  -0.082  15.162
 Approx polarizability:  23.279  -0.007  17.130  -0.320  -0.073  13.540
                          Isotropic Fermi Contact Couplings
        Atom                 a.u.       MegaHertz       Gauss      10(-4) cm-1
     1  N(14)              0.06391      20.64910       7.36811       6.88780
     2  N(14)              0.08053      26.02038       9.28472       8.67946
     3  H(1)              -0.00271     -12.11015      -4.32120      -4.03951
     4  H(1)               0.00028       1.23413       0.44037       0.41166
     5  H(1)              -0.01086     -48.54297     -17.32134     -16.19219
 --------------------------------------------------------
       Center         ----  Spin Dipole Couplings  ----
                      3XX-RR        3YY-RR        3ZZ-RR
 --------------------------------------------------------
     1   Atom       -0.353143     -0.389228      0.742371
     2   Atom       -0.918549     -0.890633      1.809182
     3   Atom       -0.001415      0.013908     -0.012493
     4   Atom       -0.013680      0.024778     -0.011098
     5   Atom       -0.049514      0.067792     -0.018278
 --------------------------------------------------------
                        XY            XZ            YZ
 --------------------------------------------------------
     1   Atom        0.009335     -0.131033     -0.042454
     2   Atom       -0.016314      0.006975      0.109685
     3   Atom       -0.039656      0.005185     -0.009503
     4   Atom        0.036960      0.005105      0.009597
     5   Atom       -0.068933      0.002554     -0.001515
 --------------------------------------------------------


 ---------------------------------------------------------------------------------
              Anisotropic Spin Dipole Couplings in Principal Axis System
 ---------------------------------------------------------------------------------

       Atom             a.u.   MegaHertz   Gauss  10(-4) cm-1        Axes

              Baa    -0.3917   -15.105    -5.390    -5.039 -0.1862  0.9824  0.0153
     1 N(14)  Bbb    -0.3678   -14.185    -5.062    -4.732  0.9755  0.1830  0.1221
              Bcc     0.7595    29.290    10.452     9.770 -0.1172 -0.0376  0.9924
 
              Baa    -0.9271   -35.758   -12.759   -11.928  0.8882  0.4590 -0.0207
     2 N(14)  Bbb    -0.8865   -34.190   -12.200   -11.405 -0.4594  0.8875 -0.0349
              Bcc     1.8136    69.948    24.959    23.332  0.0023  0.0405  0.9992
 
              Baa    -0.0343   -18.327    -6.539    -6.113  0.7590  0.6434  0.0997
     3 H(1)   Bbb    -0.0141    -7.545    -2.692    -2.517 -0.1866  0.0683  0.9801
              Bcc     0.0485    25.872     9.232     8.630 -0.6238  0.7625 -0.1719
 
              Baa    -0.0361   -19.277    -6.879    -6.430  0.8528 -0.5216  0.0260
     4 H(1)   Bbb    -0.0130    -6.956    -2.482    -2.320 -0.1144 -0.1379  0.9838
              Bcc     0.0492    26.233     9.361     8.750  0.5096  0.8420  0.1773
 
              Baa    -0.0814   -43.439   -15.500   -14.490  0.9076  0.4190 -0.0267
     5 H(1)   Bbb    -0.0183    -9.755    -3.481    -3.254  0.0155  0.0300  0.9994
              Bcc     0.0997    53.195    18.981    17.744 -0.4196  0.9075 -0.0207
 

 ---------------------------------------------------------------------------------

 No NMR shielding tensors so no spin-rotation constants.
 Leave Link  601 at Tue Feb 19 10:37:24 2019, MaxMem=   196608000 cpu:        10.5
 (Enter /cm/shared/c3ddb/gaussian/09.d01/g09/l701.exe)
 Compute integral second derivatives.
 ... and contract with generalized density number  0.
 R6Disp: Adding Grimme-D2 dispersion energy 2nd derivatives to the Hessian.
 Entering OneElI...
 Calculate overlap and kinetic energy integrals
    NBasis =  67  MinDer = 2  MaxDer = 2
 Requested accuracy = 0.1000D-12
 PrsmSu:  NPrtUS=   8 ThrOK=T IAlg=1 NPAlg=1 LenDen=           0.
 Prism:   IPart=     0 DynPar=F LinDyn=F Incr=           1.
 PRISM was handed    24562006 working-precision words and   378 shell-pairs
 PRISM was handed    24562006 working-precision words and   378 shell-pairs
 PRISM was handed    24562006 working-precision words and   378 shell-pairs
 PRISM was handed    24562006 working-precision words and   378 shell-pairs
 PRISM was handed    24562006 working-precision words and   378 shell-pairs
 PRISM was handed    24562006 working-precision words and   378 shell-pairs
 PRISM was handed    24562006 working-precision words and   378 shell-pairs
 PRISM was handed    24562006 working-precision words and   378 shell-pairs
 IPart=  6 NShTot=          33 NBatch=          13 AvBLen=         2.5
 IPart=  4 NShTot=          41 NBatch=          18 AvBLen=         2.3
 IPart=  3 NShTot=          47 NBatch=          20 AvBLen=         2.4
 IPart=  0 NShTot=          68 NBatch=          35 AvBLen=         1.9
 IPart=  7 NShTot=          33 NBatch=          13 AvBLen=         2.5
 IPart=  1 NShTot=          63 NBatch=          31 AvBLen=         2.0
 IPart=  5 NShTot=          39 NBatch=          18 AvBLen=         2.2
 IPart=  2 NShTot=          54 NBatch=          24 AvBLen=         2.3
 PrSmSu:  NxtVal=              9.
 Entering OneElI...
 Calculate potential energy integrals
    NBasis =  67  MinDer = 2  MaxDer = 2
 Requested accuracy = 0.1000D-12
 PrsmSu:  NPrtUS=   8 ThrOK=T IAlg=1 NPAlg=1 LenDen=           0.
 Prism:   IPart=     0 DynPar=F LinDyn=F Incr=           2.
 PRISM was handed    24562964 working-precision words and   378 shell-pairs
 PRISM was handed    24562964 working-precision words and   378 shell-pairs
 PRISM was handed    24562964 working-precision words and   378 shell-pairs
 PRISM was handed    24562964 working-precision words and   378 shell-pairs
 PRISM was handed    24562964 working-precision words and   378 shell-pairs
 PRISM was handed    24562964 working-precision words and   378 shell-pairs
 PRISM was handed    24562964 working-precision words and   378 shell-pairs
 PRISM was handed    24562964 working-precision words and   378 shell-pairs
 IPart=  6 NShTot=         165 NBatch=          33 AvBLen=         5.0
 IPart=  4 NShTot=         205 NBatch=          41 AvBLen=         5.0
 IPart=  7 NShTot=         165 NBatch=          33 AvBLen=         5.0
 IPart=  0 NShTot=         330 NBatch=          66 AvBLen=         5.0
 IPart=  3 NShTot=         235 NBatch=          47 AvBLen=         5.0
 IPart=  1 NShTot=         315 NBatch=          63 AvBLen=         5.0
 IPart=  5 NShTot=         195 NBatch=          39 AvBLen=         5.0
 IPart=  2 NShTot=         280 NBatch=          56 AvBLen=         5.0
 PrSmSu:  NxtVal=             17.
 Polarizability after L701:
                1             2             3 
      1  0.257764D+02
      2  0.336226D+00  0.174828D+02
      3 -0.359666D+00 -0.819711D-01  0.151624D+02
 Dipole Derivatives after L701:
                 1             2             3             4             5 
      1  -0.517651D+00 -0.143620D+00  0.220468D+00  0.123744D+00  0.908718D-01
      2  -0.130214D-01 -0.121962D+00  0.427626D-01  0.563806D-01 -0.789287D-01
      3   0.146783D+00  0.599661D-01 -0.436018D+00 -0.884570D-01 -0.490418D-01
                 6             7             8             9            10 
      1  -0.283232D-01  0.146812D+00 -0.169765D-01 -0.969017D-01  0.702696D-01
      2  -0.296599D-01 -0.116358D-02  0.162333D+00  0.395851D-01 -0.354352D-01
      3  -0.451008D+00 -0.249584D-01  0.279910D-01  0.277300D+00 -0.337942D-01
                11            12            13            14            15 
      1  -0.285592D-01 -0.994717D-01  0.176825D+00  0.982837D-01  0.422877D-02
      2   0.121450D+00 -0.722741D-01 -0.676040D-02 -0.828922D-01  0.195862D-01
      3  -0.649273D-01  0.333445D+00  0.426948D-03  0.260120D-01  0.276281D+00
 Hessian after L701:
                1             2             3             4             5 
      1  0.143522D+01
      2 -0.767216D+00  0.831373D+01
      3  0.951178D-01  0.151917D-01  0.117564D+02
      4  0.332650D+01  0.109903D+01 -0.812605D+00 -0.768113D+00
      5  0.121042D+01 -0.604250D+01 -0.127405D+00 -0.118106D+00  0.684833D+01
      6 -0.739419D+00 -0.966496D-01 -0.557124D+01  0.632796D+00  0.165192D+00
      7 -0.228643D+01 -0.143717D+01  0.389213D+00 -0.198302D+00 -0.500796D-01
      8 -0.135250D+01 -0.129138D+01 -0.553404D+00 -0.132628D+00  0.196866D+00
      9  0.333778D+00 -0.505469D+00 -0.314817D+01  0.715359D-01 -0.336856D-01
     10 -0.257642D+01  0.111868D+01  0.339737D+00  0.460211D-01  0.147123D+00
     11  0.106603D+01 -0.101317D+01  0.657305D+00  0.206379D+00  0.217058D+00
     12  0.305395D+00  0.601319D+00 -0.297923D+01  0.576452D-01  0.633251D-01
     13  0.101125D+00 -0.133259D-01 -0.114617D-01 -0.240611D+01 -0.118936D+01
     14 -0.156734D+00  0.333306D-01  0.831265D-02 -0.105468D+01 -0.121975D+01
     15  0.512843D-02 -0.143923D-01 -0.577045D-01  0.506283D-01 -0.674263D-01
                6             7             8             9            10 
      6  0.855239D+01
      7  0.294511D-01  0.229413D+01
      8 -0.244715D-01  0.155659D+01  0.122619D+01
      9  0.581269D-01 -0.429513D+00  0.576246D+00  0.302191D+01
     10  0.226090D-01  0.114803D+00  0.199055D-01  0.713930D-02  0.252130D+01
     11  0.312938D-01  0.157145D-01 -0.176969D+00 -0.241024D-01 -0.128155D+01
     12 -0.187263D-01  0.609005D-02  0.476932D-02  0.876036D-01 -0.356433D+00
     13  0.545626D-01  0.757967D-01 -0.913614D-01  0.170598D-01 -0.105702D+00
     14 -0.753644D-01 -0.850486D-01  0.452928D-01 -0.129892D-01 -0.416011D-02
     15 -0.302054D+01  0.475891D-02 -0.313991D-02 -0.194648D-01 -0.130516D-01
               11            12            13            14            15 
     11  0.940401D+00
     12 -0.665834D+00  0.288019D+01
     13 -0.657348D-02 -0.126966D-01  0.233489D+01
     14  0.326833D-01 -0.357962D-02  0.130062D+01  0.110844D+01
     15  0.133793D-02  0.301602D-01 -0.474640D-01  0.836206D-01  0.306755D+01
 Leave Link  701 at Tue Feb 19 10:37:25 2019, MaxMem=   196608000 cpu:         4.1
 (Enter /cm/shared/c3ddb/gaussian/09.d01/g09/l702.exe)
 L702 exits ... SP integral derivatives will be done elsewhere.
 Leave Link  702 at Tue Feb 19 10:37:25 2019, MaxMem=   196608000 cpu:         0.2
 (Enter /cm/shared/c3ddb/gaussian/09.d01/g09/l703.exe)
 Compute integral second derivatives, UseDBF=F ICtDFT=           0.
 Integral derivatives from FoFJK, PRISM(SPDF).
 ICntrl=    100127.
 Calling FoFJK, ICntrl=    100127 FMM=F ISym2X=0 I1Cent= 0 IOpClX= 1 NMat=1 NMatS=1 NMatT=0.
 FoFJK:  IHMeth= 1 ICntrl=  100127 DoSepK=T KAlg= 0 I1Cent=   0 FoldK=F
 IRaf=         1 NMat=   1 IRICut=       1 DoRegI=T DoRafI=F ISym2E= 0.
 FoFCou: FMM=F IPFlag=           0 FMFlag=      100000 FMFlg1=         800
         NFxFlg=           0 DoJE=F BraDBF=F KetDBF=F FulRan=T
         wScrn=  0.000000 ICntrl=  100527 IOpCl=  0 I1Cent=           0 NGrid=           0
         NMat0=    1 NMatS0=      1 NMatT0=    0 NMatD0=    1 NMtDS0=    0 NMtDT0=    0
 Symmetry not used in FoFCou.
 FoFCou:  KetSym=F NOpSet=  1 NOpAb=1 NOp=  1.
 FoFCou:  CnvScl= 1.00D+00 Thresh= 1.00D-10 IAcrcy=      10.
 PrismS was handed   196568213 working-precision words and   378 shell-pairs
 FoFCou: LinMIO=F DoNuc=F BraDBF=F KetDBF=F HaveP=T PDBF=F HaveZ=T HaveW=F
         NIJTC =      10 NIJTAt=       0 NIJTCD=       0 NIJTT =      10
         IJTBeg=       1 IJTEnd=      10 KLTBeg=       1 KLTEnd=      10
         IPTBeg=       1 IPTEnd=      10 IPTBCv=       1 IPTECv=      10
         IZTBeg=       1 IZTEnd=      10 IZTBCv=       1 IZTECv=      10
         IWTBeg=      11 IWTEnd=      10 IWTBCv=      11 IWTECv=      10
         INTBeg=       1 INTEnd=       0 IFTBCv=       1 IFTECv=      10
 NCel replicated for PrismC:     1
 CoulSu:  IncDef=  1024 NBBP=          71631 NTPThr=   100 NPartT=    8 Incr=          89 LDynOK=F.
 CoulSu:  NPrtUS=   8 ThrOK=T IAlg=1 NPAlg=1 LenDen=           0 LWGrdD=           0 DoCopy=F.
 Enter PrismC: JobTyp=22 DoJE=F Cont=F.
 PrismC:  IPart=     0 DynPar=F LinDyn=F Incr=          89 UseFst=F UseS4=T IGathr=2.
 PrismC was handed    24562225 working-precision words and   378 shell-pairs
 Enter PrismC: JobTyp=22 DoJE=F Cont=F.
 PrismC was handed    24562225 working-precision words and   378 shell-pairs
 Enter PrismC: JobTyp=22 DoJE=F Cont=F.
 Enter PrismC: JobTyp=22 DoJE=F Cont=F.
 PrismC was handed    24562225 working-precision words and   378 shell-pairs
 Enter PrismC: JobTyp=22 DoJE=F Cont=F.
 Enter PrismC: JobTyp=22 DoJE=F Cont=F.
 PrismC was handed    24562225 working-precision words and   378 shell-pairs
 PrismC was handed    24562225 working-precision words and   378 shell-pairs
 PrismC was handed    24562225 working-precision words and   378 shell-pairs
 Enter PrismC: JobTyp=22 DoJE=F Cont=F.
 PrismC was handed    24562225 working-precision words and   378 shell-pairs
 Enter PrismC: JobTyp=22 DoJE=F Cont=F.
 PrismC was handed    24562225 working-precision words and   378 shell-pairs
 IPart=  7 NShTot=        8696 NShNF=        8696 NShFF=           0 NBatch=         732 AvBLen=        11.9
 IPart=  6 NShTot=        8724 NShNF=        8724 NShFF=           0 NBatch=         732 AvBLen=        11.9
 IPart=  2 NShTot=        9049 NShNF=        9049 NShFF=           0 NBatch=         820 AvBLen=        11.0
 IPart=  4 NShTot=        8872 NShNF=        8872 NShFF=           0 NBatch=         780 AvBLen=        11.4
 IPart=  3 NShTot=        9004 NShNF=        9004 NShFF=           0 NBatch=         804 AvBLen=        11.2
 IPart=  5 NShTot=        8804 NShNF=        8804 NShFF=           0 NBatch=         775 AvBLen=        11.4
 IPart=  1 NShTot=        9121 NShNF=        9121 NShFF=           0 NBatch=         841 AvBLen=        10.8
 IPart=  0 NShTot=        9231 NShNF=        9231 NShFF=           0 NBatch=         859 AvBLen=        10.7
 CoulSu:  NxtVal=            713.
 FoFCou: FMM=F IPFlag=           0 FMFlag=      100000 FMFlg1=         800
         NFxFlg=           0 DoJE=F BraDBF=F KetDBF=F FulRan=T
         wScrn=  0.000000 ICntrl=  100127 IOpCl=  1 I1Cent=           0 NGrid=           0
         NMat0=    1 NMatS0=      0 NMatT0=    1 NMatD0=    1 NMtDS0=    0 NMtDT0=    0
         CW=    0.222036    0.777964
         WU=    0.000000   12.500000
 Symmetry not used in FoFCou.
 FoFCou:  KetSym=F NOpSet=  1 NOpAb=1 NOp=  1.
 FoFCou:  CnvScl= 1.00D+00 Thresh= 1.00D-10 IAcrcy=      10.
 PrismS was handed   196567870 working-precision words and   378 shell-pairs
 FoFCou: LinMIO=F DoNuc=F BraDBF=F KetDBF=F HaveP=T PDBF=F HaveZ=T HaveW=F
         NIJTC =      10 NIJTAt=       0 NIJTCD=       0 NIJTT =      10
         IJTBeg=       1 IJTEnd=      10 KLTBeg=       1 KLTEnd=      10
         IPTBeg=       1 IPTEnd=      10 IPTBCv=       1 IPTECv=      10
         IZTBeg=       1 IZTEnd=      10 IZTBCv=       1 IZTECv=      10
         IWTBeg=      11 IWTEnd=      10 IWTBCv=      11 IWTECv=      10
         INTBeg=       1 INTEnd=       0 IFTBCv=       1 IFTECv=      10
 NCel replicated for PrismC:     1
 CoulSu:  IncDef=  1024 NBBP=          71631 NTPThr=   100 NPartT=    8 Incr=          89 LDynOK=F.
 CoulSu:  NPrtUS=   8 ThrOK=T IAlg=1 NPAlg=1 LenDen=           0 LWGrdD=           0 DoCopy=F.
 Enter PrismC: JobTyp=22 DoJE=F Cont=F.
 Enter PrismC: JobTyp=22 DoJE=F Cont=F.
 Linear combination for Coulomb/exchange, wScrn=  0.000000
 CW=    0.222036    0.777964
 WU=    0.000000   12.500000
 Enter PrismC: JobTyp=22 DoJE=F Cont=F.
 Linear combination for Coulomb/exchange, wScrn=  0.000000
 CW=    0.222036    0.777964
 WU=    0.000000   12.500000
 PrismC was handed    24562183 working-precision words and   378 shell-pairs
 Linear combination for Coulomb/exchange, wScrn=  0.000000
 CW=    0.222036    0.777964
 WU=    0.000000   12.500000
 PrismC:  IPart=     0 DynPar=F LinDyn=F Incr=          89 UseFst=F UseS4=T IGathr=2.
 Enter PrismC: JobTyp=22 DoJE=F Cont=F.
 PrismC was handed    24562183 working-precision words and   378 shell-pairs
 Linear combination for Coulomb/exchange, wScrn=  0.000000
 CW=    0.222036    0.777964
 WU=    0.000000   12.500000
 PrismC was handed    24562183 working-precision words and   378 shell-pairs
 PrismC was handed    24562183 working-precision words and   378 shell-pairs
 Enter PrismC: JobTyp=22 DoJE=F Cont=F.
 Linear combination for Coulomb/exchange, wScrn=  0.000000
 CW=    0.222036    0.777964
 WU=    0.000000   12.500000
 PrismC was handed    24562183 working-precision words and   378 shell-pairs
 Enter PrismC: JobTyp=22 DoJE=F Cont=F.
 Linear combination for Coulomb/exchange, wScrn=  0.000000
 CW=    0.222036    0.777964
 WU=    0.000000   12.500000
 PrismC was handed    24562183 working-precision words and   378 shell-pairs
 Enter PrismC: JobTyp=22 DoJE=F Cont=F.
 Linear combination for Coulomb/exchange, wScrn=  0.000000
 CW=    0.222036    0.777964
 WU=    0.000000   12.500000
 PrismC was handed    24562183 working-precision words and   378 shell-pairs
 Enter PrismC: JobTyp=22 DoJE=F Cont=F.
 Linear combination for Coulomb/exchange, wScrn=  0.000000
 CW=    0.222036    0.777964
 WU=    0.000000   12.500000
 PrismC was handed    24562183 working-precision words and   378 shell-pairs
 IPart=  7 NShTot=        8696 NShNF=        8696 NShFF=           0 NBatch=         765 AvBLen=        11.4
 IPart=  6 NShTot=        8720 NShNF=        8720 NShFF=           0 NBatch=         764 AvBLen=        11.4
 IPart=  2 NShTot=        9045 NShNF=        9045 NShFF=           0 NBatch=         858 AvBLen=        10.5
 IPart=  4 NShTot=        8871 NShNF=        8871 NShFF=           0 NBatch=         818 AvBLen=        10.8
 IPart=  3 NShTot=        9005 NShNF=        9005 NShFF=           0 NBatch=         844 AvBLen=        10.7
 IPart=  5 NShTot=        8806 NShNF=        8806 NShFF=           0 NBatch=         813 AvBLen=        10.8
 IPart=  1 NShTot=        9121 NShNF=        9121 NShFF=           0 NBatch=         884 AvBLen=        10.3
 IPart=  0 NShTot=        9230 NShNF=        9230 NShFF=           0 NBatch=         898 AvBLen=        10.3
 CoulSu:  NxtVal=            713.
 ReadGW:  IGet=0 IStart=           1 Next=           1 LGW=           0.
 Remaining memory in FofDFT      187.49 Mw
 CkSvGd:  ISavGI=        -1 IRadAn=       4 IRASav=       0 ISavGd=        -1.
 CalDSu:  NPrtUS=   8 ThrOK=T IAlg=1 NPAlg=2 DoDPD=T LenP=        2278 LenD1P=             0.
 IPart=  0 IRanGd=          0 ScrnBf=T ScrnGd=T RCrit=4.00D+00 DoMicB=T.
 IPart=  7         8114 of         8852 points in      20 batches and       76 microbatches, Max-NSigAt=       5 Max-NSgAt2=       5
 IPart=  6         6396 of         7130 points in      17 batches and       49 microbatches, Max-NSigAt=       5 Max-NSgAt2=       5
 IPart=  4         4430 of         4668 points in       9 batches and       26 microbatches, Max-NSigAt=       5 Max-NSgAt2=       5
 IPart=  3         4180 of         4480 points in      10 batches and       42 microbatches, Max-NSigAt=       5 Max-NSgAt2=       5
 IPart=  2         6178 of         6782 points in      16 batches and       50 microbatches, Max-NSigAt=       5 Max-NSgAt2=       5
 IPart=  1         3003 of         3020 points in       5 batches and       10 microbatches, Max-NSigAt=       5 Max-NSgAt2=       5
 IPart=  0         2961 of         2988 points in       5 batches and       12 microbatches, Max-NSigAt=       5 Max-NSgAt2=       5
 IPart=  5         3178 of         3260 points in       5 batches and       14 microbatches, Max-NSigAt=       5 Max-NSgAt2=       5
 Polarizability after L703:
                1             2             3 
      1  0.257764D+02
      2  0.336226D+00  0.174828D+02
      3 -0.359666D+00 -0.819711D-01  0.151624D+02
 Dipole Derivatives after L703:
                 1             2             3             4             5 
      1  -0.517651D+00 -0.143620D+00  0.220468D+00  0.123744D+00  0.908718D-01
      2  -0.130214D-01 -0.121962D+00  0.427626D-01  0.563806D-01 -0.789287D-01
      3   0.146783D+00  0.599661D-01 -0.436018D+00 -0.884570D-01 -0.490418D-01
                 6             7             8             9            10 
      1  -0.283232D-01  0.146812D+00 -0.169765D-01 -0.969017D-01  0.702696D-01
      2  -0.296599D-01 -0.116358D-02  0.162333D+00  0.395851D-01 -0.354352D-01
      3  -0.451008D+00 -0.249584D-01  0.279910D-01  0.277300D+00 -0.337942D-01
                11            12            13            14            15 
      1  -0.285592D-01 -0.994717D-01  0.176825D+00  0.982837D-01  0.422877D-02
      2   0.121450D+00 -0.722741D-01 -0.676040D-02 -0.828922D-01  0.195862D-01
      3  -0.649273D-01  0.333445D+00  0.426948D-03  0.260120D-01  0.276281D+00
 Hessian after L703:
                1             2             3             4             5 
      1  0.716138D+00
      2 -0.292950D-01  0.820850D+00
      3  0.810378D-01  0.181348D-01  0.663303D-01
      4 -0.397630D+00 -0.583213D-01  0.126198D-01  0.541322D+00
      5  0.416935D-02 -0.118166D+00 -0.483446D-03 -0.966402D-01  0.472148D+00
      6  0.312111D-01  0.940808D-02 -0.343799D-02 -0.123754D-01 -0.241795D-01
      7 -0.161732D+00  0.157627D+00 -0.473489D-01 -0.277956D-01  0.348475D-01
      8  0.164923D+00 -0.343725D+00  0.629758D-01 -0.336829D-02  0.122143D-01
      9 -0.632429D-01  0.884684D-01 -0.274067D-01  0.463666D-02 -0.575825D-02
     10 -0.122285D+00 -0.121131D+00 -0.437536D-01 -0.250395D-01 -0.333180D-01
     11 -0.118268D+00 -0.360397D+00 -0.820785D-01 -0.624047D-02  0.530347D-02
     12 -0.513924D-01 -0.109985D+00 -0.329903D-01  0.245071D-02  0.785376D-02
     13 -0.344912D-01  0.511195D-01 -0.255518D-02 -0.908571D-01  0.909414D-01
     14 -0.215294D-01  0.143726D-02  0.145132D-02  0.164570D+00 -0.371500D+00
     15  0.238638D-02 -0.602648D-02 -0.249531D-02 -0.733181D-02  0.225675D-01
                6             7             8             9            10 
      6  0.190225D-01
      7 -0.613828D-02  0.186564D+00
      8 -0.297404D-02 -0.176362D+00  0.345551D+00
      9 -0.769431D-02  0.503686D-01 -0.714029D-01  0.292294D-01
     10 -0.893493D-02  0.112486D-01  0.171022D-01  0.671129D-02  0.134305D+00
     11 -0.147904D-02 -0.145765D-01 -0.165724D-01 -0.110755D-01  0.137885D+00
     12  0.503576D-02  0.418579D-02  0.996526D-02 -0.137648D-02  0.457466D-01
     13 -0.376256D-02 -0.828570D-02 -0.229551D-02  0.152637D-02  0.177032D-02
     14  0.192245D-01 -0.153695D-02  0.253205D-02 -0.231724D-03 -0.538939D-03
     15 -0.129259D-01 -0.106726D-02  0.143590D-02  0.724813D-02  0.230602D-03
               11            12            13            14            15 
     11  0.367231D+00
     12  0.924459D-01  0.327560D-01
     13  0.119954D-02 -0.990713D-03  0.131864D+00
     14  0.443459D-02 -0.280083D-03 -0.140965D+00  0.363096D+00
     15  0.218714D-02 -0.342498D-02  0.578209D-02 -0.201640D-01  0.115981D-01
 Leave Link  703 at Tue Feb 19 10:37:34 2019, MaxMem=   196608000 cpu:        45.3
 (Enter /cm/shared/c3ddb/gaussian/09.d01/g09/l716.exe)
 FrcOut:
 IF    =    39 IFX   =    54 IFXYZ =    69
 IFFX  =    84 IFFFX =   204 IFLen =    15
 IFFLen=   120 IFFFLn=     0 IEDerv=   204
 LEDerv=   773 IFroze=  1166 ICStrt=  9810
 Dipole        = 8.21399422D-01 6.94313462D-01 2.48454435D-01
 DipoleDeriv   =-5.17651101D-01-1.30214120D-02 1.46782612D-01
                -1.43619791D-01-1.21962451D-01 5.99661106D-02
                 2.20467807D-01 4.27625746D-02-4.36018474D-01
                 1.23743962D-01 5.63805893D-02-8.84569843D-02
                 9.08718035D-02-7.89286762D-02-4.90418049D-02
                -2.83231528D-02-2.96599037D-02-4.51007796D-01
                 1.46812368D-01-1.16357910D-03-2.49584014D-02
                -1.69764978D-02 1.62333146D-01 2.79910272D-02
                -9.69017078D-02 3.95851477D-02 2.77300036D-01
                 7.02696391D-02-3.54351981D-02-3.37941750D-02
                -2.85592483D-02 1.21450183D-01-6.49273285D-02
                -9.94717184D-02-7.22740656D-02 3.33444770D-01
                 1.76825130D-01-6.76039730D-03 4.26948433D-04
                 9.82837324D-02-8.28921996D-02 2.60119957D-02
                 4.22877226D-03 1.95862467D-02 2.76281463D-01
 Polarizability= 2.57764068D+01 3.36226302D-01 1.74828491D+01
                -3.59665835D-01-8.19710989D-02 1.51623748D+01
 VibFq2-Diag1:  N=     15 IV=           6 MDV=   196597128 NE2=    13106474
 Full mass-weighted force constant matrix:
 Low frequencies ---  -53.2406   -0.0006    0.0007    0.0008    5.3704   27.5110
 Low frequencies ---  502.0606  700.4821 1151.9724
 OrtVCM:  Ph=1 IPass= 1 DotMx1= 0.00D+00
 OrtVCM:  IS=    1 I=    1 IndO=    1 Dot= 1.00D+00 DotN= 1.00D+00 ElMax1= 6.72D-01 ElMax1N= 6.72D-01
 OrtVCM:  Ph=2 NNew=    0 IAdd=    2 IPass= 1 DotMx2= 0.00D+00
 OrtVCM:  IS=    1 I=    2 IndO=    2 Dot= 1.00D+00 DotN= 1.00D+00 ElMax1= 6.72D-01 ElMax1N= 6.72D-01
 OrtVCM:  Ph=2 NNew=    0 IAdd=    3 IPass= 1 DotMx2= 0.00D+00
 OrtVCM:  IS=    1 I=    3 IndO=    3 Dot= 1.00D+00 DotN= 1.00D+00 ElMax1= 6.72D-01 ElMax1N= 6.72D-01
 OrtVCM:  Ph=2 NNew=    0 IAdd=    4 IPass= 1 DotMx2= 1.39D-17
 OrtVCM:  IS=    1 I=    4 IndO=    4 Dot= 1.00D+00 DotN= 1.00D+00 ElMax1= 5.63D-01 ElMax1N= 5.63D-01
 OrtVCM:  Ph=2 NNew=    0 IAdd=    5 IPass= 1 DotMx2= 5.27D-16
 OrtVCM:  IS=    1 I=    5 IndO=    5 Dot= 1.00D+00 DotN= 1.00D+00 ElMax1= 6.58D-01 ElMax1N= 6.58D-01
 OrtVCM:  Ph=2 NNew=    0 IAdd=    6 IPass= 1 DotMx2= 4.89D-16
 OrtVCM:  IS=    1 I=    6 IndO=    6 Dot= 1.00D+00 DotN= 1.00D+00 ElMax1= 6.12D-01 ElMax1N= 6.12D-01
 OrtVCM:  Ph=1 IPass= 1 DotMx1= 6.72D-01
 OrtVCM:  Ph=1 IPass= 2 DotMx1= 1.85D-16
 OrtVCM:  IS=    1 I=    1 IndO=    7 Dot= 5.44D-01 DotN= 5.44D-01 ElMax1= 5.44D-01 ElMax1N= 5.44D-01
 OrtVCM:  Ph=2 NNew=    0 IAdd=    2 IPass= 1 DotMx2= 3.43D-02
 OrtVCM:  Ph=2 NNew=    0 IAdd=    2 IPass= 2 DotMx2= 3.47D-18
 OrtVCM:  IS=    1 I=    2 IndO=    8 Dot= 2.42D-01 DotN= 2.42D-01 ElMax1= 2.57D-01 ElMax1N= 2.57D-01
 OrtVCM:  Ph=2 NNew=    0 IAdd=    3 IPass= 1 DotMx2= 4.09D-02
 OrtVCM:  Ph=2 NNew=    0 IAdd=    3 IPass= 2 DotMx2= 8.89D-18
 OrtVCM:  IS=    1 I=    3 IndO=    9 Dot= 2.09D-01 DotN= 2.09D-01 ElMax1= 3.02D-01 ElMax1N= 3.02D-01
 OrtVCM:  Ph=2 NNew=    0 IAdd=    4 IPass= 1 DotMx2= 6.03D-01
 OrtVCM:  Ph=2 NNew=    0 IAdd=    4 IPass= 2 DotMx2= 7.81D-17
 OrtVCM:  IS=    1 I=    4 IndO=   10 Dot= 1.67D-01 DotN= 1.67D-01 ElMax1= 2.45D-01 ElMax1N= 2.45D-01
 OrtVCM:  Ph=2 NNew=    0 IAdd=    5 IPass= 1 DotMx2= 2.31D-01
 OrtVCM:  Ph=2 NNew=    0 IAdd=    5 IPass= 2 DotMx2= 5.76D-17
 OrtVCM:  IS=    1 I=    5 IndO=   11 Dot= 1.14D-01 DotN= 1.14D-01 ElMax1= 2.74D-01 ElMax1N= 2.74D-01
 OrtVCM:  Ph=2 NNew=    0 IAdd=    6 IPass= 1 DotMx2= 1.33D-01
 OrtVCM:  Ph=2 NNew=    0 IAdd=    6 IPass= 2 DotMx2= 3.04D-17
 OrtVCM:  IS=    1 I=    6 IndO=   12 Dot= 5.81D-02 DotN= 5.81D-02 ElMax1= 1.80D-01 ElMax1N= 1.80D-01
 OrtVCM:  Ph=2 NNew=    0 IAdd=    7 IPass= 1 DotMx2= 6.01D-01
 OrtVCM:  Ph=2 NNew=    0 IAdd=    7 IPass= 2 DotMx2= 1.84D-16
 OrtVCM:  IS=    1 I=    7 IndO=   13 Dot= 4.30D-01 DotN= 4.30D-01 ElMax1= 4.30D-01 ElMax1N= 4.30D-01
 OrtVCM:  Ph=2 NNew=    0 IAdd=    8 IPass= 1 DotMx2= 5.23D-01
 OrtVCM:  Ph=2 NNew=    0 IAdd=    8 IPass= 2 DotMx2= 9.13D-17
 OrtVCM:  IS=    1 I=    8 IndO=   14 Dot= 4.75D-01 DotN= 4.75D-01 ElMax1= 4.98D-01 ElMax1N= 4.98D-01
 OrtVCM:  Ph=2 NNew=    0 IAdd=    9 IPass= 1 DotMx2= 5.75D-01
 OrtVCM:  Ph=2 NNew=    0 IAdd=    9 IPass= 2 DotMx2= 2.68D-16
 OrtVCM:  IS=    1 I=    9 IndO=    0 Dot= 1.29D-32 DotN= 1.29D-32 ElMax1= 8.98D-17 ElMax1N= 8.98D-17
 SchOr2:  IPass= 1 Test2A= 1.00D-01 IOff=     0 NDo=     9 NNew=     8
 OrtVCM:  Ph=1 IPass= 1 DotMx1= 4.53D-01
 OrtVCM:  Ph=1 IPass= 2 DotMx1= 1.69D-16
 OrtVCM:  IS=    1 I=    1 IndO=   15 Dot= 4.93D-01 DotN= 4.93D-01 ElMax1= 4.93D-01 ElMax1N= 4.93D-01
 SchOr2:  IPass= 1 Test2A= 1.00D-01 IOff=     9 NDo=     1 NNew=     1
 VibFq2-Diag2:  N=      9 IV=           6 MDV=   196597128 NE2=    21844124
 Dipole derivatives wrt mode   1:  5.64502D+00  1.65570D+00 -1.03117D+01
 Vibrational polarizability contributions from mode   1       3.4034468       0.2927852      11.3565272
 Vibrational hyperpolarizability contributions from mode   1       0.0000000       0.0000000       0.0000000
 Dipole derivatives wrt mode   2:  1.63483D+00 -2.36247D+00 -1.11258D+01
 Vibrational polarizability contributions from mode   2       0.1465861       0.3061143       6.7891286
 Vibrational hyperpolarizability contributions from mode   2       0.0000000       0.0000000       0.0000000
 Dipole derivatives wrt mode   3: -4.41133D+00 -1.37296D+00  4.13782D-01
 Vibrational polarizability contributions from mode   3       0.3946279       0.0382268       0.0034721
 Vibrational hyperpolarizability contributions from mode   3       0.0000000       0.0000000       0.0000000
 Dipole derivatives wrt mode   4: -2.30640D+00 -9.33916D-01  5.58272D-01
 Vibrational polarizability contributions from mode   4       0.0874327       0.0143357       0.0051227
 Vibrational hyperpolarizability contributions from mode   4       0.0000000       0.0000000       0.0000000
 Dipole derivatives wrt mode   5:  4.51646D+00 -1.56753D+00  1.03075D-01
 Vibrational polarizability contributions from mode   5       0.2473646       0.0297971       0.0001288
 Vibrational hyperpolarizability contributions from mode   5       0.0000000       0.0000000       0.0000000
 Dipole derivatives wrt mode   6: -3.97282D+00 -3.11361D-01 -1.87642D+00
 Vibrational polarizability contributions from mode   6       0.1506649       0.0009254       0.0336104
 Vibrational hyperpolarizability contributions from mode   6       0.0000000       0.0000000       0.0000000
 Dipole derivatives wrt mode   7: -4.72627D-01  2.29352D+00 -1.94880D-01
 Vibrational polarizability contributions from mode   7       0.0004977       0.0117195       0.0000846
 Vibrational hyperpolarizability contributions from mode   7       0.0000000       0.0000000       0.0000000
 Dipole derivatives wrt mode   8: -1.33969D+00  9.24355D-02 -3.84493D-01
 Vibrational polarizability contributions from mode   8       0.0038480       0.0000183       0.0003170
 Vibrational hyperpolarizability contributions from mode   8       0.0000000       0.0000000       0.0000000
 Dipole derivatives wrt mode   9:  2.10212D+00 -4.45040D+00  3.46848D-01
 Vibrational polarizability contributions from mode   9       0.0087386       0.0391673       0.0002379
 Vibrational hyperpolarizability contributions from mode   9       0.0000000       0.0000000       0.0000000
 Diagonal vibrational polarizability:
        4.4432071       0.7330897      18.1886292
 NorSel:  MapVib=      1      2      3      4      5      6      7      8      9
 Harmonic frequencies (cm**-1), IR intensities (KM/Mole), Raman scattering
 activities (A**4/AMU), depolarization ratios for plane and unpolarized
 incident light, reduced masses (AMU), force constants (mDyne/A),
 and normal coordinates:
                      1                      2                      3
                      A                      A                      A
 Frequencies --    501.9640               700.4735              1151.9716
 Red. masses --      1.2924                 1.0675                 1.0771
 Frc consts  --      0.1919                 0.3086                 0.8421
 IR Inten    --    140.9380               132.0379                21.5160
  Atom  AN      X      Y      Z        X      Y      Z        X      Y      Z
     1   7    -0.02  -0.01   0.13    -0.01   0.02   0.03    -0.01   0.06   0.00
     2   7     0.00   0.00  -0.06     0.01   0.00   0.05     0.04  -0.01  -0.01
     3   1     0.16  -0.02  -0.47     0.02  -0.11  -0.62    -0.53  -0.25   0.12
     4   1     0.15   0.15  -0.79     0.11  -0.08   0.16     0.53  -0.17  -0.10
     5   1     0.02   0.02   0.26    -0.04  -0.07  -0.74    -0.50  -0.25   0.07
                      4                      5                      6
                      A                      A                      A
 Frequencies --   1279.5704              1489.6907              1679.0334
 Red. masses --      6.3565                 1.2674                 1.1049
 Frc consts  --      6.1319                 1.6571                 1.8353
 IR Inten    --      6.5033                22.8662                19.4012
  Atom  AN      X      Y      Z        X      Y      Z        X      Y      Z
     1   7     0.41   0.09  -0.01    -0.07   0.08   0.00     0.08   0.01   0.01
     2   7    -0.48  -0.10   0.02     0.01  -0.09   0.00    -0.01  -0.01   0.01
     3   1     0.27  -0.01  -0.02    -0.32  -0.06   0.08    -0.57  -0.43  -0.13
     4   1     0.70  -0.03  -0.07     0.33  -0.09  -0.05    -0.58   0.34  -0.10
     5   1    -0.02   0.16  -0.04     0.82   0.28  -0.04     0.07   0.03   0.00
                      7                      8                      9
                      A                      A                      A
 Frequencies --   3475.4729              3542.8592              3688.9601
 Red. masses --      1.0747                 1.0471                 1.1005
 Frc consts  --      7.6486                 7.7434                 8.8236
 IR Inten    --      5.5216                 1.9512                24.3453
  Atom  AN      X      Y      Z        X      Y      Z        X      Y      Z
     1   7     0.00  -0.01   0.00     0.04   0.03   0.02    -0.02   0.08   0.00
     2   7    -0.03   0.06   0.00     0.00   0.01   0.00     0.00   0.00   0.00
     3   1     0.00   0.00   0.00    -0.26   0.41  -0.08     0.47  -0.72   0.18
     4   1     0.06   0.11   0.03    -0.35  -0.76  -0.20    -0.20  -0.41  -0.12
     5   1     0.41  -0.90   0.05     0.04  -0.10   0.00     0.03  -0.06   0.00

 -------------------
 - Thermochemistry -
 -------------------
 Temperature   298.150 Kelvin.  Pressure   1.00000 Atm.
 Atom     1 has atomic number  7 and mass  14.00307
 Atom     2 has atomic number  7 and mass  14.00307
 Atom     3 has atomic number  1 and mass   1.00783
 Atom     4 has atomic number  1 and mass   1.00783
 Atom     5 has atomic number  1 and mass   1.00783
 Molecular mass:    31.02962 amu.
 Principal axes and moments of inertia in atomic units:
                           1         2         3
     Eigenvalues --     8.74165  58.35791  66.28241
           X            0.99782  -0.06126   0.02438
           Y            0.06102   0.99808   0.01025
           Z           -0.02496  -0.00874   0.99965
 This molecule is an asymmetric top.
 Rotational symmetry number  1.
 Rotational temperatures (Kelvin)      9.90818     1.48418     1.30674
 Rotational constants (GHZ):         206.45314    30.92539    27.22806
 Zero-point vibrational energy     104733.0 (Joules/Mol)
                                   25.03180 (Kcal/Mol)
 Warning -- explicit consideration of   1 degrees of freedom as
           vibrations may cause significant error
 Vibrational temperatures:    722.21  1007.82  1657.43  1841.01  2143.33
          (Kelvin)           2415.75  5000.42  5097.38  5307.58
 
 Zero-point correction=                           0.039891 (Hartree/Particle)
 Thermal correction to Energy=                    0.043098
 Thermal correction to Enthalpy=                  0.044042
 Thermal correction to Gibbs Free Energy=         0.017041
 Sum of electronic and zero-point Energies=           -111.189408
 Sum of electronic and thermal Energies=              -111.186200
 Sum of electronic and thermal Enthalpies=            -111.185256
 Sum of electronic and thermal Free Energies=         -111.212257
 
                     E (Thermal)             CV                S
                      KCal/Mol        Cal/Mol-Kelvin    Cal/Mol-Kelvin
 Total                   27.045              8.550             56.829
 Electronic               0.000              0.000              1.377
 Translational            0.889              2.981             36.230
 Rotational               0.889              2.981             18.165
 Vibrational             25.267              2.588              1.057
 Vibration     1          0.857              1.246              0.653
                       Q            Log10(Q)             Ln(Q)
 Total Bot       0.145063D-07         -7.838442        -18.048680
 Total V=0       0.323571D+11         10.509969         24.200099
 Vib (Bot)       0.512880D-18        -18.289984        -42.114245
 Vib (Bot)    1  0.326849D+00         -0.485653         -1.118257
 Vib (V=0)       0.114400D+01          0.058427          0.134534
 Vib (V=0)    1  0.109735D+01          0.040346          0.092901
 Electronic      0.200000D+01          0.301030          0.693147
 Translational   0.679391D+07          6.832120         15.731538
 Rotational      0.208158D+04          3.318392          7.640880
 
                                                                 name
                                                             IR Spectrum
 
     3     3 3                                                             1     1      1    1                                       
     6     5 4                                                             6     4      2    1              7      5                 
     8     4 7                                                             7     9      8    5              0      0                 
     9     3 5                                                             9     0      0    2              0      2                 
 
     X     X X                                                             X     X      X    X              X      X                 
     X                                                                     X     X           X              X      X                 
     X                                                                     X     X           X              X      X                 
                                                                                                            X      X                 
                                                                                                            X      X                 
                                                                                                            X      X                 
                                                                                                            X      X                 
                                                                                                            X      X                 
                                                                                                            X      X                 
                                                                                                            X      X                 
                                                                                                            X      X                 
                                                                                                            X      X                 
                                                                                                            X      X                 
                                                                                                            X      X                 
                                                                                                            X      X                 
                                                                                                            X      X                 
                                                                                                            X      X                 
                                                                                                            X      X                 
                                                                                                            X      X                 
                                                                                                                   X                 
 
 Forces in standard orientation:
 -------------------------------------------------------------------
 Center     Atomic                   Forces (Hartrees/Bohr)
 Number     Number              X              Y              Z
 -------------------------------------------------------------------
      1        7           0.000022908    0.000001402    0.000005417
      2        7          -0.000020373    0.000001899   -0.000006101
      3        1          -0.000000646    0.000000567   -0.000027379
      4        1          -0.000001015   -0.000002428    0.000005811
      5        1          -0.000000874   -0.000001440    0.000022252
 -------------------------------------------------------------------
 ***** Axes restored to original set *****
 Rotating derivatives, DoTrsp=F IDiff=-2 LEDeriv=    772 LFDPrp=       0 LDFDPr=       0.
 -------------------------------------------------------------------
 Center     Atomic                   Forces (Hartrees/Bohr)
 Number     Number              X              Y              Z
 -------------------------------------------------------------------
      1        7           0.000021926    0.000001124   -0.000008607
      2        7          -0.000019456    0.000002294    0.000008491
      3        1           0.000002929    0.000004343    0.000026887
      4        1          -0.000001671   -0.000003231   -0.000005240
      5        1          -0.000003728   -0.000004529   -0.000021530
 -------------------------------------------------------------------
 Cartesian Forces:  Max     0.000026887 RMS     0.000012385
 Z-matrix is all fixed cartesians, so copy forces.
 Force constants in Cartesian coordinates: 
                1             2             3             4             5 
      1  0.686541D+00
      2 -0.582429D-01  0.799615D+00
      3 -0.155713D+00 -0.115824D+00  0.117163D+00
      4 -0.393932D+00 -0.640369D-01  0.484807D-01  0.542772D+00
      5 -0.385730D-02 -0.118579D+00  0.169921D-01 -0.967464D-01  0.466119D+00
      6  0.216195D-01  0.146562D-01 -0.672312D-02 -0.448243D-01 -0.255582D-01
      7 -0.157200D+00  0.159570D+00  0.451320D-01 -0.284720D-01  0.345388D-01
      8  0.172322D+00 -0.351248D+00 -0.397915D-01 -0.480104D-02  0.136782D-01
      9  0.603985D-01 -0.634569D-01 -0.244158D-01 -0.145618D-02 -0.192688D-02
     10 -0.100362D+00 -0.877534D-01  0.622393D-01 -0.220465D-01 -0.331231D-01
     11 -0.876938D-01 -0.332383D+00  0.137740D+00 -0.681171D-02  0.359741D-02
     12  0.688134D-01  0.166061D+00 -0.829257D-01  0.242549D-02 -0.334460D-02
     13 -0.350468D-01  0.504630D-01 -0.139426D-03 -0.983207D-01  0.991880D-01
     14 -0.225276D-01  0.259582D-02  0.883213D-03  0.172396D+00 -0.364816D+00
     15  0.488099D-02 -0.143652D-02 -0.309829D-02 -0.462567D-02  0.138375D-01
                6             7             8             9            10 
      6  0.236021D-01
      7  0.397323D-02  0.184109D+00
      8  0.755662D-03 -0.180093D+00  0.351293D+00
      9 -0.848180D-02 -0.489737D-01  0.495160D-01  0.259419D-01
     10  0.172545D-01  0.946667D-02  0.153584D-01 -0.108377D-01  0.111174D+00
     11  0.279859D-02 -0.125494D-01 -0.160944D-01  0.147822D-01  0.106227D+00
     12  0.374887D-02 -0.349872D-02 -0.101161D-01 -0.725251D-04 -0.679177D-01
     13  0.197710D-02 -0.790442D-02 -0.278618D-02  0.869056D-03  0.176785D-02
     14  0.734777D-02 -0.146682D-02  0.237064D-02  0.108564D-02 -0.709073D-03
     15 -0.121460D-01  0.336728D-02 -0.364013D-03  0.702826D-02 -0.738358D-03
               11            12            13            14            15 
     11  0.340844D+00
     12 -0.151946D+00  0.822739D-01
     13  0.827729D-03  0.177503D-03  0.139504D+00
     14  0.403667D-02 -0.655137D-03 -0.147693D+00  0.355813D+00
     15 -0.337553D-02 -0.302459D-02 -0.288424D-02 -0.866149D-02  0.112406D-01
 Final forces over variables, Energy=-1.11229299D+02:
  2.19255275D-05-1.94555178D-05 2.92945055D-06-1.67147124D-06
 -3.72798893D-06 1.12352124D-06 2.29353131D-06 4.34325735D-06
 -3.23081383D-06-4.52949605D-06-8.60724702D-06 8.49115791D-06
  2.68865650D-05-5.24003826D-06-2.15304376D-05
 Leave Link  716 at Tue Feb 19 10:37:35 2019, MaxMem=   196608000 cpu:         3.4
 (Enter /cm/shared/c3ddb/gaussian/09.d01/g09/l103.exe)

 GradGradGradGradGradGradGradGradGradGradGradGradGradGradGradGradGradGrad
 Berny optimization.
 Search for a local minimum.
 Step number   1 out of a maximum of    2
 All quantities printed in internal units (Hartrees-Bohrs-Radians)
 Second derivative matrix not updated -- analytic derivatives used.
 The second derivative matrix:
                          X1        Y1        Z1        X2        Y2
           X1           0.68654
           Y1          -0.05824   0.79961
           Z1          -0.15571  -0.11582   0.11716
           X2          -0.39393  -0.06404   0.04848   0.54277
           Y2          -0.00386  -0.11858   0.01699  -0.09675   0.46612
           Z2           0.02162   0.01466  -0.00672  -0.04482  -0.02556
           X3          -0.15720   0.15957   0.04513  -0.02847   0.03454
           Y3           0.17232  -0.35125  -0.03979  -0.00480   0.01368
           Z3           0.06040  -0.06346  -0.02442  -0.00146  -0.00193
           X4          -0.10036  -0.08775   0.06224  -0.02205  -0.03312
           Y4          -0.08769  -0.33238   0.13774  -0.00681   0.00360
           Z4           0.06881   0.16606  -0.08293   0.00243  -0.00334
           X5          -0.03505   0.05046  -0.00014  -0.09832   0.09919
           Y5          -0.02253   0.00260   0.00088   0.17240  -0.36482
           Z5           0.00488  -0.00144  -0.00310  -0.00463   0.01384
                          Z2        X3        Y3        Z3        X4
           Z2           0.02360
           X3           0.00397   0.18411
           Y3           0.00076  -0.18009   0.35129
           Z3          -0.00848  -0.04897   0.04952   0.02594
           X4           0.01725   0.00947   0.01536  -0.01084   0.11117
           Y4           0.00280  -0.01255  -0.01609   0.01478   0.10623
           Z4           0.00375  -0.00350  -0.01012  -0.00007  -0.06792
           X5           0.00198  -0.00790  -0.00279   0.00087   0.00177
           Y5           0.00735  -0.00147   0.00237   0.00109  -0.00071
           Z5          -0.01215   0.00337  -0.00036   0.00703  -0.00074
                          Y4        Z4        X5        Y5        Z5
           Y4           0.34084
           Z4          -0.15195   0.08227
           X5           0.00083   0.00018   0.13950
           Y5           0.00404  -0.00066  -0.14769   0.35581
           Z5          -0.00338  -0.00302  -0.00288  -0.00866   0.01124
 ITU=  0
     Eigenvalues ---    0.02629   0.03114   0.06070   0.13128   0.18715
     Eigenvalues ---    0.46723   0.72325   1.05404   1.13491
 Angle between quadratic step and forces=  70.01 degrees.
 Linear search not attempted -- first point.
 TrRot= -0.000016 -0.000012 -0.000028  0.000004 -0.000041  0.000004
 Variable       Old X    -DE/DX   Delta X   Delta X   Delta X     New X
                                 (Linear)    (Quad)   (Total)
    X1       -1.08492   0.00002   0.00000  -0.00003  -0.00005  -1.08497
    Y1       -0.01397   0.00000   0.00000  -0.00005  -0.00007  -0.01405
    Z1       -0.00724  -0.00001   0.00000  -0.00024  -0.00032  -0.00756
    X2        1.41214  -0.00002   0.00000  -0.00003  -0.00004   1.41210
    Y2        0.39110   0.00000   0.00000   0.00001   0.00001   0.39111
    Z2       -0.22634   0.00001   0.00000   0.00013   0.00015  -0.22619
    X3       -2.10744   0.00000   0.00000   0.00010   0.00006  -2.10738
    Y3        1.56128   0.00000   0.00000  -0.00002  -0.00005   1.56123
    Z3        0.30870   0.00003   0.00000   0.00015   0.00004   0.30874
    X4       -1.76508   0.00000   0.00000   0.00008   0.00005  -1.76503
    Y4       -1.60581   0.00000   0.00000   0.00013   0.00010  -1.60571
    Z4        0.80609  -0.00001   0.00000   0.00027   0.00017   0.80626
    X5        2.23941   0.00000   0.00000  -0.00002  -0.00002   2.23939
    Y5       -1.35320   0.00000   0.00000   0.00000   0.00001  -1.35319
    Z5       -0.19345  -0.00002   0.00000  -0.00011  -0.00005  -0.19350
         Item               Value     Threshold  Converged?
 Maximum Force            0.000027     0.000450     YES
 RMS     Force            0.000012     0.000300     YES
 Maximum Displacement     0.000315     0.001800     YES
 RMS     Displacement     0.000111     0.001200     YES
 Predicted change in Energy=-5.546331D-10
 Optimization completed.
    -- Stationary point found.
 GradGradGradGradGradGradGradGradGradGradGradGradGradGradGradGradGradGrad

 Leave Link  103 at Tue Feb 19 10:37:36 2019, MaxMem=   196608000 cpu:         3.2
 (Enter /cm/shared/c3ddb/gaussian/09.d01/g09/l9999.exe)

 Test job not archived.
 1\1\GINC-NODE097\Freq\UwB97XD\6-311++G(d,p)\H3N2(2)\ALONGD\19-Feb-2019
 \0\\#P uwb97xd/6-311++g(d,p) freq iop(7/33=1) scf=xqc\\name\\0,2\N,-0.
 574115,-0.007393,-0.003832\N,0.747272,0.206962,-0.119775\H,-1.115208,0
 .826192,0.163357\H,-0.934041,-0.849759,0.426565\H,1.185046,-0.716081,-
 0.102369\\Version=AS64L-G09RevD.01\State=2-A\HF=-111.2292986\S2=0.7545
 38\S2-1=0.\S2A=0.750014\RMSD=3.314e-09\RMSF=1.239e-05\ZeroPoint=0.0398
 907\Thermal=0.0430983\Dipole=-0.7535558,-0.6704391,0.4485118\DipoleDer
 iv=-0.5566738,-0.0526785,-0.1221356,-0.1931189,-0.1466505,-0.0787166,-
 0.1773519,-0.0817276,-0.3723078,0.1225241,0.0685237,0.0009526,0.096914
 2,-0.0717477,-0.0151381,-0.0629573,-0.0321936,-0.4569689,0.1659822,-0.
 0006532,0.0412856,-0.0049261,0.1552372,-0.009796,0.1149561,-0.0205061,
 0.2652261,0.0939964,-0.0180003,0.0660281,-0.0034088,0.1433822,0.093519
 1,0.1299473,0.1042998,0.2877859,0.1741711,0.0028083,0.0138694,0.104539
 6,-0.0802213,0.0101316,-0.0045942,0.0301276,0.2762647\Polar=25.6469562
 ,0.5222268,17.4807364,-1.1154181,-0.3067707,15.2939382\PG=C01 [X(H3N2)
 ]\NImag=0\\0.68654118,-0.05824292,0.79961451,-0.15571250,-0.11582417,0
 .11716290,-0.39393231,-0.06403687,0.04848069,0.54277152,-0.00385730,-0
 .11857911,0.01699213,-0.09674636,0.46611939,0.02161953,0.01465617,-0.0
 0672312,-0.04482433,-0.02555819,0.02360205,-0.15719961,0.15957016,0.04
 513195,-0.02847201,0.03453881,0.00397323,0.18410937,0.17232156,-0.3512
 4784,-0.03979151,-0.00480104,0.01367824,0.00075566,-0.18009272,0.35129
 337,0.06039854,-0.06345693,-0.02441580,-0.00145618,-0.00192688,-0.0084
 8180,-0.04897374,0.04951597,0.02594187,-0.10036248,-0.08775336,0.06223
 928,-0.02204652,-0.03312313,0.01725447,0.00946667,0.01535839,-0.010837
 68,0.11117448,-0.08769376,-0.33238337,0.13774034,-0.00681171,0.0035974
 1,0.00279859,-0.01254944,-0.01609440,0.01478221,0.10622717,0.34084370,
 0.06881344,0.16606145,-0.08292569,0.00242549,-0.00334460,0.00374887,-0
 .00349872,-0.01011610,-0.00007253,-0.06791772,-0.15194561,0.08227394,-
 0.03504678,0.05046298,-0.00013943,-0.09832067,0.09918797,0.00197710,-0
 .00790442,-0.00278618,0.00086906,0.00176785,0.00082773,0.00017750,0.13
 950402,-0.02252758,0.00259582,0.00088321,0.17239598,-0.36481593,0.0073
 4777,-0.00146682,0.00237064,0.00108564,-0.00070907,0.00403667,-0.00065
 514,-0.14769251,0.35581280,0.00488099,-0.00143652,-0.00309829,-0.00462
 567,0.01383755,-0.01214599,0.00336728,-0.00036401,0.00702826,-0.000738
 36,-0.00337553,-0.00302459,-0.00288424,-0.00866149,0.01124061\\-0.0000
 2193,-0.00000112,0.00000861,0.00001946,-0.00000229,-0.00000849,-0.0000
 0293,-0.00000434,-0.00002689,0.00000167,0.00000323,0.00000524,0.000003
 73,0.00000453,0.00002153\\\@


 BE NOT THE FIRST BY WHOM THE NEW ARE TRIED,
 NOR YET THE THE LAST TO LAY THE OLD ASIDE.

                          -- ALEXANDER POPE
 Job cpu time:       0 days  0 hours  6 minutes 11.2 seconds.
 File lengths (MBytes):  RWF=      9 Int=      0 D2E=      0 Chk=      1 Scr=      1
 Normal termination of Gaussian 09 at Tue Feb 19 10:37:36 2019.
