 Entering Gaussian System, Link 0=g09
 Initial command:
 /cm/shared/c3ddb/gaussian/09.d01/g09/l1.exe "/scratch/users/alongd/g09/a268-7510353/Gau-54067.inp" -scrdir="/scratch/users/alongd/g09/a268-7510353/"
 Entering Link 1 = /cm/shared/c3ddb/gaussian/09.d01/g09/l1.exe PID=     54068.
  
 Copyright (c) 1988,1990,1992,1993,1995,1998,2003,2009,2013,
            Gaussian, Inc.  All Rights Reserved.
  
 This is part of the Gaussian(R) 09 program.  It is based on
 the Gaussian(R) 03 system (copyright 2003, Gaussian, Inc.),
 the Gaussian(R) 98 system (copyright 1998, Gaussian, Inc.),
 the Gaussian(R) 94 system (copyright 1995, Gaussian, Inc.),
 the Gaussian 92(TM) system (copyright 1992, Gaussian, Inc.),
 the Gaussian 90(TM) system (copyright 1990, Gaussian, Inc.),
 the Gaussian 88(TM) system (copyright 1988, Gaussian, Inc.),
 the Gaussian 86(TM) system (copyright 1986, Carnegie Mellon
 University), and the Gaussian 82(TM) system (copyright 1983,
 Carnegie Mellon University). Gaussian is a federally registered
 trademark of Gaussian, Inc.
  
 This software contains proprietary and confidential information,
 including trade secrets, belonging to Gaussian, Inc.
  
 This software is provided under written license and may be
 used, copied, transmitted, or stored only in accord with that
 written license.
  
 The following legend is applicable only to US Government
 contracts under FAR:
  
                    RESTRICTED RIGHTS LEGEND
  
 Use, reproduction and disclosure by the US Government is
 subject to restrictions as set forth in subparagraphs (a)
 and (c) of the Commercial Computer Software - Restricted
 Rights clause in FAR 52.227-19.
  
 Gaussian, Inc.
 340 Quinnipiac St., Bldg. 40, Wallingford CT 06492
  
  
 ---------------------------------------------------------------
 Warning -- This program may not be used in any manner that
 competes with the business of Gaussian, Inc. or will provide
 assistance to any competitor of Gaussian, Inc.  The licensee
 of this program is prohibited from giving any competitor of
 Gaussian, Inc. access to this program.  By using this program,
 the user acknowledges that Gaussian, Inc. is engaged in the
 business of creating and licensing software in the field of
 computational chemistry and represents and warrants to the
 licensee that it is not a competitor of Gaussian, Inc. and that
 it will not use this program in any manner prohibited above.
 ---------------------------------------------------------------
  

 Cite this work as:
 Gaussian 09, Revision D.01,
 M. J. Frisch, G. W. Trucks, H. B. Schlegel, G. E. Scuseria, 
 M. A. Robb, J. R. Cheeseman, G. Scalmani, V. Barone, B. Mennucci, 
 G. A. Petersson, H. Nakatsuji, M. Caricato, X. Li, H. P. Hratchian, 
 A. F. Izmaylov, J. Bloino, G. Zheng, J. L. Sonnenberg, M. Hada, 
 M. Ehara, K. Toyota, R. Fukuda, J. Hasegawa, M. Ishida, T. Nakajima, 
 Y. Honda, O. Kitao, H. Nakai, T. Vreven, J. A. Montgomery, Jr., 
 J. E. Peralta, F. Ogliaro, M. Bearpark, J. J. Heyd, E. Brothers, 
 K. N. Kudin, V. N. Staroverov, T. Keith, R. Kobayashi, J. Normand, 
 K. Raghavachari, A. Rendell, J. C. Burant, S. S. Iyengar, J. Tomasi, 
 M. Cossi, N. Rega, J. M. Millam, M. Klene, J. E. Knox, J. B. Cross, 
 V. Bakken, C. Adamo, J. Jaramillo, R. Gomperts, R. E. Stratmann, 
 O. Yazyev, A. J. Austin, R. Cammi, C. Pomelli, J. W. Ochterski, 
 R. L. Martin, K. Morokuma, V. G. Zakrzewski, G. A. Voth, 
 P. Salvador, J. J. Dannenberg, S. Dapprich, A. D. Daniels, 
 O. Farkas, J. B. Foresman, J. V. Ortiz, J. Cioslowski, 
 and D. J. Fox, Gaussian, Inc., Wallingford CT, 2013.
 
 ******************************************
 Gaussian 09:  AS64L-G09RevD.01 24-Apr-2013
                15-Mar-2019 
 ******************************************
 %chk=check.chk
 %mem=1500mb
 %nproc=8
 Will use up to    8 processors via shared memory.
 ----------------------------------------------------------------------
 #P wb97xd/6-311++g(d,p) freq iop(7/33=1) scf=(tight, direct) integral=
 (grid=ultrafine, Acc2E=12) scf=xqc IOp(2/11=1)
 ----------------------------------------------------------------------
 1/10=4,30=1,38=1/1,3;
 2/11=1,12=2,17=6,18=5,40=1/2;
 3/5=4,6=6,7=1111,11=2,16=1,25=1,30=1,71=2,74=-58,75=-5,140=1/1,2,3;
 4//1;
 5/5=2,8=3,13=1,32=2,38=5,87=12,98=1/2,8;
 8/6=4,10=90,11=11,87=12/1;
 11/6=1,8=1,9=11,15=111,16=1,87=12/1,2,10;
 10/6=1,87=12/2;
 6/7=2,8=2,9=2,10=2,18=1,28=1/1;
 7/8=1,10=1,25=1,33=1,87=12/1,2,3,16;
 1/10=4,30=1/3;
 99//99;
 Leave Link    1 at Fri Mar 15 15:13:45 2019, MaxMem=   196608000 cpu:         1.5
 (Enter /cm/shared/c3ddb/gaussian/09.d01/g09/l101.exe)
 ----
 name
 ----
 Symbolic Z-matrix:
 Charge =  0 Multiplicity = 1
 O                     0.        0.71356  -0.0531 
 O                     0.       -0.71356  -0.0531 
 H                     0.81446   0.89969   0.42477 
 H                    -0.81446  -0.89969   0.42477 
 
 NAtoms=      4 NQM=        4 NQMF=       0 NMMI=      0 NMMIF=      0
                NMic=       0 NMicF=      0.
                    Isotopes and Nuclear Properties:
 (Nuclear quadrupole moments (NQMom) in fm**2, nuclear magnetic moments (NMagM)
  in nuclear magnetons)

  Atom         1           2           3           4
 IAtWgt=          16          16           1           1
 AtmWgt=  15.9949146  15.9949146   1.0078250   1.0078250
 NucSpn=           0           0           1           1
 AtZEff=   0.0000000   0.0000000   0.0000000   0.0000000
 NQMom=    0.0000000   0.0000000   0.0000000   0.0000000
 NMagM=    0.0000000   0.0000000   2.7928460   2.7928460
 AtZNuc=   8.0000000   8.0000000   1.0000000   1.0000000
 Leave Link  101 at Fri Mar 15 15:13:45 2019, MaxMem=   196608000 cpu:         0.4
 (Enter /cm/shared/c3ddb/gaussian/09.d01/g09/l103.exe)

 GradGradGradGradGradGradGradGradGradGradGradGradGradGradGradGradGradGrad
 Berny optimization.
 Initialization pass.
 Trust Radius=3.00D-01 FncErr=1.00D-07 GrdErr=1.00D-07
 Number of steps in this run=      2 maximum allowed number of steps=      2.
 GradGradGradGradGradGradGradGradGradGradGradGradGradGradGradGradGradGrad

 Leave Link  103 at Fri Mar 15 15:13:45 2019, MaxMem=   196608000 cpu:         0.1
 (Enter /cm/shared/c3ddb/gaussian/09.d01/g09/l202.exe)
                          Input orientation:                          
 ---------------------------------------------------------------------
 Center     Atomic      Atomic             Coordinates (Angstroms)
 Number     Number       Type             X           Y           Z
 ---------------------------------------------------------------------
      1          8           0        0.000000    0.713561   -0.053096
      2          8           0        0.000000   -0.713561   -0.053096
      3          1           0        0.814462    0.899686    0.424765
      4          1           0       -0.814462   -0.899686    0.424765
 ---------------------------------------------------------------------
                    Distance matrix (angstroms):
                    1          2          3          4
     1  O    0.000000
     2  O    1.427122   0.000000
     3  H    0.962467   1.869295   0.000000
     4  H    1.869295   0.962467   2.427166   0.000000
 Stoichiometry    H2O2
 Framework group  C2[X(H2O2)]
 Deg. of freedom     4
 Full point group                 C2      NOp   2
 Largest Abelian subgroup         C2      NOp   2
 Largest concise Abelian subgroup C2      NOp   2
                         Standard orientation:                         
 ---------------------------------------------------------------------
 Center     Atomic      Atomic             Coordinates (Angstroms)
 Number     Number       Type             X           Y           Z
 ---------------------------------------------------------------------
      1          8           0        0.000000    0.713561   -0.053096
      2          8           0        0.000000   -0.713561   -0.053096
      3          1           0        0.814462    0.899686    0.424765
      4          1           0       -0.814462   -0.899686    0.424765
 ---------------------------------------------------------------------
 Rotational constants (GHZ):    308.2431427     27.3424736     26.2441096
 Leave Link  202 at Fri Mar 15 15:13:45 2019, MaxMem=   196608000 cpu:         0.4
 (Enter /cm/shared/c3ddb/gaussian/09.d01/g09/l301.exe)
 Standard basis: 6-311++G(d,p) (5D, 7F)
 Ernie: Thresh=  0.10000D-02 Tol=  0.10000D-05 Strict=F.
 There are    30 symmetry adapted cartesian basis functions of A   symmetry.
 There are    30 symmetry adapted cartesian basis functions of B   symmetry.
 There are    29 symmetry adapted basis functions of A   symmetry.
 There are    29 symmetry adapted basis functions of B   symmetry.
    58 basis functions,    90 primitive gaussians,    60 cartesian basis functions
     9 alpha electrons        9 beta electrons
       nuclear repulsion energy        37.2756824677 Hartrees.
 IExCor= 4639 DFT=T Ex+Corr=wB97XD ExCW=0 ScaHFX=  1.000000
 ScaDFX=  1.000000  1.000000  1.000000  1.000000 ScalE2=  1.000000  1.000000
 IRadAn=      5 IRanWt=     -1 IRanGd=            0 ICorTp=0 IEmpDi=121
  HFx wShort=  0.000000 wLong=  0.200000 cFull=  0.222036 cShort=  0.000000 cLong=  0.777964
  DFx wShort=  0.000000 wLong=  0.200000 cFull=  0.000000 cShort=  0.000000 cLong=  1.000000
 NAtoms=    4 NActive=    4 NUniq=    2 SFac= 4.00D+00 NAtFMM=   60 NAOKFM=F Big=F
 Integral buffers will be    131072 words long.
 Raffenetti 2 integral format.
 Two-electron integral symmetry is turned on.
 R6Disp:  Grimme-D2 Dispersion energy=       -0.0002286305 Hartrees.
 Nuclear repulsion after empirical dispersion term =       37.2754538373 Hartrees.
 Leave Link  301 at Fri Mar 15 15:13:45 2019, MaxMem=   196608000 cpu:         0.3
 (Enter /cm/shared/c3ddb/gaussian/09.d01/g09/l302.exe)
 NPDir=0 NMtPBC=     1 NCelOv=     1 NCel=       1 NClECP=     1 NCelD=      1
         NCelK=      1 NCelE2=     1 NClLst=     1 CellRange=     0.0.
 One-electron integrals computed using PRISM.
 One-electron integral symmetry used in STVInt
 NBasis=    58 RedAO= T EigKep=  9.14D-04  NBF=    29    29
 NBsUse=    58 1.00D-06 EigRej= -1.00D+00 NBFU=    29    29
 Precomputing XC quadrature grid using
 IXCGrd= 4 IRadAn=           5 IRanWt=          -1 IRanGd=           0 AccXCQ= 0.00D+00.
 Generated NRdTot=       0 NPtTot=           0 NUsed=           0 NTot=          32
 NSgBfM=    60    60    60    60    60 MxSgAt=     4 MxSgA2=     4.
 Leave Link  302 at Fri Mar 15 15:13:46 2019, MaxMem=   196608000 cpu:         4.0
 (Enter /cm/shared/c3ddb/gaussian/09.d01/g09/l303.exe)
 DipDrv:  MaxL=1.
 Leave Link  303 at Fri Mar 15 15:13:46 2019, MaxMem=   196608000 cpu:         1.1
 (Enter /cm/shared/c3ddb/gaussian/09.d01/g09/l401.exe)
 ExpMin= 3.60D-02 ExpMax= 8.59D+03 ExpMxC= 1.30D+03 IAcc=3 IRadAn=         5 AccDes= 0.00D+00
 Harris functional with IExCor= 4639 and IRadAn=       5 diagonalized for initial guess.
 HarFok:  IExCor= 4639 AccDes= 0.00D+00 IRadAn=         5 IDoV= 1 UseB2=F ITyADJ=14
 ICtDFT=  3500011 ScaDFX=  1.000000  1.000000  1.000000  1.000000
 FoFCou: FMM=F IPFlag=           0 FMFlag=      100000 FMFlg1=           0
         NFxFlg=           0 DoJE=T BraDBF=F KetDBF=T FulRan=T
         wScrn=  0.000000 ICntrl=     500 IOpCl=  0 I1Cent=   200000004 NGrid=           0
         NMat0=    1 NMatS0=      1 NMatT0=    0 NMatD0=    1 NMtDS0=    0 NMtDT0=    0
 Petite list used in FoFCou.
 Harris En= -146.273562594403    
 JPrj=0 DoOrth=F DoCkMO=F.
 Initial guess orbital symmetries:
       Occupied  (B) (A) (A) (B) (A) (B) (A) (A) (B)
       Virtual   (A) (B) (B) (A) (A) (B) (B) (A) (A) (B) (B) (A)
                 (B) (B) (A) (B) (A) (A) (B) (B) (A) (B) (A) (A)
                 (B) (B) (A) (A) (B) (B) (A) (A) (A) (B) (A) (B)
                 (B) (A) (B) (A) (B) (A) (A) (B) (B) (A) (B) (A)
                 (B)
 The electronic state of the initial guess is 1-A.
 Leave Link  401 at Fri Mar 15 15:13:48 2019, MaxMem=   196608000 cpu:         5.9
 (Enter /cm/shared/c3ddb/gaussian/09.d01/g09/l502.exe)
 Closed shell SCF:
 Using DIIS extrapolation, IDIIS=  1040.
 Integral symmetry usage will be decided dynamically.
 Keep R1 ints in memory in symmetry-blocked form, NReq=4416764.
 IVT=       17754 IEndB=       17754 NGot=   196608000 MDV=   195853473
 LenX=   195853473 LenY=   195849432
 Requested convergence on RMS density matrix=1.00D-08 within  64 cycles.
 Requested convergence on MAX density matrix=1.00D-06.
 Requested convergence on             energy=1.00D-06.
 No special actions if energy rises.
 FoFCou: FMM=F IPFlag=           0 FMFlag=           0 FMFlg1=           0
         NFxFlg=           0 DoJE=F BraDBF=F KetDBF=F FulRan=T
         wScrn=  0.000000 ICntrl=     600 IOpCl=  0 I1Cent=           0 NGrid=           0
         NMat0=    1 NMatS0=   1711 NMatT0=    0 NMatD0=    1 NMtDS0=    0 NMtDT0=    0
 Petite list used in FoFCou.

 Cycle   1  Pass 1  IDiag  1:
 E= -151.480964227889    
 DIIS: error= 1.21D-01 at cycle   1 NSaved=   1.
 NSaved= 1 IEnMin= 1 EnMin= -151.480964227889     IErMin= 1 ErrMin= 1.21D-01
 ErrMax= 1.21D-01  0.00D+00 EMaxC= 1.00D-01 BMatC= 3.47D-01 BMatP= 3.47D-01
 IDIUse=3 WtCom= 0.00D+00 WtEn= 1.00D+00
 Coeff-Com:  0.100D+01
 Coeff-En:   0.100D+01
 Coeff:      0.100D+01
 Gap=     0.516 Goal=   None    Shift=    0.000
 GapD=    0.516 DampG=2.000 DampE=0.250 DampFc=0.5000 IDamp=-1.
 Damping current iteration by 5.00D-01
 RMSDP=5.80D-03 MaxDP=9.19D-02              OVMax= 9.72D-02

 Cycle   2  Pass 1  IDiag  1:
 E= -151.516422637890     Delta-E=       -0.035458410001 Rises=F Damp=T
 DIIS: error= 5.50D-02 at cycle   2 NSaved=   2.
 NSaved= 2 IEnMin= 2 EnMin= -151.516422637890     IErMin= 2 ErrMin= 5.50D-02
 ErrMax= 5.50D-02  0.00D+00 EMaxC= 1.00D-01 BMatC= 5.58D-02 BMatP= 3.47D-01
 IDIUse=3 WtCom= 4.50D-01 WtEn= 5.50D-01
 Coeff-Com: -0.456D+00 0.146D+01
 Coeff-En:   0.000D+00 0.100D+01
 Coeff:     -0.205D+00 0.121D+01
 Gap=     0.407 Goal=   None    Shift=    0.000
 RMSDP=1.70D-03 MaxDP=1.32D-02 DE=-3.55D-02 OVMax= 4.68D-02

 Cycle   3  Pass 1  IDiag  1:
 E= -151.548506662973     Delta-E=       -0.032084025083 Rises=F Damp=F
 DIIS: error= 4.92D-03 at cycle   3 NSaved=   3.
 NSaved= 3 IEnMin= 3 EnMin= -151.548506662973     IErMin= 3 ErrMin= 4.92D-03
 ErrMax= 4.92D-03  0.00D+00 EMaxC= 1.00D-01 BMatC= 1.56D-03 BMatP= 5.58D-02
 IDIUse=3 WtCom= 9.51D-01 WtEn= 4.92D-02
 Coeff-Com: -0.125D+00 0.282D+00 0.844D+00
 Coeff-En:   0.000D+00 0.000D+00 0.100D+01
 Coeff:     -0.119D+00 0.268D+00 0.852D+00
 Gap=     0.422 Goal=   None    Shift=    0.000
 RMSDP=4.99D-04 MaxDP=6.50D-03 DE=-3.21D-02 OVMax= 9.00D-03

 Cycle   4  Pass 1  IDiag  1:
 E= -151.549595300498     Delta-E=       -0.001088637525 Rises=F Damp=F
 DIIS: error= 5.86D-04 at cycle   4 NSaved=   4.
 NSaved= 4 IEnMin= 4 EnMin= -151.549595300498     IErMin= 4 ErrMin= 5.86D-04
 ErrMax= 5.86D-04  0.00D+00 EMaxC= 1.00D-01 BMatC= 2.64D-05 BMatP= 1.56D-03
 IDIUse=3 WtCom= 9.94D-01 WtEn= 5.86D-03
 Coeff-Com: -0.715D-02 0.165D-01 0.143D+00 0.848D+00
 Coeff-En:   0.000D+00 0.000D+00 0.000D+00 0.100D+01
 Coeff:     -0.710D-02 0.164D-01 0.142D+00 0.849D+00
 Gap=     0.420 Goal=   None    Shift=    0.000
 RMSDP=8.23D-05 MaxDP=1.09D-03 DE=-1.09D-03 OVMax= 1.00D-03

 Cycle   5  Pass 1  IDiag  1:
 E= -151.549614009039     Delta-E=       -0.000018708541 Rises=F Damp=F
 DIIS: error= 6.75D-05 at cycle   5 NSaved=   5.
 NSaved= 5 IEnMin= 5 EnMin= -151.549614009039     IErMin= 5 ErrMin= 6.75D-05
 ErrMax= 6.75D-05  0.00D+00 EMaxC= 1.00D-01 BMatC= 5.38D-07 BMatP= 2.64D-05
 IDIUse=1 WtCom= 1.00D+00 WtEn= 0.00D+00
 Coeff-Com:  0.754D-02-0.168D-01-0.462D-01-0.826D-01 0.114D+01
 Coeff:      0.754D-02-0.168D-01-0.462D-01-0.826D-01 0.114D+01
 Gap=     0.420 Goal=   None    Shift=    0.000
 RMSDP=3.25D-05 MaxDP=2.52D-04 DE=-1.87D-05 OVMax= 4.93D-04

 Cycle   6  Pass 1  IDiag  1:
 E= -151.549614935108     Delta-E=       -0.000000926069 Rises=F Damp=F
 DIIS: error= 1.24D-05 at cycle   6 NSaved=   6.
 NSaved= 6 IEnMin= 6 EnMin= -151.549614935108     IErMin= 6 ErrMin= 1.24D-05
 ErrMax= 1.24D-05  0.00D+00 EMaxC= 1.00D-01 BMatC= 1.01D-08 BMatP= 5.38D-07
 IDIUse=1 WtCom= 1.00D+00 WtEn= 0.00D+00
 Coeff-Com: -0.462D-04 0.112D-03-0.253D-02-0.138D-01 0.227D-02 0.101D+01
 Coeff:     -0.462D-04 0.112D-03-0.253D-02-0.138D-01 0.227D-02 0.101D+01
 Gap=     0.420 Goal=   None    Shift=    0.000
 RMSDP=3.63D-06 MaxDP=2.92D-05 DE=-9.26D-07 OVMax= 9.31D-05

 Cycle   7  Pass 1  IDiag  1:
 E= -151.549614959017     Delta-E=       -0.000000023909 Rises=F Damp=F
 DIIS: error= 3.47D-06 at cycle   7 NSaved=   7.
 NSaved= 7 IEnMin= 7 EnMin= -151.549614959017     IErMin= 7 ErrMin= 3.47D-06
 ErrMax= 3.47D-06  0.00D+00 EMaxC= 1.00D-01 BMatC= 6.34D-10 BMatP= 1.01D-08
 IDIUse=1 WtCom= 1.00D+00 WtEn= 0.00D+00
 Coeff-Com: -0.372D-03 0.823D-03 0.220D-02 0.380D-02-0.548D-01-0.259D-01
 Coeff-Com:  0.107D+01
 Coeff:     -0.372D-03 0.823D-03 0.220D-02 0.380D-02-0.548D-01-0.259D-01
 Coeff:      0.107D+01
 Gap=     0.420 Goal=   None    Shift=    0.000
 RMSDP=1.30D-06 MaxDP=9.02D-06 DE=-2.39D-08 OVMax= 3.46D-05

 Cycle   8  Pass 1  IDiag  1:
 E= -151.549614961296     Delta-E=       -0.000000002279 Rises=F Damp=F
 DIIS: error= 1.08D-06 at cycle   8 NSaved=   8.
 NSaved= 8 IEnMin= 8 EnMin= -151.549614961296     IErMin= 8 ErrMin= 1.08D-06
 ErrMax= 1.08D-06  0.00D+00 EMaxC= 1.00D-01 BMatC= 3.34D-11 BMatP= 6.34D-10
 IDIUse=1 WtCom= 1.00D+00 WtEn= 0.00D+00
 Coeff-Com:  0.455D-04-0.101D-03-0.148D-03-0.304D-03 0.601D-02-0.508D-01
 Coeff-Com: -0.887D-01 0.113D+01
 Coeff:      0.455D-04-0.101D-03-0.148D-03-0.304D-03 0.601D-02-0.508D-01
 Coeff:     -0.887D-01 0.113D+01
 Gap=     0.420 Goal=   None    Shift=    0.000
 RMSDP=4.52D-07 MaxDP=3.47D-06 DE=-2.28D-09 OVMax= 1.13D-05

 Cycle   9  Pass 1  IDiag  1:
 E= -151.549614961451     Delta-E=       -0.000000000155 Rises=F Damp=F
 DIIS: error= 2.91D-07 at cycle   9 NSaved=   9.
 NSaved= 9 IEnMin= 9 EnMin= -151.549614961451     IErMin= 9 ErrMin= 2.91D-07
 ErrMax= 2.91D-07  0.00D+00 EMaxC= 1.00D-01 BMatC= 2.54D-12 BMatP= 3.34D-11
 IDIUse=1 WtCom= 1.00D+00 WtEn= 0.00D+00
 Coeff-Com:  0.164D-04-0.364D-04-0.116D-03-0.269D-03 0.299D-02 0.205D-02
 Coeff-Com: -0.567D-01-0.531D-02 0.106D+01
 Coeff:      0.164D-04-0.364D-04-0.116D-03-0.269D-03 0.299D-02 0.205D-02
 Coeff:     -0.567D-01-0.531D-02 0.106D+01
 Gap=     0.420 Goal=   None    Shift=    0.000
 RMSDP=1.09D-07 MaxDP=8.96D-07 DE=-1.55D-10 OVMax= 2.75D-06

 Cycle  10  Pass 1  IDiag  1:
 E= -151.549614961460     Delta-E=       -0.000000000009 Rises=F Damp=F
 DIIS: error= 9.95D-08 at cycle  10 NSaved=  10.
 NSaved=10 IEnMin=10 EnMin= -151.549614961460     IErMin=10 ErrMin= 9.95D-08
 ErrMax= 9.95D-08  0.00D+00 EMaxC= 1.00D-01 BMatC= 1.90D-13 BMatP= 2.54D-12
 IDIUse=1 WtCom= 1.00D+00 WtEn= 0.00D+00
 Coeff-Com: -0.503D-05 0.112D-04 0.216D-04 0.296D-04-0.616D-03 0.321D-02
 Coeff-Com:  0.110D-01-0.510D-01-0.300D+00 0.134D+01
 Coeff:     -0.503D-05 0.112D-04 0.216D-04 0.296D-04-0.616D-03 0.321D-02
 Coeff:      0.110D-01-0.510D-01-0.300D+00 0.134D+01
 Gap=     0.420 Goal=   None    Shift=    0.000
 RMSDP=3.88D-08 MaxDP=3.15D-07 DE=-8.98D-12 OVMax= 1.13D-06

 Cycle  11  Pass 1  IDiag  1:
 E= -151.549614961461     Delta-E=       -0.000000000001 Rises=F Damp=F
 DIIS: error= 1.90D-08 at cycle  11 NSaved=  11.
 NSaved=11 IEnMin=11 EnMin= -151.549614961461     IErMin=11 ErrMin= 1.90D-08
 ErrMax= 1.90D-08  0.00D+00 EMaxC= 1.00D-01 BMatC= 1.18D-14 BMatP= 1.90D-13
 IDIUse=1 WtCom= 1.00D+00 WtEn= 0.00D+00
 Coeff-Com:  0.493D-06-0.111D-05 0.798D-06-0.272D-05 0.565D-06-0.780D-03
 Coeff-Com:  0.279D-04 0.169D-01-0.324D-01-0.176D+00 0.119D+01
 Coeff:      0.493D-06-0.111D-05 0.798D-06-0.272D-05 0.565D-06-0.780D-03
 Coeff:      0.279D-04 0.169D-01-0.324D-01-0.176D+00 0.119D+01
 Gap=     0.420 Goal=   None    Shift=    0.000
 RMSDP=5.59D-09 MaxDP=3.04D-08 DE=-9.09D-13 OVMax= 2.11D-07

 SCF Done:  E(RwB97XD) =  -151.549614961     A.U. after   11 cycles
            NFock= 11  Conv=0.56D-08     -V/T= 2.0024
 KE= 1.511893659176D+02 PE=-4.334322734623D+02 EE= 9.341783874592D+01
 Leave Link  502 at Fri Mar 15 15:13:56 2019, MaxMem=   196608000 cpu:        42.2
 (Enter /cm/shared/c3ddb/gaussian/09.d01/g09/l508.exe)
 QCSCF skips out because SCF is already converged.
 Leave Link  508 at Fri Mar 15 15:13:56 2019, MaxMem=   196608000 cpu:         0.0
 (Enter /cm/shared/c3ddb/gaussian/09.d01/g09/l801.exe)
 DoSCS=F DFT=T ScalE2(SS,OS)=  1.000000  1.000000
 Range of M.O.s used for correlation:     1    58
 NBasis=    58 NAE=     9 NBE=     9 NFC=     0 NFV=     0
 NROrb=     58 NOA=     9 NOB=     9 NVA=    49 NVB=    49

 **** Warning!!: The largest alpha MO coefficient is  0.14295777D+02

 Leave Link  801 at Fri Mar 15 15:13:56 2019, MaxMem=   196608000 cpu:         0.2
 (Enter /cm/shared/c3ddb/gaussian/09.d01/g09/l1101.exe)
 Using compressed storage, NAtomX=     4.
 Will process      5 centers per pass.
 R6Disp: Adding Grimme-D2 dispersion energy 1st derivatives to the gradient.
 Leave Link 1101 at Fri Mar 15 15:13:58 2019, MaxMem=   196608000 cpu:         7.6
 (Enter /cm/shared/c3ddb/gaussian/09.d01/g09/l1102.exe)
 Symmetrizing basis deriv contribution to polar:
 IMax=3 JMax=2 DiffMx= 0.00D+00
 Leave Link 1102 at Fri Mar 15 15:13:58 2019, MaxMem=   196608000 cpu:         0.7
 (Enter /cm/shared/c3ddb/gaussian/09.d01/g09/l1110.exe)
 Forming Gx(P) for the SCF density, NAtomX=     4.
 Integral derivatives from FoFJK, PRISM(SPDF).
 Do as many integral derivatives as possible in FoFJK.
 G2DrvN: MDV=     196607864.
 G2DrvN: will do     5 centers at a time, making    1 passes.
 Calling FoFCou, ICntrl=  3107 FMM=F I1Cent=   0 AccDes= 1.00D-12.
 FoFJK:  IHMeth= 1 ICntrl=    3107 DoSepK=T KAlg= 0 I1Cent=   0 FoldK=F
 IRaf=         1 NMat=   1 IRICut=       1 DoRegI=T DoRafI=F ISym2E= 1.
 FoFCou: FMM=F IPFlag=           0 FMFlag=      100000 FMFlg1=           0
         NFxFlg=           0 DoJE=F BraDBF=F KetDBF=F FulRan=T
         wScrn=  0.000000 ICntrl=    3507 IOpCl=  0 I1Cent=           0 NGrid=           0
         NMat0=    1 NMatS0=      1 NMatT0=    0 NMatD0=    1 NMtDS0=    0 NMtDT0=    0
 Petite list used in FoFCou.
 End of G2Drv F.D. properties file   721 does not exist.
 End of G2Drv F.D. properties file   722 does not exist.
 End of G2Drv F.D. properties file   788 does not exist.
 Leave Link 1110 at Fri Mar 15 15:14:01 2019, MaxMem=   196608000 cpu:        20.4
 (Enter /cm/shared/c3ddb/gaussian/09.d01/g09/l1002.exe)
 Minotr:  Closed shell wavefunction.
          IDoAtm=1111
          Direct CPHF calculation.
          Differentiating once with respect to electric field.
                with respect to dipole field.
          Differentiating once with respect to nuclear coordinates.
          Using symmetry in CPHF.
          Requested convergence is 1.0D-08 RMS, and 1.0D-07 maximum.
          Secondary convergence is 1.0D-12 RMS, and 1.0D-12 maximum.
          NewPWx=T KeepS1=F KeepF1=F KeepIn=T MapXYZ=F SortEE=F KeepMc=T.
          MDV=     196607898 using IRadAn=       1.
 Generate precomputed XC quadrature information.
 Keep R1 ints in memory in symmetry-blocked form, NReq=4401058.
 FoFCou: FMM=F IPFlag=           0 FMFlag=           0 FMFlg1=           0
         NFxFlg=           0 DoJE=F BraDBF=F KetDBF=F FulRan=T
         wScrn=  0.000000 ICntrl=     600 IOpCl=  0 I1Cent=           0 NGrid=           0
         NMat0=    1 NMatS0=   1711 NMatT0=    0 NMatD0=    1 NMtDS0=    0 NMtDT0=    0
 Petite list used in FoFCou.
          Solving linear equations simultaneously, MaxMat=       0.
          There are     9 degrees of freedom in the 1st order CPHF.  IDoFFX=4 NUNeed=     9.
      9 vectors produced by pass  0 Test12= 4.90D-15 1.11D-08 XBig12= 5.16D+00 1.14D+00.
 AX will form     9 AO Fock derivatives at one time.
      9 vectors produced by pass  1 Test12= 4.90D-15 1.11D-08 XBig12= 6.82D-01 2.63D-01.
      9 vectors produced by pass  2 Test12= 4.90D-15 1.11D-08 XBig12= 2.47D-02 5.20D-02.
      9 vectors produced by pass  3 Test12= 4.90D-15 1.11D-08 XBig12= 3.82D-04 6.00D-03.
      9 vectors produced by pass  4 Test12= 4.90D-15 1.11D-08 XBig12= 2.67D-06 4.11D-04.
      9 vectors produced by pass  5 Test12= 4.90D-15 1.11D-08 XBig12= 1.63D-08 3.48D-05.
      9 vectors produced by pass  6 Test12= 4.90D-15 1.11D-08 XBig12= 1.12D-10 3.12D-06.
      3 vectors produced by pass  7 Test12= 4.90D-15 1.11D-08 XBig12= 7.10D-13 2.57D-07.
      1 vectors produced by pass  8 Test12= 4.90D-15 1.11D-08 XBig12= 4.00D-15 1.77D-08.
 InvSVY:  IOpt=1 It=  1 EMax= 4.98D-16
 Solved reduced A of dimension    67 with     9 vectors.
 FullF1:  Do perturbations    1 to     9.
 Isotropic polarizability for W=    0.000000       12.28 Bohr**3.
 End of Minotr F.D. properties file   721 does not exist.
 End of Minotr F.D. properties file   722 does not exist.
 End of Minotr F.D. properties file   788 does not exist.
 Leave Link 1002 at Fri Mar 15 15:14:13 2019, MaxMem=   196608000 cpu:        71.4
 (Enter /cm/shared/c3ddb/gaussian/09.d01/g09/l601.exe)
 Copying SCF densities to generalized density rwf, IOpCl= 0 IROHF=0.

 **********************************************************************

            Population analysis using the SCF density.

 **********************************************************************

 Orbital symmetries:
       Occupied  (A) (B) (A) (B) (A) (B) (A) (A) (B)
       Virtual   (A) (B) (B) (A) (B) (A) (B) (A) (A) (B) (B) (A)
                 (B) (B) (A) (B) (A) (A) (B) (B) (A) (B) (A) (A)
                 (B) (B) (A) (A) (B) (B) (A) (A) (A) (B) (A) (B)
                 (B) (A) (B) (A) (B) (A) (A) (B) (B) (A) (B) (A)
                 (B)
 The electronic state is 1-A.
 Alpha  occ. eigenvalues --  -19.31495 -19.31489  -1.24679  -1.00973  -0.63913
 Alpha  occ. eigenvalues --   -0.59964  -0.52323  -0.42411  -0.37486
 Alpha virt. eigenvalues --    0.04505   0.05426   0.11054   0.20099   0.21032
 Alpha virt. eigenvalues --    0.22517   0.23135   0.26407   0.27868   0.27982
 Alpha virt. eigenvalues --    0.30038   0.33750   0.40044   0.59207   0.60107
 Alpha virt. eigenvalues --    1.02615   1.04205   1.04534   1.08727   1.10984
 Alpha virt. eigenvalues --    1.16507   1.35149   1.37661   1.49653   1.50521
 Alpha virt. eigenvalues --    1.59330   1.69287   2.09027   2.11256   2.51854
 Alpha virt. eigenvalues --    2.59206   2.66504   2.71885   2.82743   3.16593
 Alpha virt. eigenvalues --    3.19539   3.31666   3.42694   3.72254   3.82413
 Alpha virt. eigenvalues --    3.98615   4.85743   4.98943   5.04628   5.42363
 Alpha virt. eigenvalues --    5.57373   5.80054  49.92958  49.94595
          Condensed to atoms (all electrons):
               1          2          3          4
     1  O    7.962065   0.079064   0.262747  -0.035780
     2  O    0.079064   7.962065  -0.035780   0.262747
     3  H    0.262747  -0.035780   0.504700   0.000237
     4  H   -0.035780   0.262747   0.000237   0.504700
 Mulliken charges:
               1
     1  O   -0.268096
     2  O   -0.268096
     3  H    0.268096
     4  H    0.268096
 Sum of Mulliken charges =   0.00000
 Mulliken charges with hydrogens summed into heavy atoms:
               1
     1  O    0.000000
     2  O    0.000000
 APT charges:
               1
     1  O   -0.269041
     2  O   -0.269041
     3  H    0.269041
     4  H    0.269041
 Sum of APT charges =   0.00000
 APT charges with hydrogens summed into heavy atoms:
               1
     1  O    0.000000
     2  O    0.000000
 Electronic spatial extent (au):  <R**2>=             65.7595
 Charge=              0.0000 electrons
 Dipole moment (field-independent basis, Debye):
    X=              0.0000    Y=              0.0000    Z=              1.8001  Tot=              1.8001
 Quadrupole moment (field-independent basis, Debye-Ang):
   XX=             -9.5060   YY=            -11.6246   ZZ=            -12.0898
   XY=              3.2653   XZ=              0.0000   YZ=              0.0000
 Traceless Quadrupole moment (field-independent basis, Debye-Ang):
   XX=              1.5675   YY=             -0.5511   ZZ=             -1.0163
   XY=              3.2653   XZ=              0.0000   YZ=              0.0000
 Octapole moment (field-independent basis, Debye-Ang**2):
  XXX=              0.0000  YYY=              0.0000  ZZZ=              1.1320  XYY=              0.0000
  XXY=              0.0000  XXZ=              1.3952  XZZ=              0.0000  YZZ=              0.0000
  YYZ=              1.9731  XYZ=              1.6608
 Hexadecapole moment (field-independent basis, Debye-Ang**3):
 XXXX=            -10.4902 YYYY=            -44.8703 ZZZZ=            -11.5088 XXXY=              0.6818
 XXXZ=              0.0000 YYYX=              1.6621 YYYZ=              0.0000 ZZZX=              0.0000
 ZZZY=              0.0000 XXYY=             -8.3564 XXZZ=             -3.4326 YYZZ=            -10.2666
 XXYZ=              0.0000 YYXZ=              0.0000 ZZXY=              0.0660
 N-N= 3.727545383727D+01 E-N=-4.334322731119D+02  KE= 1.511893659176D+02
 Symmetry A    KE= 7.743441581025D+01
 Symmetry B    KE= 7.375495010739D+01
  Exact polarizability:  11.211   1.670  15.557   0.000   0.000  10.074
 Approx polarizability:  10.919   1.459  15.481   0.000   0.000   9.255
 No NMR shielding tensors so no spin-rotation constants.
 Leave Link  601 at Fri Mar 15 15:14:16 2019, MaxMem=   196608000 cpu:        11.5
 (Enter /cm/shared/c3ddb/gaussian/09.d01/g09/l701.exe)
 Compute integral second derivatives.
 ... and contract with generalized density number  0.
 R6Disp: Adding Grimme-D2 dispersion energy 2nd derivatives to the Hessian.
 Entering OneElI...
 Calculate overlap and kinetic energy integrals
    NBasis =  60  MinDer = 2  MaxDer = 2
 Requested accuracy = 0.1000D-14
 PrsmSu:  NPrtUS=   8 ThrOK=T IAlg=1 NPAlg=1 LenDen=           0.
 Prism:   IPart=     0 DynPar=F LinDyn=F Incr=           1.
 PRISM was handed    24565349 working-precision words and   253 shell-pairs
 PRISM was handed    24565349 working-precision words and   253 shell-pairs
 PRISM was handed    24565349 working-precision words and   253 shell-pairs
 PRISM was handed    24565349 working-precision words and   253 shell-pairs
 PRISM was handed    24565349 working-precision words and   253 shell-pairs
 PRISM was handed    24565349 working-precision words and   253 shell-pairs
 PRISM was handed    24565349 working-precision words and   253 shell-pairs
 PRISM was handed    24565349 working-precision words and   253 shell-pairs
 IPart=  6 NShTot=          19 NBatch=          12 AvBLen=         1.6
 IPart=  0 NShTot=          50 NBatch=          32 AvBLen=         1.6
 IPart=  5 NShTot=          19 NBatch=          12 AvBLen=         1.6
 IPart=  3 NShTot=          37 NBatch=          19 AvBLen=         1.9
 IPart=  7 NShTot=          19 NBatch=          12 AvBLen=         1.6
 IPart=  2 NShTot=          39 NBatch=          21 AvBLen=         1.9
 IPart=  4 NShTot=          22 NBatch=          12 AvBLen=         1.8
 IPart=  1 NShTot=          48 NBatch=          30 AvBLen=         1.6
 PrSmSu:  NxtVal=              9.
 Entering OneElI...
 Calculate potential energy integrals
    NBasis =  60  MinDer = 2  MaxDer = 2
 Requested accuracy = 0.1000D-14
 PrsmSu:  NPrtUS=   8 ThrOK=T IAlg=1 NPAlg=1 LenDen=           0.
 Prism:   IPart=     0 DynPar=F LinDyn=F Incr=           1.
 PRISM was handed    24566081 working-precision words and   253 shell-pairs
 PRISM was handed    24566081 working-precision words and   253 shell-pairs
 PRISM was handed    24566081 working-precision words and   253 shell-pairs
 PRISM was handed    24566081 working-precision words and   253 shell-pairs
 PRISM was handed    24566081 working-precision words and   253 shell-pairs
 PRISM was handed    24566081 working-precision words and   253 shell-pairs
 PRISM was handed    24566081 working-precision words and   253 shell-pairs
 PRISM was handed    24566081 working-precision words and   253 shell-pairs
 IPart=  0 NShTot=         200 NBatch=          50 AvBLen=         4.0
 IPart=  6 NShTot=          76 NBatch=          19 AvBLen=         4.0
 IPart=  5 NShTot=          76 NBatch=          19 AvBLen=         4.0
 IPart=  3 NShTot=         152 NBatch=          38 AvBLen=         4.0
 IPart=  7 NShTot=          76 NBatch=          19 AvBLen=         4.0
 IPart=  4 NShTot=          84 NBatch=          21 AvBLen=         4.0
 IPart=  2 NShTot=         160 NBatch=          40 AvBLen=         4.0
 IPart=  1 NShTot=         188 NBatch=          47 AvBLen=         4.0
 PrSmSu:  NxtVal=              9.
 Polarizability after L701:
                1             2             3 
      1  0.112105D+02
      2  0.167036D+01  0.155569D+02
      3  0.000000D+00  0.000000D+00  0.100736D+02
 Dipole Derivatives after L701:
                 1             2             3             4             5 
      1  -0.242621D+00 -0.303123D-01  0.130940D+00 -0.242621D+00 -0.303123D-01
      2  -0.332249D-01 -0.232011D+00 -0.131821D+00 -0.332249D-01 -0.232011D+00
      3   0.146601D+00 -0.145061D-01 -0.332492D+00 -0.146601D+00  0.145061D-01
                 6             7             8             9            10 
      1  -0.130940D+00  0.242621D+00  0.303123D-01 -0.876973D-01  0.242621D+00
      2   0.131821D+00  0.332249D-01  0.232011D+00  0.195298D-01  0.332249D-01
      3  -0.332493D+00 -0.905559D-01  0.283627D-01  0.332492D+00  0.905559D-01
                11            12 
      1   0.303123D-01  0.876973D-01
      2   0.232011D+00 -0.195298D-01
      3  -0.283627D-01  0.332493D+00
 Hessian after L701:
                1             2             3             4             5 
      1  0.626797D+01
      2 -0.770382D+00 -0.266773D+00
      3 -0.133186D+01 -0.270450D+00  0.732548D+01
      4 -0.471043D+01 -0.682414D-01  0.182479D-01  0.626797D+01
      5 -0.682414D-01  0.426568D+01 -0.592098D-01 -0.770382D+00 -0.266773D+00
      6 -0.182479D-01  0.592098D-01 -0.412909D+01  0.133186D+01  0.270450D+00
      7 -0.174014D+01  0.690876D+00  0.150047D+01  0.182602D+00  0.147747D+00
      8  0.803262D+00 -0.381147D+01  0.464528D+00  0.353618D-01 -0.187429D+00
      9  0.150291D+01  0.394082D+00 -0.332652D+01  0.152797D+00  0.182842D+00
     10  0.182602D+00  0.147747D+00 -0.186859D+00 -0.174014D+01  0.690876D+00
     11  0.353618D-01 -0.187429D+00 -0.134869D+00  0.803262D+00 -0.381147D+01
     12 -0.152797D+00 -0.182842D+00  0.130137D+00 -0.150291D+01 -0.394082D+00
                6             7             8             9            10 
      6  0.732548D+01
      7  0.186859D+00  0.152175D+01
      8  0.134869D+00 -0.870517D+00  0.398511D+01
      9  0.130137D+00 -0.167152D+01 -0.588160D+00  0.321225D+01
     10 -0.150047D+01  0.357900D-01  0.318929D-01  0.158146D-01  0.152175D+01
     11 -0.464528D+00  0.318929D-01  0.137915D-01  0.112365D-01 -0.870517D+00
     12 -0.332652D+01 -0.158146D-01 -0.112365D-01 -0.158579D-01  0.167152D+01
               11            12 
     11  0.398511D+01
     12  0.588160D+00  0.321225D+01
 Leave Link  701 at Fri Mar 15 15:14:17 2019, MaxMem=   196608000 cpu:         7.2
 (Enter /cm/shared/c3ddb/gaussian/09.d01/g09/l702.exe)
 L702 exits ... SP integral derivatives will be done elsewhere.
 Leave Link  702 at Fri Mar 15 15:14:17 2019, MaxMem=   196608000 cpu:         0.1
 (Enter /cm/shared/c3ddb/gaussian/09.d01/g09/l703.exe)
 Compute integral second derivatives, UseDBF=F ICtDFT=           0.
 Integral derivatives from FoFJK, PRISM(SPDF).
 ICntrl=    100127.
 Calling FoFJK, ICntrl=    100127 FMM=F ISym2X=1 I1Cent= 0 IOpClX= 0 NMat=1 NMatS=1 NMatT=0.
 FoFJK:  IHMeth= 1 ICntrl=  100127 DoSepK=T KAlg= 0 I1Cent=   0 FoldK=F
 IRaf=         1 NMat=   1 IRICut=       1 DoRegI=T DoRafI=F ISym2E= 1.
 FoFCou: FMM=F IPFlag=           0 FMFlag=      100000 FMFlg1=         800
         NFxFlg=           0 DoJE=F BraDBF=F KetDBF=F FulRan=T
         wScrn=  0.000000 ICntrl=  100527 IOpCl=  0 I1Cent=           0 NGrid=           0
         NMat0=    1 NMatS0=      1 NMatT0=    0 NMatD0=    1 NMtDS0=    0 NMtDT0=    0
 Petite list used in FoFCou.
 FoFCou:  KetSym=F NOpSet=  2 NOpAb=2 NOp=  2.
 FoFCou:  CnvScl= 1.00D+00 Thresh= 1.00D-12 IAcrcy=      10.
 PrismS was handed   196580348 working-precision words and   253 shell-pairs
 FoFCou: LinMIO=F DoNuc=F BraDBF=F KetDBF=F HaveP=T PDBF=F HaveZ=T HaveW=F
         NIJTC =      10 NIJTAt=       0 NIJTCD=       0 NIJTT =      10
         IJTBeg=       1 IJTEnd=      10 KLTBeg=       1 KLTEnd=      10
         IPTBeg=       1 IPTEnd=      10 IPTBCv=       1 IPTECv=      10
         IZTBeg=       1 IZTEnd=      10 IZTBCv=       1 IZTECv=      10
         IWTBeg=      11 IWTEnd=      10 IWTBCv=      11 IWTECv=      10
         INTBeg=       1 INTEnd=       0 IFTBCv=       1 IFTECv=      10
 NCel replicated for PrismC:     1
 CoulSu:  IncDef=  1024 NBBP=          32131 NTPThr=   100 NPartT=    8 Incr=          40 LDynOK=F.
 CoulSu:  NPrtUS=   8 ThrOK=T IAlg=1 NPAlg=1 LenDen=           0 LWGrdD=           0 DoCopy=F.
 Enter PrismC: JobTyp=22 DoJE=F Cont=F.
 Enter PrismC: JobTyp=22 DoJE=F Cont=F.
 Enter PrismC: JobTyp=22 DoJE=F Cont=F.
 Enter PrismC: JobTyp=22 DoJE=F Cont=F.
 PrismC:  IPart=     0 DynPar=F LinDyn=F Incr=          40 UseFst=F UseS4=T IGathr=2.
 PrismC was handed    24565948 working-precision words and   253 shell-pairs
 Enter PrismC: JobTyp=22 DoJE=F Cont=F.
 PrismC was handed    24565948 working-precision words and   253 shell-pairs
 PrismC was handed    24565948 working-precision words and   253 shell-pairs
 PrismC was handed    24565948 working-precision words and   253 shell-pairs
 PrismC was handed    24565948 working-precision words and   253 shell-pairs
 Enter PrismC: JobTyp=22 DoJE=F Cont=F.
 PrismC was handed    24565948 working-precision words and   253 shell-pairs
 Enter PrismC: JobTyp=22 DoJE=F Cont=F.
 PrismC was handed    24565948 working-precision words and   253 shell-pairs
 Enter PrismC: JobTyp=22 DoJE=F Cont=F.
 PrismC was handed    24565948 working-precision words and   253 shell-pairs
 IPart=  6 NShTot=        1902 NShNF=        1902 NShFF=           0 NBatch=         368 AvBLen=         5.2
 IPart=  0 NShTot=        2137 NShNF=        2137 NShFF=           0 NBatch=         500 AvBLen=         4.3
 IPart=  5 NShTot=        1911 NShNF=        1911 NShFF=           0 NBatch=         386 AvBLen=         5.0
 IPart=  3 NShTot=        2108 NShNF=        2108 NShFF=           0 NBatch=         457 AvBLen=         4.6
 IPart=  7 NShTot=        1906 NShNF=        1906 NShFF=           0 NBatch=         367 AvBLen=         5.2
 IPart=  4 NShTot=        1912 NShNF=        1912 NShFF=           0 NBatch=         385 AvBLen=         5.0
 IPart=  2 NShTot=        2096 NShNF=        2096 NShFF=           0 NBatch=         462 AvBLen=         4.5
 IPart=  1 NShTot=        2176 NShNF=        2176 NShFF=           0 NBatch=         528 AvBLen=         4.1
 CoulSu:  NxtVal=            321.
 FoFCou: FMM=F IPFlag=           0 FMFlag=      100000 FMFlg1=         800
         NFxFlg=           0 DoJE=F BraDBF=F KetDBF=F FulRan=T
         wScrn=  0.000000 ICntrl=  100127 IOpCl=  0 I1Cent=           0 NGrid=           0
         NMat0=    1 NMatS0=      0 NMatT0=    1 NMatD0=    1 NMtDS0=    0 NMtDT0=    0
         CW=    0.222036    0.777964
         WU=    0.000000   12.500000
 Petite list used in FoFCou.
 FoFCou:  KetSym=F NOpSet=  2 NOpAb=2 NOp=  2.
 FoFCou:  CnvScl= 1.00D+00 Thresh= 1.00D-12 IAcrcy=      10.
 PrismS was handed   196580376 working-precision words and   253 shell-pairs
 FoFCou: LinMIO=F DoNuc=F BraDBF=F KetDBF=F HaveP=T PDBF=F HaveZ=T HaveW=F
         NIJTC =      10 NIJTAt=       0 NIJTCD=       0 NIJTT =      10
         IJTBeg=       1 IJTEnd=      10 KLTBeg=       1 KLTEnd=      10
         IPTBeg=       1 IPTEnd=      10 IPTBCv=       1 IPTECv=      10
         IZTBeg=       1 IZTEnd=      10 IZTBCv=       1 IZTECv=      10
         IWTBeg=      11 IWTEnd=      10 IWTBCv=      11 IWTECv=      10
         INTBeg=       1 INTEnd=       0 IFTBCv=       1 IFTECv=      10
 NCel replicated for PrismC:     1
 CoulSu:  IncDef=  1024 NBBP=          32131 NTPThr=   100 NPartT=    8 Incr=          40 LDynOK=F.
 CoulSu:  NPrtUS=   8 ThrOK=T IAlg=1 NPAlg=1 LenDen=           0 LWGrdD=           0 DoCopy=F.
 Enter PrismC: JobTyp=22 DoJE=F Cont=F.
 Enter PrismC: JobTyp=22 DoJE=F Cont=F.
 Enter PrismC: JobTyp=22 DoJE=F Cont=F.
 Linear combination for Coulomb/exchange, wScrn=  0.000000
 CW=    0.222036    0.777964
 WU=    0.000000   12.500000
 Enter PrismC: JobTyp=22 DoJE=F Cont=F.
 Enter PrismC: JobTyp=22 DoJE=F Cont=F.
 PrismC was handed    24565952 working-precision words and   253 shell-pairs
 Linear combination for Coulomb/exchange, wScrn=  0.000000
 CW=    0.222036    0.777964
 WU=    0.000000   12.500000
 Linear combination for Coulomb/exchange, wScrn=  0.000000
 CW=    0.222036    0.777964
 WU=    0.000000   12.500000
 PrismC was handed    24565952 working-precision words and   253 shell-pairs
 Linear combination for Coulomb/exchange, wScrn=  0.000000
 CW=    0.222036    0.777964
 WU=    0.000000   12.500000
 Linear combination for Coulomb/exchange, wScrn=  0.000000
 CW=    0.222036    0.777964
 WU=    0.000000   12.500000
 PrismC:  IPart=     0 DynPar=F LinDyn=F Incr=          40 UseFst=F UseS4=T IGathr=2.
 PrismC was handed    24565952 working-precision words and   253 shell-pairs
 PrismC was handed    24565952 working-precision words and   253 shell-pairs
 PrismC was handed    24565952 working-precision words and   253 shell-pairs
 Enter PrismC: JobTyp=22 DoJE=F Cont=F.
 Linear combination for Coulomb/exchange, wScrn=  0.000000
 CW=    0.222036    0.777964
 WU=    0.000000   12.500000
 PrismC was handed    24565952 working-precision words and   253 shell-pairs
 Enter PrismC: JobTyp=22 DoJE=F Cont=F.
 Enter PrismC: JobTyp=22 DoJE=F Cont=F.
 Linear combination for Coulomb/exchange, wScrn=  0.000000
 CW=    0.222036    0.777964
 WU=    0.000000   12.500000
 Linear combination for Coulomb/exchange, wScrn=  0.000000
 CW=    0.222036    0.777964
 WU=    0.000000   12.500000
 PrismC was handed    24565952 working-precision words and   253 shell-pairs
 PrismC was handed    24565952 working-precision words and   253 shell-pairs
 IPart=  6 NShTot=        1903 NShNF=        1903 NShFF=           0 NBatch=         373 AvBLen=         5.1
 IPart=  0 NShTot=        2139 NShNF=        2139 NShFF=           0 NBatch=         506 AvBLen=         4.2
 IPart=  5 NShTot=        1911 NShNF=        1911 NShFF=           0 NBatch=         389 AvBLen=         4.9
 IPart=  3 NShTot=        2108 NShNF=        2108 NShFF=           0 NBatch=         461 AvBLen=         4.6
 IPart=  7 NShTot=        1906 NShNF=        1906 NShFF=           0 NBatch=         371 AvBLen=         5.1
 IPart=  4 NShTot=        1912 NShNF=        1912 NShFF=           0 NBatch=         388 AvBLen=         4.9
 IPart=  2 NShTot=        2096 NShNF=        2096 NShFF=           0 NBatch=         466 AvBLen=         4.5
 IPart=  1 NShTot=        2177 NShNF=        2177 NShFF=           0 NBatch=         533 AvBLen=         4.1
 CoulSu:  NxtVal=            321.
 ReadGW:  IGet=0 IStart=           1 Next=           1 LGW=           0.
 Remaining memory in FofDFT      187.50 Mw
 CkSvGd:  ISavGI=        -1 IRadAn=       5 IRASav=       5 ISavGd=        -1.
 CalDSu:  NPrtUS=   8 ThrOK=T IAlg=1 NPAlg=2 DoDPD=T LenP=        1830 LenD1P=             0.
 IPart=  0 IRanGd=          0 ScrnBf=T ScrnGd=T RCrit=4.00D+00 DoMicB=T.
 IPart=  4         3411 of         3568 points in       4 batches and       11 microbatches, Max-NSigAt=       4 Max-NSgAt2=       4
 IPart=  3         5918 of         6090 points in       5 batches and       31 microbatches, Max-NSigAt=       4 Max-NSgAt2=       4
 IPart=  2         3375 of         3568 points in       4 batches and       18 microbatches, Max-NSigAt=       4 Max-NSgAt2=       4
 IPart=  5         7118 of         7536 points in       7 batches and       38 microbatches, Max-NSigAt=       4 Max-NSgAt2=       4
 IPart=  6         8780 of         9264 points in       9 batches and       69 microbatches, Max-NSigAt=       4 Max-NSgAt2=       4
 IPart=  7         3397 of         3568 points in       4 batches and       15 microbatches, Max-NSigAt=       4 Max-NSgAt2=       4
 IPart=  0         8563 of         9116 points in       7 batches and       51 microbatches, Max-NSigAt=       4 Max-NSgAt2=       4
 IPart=  1         3394 of         3568 points in       4 batches and       38 microbatches, Max-NSigAt=       4 Max-NSgAt2=       4
 Polarizability after L703:
                1             2             3 
      1  0.112105D+02
      2  0.167036D+01  0.155569D+02
      3  0.000000D+00  0.000000D+00  0.100736D+02
 Dipole Derivatives after L703:
                 1             2             3             4             5 
      1  -0.242621D+00 -0.303123D-01  0.130940D+00 -0.242621D+00 -0.303123D-01
      2  -0.332249D-01 -0.232011D+00 -0.131821D+00 -0.332249D-01 -0.232011D+00
      3   0.146601D+00 -0.145061D-01 -0.332492D+00 -0.146601D+00  0.145061D-01
                 6             7             8             9            10 
      1  -0.130940D+00  0.242621D+00  0.303123D-01 -0.876973D-01  0.242621D+00
      2   0.131821D+00  0.332249D-01  0.232011D+00  0.195298D-01  0.332249D-01
      3  -0.332493D+00 -0.905559D-01  0.283627D-01  0.332492D+00  0.905559D-01
                11            12 
      1   0.303123D-01  0.876973D-01
      2   0.232011D+00 -0.195298D-01
      3  -0.283627D-01  0.332493D+00
 Hessian after L703:
                1             2             3             4             5 
      1  0.451126D+00
      2  0.898465D-01  0.359322D+00
      3  0.235643D+00  0.257944D-01  0.153444D+00
      4 -0.662728D-01 -0.147171D-01 -0.127834D-02  0.451126D+00
      5 -0.147171D-01 -0.280713D+00 -0.228924D-01  0.898465D-01  0.359322D+00
      6  0.127834D-02  0.228924D-01 -0.180286D-01 -0.235643D+00 -0.257944D-01
      7 -0.393098D+00 -0.869338D-01 -0.228375D+00  0.824543D-02  0.118044D-01
      8 -0.325812D-01 -0.479989D-01 -0.205003D-01 -0.425483D-01 -0.306101D-01
      9 -0.231353D+00 -0.463894D-01 -0.136470D+00  0.556858D-02  0.229752D-02
     10  0.824543D-02  0.118044D-01 -0.598977D-02 -0.393098D+00 -0.869338D-01
     11 -0.425483D-01 -0.306101D-01  0.175983D-01 -0.325812D-01 -0.479989D-01
     12 -0.556858D-02 -0.229752D-02  0.105444D-02  0.231353D+00  0.463894D-01
                6             7             8             9            10 
      6  0.153444D+00
      7  0.598977D-02  0.386144D+00
      8 -0.175983D-01  0.757369D-01  0.858041D-01
      9  0.105444D-02  0.224085D+00  0.410952D-01  0.133953D+00
     10  0.228375D+00 -0.129095D-02 -0.607436D-03  0.169952D-02  0.386144D+00
     11  0.205003D-01 -0.607436D-03 -0.719514D-02  0.299663D-02  0.757369D-01
     12 -0.136470D+00 -0.169952D-02 -0.299663D-02  0.146198D-02 -0.224085D+00
               11            12 
     11  0.858041D-01
     12 -0.410952D-01  0.133953D+00
 Leave Link  703 at Fri Mar 15 15:14:23 2019, MaxMem=   196608000 cpu:        31.6
 (Enter /cm/shared/c3ddb/gaussian/09.d01/g09/l716.exe)
 FrcOut:
 IF    =    33 IFX   =    45 IFXYZ =    57
 IFFX  =    69 IFFFX =   147 IFLen =    12
 IFFLen=    78 IFFFLn=     0 IEDerv=   147
 LEDerv=   629 IFroze=   934 ICStrt=  7831
 Dipole        = 1.83880688D-16 1.87697080D-15 7.08204713D-01
 DipoleDeriv   =-2.42620807D-01-3.32248615D-02 1.46601424D-01
                -3.03122852D-02-2.32010995D-01-1.45060739D-02
                 1.30940211D-01-1.31820809D-01-3.32492484D-01
                -2.42620802D-01-3.32248715D-02-1.46601432D-01
                -3.03122884D-02-2.32010989D-01 1.45060791D-02
                -1.30940226D-01 1.31820837D-01-3.32492518D-01
                 2.42620809D-01 3.32248646D-02-9.05559343D-02
                 3.03122841D-02 2.32010996D-01 2.83626669D-02
                -8.76972719D-02 1.95298204D-02 3.32492494D-01
                 2.42620802D-01 3.32248760D-02 9.05559426D-02
                 3.03122824D-02 2.32010999D-01-2.83626721D-02
                 8.76972875D-02-1.95298486D-02 3.32492504D-01
 Polarizability= 1.12105098D+01 1.67035915D+00 1.55569030D+01
                -2.32195978D-08 4.56464329D-08 1.00735588D+01
 VibFq2-Diag1:  N=     12 IV=           5 MDV=   196599421 NE2=    16383284
 Full mass-weighted force constant matrix:
 Low frequencies ---  -10.7013   -4.4999   -0.0019   -0.0011   -0.0009   24.8333
 Low frequencies ---  386.6449 1009.4804 1336.6894
 OrtVCM:  Ph=1 IPass= 1 DotMx1= 0.00D+00
 OrtVCM:  IS=    1 I=    1 IndO=    1 Dot= 1.00D+00 DotN= 1.00D+00 ElMax1= 6.86D-01 ElMax1N= 6.86D-01
 OrtVCM:  Ph=2 NNew=    0 IAdd=    2 IPass= 1 DotMx2= 0.00D+00
 OrtVCM:  IS=    1 I=    2 IndO=    2 Dot= 1.00D+00 DotN= 1.00D+00 ElMax1= 6.86D-01 ElMax1N= 6.86D-01
 OrtVCM:  Ph=2 NNew=    0 IAdd=    3 IPass= 1 DotMx2= 0.00D+00
 OrtVCM:  IS=    1 I=    3 IndO=    3 Dot= 1.00D+00 DotN= 1.00D+00 ElMax1= 6.86D-01 ElMax1N= 6.86D-01
 OrtVCM:  Ph=2 NNew=    0 IAdd=    4 IPass= 1 DotMx2= 0.00D+00
 OrtVCM:  IS=    1 I=    4 IndO=    4 Dot= 1.00D+00 DotN= 1.00D+00 ElMax1= 5.74D-01 ElMax1N= 5.74D-01
 OrtVCM:  Ph=2 NNew=    0 IAdd=    5 IPass= 1 DotMx2= 6.94D-16
 OrtVCM:  IS=    1 I=    5 IndO=    5 Dot= 1.00D+00 DotN= 1.00D+00 ElMax1= 6.61D-01 ElMax1N= 6.61D-01
 OrtVCM:  Ph=2 NNew=    0 IAdd=    6 IPass= 1 DotMx2= 6.25D-17
 OrtVCM:  IS=    1 I=    6 IndO=    6 Dot= 1.00D+00 DotN= 1.00D+00 ElMax1= 6.50D-01 ElMax1N= 6.50D-01
 OrtVCM:  Ph=1 IPass= 1 DotMx1= 6.86D-01
 OrtVCM:  Ph=1 IPass= 2 DotMx1= 2.05D-16
 OrtVCM:  IS=    1 I=    1 IndO=    7 Dot= 9.89D-02 DotN= 9.89D-02 ElMax1= 2.21D-01 ElMax1N= 2.21D-01
 OrtVCM:  Ph=2 NNew=    0 IAdd=    2 IPass= 1 DotMx2= 1.99D-03
 OrtVCM:  Ph=2 NNew=    0 IAdd=    2 IPass= 2 DotMx2= 2.60D-18
 OrtVCM:  IS=    1 I=    2 IndO=    8 Dot= 5.29D-01 DotN= 5.29D-01 ElMax1= 5.29D-01 ElMax1N= 5.29D-01
 OrtVCM:  Ph=2 NNew=    0 IAdd=    3 IPass= 1 DotMx2= 5.01D-02
 OrtVCM:  Ph=2 NNew=    0 IAdd=    3 IPass= 2 DotMx2= 1.56D-17
 OrtVCM:  IS=    1 I=    3 IndO=    9 Dot= 5.07D-02 DotN= 5.07D-02 ElMax1= 1.47D-01 ElMax1N= 1.47D-01
 OrtVCM:  Ph=2 NNew=    0 IAdd=    4 IPass= 1 DotMx2= 1.76D-01
 OrtVCM:  Ph=2 NNew=    0 IAdd=    4 IPass= 2 DotMx2= 2.78D-17
 OrtVCM:  IS=    1 I=    4 IndO=   10 Dot= 5.62D-02 DotN= 5.62D-02 ElMax1= 1.61D-01 ElMax1N= 1.61D-01
 OrtVCM:  Ph=2 NNew=    0 IAdd=    5 IPass= 1 DotMx2= 6.48D-01
 OrtVCM:  Ph=2 NNew=    0 IAdd=    5 IPass= 2 DotMx2= 1.33D-16
 OrtVCM:  IS=    1 I=    5 IndO=   11 Dot= 7.73D-02 DotN= 7.73D-02 ElMax1= 1.54D-01 ElMax1N= 1.54D-01
 OrtVCM:  Ph=2 NNew=    0 IAdd=    6 IPass= 1 DotMx2= 1.86D-01
 OrtVCM:  Ph=2 NNew=    0 IAdd=    6 IPass= 2 DotMx2= 2.88D-17
 OrtVCM:  IS=    1 I=    6 IndO=    0 Dot= 4.32D-33 DotN= 4.32D-33 ElMax1= 3.31D-17 ElMax1N= 3.31D-17
 SchOr2:  IPass= 1 Test2A= 1.00D-01 IOff=     0 NDo=     6 NNew=     5
 OrtVCM:  Ph=1 IPass= 1 DotMx1= 7.02D-01
 OrtVCM:  Ph=1 IPass= 2 DotMx1= 1.02D-16
 OrtVCM:  IS=    1 I=    1 IndO=   12 Dot= 2.25D-01 DotN= 2.25D-01 ElMax1= 2.49D-01 ElMax1N= 2.49D-01
 SchOr2:  IPass= 1 Test2A= 1.00D-01 IOff=     6 NDo=     1 NNew=     1
 VibFq2-Diag2:  N=      6 IV=           5 MDV=   196599421 NE2=    32766569
 Dipole derivatives wrt mode   1: -2.29673D-07  4.19280D-07 -1.51699D+01
 Vibrational polarizability contributions from mode   1       0.0000000       0.0000000      41.4259166
 Vibrational hyperpolarizability contributions from mode   1       0.0000000       0.0000000       0.0000000
 Dipole derivatives wrt mode   2:  4.86429D-08 -8.80406D-08  9.74749D-01
 Vibrational polarizability contributions from mode   2       0.0000000       0.0000000       0.0250913
 Vibrational hyperpolarizability contributions from mode   2       0.0000000       0.0000000       0.0000000
 Dipole derivatives wrt mode   3: -3.64107D-01 -9.65665D+00  8.79198D-08
 Vibrational polarizability contributions from mode   3       0.0019968       1.4045109       0.0000000
 Vibrational hyperpolarizability contributions from mode   3       0.0000000       0.0000000       0.0000000
 Dipole derivatives wrt mode   4: -2.21231D-08  3.64528D-08  1.29173D-01
 Vibrational polarizability contributions from mode   4       0.0000000       0.0000000       0.0002026
 Vibrational hyperpolarizability contributions from mode   4       0.0000000       0.0000000       0.0000000
 Dipole derivatives wrt mode   5: -7.54141D+00 -3.81815D+00 -2.14860D-09
 Vibrational polarizability contributions from mode   5       0.1028079       0.0263528       0.0000000
 Vibrational hyperpolarizability contributions from mode   5       0.0000000       0.0000000       0.0000000
 Dipole derivatives wrt mode   6:  3.11797D-07 -5.40339D-07  4.04051D+00
 Vibrational polarizability contributions from mode   6       0.0000000       0.0000000       0.0294900
 Vibrational hyperpolarizability contributions from mode   6       0.0000000       0.0000000       0.0000000
 Diagonal vibrational polarizability:
        0.1048046       1.4308637      41.4807005
 NorSel:  MapVib=      1      2      3      4      5      6
 Harmonic frequencies (cm**-1), IR intensities (KM/Mole), Raman scattering
 activities (A**4/AMU), depolarization ratios for plane and unpolarized
 incident light, reduced masses (AMU), force constants (mDyne/A),
 and normal coordinates:
                      1                      2                      3
                      A                      A                      B
 Frequencies --    386.6448              1009.4804              1336.6894
 Red. masses --      1.0820                14.6152                 1.1012
 Frc consts  --      0.0953                 8.7751                 1.1593
 IR Inten    --    230.1248                 0.9501                93.3835
  Atom  AN      X      Y      Z        X      Y      Z        X      Y      Z
     1   8    -0.03   0.01   0.04     0.00   0.67  -0.01    -0.01   0.04  -0.03
     2   8     0.03  -0.01   0.04     0.00  -0.67  -0.01    -0.01   0.04   0.03
     3   1     0.35  -0.02  -0.61     0.04   0.00   0.21     0.10  -0.70   0.06
     4   1    -0.35   0.02  -0.61    -0.04   0.00   0.21     0.10  -0.70  -0.06
                      4                      5                      6
                      A                      B                      A
 Frequencies --   1488.8010              3858.3905              3859.8101
 Red. masses --      1.0945                 1.0674                 1.0701
 Frc consts  --      1.4294                 9.3627                 9.3928
 IR Inten    --      0.0167                71.4512                16.3258
  Atom  AN      X      Y      Z        X      Y      Z        X      Y      Z
     1   8     0.05   0.00   0.01     0.04   0.01   0.02    -0.04  -0.01  -0.02
     2   8    -0.05   0.00   0.01     0.04   0.01  -0.02     0.04   0.01  -0.02
     3   1    -0.04   0.70  -0.08    -0.60  -0.13  -0.35     0.60   0.13   0.35
     4   1     0.04  -0.70  -0.08    -0.60  -0.13   0.35    -0.60  -0.13   0.35

 -------------------
 - Thermochemistry -
 -------------------
 Temperature   298.150 Kelvin.  Pressure   1.00000 Atm.
 Atom     1 has atomic number  8 and mass  15.99491
 Atom     2 has atomic number  8 and mass  15.99491
 Atom     3 has atomic number  1 and mass   1.00783
 Atom     4 has atomic number  1 and mass   1.00783
 Molecular mass:    34.00548 amu.
 Principal axes and moments of inertia in atomic units:
                           1         2         3
     Eigenvalues --     5.85493  66.00505  68.76748
           X            0.08803   0.99612   0.00000
           Y            0.99612  -0.08803   0.00000
           Z            0.00000   0.00000   1.00000
 This molecule is an asymmetric top.
 Rotational symmetry number  2.
 Rotational temperatures (Kelvin)     14.79332     1.31223     1.25952
 Rotational constants (GHZ):         308.24314    27.34247    26.24411
 Zero-point vibrational energy      71416.0 (Joules/Mol)
                                   17.06882 (Kcal/Mol)
 Warning -- explicit consideration of   1 degrees of freedom as
           vibrations may cause significant error
 Vibrational temperatures:    556.29  1452.42  1923.20  2142.05  5551.36
          (Kelvin)           5553.40
 
 Zero-point correction=                           0.027201 (Hartree/Particle)
 Thermal correction to Energy=                    0.030406
 Thermal correction to Enthalpy=                  0.031351
 Thermal correction to Gibbs Free Energy=         0.005603
 Sum of electronic and zero-point Energies=           -151.522414
 Sum of electronic and thermal Energies=              -151.519209
 Sum of electronic and thermal Enthalpies=            -151.518264
 Sum of electronic and thermal Free Energies=         -151.544012
 
                     E (Thermal)             CV                S
                      KCal/Mol        Cal/Mol-Kelvin    Cal/Mol-Kelvin
 Total                   19.080              8.036             54.190
 Electronic               0.000              0.000              0.000
 Translational            0.889              2.981             36.503
 Rotational               0.889              2.981             16.548
 Vibrational             17.303              2.075              1.139
 Vibration     1          0.755              1.499              1.013
                       Q            Log10(Q)             Ln(Q)
 Total Bot       0.264665D-02         -2.577303         -5.934459
 Total V=0       0.859443D+10          9.934217         22.874380
 Vib (Bot)       0.368011D-12        -12.434139        -28.630663
 Vib (Bot)    1  0.465443D+00         -0.332134         -0.764766
 Vib (V=0)       0.119504D+01          0.077381          0.178177
 Vib (V=0)    1  0.118311D+01          0.073025          0.168145
 Electronic      0.100000D+01          0.000000          0.000000
 Translational   0.779433D+07          6.891779         15.868907
 Rotational      0.922693D+03          2.965057          6.827297
 
                                                                 name
                                                             IR Spectrum
 
     33                                                                             1    1         1                                 
     88                                                                             4    3         0                    3            
     65                                                                             8    3         0                    8            
     08                                                                             9    7         9                    7            
 
     XX                                                                                  X         X                    X            
      X                                                                                  X                              X            
      X                                                                                  X                              X            
      X                                                                                  X                              X            
      X                                                                                  X                              X            
      X                                                                                  X                              X            
                                                                                         X                              X            
                                                                                         X                              X            
                                                                                                                        X            
                                                                                                                        X            
                                                                                                                        X            
                                                                                                                        X            
                                                                                                                        X            
                                                                                                                        X            
                                                                                                                        X            
                                                                                                                        X            
                                                                                                                        X            
                                                                                                                        X            
                                                                                                                        X            
                                                                                                                        X            
 
 Forces in standard orientation:
 -------------------------------------------------------------------
 Center     Atomic                   Forces (Hartrees/Bohr)
 Number     Number              X              Y              Z
 -------------------------------------------------------------------
      1        8           0.000000394   -0.000000280   -0.000000055
      2        8          -0.000000394    0.000000280   -0.000000055
      3        1           0.000000610   -0.000000406    0.000000055
      4        1          -0.000000610    0.000000406    0.000000055
 -------------------------------------------------------------------
 ***** Axes restored to original set *****
 Rotating derivatives, DoTrsp=F IDiff=-2 LEDeriv=    628 LFDPrp=       0 LDFDPr=       0.
 -------------------------------------------------------------------
 Center     Atomic                   Forces (Hartrees/Bohr)
 Number     Number              X              Y              Z
 -------------------------------------------------------------------
      1        8          -0.000000394    0.000000280    0.000000055
      2        8           0.000000394   -0.000000280    0.000000055
      3        1          -0.000000610    0.000000406   -0.000000055
      4        1           0.000000610   -0.000000406   -0.000000055
 -------------------------------------------------------------------
 Cartesian Forces:  Max     0.000000610 RMS     0.000000360
 Z-matrix is all fixed cartesians, so copy forces.
 Force constants in Cartesian coordinates: 
                1             2             3             4             5 
      1  0.451126D+00
      2  0.898465D-01  0.359322D+00
      3  0.235643D+00  0.257944D-01  0.153444D+00
      4 -0.662728D-01 -0.147171D-01 -0.127834D-02  0.451126D+00
      5 -0.147171D-01 -0.280713D+00 -0.228924D-01  0.898465D-01  0.359322D+00
      6  0.127834D-02  0.228924D-01 -0.180286D-01 -0.235643D+00 -0.257944D-01
      7 -0.393098D+00 -0.869338D-01 -0.228375D+00  0.824543D-02  0.118044D-01
      8 -0.325812D-01 -0.479989D-01 -0.205003D-01 -0.425483D-01 -0.306101D-01
      9 -0.231353D+00 -0.463894D-01 -0.136470D+00  0.556858D-02  0.229752D-02
     10  0.824543D-02  0.118044D-01 -0.598977D-02 -0.393098D+00 -0.869338D-01
     11 -0.425483D-01 -0.306101D-01  0.175983D-01 -0.325812D-01 -0.479989D-01
     12 -0.556858D-02 -0.229752D-02  0.105444D-02  0.231353D+00  0.463894D-01
                6             7             8             9            10 
      6  0.153444D+00
      7  0.598977D-02  0.386144D+00
      8 -0.175983D-01  0.757369D-01  0.858041D-01
      9  0.105444D-02  0.224085D+00  0.410952D-01  0.133953D+00
     10  0.228375D+00 -0.129095D-02 -0.607436D-03  0.169952D-02  0.386144D+00
     11  0.205003D-01 -0.607436D-03 -0.719514D-02  0.299663D-02  0.757369D-01
     12 -0.136470D+00 -0.169952D-02 -0.299663D-02  0.146198D-02 -0.224085D+00
               11            12 
     11  0.858041D-01
     12 -0.410952D-01  0.133953D+00
 Final forces over variables, Energy=-1.51549615D+02:
 -3.94119085D-07 3.94119081D-07-6.10497287D-07 6.10497289D-07
  2.80421232D-07-2.80421236D-07 4.05576424D-07-4.05576423D-07
  5.46424892D-08 5.46424923D-08-5.46424901D-08-5.46424919D-08
 Leave Link  716 at Fri Mar 15 15:14:23 2019, MaxMem=   196608000 cpu:         2.7
 (Enter /cm/shared/c3ddb/gaussian/09.d01/g09/l103.exe)

 GradGradGradGradGradGradGradGradGradGradGradGradGradGradGradGradGradGrad
 Berny optimization.
 Search for a local minimum.
 Step number   1 out of a maximum of    2
 All quantities printed in internal units (Hartrees-Bohrs-Radians)
 Second derivative matrix not updated -- analytic derivatives used.
 The second derivative matrix:
                          X1        Y1        Z1        X2        Y2
           X1           0.45113
           Y1           0.08985   0.35932
           Z1           0.23564   0.02579   0.15344
           X2          -0.06627  -0.01472  -0.00128   0.45113
           Y2          -0.01472  -0.28071  -0.02289   0.08985   0.35932
           Z2           0.00128   0.02289  -0.01803  -0.23564  -0.02579
           X3          -0.39310  -0.08693  -0.22837   0.00825   0.01180
           Y3          -0.03258  -0.04800  -0.02050  -0.04255  -0.03061
           Z3          -0.23135  -0.04639  -0.13647   0.00557   0.00230
           X4           0.00825   0.01180  -0.00599  -0.39310  -0.08693
           Y4          -0.04255  -0.03061   0.01760  -0.03258  -0.04800
           Z4          -0.00557  -0.00230   0.00105   0.23135   0.04639
                          Z2        X3        Y3        Z3        X4
           Z2           0.15344
           X3           0.00599   0.38614
           Y3          -0.01760   0.07574   0.08580
           Z3           0.00105   0.22408   0.04110   0.13395
           X4           0.22837  -0.00129  -0.00061   0.00170   0.38614
           Y4           0.02050  -0.00061  -0.00720   0.00300   0.07574
           Z4          -0.13647  -0.00170  -0.00300   0.00146  -0.22408
                          Y4        Z4
           Y4           0.08580
           Z4          -0.04110   0.13395
 ITU=  0
     Eigenvalues ---    0.00888   0.12415   0.13045   0.57780   0.87560
     Eigenvalues ---    0.98247
 Angle between quadratic step and forces=  80.62 degrees.
 ClnCor:  largest displacement from symmetrization is 1.19D-14 for atom     4.
 Linear search not attempted -- first point.
 ClnCor:  largest displacement from symmetrization is 1.57D-15 for atom     3.
 TrRot=  0.000000  0.000000 -0.000003  0.000000  0.000000  0.000000
 Variable       Old X    -DE/DX   Delta X   Delta X   Delta X     New X
                                 (Linear)    (Quad)   (Total)
    X1        0.00000   0.00000   0.00000   0.00000   0.00000   0.00000
    Y1        1.34843   0.00000   0.00000   0.00000   0.00000   1.34844
    Z1       -0.10034   0.00000   0.00000   0.00000  -0.00001  -0.10034
    X2        0.00000   0.00000   0.00000   0.00000   0.00000   0.00000
    Y2       -1.34843   0.00000   0.00000   0.00000   0.00000  -1.34844
    Z2       -0.10034   0.00000   0.00000   0.00000  -0.00001  -0.10034
    X3        1.53911   0.00000   0.00000  -0.00001   0.00000   1.53911
    Y3        1.70016   0.00000   0.00000   0.00000   0.00000   1.70016
    Z3        0.80269   0.00000   0.00000   0.00001   0.00001   0.80270
    X4       -1.53911   0.00000   0.00000   0.00001   0.00000  -1.53911
    Y4       -1.70016   0.00000   0.00000   0.00000   0.00000  -1.70016
    Z4        0.80269   0.00000   0.00000   0.00001   0.00001   0.80270
         Item               Value     Threshold  Converged?
 Maximum Force            0.000001     0.000450     YES
 RMS     Force            0.000000     0.000300     YES
 Maximum Displacement     0.000007     0.001800     YES
 RMS     Displacement     0.000005     0.001200     YES
 Predicted change in Energy=-2.023872D-12
 Optimization completed.
    -- Stationary point found.
 GradGradGradGradGradGradGradGradGradGradGradGradGradGradGradGradGradGrad

 Leave Link  103 at Fri Mar 15 15:14:24 2019, MaxMem=   196608000 cpu:         1.1
 (Enter /cm/shared/c3ddb/gaussian/09.d01/g09/l9999.exe)

 Test job not archived.
 1\1\GINC-NODE052\Freq\RwB97XD\6-311++G(d,p)\H2O2\ALONGD\15-Mar-2019\0\
 \#P wb97xd/6-311++g(d,p) freq iop(7/33=1) scf=(tight, direct) integral
 =(grid=ultrafine, Acc2E=12) scf=xqc IOp(2/11=1)\\name\\0,1\O,0.,0.7135
 61,-0.053096\O,0.,-0.713561,-0.053096\H,0.814462,0.899686,0.424765\H,-
 0.814462,-0.899686,0.424765\\Version=AS64L-G09RevD.01\State=1-A\HF=-15
 1.549615\RMSD=5.589e-09\RMSF=3.599e-07\ZeroPoint=0.0272009\Thermal=0.0
 304063\Dipole=0.,0.,0.7082047\DipoleDeriv=-0.2426208,-0.0332249,0.1466
 014,-0.0303123,-0.232011,-0.0145061,0.1309402,-0.1318208,-0.3324925,-0
 .2426208,-0.0332249,-0.1466014,-0.0303123,-0.232011,0.0145061,-0.13094
 02,0.1318208,-0.3324925,0.2426208,0.0332249,-0.0905559,0.0303123,0.232
 011,0.0283627,-0.0876973,0.0195298,0.3324925,0.2426208,0.0332249,0.090
 5559,0.0303123,0.232011,-0.0283627,0.0876973,-0.0195298,0.3324925\Pola
 r=11.2105098,1.6703591,15.556903,0.,0.,10.0735588\PG=C02 [X(H2O2)]\NIm
 ag=0\\0.45112583,0.08984649,0.35932163,0.23564310,0.02579445,0.1534438
 1,-0.06627283,-0.01471706,-0.00127834,0.45112583,-0.01471706,-0.280712
 64,-0.02289245,0.08984649,0.35932163,0.00127834,0.02289245,-0.01802858
 ,-0.23564310,-0.02579445,0.15344381,-0.39309843,-0.08693379,-0.2283750
 0,0.00824543,0.01180436,0.00598977,0.38614395,-0.03258115,-0.04799891,
 -0.02050031,-0.04254829,-0.03061008,-0.01759830,0.07573688,0.08580413,
 -0.23135285,-0.04638938,-0.13646967,0.00556858,0.00229752,0.00105444,0
 .22408475,0.04109524,0.13395325,0.00824543,0.01180436,-0.00598977,-0.3
 9309843,-0.08693379,0.22837500,-0.00129095,-0.00060744,0.00169952,0.38
 614395,-0.04254829,-0.03061008,0.01759830,-0.03258115,-0.04799891,0.02
 050031,-0.00060744,-0.00719514,0.00299663,0.07573688,0.08580413,-0.005
 56858,-0.00229752,0.00105444,0.23135285,0.04638938,-0.13646967,-0.0016
 9952,-0.00299663,0.00146198,-0.22408475,-0.04109524,0.13395325\\0.0000
 0039,-0.00000028,-0.00000005,-0.00000039,0.00000028,-0.00000005,0.0000
 0061,-0.00000041,0.00000005,-0.00000061,0.00000041,0.00000005\\\@


 TOWERING GENIUS DISDAINS A BEATEN PATH.  IT SEEKS 
 REGIONS HITHERTO UNEXPLORED.

                                -- ABRAHAM LINCOLN
 Job cpu time:       0 days  0 hours  3 minutes 36.1 seconds.
 File lengths (MBytes):  RWF=      5 Int=      0 D2E=      0 Chk=      1 Scr=      1
 Normal termination of Gaussian 09 at Fri Mar 15 15:14:24 2019.
