 Entering Gaussian System, Link 0=g09
 Initial command:
 /cm/shared/c3ddb/gaussian/09.d01/g09/l1.exe "/scratch/users/alongd/g09/a277-7510366/Gau-37062.inp" -scrdir="/scratch/users/alongd/g09/a277-7510366/"
 Entering Link 1 = /cm/shared/c3ddb/gaussian/09.d01/g09/l1.exe PID=     37063.
  
 Copyright (c) 1988,1990,1992,1993,1995,1998,2003,2009,2013,
            Gaussian, Inc.  All Rights Reserved.
  
 This is part of the Gaussian(R) 09 program.  It is based on
 the Gaussian(R) 03 system (copyright 2003, Gaussian, Inc.),
 the Gaussian(R) 98 system (copyright 1998, Gaussian, Inc.),
 the Gaussian(R) 94 system (copyright 1995, Gaussian, Inc.),
 the Gaussian 92(TM) system (copyright 1992, Gaussian, Inc.),
 the Gaussian 90(TM) system (copyright 1990, Gaussian, Inc.),
 the Gaussian 88(TM) system (copyright 1988, Gaussian, Inc.),
 the Gaussian 86(TM) system (copyright 1986, Carnegie Mellon
 University), and the Gaussian 82(TM) system (copyright 1983,
 Carnegie Mellon University). Gaussian is a federally registered
 trademark of Gaussian, Inc.
  
 This software contains proprietary and confidential information,
 including trade secrets, belonging to Gaussian, Inc.
  
 This software is provided under written license and may be
 used, copied, transmitted, or stored only in accord with that
 written license.
  
 The following legend is applicable only to US Government
 contracts under FAR:
  
                    RESTRICTED RIGHTS LEGEND
  
 Use, reproduction and disclosure by the US Government is
 subject to restrictions as set forth in subparagraphs (a)
 and (c) of the Commercial Computer Software - Restricted
 Rights clause in FAR 52.227-19.
  
 Gaussian, Inc.
 340 Quinnipiac St., Bldg. 40, Wallingford CT 06492
  
  
 ---------------------------------------------------------------
 Warning -- This program may not be used in any manner that
 competes with the business of Gaussian, Inc. or will provide
 assistance to any competitor of Gaussian, Inc.  The licensee
 of this program is prohibited from giving any competitor of
 Gaussian, Inc. access to this program.  By using this program,
 the user acknowledges that Gaussian, Inc. is engaged in the
 business of creating and licensing software in the field of
 computational chemistry and represents and warrants to the
 licensee that it is not a competitor of Gaussian, Inc. and that
 it will not use this program in any manner prohibited above.
 ---------------------------------------------------------------
  

 Cite this work as:
 Gaussian 09, Revision D.01,
 M. J. Frisch, G. W. Trucks, H. B. Schlegel, G. E. Scuseria, 
 M. A. Robb, J. R. Cheeseman, G. Scalmani, V. Barone, B. Mennucci, 
 G. A. Petersson, H. Nakatsuji, M. Caricato, X. Li, H. P. Hratchian, 
 A. F. Izmaylov, J. Bloino, G. Zheng, J. L. Sonnenberg, M. Hada, 
 M. Ehara, K. Toyota, R. Fukuda, J. Hasegawa, M. Ishida, T. Nakajima, 
 Y. Honda, O. Kitao, H. Nakai, T. Vreven, J. A. Montgomery, Jr., 
 J. E. Peralta, F. Ogliaro, M. Bearpark, J. J. Heyd, E. Brothers, 
 K. N. Kudin, V. N. Staroverov, T. Keith, R. Kobayashi, J. Normand, 
 K. Raghavachari, A. Rendell, J. C. Burant, S. S. Iyengar, J. Tomasi, 
 M. Cossi, N. Rega, J. M. Millam, M. Klene, J. E. Knox, J. B. Cross, 
 V. Bakken, C. Adamo, J. Jaramillo, R. Gomperts, R. E. Stratmann, 
 O. Yazyev, A. J. Austin, R. Cammi, C. Pomelli, J. W. Ochterski, 
 R. L. Martin, K. Morokuma, V. G. Zakrzewski, G. A. Voth, 
 P. Salvador, J. J. Dannenberg, S. Dapprich, A. D. Daniels, 
 O. Farkas, J. B. Foresman, J. V. Ortiz, J. Cioslowski, 
 and D. J. Fox, Gaussian, Inc., Wallingford CT, 2013.
 
 ******************************************
 Gaussian 09:  AS64L-G09RevD.01 24-Apr-2013
                15-Mar-2019 
 ******************************************
 %chk=check.chk
 %mem=1500mb
 %nproc=8
 Will use up to    8 processors via shared memory.
 ----------------------------------------------------------------------
 #P opt=(modredundant, calcfc, noeigentest, maxStep=5) scf=(tight, dire
 ct) integral=(grid=ultrafine, Acc2E=12) ub3lyp/6-311+g(d,p) scf=xqc IO
 p(2/11=1)
 ----------------------------------------------------------------------
 1/8=5,10=4,11=1,14=-1,18=120,19=15,26=4,38=1/1,3;
 2/9=110,11=1,12=2,17=6,18=5,40=1/2;
 3/5=4,6=6,7=111,11=2,16=1,25=1,30=1,71=2,74=-5,75=-5,116=2,140=1/1,2,3;
 4//1;
 5/5=2,8=3,13=1,32=2,38=5,87=12/2,8;
 8/6=4,10=90,11=11,87=12/1;
 11/6=1,8=1,9=11,15=111,16=1,87=12/1,2,10;
 10/6=1,13=1,87=12/2;
 6/7=2,8=2,9=2,10=2,28=1/1;
 7/10=1,18=20,25=1,87=12/1,2,3,16;
 1/8=5,10=4,11=1,14=-1,18=20,19=15,26=4/3(2);
 2/9=110,11=1/2;
 99//99;
 2/9=110,11=1/2;
 3/5=4,6=6,7=111,11=2,16=1,25=1,30=1,71=1,74=-5,75=-5,116=2/1,2,3;
 4/5=5,16=3,69=1/1;
 5/5=2,8=3,13=1,32=2,38=5,87=12/2,8;
 7/87=12/1,2,3,16;
 1/8=5,11=1,14=-1,18=20,19=15,26=4/3(-5);
 2/9=110,11=1/2;
 6/7=2,8=2,9=2,10=2,19=2,28=1/1;
 99/9=1/99;
 Leave Link    1 at Fri Mar 15 15:28:36 2019, MaxMem=   196608000 cpu:         1.1
 (Enter /cm/shared/c3ddb/gaussian/09.d01/g09/l101.exe)
 ----
 name
 ----
 Symbolic Z-matrix:
 Charge =  0 Multiplicity = 2
 O                     0.81006  -1.03131   0.00164 
 O                     0.81006   1.03131   0.00164 
 C                    -1.38654  0.        -0.00285 
 C                     0.10193  0.        -0.00862 
 H                    -1.72827   0.00008   1.03519 
 H                    -1.7625    0.89686  -0.49636 
 H                    -1.7625   -0.89694  -0.49622 
 
 The following ModRedundant input section has been read:
 D       5       3       4       1 S  45 8.0000                                
 
 NAtoms=      7 NQM=        7 NQMF=       0 NMMI=      0 NMMIF=      0
                NMic=       0 NMicF=      0.
                    Isotopes and Nuclear Properties:
 (Nuclear quadrupole moments (NQMom) in fm**2, nuclear magnetic moments (NMagM)
  in nuclear magnetons)

  Atom         1           2           3           4           5           6           7
 IAtWgt=          16          16          12          12           1           1           1
 AtmWgt=  15.9949146  15.9949146  12.0000000  12.0000000   1.0078250   1.0078250   1.0078250
 NucSpn=           0           0           0           0           1           1           1
 AtZEff=   0.0000000   0.0000000   0.0000000   0.0000000   0.0000000   0.0000000   0.0000000
 NQMom=    0.0000000   0.0000000   0.0000000   0.0000000   0.0000000   0.0000000   0.0000000
 NMagM=    0.0000000   0.0000000   0.0000000   0.0000000   2.7928460   2.7928460   2.7928460
 AtZNuc=   8.0000000   8.0000000   6.0000000   6.0000000   1.0000000   1.0000000   1.0000000
 Leave Link  101 at Fri Mar 15 15:28:36 2019, MaxMem=   196608000 cpu:         0.9
 (Enter /cm/shared/c3ddb/gaussian/09.d01/g09/l103.exe)

 GradGradGradGradGradGradGradGradGradGradGradGradGradGradGradGradGradGrad
 Berny optimization.
 Initialization pass.
                           ----------------------------
                           !    Initial Parameters    !
                           ! (Angstroms and Degrees)  !
 --------------------------                            --------------------------
 ! Name  Definition              Value          Derivative Info.                !
 --------------------------------------------------------------------------------
 ! R1    R(1,4)                  1.2511         calculate D2E/DX2 analytically  !
 ! R2    R(2,4)                  1.2511         calculate D2E/DX2 analytically  !
 ! R3    R(3,4)                  1.4885         calculate D2E/DX2 analytically  !
 ! R4    R(3,5)                  1.0928         calculate D2E/DX2 analytically  !
 ! R5    R(3,6)                  1.0905         calculate D2E/DX2 analytically  !
 ! R6    R(3,7)                  1.0905         calculate D2E/DX2 analytically  !
 ! A1    A(4,3,5)              108.4438         calculate D2E/DX2 analytically  !
 ! A2    A(4,3,6)              110.0592         calculate D2E/DX2 analytically  !
 ! A3    A(4,3,7)              110.0593         calculate D2E/DX2 analytically  !
 ! A4    A(5,3,6)              108.7829         calculate D2E/DX2 analytically  !
 ! A5    A(5,3,7)              108.7831         calculate D2E/DX2 analytically  !
 ! A6    A(6,3,7)              110.6604         calculate D2E/DX2 analytically  !
 ! A7    A(1,4,2)              111.0448         calculate D2E/DX2 analytically  !
 ! A8    A(1,4,3)              124.4711         calculate D2E/DX2 analytically  !
 ! A9    A(2,4,3)              124.4709         calculate D2E/DX2 analytically  !
 ! D1    D(5,3,4,1)             89.2824         Scan                            !
 ! D2    D(5,3,4,2)            -89.2729         calculate D2E/DX2 analytically  !
 ! D3    D(6,3,4,1)           -151.8287         calculate D2E/DX2 analytically  !
 ! D4    D(6,3,4,2)             29.616          calculate D2E/DX2 analytically  !
 ! D5    D(7,3,4,1)            -29.6069         calculate D2E/DX2 analytically  !
 ! D6    D(7,3,4,2)            151.8378         calculate D2E/DX2 analytically  !
 --------------------------------------------------------------------------------
 Trust Radius=5.00D-02 FncErr=1.00D-07 GrdErr=1.00D-06
 Number of optimizations in scan=  46
 Number of steps in this run=     31 maximum allowed number of steps=    100.
 GradGradGradGradGradGradGradGradGradGradGradGradGradGradGradGradGradGrad

 Leave Link  103 at Fri Mar 15 15:28:36 2019, MaxMem=   196608000 cpu:         0.1
 (Enter /cm/shared/c3ddb/gaussian/09.d01/g09/l202.exe)
                          Input orientation:                          
 ---------------------------------------------------------------------
 Center     Atomic      Atomic             Coordinates (Angstroms)
 Number     Number       Type             X           Y           Z
 ---------------------------------------------------------------------
      1          8           0        0.810062   -1.031312    0.001638
      2          8           0        0.810058    1.031314    0.001638
      3          6           0       -1.386541   -0.000002   -0.002850
      4          6           0        0.101926   -0.000001   -0.008620
      5          1           0       -1.728269    0.000083    1.035194
      6          1           0       -1.762501    0.896861   -0.496361
      7          1           0       -1.762501   -0.896944   -0.496219
 ---------------------------------------------------------------------
                    Distance matrix (angstroms):
                    1          2          3          4          5
     1  O    0.000000
     2  O    2.062626   0.000000
     3  C    2.426661   2.426660   0.000000
     4  C    1.251065   1.251066   1.488478   0.000000
     5  H    2.928334   2.928272   1.092846   2.106932   0.000000
     6  H    3.253296   2.623765   1.090533   2.125639   1.775118
     7  H    2.623737   3.253321   1.090534   2.125641   1.775121
                    6          7
     6  H    0.000000
     7  H    1.793805   0.000000
 Stoichiometry    C2H3O2(2)
 Framework group  C1[X(C2H3O2)]
 Deg. of freedom    15
 Full point group                 C1      NOp   1
 Largest Abelian subgroup         C1      NOp   1
 Largest concise Abelian subgroup C1      NOp   1
                         Standard orientation:                         
 ---------------------------------------------------------------------
 Center     Atomic      Atomic             Coordinates (Angstroms)
 Number     Number       Type             X           Y           Z
 ---------------------------------------------------------------------
      1          8           0       -0.810062    1.031312    0.001638
      2          8           0       -0.810058   -1.031314    0.001638
      3          6           0        1.386541    0.000002   -0.002850
      4          6           0       -0.101926    0.000001   -0.008620
      5          1           0        1.728269   -0.000083    1.035194
      6          1           0        1.762501   -0.896861   -0.496361
      7          1           0        1.762501    0.896944   -0.496219
 ---------------------------------------------------------------------
 Rotational constants (GHZ):     13.5768690      9.2599940      5.7011456
 Leave Link  202 at Fri Mar 15 15:28:37 2019, MaxMem=   196608000 cpu:         0.5
 (Enter /cm/shared/c3ddb/gaussian/09.d01/g09/l301.exe)
 Standard basis: 6-311+G(d,p) (5D, 7F)
 Ernie: Thresh=  0.10000D-02 Tol=  0.10000D-05 Strict=F.
 There are   110 symmetry adapted cartesian basis functions of A   symmetry.
 There are   106 symmetry adapted basis functions of A   symmetry.
   106 basis functions,   168 primitive gaussians,   110 cartesian basis functions
    16 alpha electrons       15 beta electrons
       nuclear repulsion energy       113.5935613857 Hartrees.
 IExCor=  402 DFT=T Ex+Corr=B3LYP ExCW=0 ScaHFX=  0.200000
 ScaDFX=  0.800000  0.720000  1.000000  0.810000 ScalE2=  1.000000  1.000000
 IRadAn=      5 IRanWt=     -1 IRanGd=            0 ICorTp=0 IEmpDi=  4
 NAtoms=    7 NActive=    7 NUniq=    7 SFac= 1.00D+00 NAtFMM=   60 NAOKFM=F Big=F
 Integral buffers will be    131072 words long.
 Raffenetti 2 integral format.
 Two-electron integral symmetry is turned on.
 Leave Link  301 at Fri Mar 15 15:28:37 2019, MaxMem=   196608000 cpu:         1.3
 (Enter /cm/shared/c3ddb/gaussian/09.d01/g09/l302.exe)
 NPDir=0 NMtPBC=     1 NCelOv=     1 NCel=       1 NClECP=     1 NCelD=      1
         NCelK=      1 NCelE2=     1 NClLst=     1 CellRange=     0.0.
 One-electron integrals computed using PRISM.
 NBasis=   106 RedAO= T EigKep=  1.41D-04  NBF=   106
 NBsUse=   106 1.00D-06 EigRej= -1.00D+00 NBFU=   106
 Precomputing XC quadrature grid using
 IXCGrd= 4 IRadAn=           5 IRanWt=          -1 IRanGd=           0 AccXCQ= 0.00D+00.
 Generated NRdTot=       0 NPtTot=           0 NUsed=           0 NTot=          32
 NSgBfM=   110   110   110   110   110 MxSgAt=     7 MxSgA2=     7.
 Leave Link  302 at Fri Mar 15 15:28:38 2019, MaxMem=   196608000 cpu:         5.7
 (Enter /cm/shared/c3ddb/gaussian/09.d01/g09/l303.exe)
 DipDrv:  MaxL=1.
 Leave Link  303 at Fri Mar 15 15:28:38 2019, MaxMem=   196608000 cpu:         1.0
 (Enter /cm/shared/c3ddb/gaussian/09.d01/g09/l401.exe)
 ExpMin= 4.38D-02 ExpMax= 8.59D+03 ExpMxC= 1.30D+03 IAcc=3 IRadAn=         5 AccDes= 0.00D+00
 Harris functional with IExCor=  402 and IRadAn=       5 diagonalized for initial guess.
 HarFok:  IExCor=  402 AccDes= 0.00D+00 IRadAn=         5 IDoV= 1 UseB2=F ITyADJ=14
 ICtDFT=  3500011 ScaDFX=  1.000000  1.000000  1.000000  1.000000
 FoFCou: FMM=F IPFlag=           0 FMFlag=      100000 FMFlg1=           0
         NFxFlg=           0 DoJE=T BraDBF=F KetDBF=T FulRan=T
         wScrn=  0.000000 ICntrl=     500 IOpCl=  0 I1Cent=   200000004 NGrid=           0
         NMat0=    1 NMatS0=      1 NMatT0=    0 NMatD0=    1 NMtDS0=    0 NMtDT0=    0
 Petite list used in FoFCou.
 Harris En= -228.486136304382    
 JPrj=0 DoOrth=F DoCkMO=F.
 Initial guess <Sx>= 0.0000 <Sy>= 0.0000 <Sz>= 0.5000 <S**2>= 0.7500 S= 0.5000
 Leave Link  401 at Fri Mar 15 15:28:39 2019, MaxMem=   196608000 cpu:         9.4
 (Enter /cm/shared/c3ddb/gaussian/09.d01/g09/l502.exe)
 UHF open shell SCF:
 Using DIIS extrapolation, IDIIS=  1040.
 Integral symmetry usage will be decided dynamically.
 Keep R1 and R2 ints in memory in canonical form, NReq=33143622.
 IVT=       43938 IEndB=       43938 NGot=   196608000 MDV=   164398151
 LenX=   164398151 LenY=   164385610
 Requested convergence on RMS density matrix=1.00D-08 within  64 cycles.
 Requested convergence on MAX density matrix=1.00D-06.
 Requested convergence on             energy=1.00D-06.
 No special actions if energy rises.
 FoFCou: FMM=F IPFlag=           0 FMFlag=           0 FMFlg1=           0
         NFxFlg=           0 DoJE=F BraDBF=F KetDBF=F FulRan=T
         wScrn=  0.000000 ICntrl=     600 IOpCl=  0 I1Cent=           0 NGrid=           0
         NMat0=    1 NMatS0=   5671 NMatT0=    0 NMatD0=    1 NMtDS0=    0 NMtDT0=    0
 Symmetry not used in FoFCou.

 Cycle   1  Pass 1  IDiag  1:
 E= -228.388936603073    
 DIIS: error= 4.05D-02 at cycle   1 NSaved=   1.
 NSaved= 1 IEnMin= 1 EnMin= -228.388936603073     IErMin= 1 ErrMin= 4.05D-02
 ErrMax= 4.05D-02  0.00D+00 EMaxC= 1.00D-01 BMatC= 5.13D-01 BMatP= 5.13D-01
 IDIUse=3 WtCom= 5.95D-01 WtEn= 4.05D-01
 Coeff-Com:  0.100D+01
 Coeff-En:   0.100D+01
 Coeff:      0.100D+01
 Gap=     0.262 Goal=   None    Shift=    0.000
 Gap=     0.142 Goal=   None    Shift=    0.000
 GapD=    0.142 DampG=1.000 DampE=0.500 DampFc=0.5000 IDamp=-1.
 Damping current iteration by 5.00D-01
 RMSDP=5.14D-03 MaxDP=1.25D-01              OVMax= 1.49D-01

 Cycle   2  Pass 1  IDiag  1:
 E= -228.430680642737     Delta-E=       -0.041744039664 Rises=F Damp=T
 DIIS: error= 9.71D-03 at cycle   2 NSaved=   2.
 NSaved= 2 IEnMin= 2 EnMin= -228.430680642737     IErMin= 2 ErrMin= 9.71D-03
 ErrMax= 9.71D-03  0.00D+00 EMaxC= 1.00D-01 BMatC= 2.64D-02 BMatP= 5.13D-01
 IDIUse=3 WtCom= 9.03D-01 WtEn= 9.71D-02
 Coeff-Com:  0.804D-01 0.920D+00
 Coeff-En:   0.150D+00 0.850D+00
 Coeff:      0.872D-01 0.913D+00
 Gap=     0.329 Goal=   None    Shift=    0.000
 Gap=     0.115 Goal=   None    Shift=    0.000
 RMSDP=8.51D-04 MaxDP=2.41D-02 DE=-4.17D-02 OVMax= 9.67D-02

 Cycle   3  Pass 1  IDiag  1:
 E= -228.483043231197     Delta-E=       -0.052362588460 Rises=F Damp=F
 DIIS: error= 9.14D-03 at cycle   3 NSaved=   3.
 NSaved= 3 IEnMin= 3 EnMin= -228.483043231197     IErMin= 3 ErrMin= 9.14D-03
 ErrMax= 9.14D-03  0.00D+00 EMaxC= 1.00D-01 BMatC= 1.33D-02 BMatP= 2.64D-02
 IDIUse=3 WtCom= 9.09D-01 WtEn= 9.14D-02
 Coeff-Com: -0.722D-02 0.390D+00 0.617D+00
 Coeff-En:   0.000D+00 0.000D+00 0.100D+01
 Coeff:     -0.656D-02 0.354D+00 0.652D+00
 Gap=     0.313 Goal=   None    Shift=    0.000
 Gap=     0.123 Goal=   None    Shift=    0.000
 RMSDP=5.33D-04 MaxDP=1.27D-02 DE=-5.24D-02 OVMax= 2.27D-02

 Cycle   4  Pass 1  IDiag  1:
 E= -228.484700583936     Delta-E=       -0.001657352740 Rises=F Damp=F
 DIIS: error= 4.49D-03 at cycle   4 NSaved=   4.
 NSaved= 4 IEnMin= 4 EnMin= -228.484700583936     IErMin= 4 ErrMin= 4.49D-03
 ErrMax= 4.49D-03  0.00D+00 EMaxC= 1.00D-01 BMatC= 4.53D-03 BMatP= 1.33D-02
 IDIUse=3 WtCom= 9.55D-01 WtEn= 4.49D-02
 Coeff-Com: -0.149D-01 0.368D-01 0.386D+00 0.592D+00
 Coeff-En:   0.000D+00 0.000D+00 0.285D+00 0.715D+00
 Coeff:     -0.142D-01 0.352D-01 0.381D+00 0.598D+00
 Gap=     0.319 Goal=   None    Shift=    0.000
 Gap=     0.121 Goal=   None    Shift=    0.000
 RMSDP=2.35D-04 MaxDP=5.38D-03 DE=-1.66D-03 OVMax= 8.93D-03

 Cycle   5  Pass 1  IDiag  1:
 E= -228.485648145777     Delta-E=       -0.000947561840 Rises=F Damp=F
 DIIS: error= 3.77D-04 at cycle   5 NSaved=   5.
 NSaved= 5 IEnMin= 5 EnMin= -228.485648145777     IErMin= 5 ErrMin= 3.77D-04
 ErrMax= 3.77D-04  0.00D+00 EMaxC= 1.00D-01 BMatC= 4.89D-05 BMatP= 4.53D-03
 IDIUse=3 WtCom= 9.96D-01 WtEn= 3.77D-03
 Coeff-Com: -0.320D-02-0.784D-02 0.770D-01 0.165D+00 0.769D+00
 Coeff-En:   0.000D+00 0.000D+00 0.000D+00 0.000D+00 0.100D+01
 Coeff:     -0.319D-02-0.781D-02 0.768D-01 0.164D+00 0.770D+00
 Gap=     0.319 Goal=   None    Shift=    0.000
 Gap=     0.121 Goal=   None    Shift=    0.000
 RMSDP=3.47D-05 MaxDP=1.09D-03 DE=-9.48D-04 OVMax= 1.45D-03

 Cycle   6  Pass 1  IDiag  1:
 E= -228.485659631458     Delta-E=       -0.000011485682 Rises=F Damp=F
 DIIS: error= 1.76D-04 at cycle   6 NSaved=   6.
 NSaved= 6 IEnMin= 6 EnMin= -228.485659631458     IErMin= 6 ErrMin= 1.76D-04
 ErrMax= 1.76D-04  0.00D+00 EMaxC= 1.00D-01 BMatC= 8.88D-06 BMatP= 4.89D-05
 IDIUse=3 WtCom= 9.98D-01 WtEn= 1.76D-03
 Coeff-Com:  0.125D-02-0.723D-02-0.301D-01-0.300D-01 0.269D+00 0.797D+00
 Coeff-En:   0.000D+00 0.000D+00 0.000D+00 0.000D+00 0.000D+00 0.100D+01
 Coeff:      0.124D-02-0.722D-02-0.300D-01-0.299D-01 0.269D+00 0.797D+00
 Gap=     0.320 Goal=   None    Shift=    0.000
 Gap=     0.121 Goal=   None    Shift=    0.000
 RMSDP=1.58D-05 MaxDP=4.44D-04 DE=-1.15D-05 OVMax= 7.23D-04

 Cycle   7  Pass 1  IDiag  1:
 E= -228.485662363322     Delta-E=       -0.000002731863 Rises=F Damp=F
 DIIS: error= 4.52D-05 at cycle   7 NSaved=   7.
 NSaved= 7 IEnMin= 7 EnMin= -228.485662363322     IErMin= 7 ErrMin= 4.52D-05
 ErrMax= 4.52D-05  0.00D+00 EMaxC= 1.00D-01 BMatC= 5.19D-07 BMatP= 8.88D-06
 IDIUse=1 WtCom= 1.00D+00 WtEn= 0.00D+00
 Coeff-Com:  0.565D-03-0.203D-03-0.135D-01-0.245D-01-0.579D-01 0.126D+00
 Coeff-Com:  0.969D+00
 Coeff:      0.565D-03-0.203D-03-0.135D-01-0.245D-01-0.579D-01 0.126D+00
 Coeff:      0.969D+00
 Gap=     0.320 Goal=   None    Shift=    0.000
 Gap=     0.121 Goal=   None    Shift=    0.000
 RMSDP=5.32D-06 MaxDP=1.09D-04 DE=-2.73D-06 OVMax= 3.14D-04

 Cycle   8  Pass 1  IDiag  1:
 E= -228.485662640187     Delta-E=       -0.000000276865 Rises=F Damp=F
 DIIS: error= 1.77D-05 at cycle   8 NSaved=   8.
 NSaved= 8 IEnMin= 8 EnMin= -228.485662640187     IErMin= 8 ErrMin= 1.77D-05
 ErrMax= 1.77D-05  0.00D+00 EMaxC= 1.00D-01 BMatC= 9.77D-08 BMatP= 5.19D-07
 IDIUse=1 WtCom= 1.00D+00 WtEn= 0.00D+00
 Coeff-Com:  0.126D-03 0.306D-03-0.338D-02-0.752D-02-0.329D-01 0.115D-01
 Coeff-Com:  0.321D+00 0.711D+00
 Coeff:      0.126D-03 0.306D-03-0.338D-02-0.752D-02-0.329D-01 0.115D-01
 Coeff:      0.321D+00 0.711D+00
 Gap=     0.320 Goal=   None    Shift=    0.000
 Gap=     0.121 Goal=   None    Shift=    0.000
 RMSDP=2.62D-06 MaxDP=4.34D-05 DE=-2.77D-07 OVMax= 3.09D-04

 Cycle   9  Pass 1  IDiag  1:
 E= -228.485662597531     Delta-E=        0.000000042655 Rises=F Damp=F
 DIIS: error= 4.30D-05 at cycle   9 NSaved=   9.
 NSaved= 9 IEnMin= 8 EnMin= -228.485662640187     IErMin= 8 ErrMin= 1.77D-05
 ErrMax= 4.30D-05  0.00D+00 EMaxC= 1.00D-01 BMatC= 4.17D-07 BMatP= 9.77D-08
 IDIUse=1 WtCom= 1.00D+00 WtEn= 0.00D+00
 Coeff-Com: -0.126D-03 0.448D-03 0.257D-02 0.305D-02-0.990D-02-0.460D-01
 Coeff-Com: -0.999D-01 0.798D+00 0.352D+00
 Coeff:     -0.126D-03 0.448D-03 0.257D-02 0.305D-02-0.990D-02-0.460D-01
 Coeff:     -0.999D-01 0.798D+00 0.352D+00
 Gap=     0.320 Goal=   None    Shift=    0.000
 Gap=     0.121 Goal=   None    Shift=    0.000
 RMSDP=1.94D-06 MaxDP=3.22D-05 DE= 4.27D-08 OVMax= 2.32D-04

 Cycle  10  Pass 1  IDiag  1:
 E= -228.485662685079     Delta-E=       -0.000000087547 Rises=F Damp=F
 DIIS: error= 4.19D-06 at cycle  10 NSaved=  10.
 NSaved=10 IEnMin=10 EnMin= -228.485662685079     IErMin=10 ErrMin= 4.19D-06
 ErrMax= 4.19D-06  0.00D+00 EMaxC= 1.00D-01 BMatC= 3.97D-09 BMatP= 9.77D-08
 IDIUse=1 WtCom= 1.00D+00 WtEn= 0.00D+00
 Coeff-Com: -0.511D-04 0.728D-04 0.127D-02 0.211D-02 0.193D-02-0.152D-01
 Coeff-Com: -0.789D-01 0.102D+00 0.100D+00 0.887D+00
 Coeff:     -0.511D-04 0.728D-04 0.127D-02 0.211D-02 0.193D-02-0.152D-01
 Coeff:     -0.789D-01 0.102D+00 0.100D+00 0.887D+00
 Gap=     0.320 Goal=   None    Shift=    0.000
 Gap=     0.121 Goal=   None    Shift=    0.000
 RMSDP=6.80D-07 MaxDP=1.11D-05 DE=-8.75D-08 OVMax= 1.16D-04

 Cycle  11  Pass 1  IDiag  1:
 E= -228.485662689794     Delta-E=       -0.000000004715 Rises=F Damp=F
 DIIS: error= 3.26D-06 at cycle  11 NSaved=  11.
 NSaved=11 IEnMin=11 EnMin= -228.485662689794     IErMin=11 ErrMin= 3.26D-06
 ErrMax= 3.26D-06  0.00D+00 EMaxC= 1.00D-01 BMatC= 7.90D-10 BMatP= 3.97D-09
 IDIUse=1 WtCom= 1.00D+00 WtEn= 0.00D+00
 Coeff-Com:  0.302D-04-0.653D-04-0.624D-03-0.867D-03 0.427D-03 0.780D-02
 Coeff-Com:  0.353D-01-0.114D+00-0.674D-01-0.278D+00 0.142D+01
 Coeff:      0.302D-04-0.653D-04-0.624D-03-0.867D-03 0.427D-03 0.780D-02
 Coeff:      0.353D-01-0.114D+00-0.674D-01-0.278D+00 0.142D+01
 Gap=     0.320 Goal=   None    Shift=    0.000
 Gap=     0.121 Goal=   None    Shift=    0.000
 RMSDP=7.10D-07 MaxDP=1.30D-05 DE=-4.72D-09 OVMax= 1.36D-04

 Cycle  12  Pass 1  IDiag  1:
 E= -228.485662693040     Delta-E=       -0.000000003246 Rises=F Damp=F
 DIIS: error= 2.22D-06 at cycle  12 NSaved=  12.
 NSaved=12 IEnMin=12 EnMin= -228.485662693040     IErMin=12 ErrMin= 2.22D-06
 ErrMax= 2.22D-06  0.00D+00 EMaxC= 1.00D-01 BMatC= 3.51D-10 BMatP= 7.90D-10
 IDIUse=1 WtCom= 1.00D+00 WtEn= 0.00D+00
 Coeff-Com: -0.562D-05 0.218D-04-0.351D-04-0.258D-03-0.127D-02 0.104D-02
 Coeff-Com:  0.399D-02 0.561D-01 0.145D-01-0.170D+00-0.129D+01 0.238D+01
 Coeff:     -0.562D-05 0.218D-04-0.351D-04-0.258D-03-0.127D-02 0.104D-02
 Coeff:      0.399D-02 0.561D-01 0.145D-01-0.170D+00-0.129D+01 0.238D+01
 Gap=     0.320 Goal=   None    Shift=    0.000
 Gap=     0.121 Goal=   None    Shift=    0.000
 RMSDP=1.06D-06 MaxDP=1.96D-05 DE=-3.25D-09 OVMax= 2.05D-04

 Cycle  13  Pass 1  IDiag  1:
 E= -228.485662695586     Delta-E=       -0.000000002547 Rises=F Damp=F
 DIIS: error= 6.46D-07 at cycle  13 NSaved=  13.
 NSaved=13 IEnMin=13 EnMin= -228.485662695586     IErMin=13 ErrMin= 6.46D-07
 ErrMax= 6.46D-07  0.00D+00 EMaxC= 1.00D-01 BMatC= 4.02D-11 BMatP= 3.51D-10
 IDIUse=1 WtCom= 1.00D+00 WtEn= 0.00D+00
 Coeff-Com: -0.609D-05 0.169D-04 0.115D-03 0.147D-03-0.203D-03-0.133D-02
 Coeff-Com: -0.695D-02 0.282D-01 0.155D-01 0.487D-01-0.425D+00 0.160D+00
 Coeff-Com:  0.118D+01
 Coeff:     -0.609D-05 0.169D-04 0.115D-03 0.147D-03-0.203D-03-0.133D-02
 Coeff:     -0.695D-02 0.282D-01 0.155D-01 0.487D-01-0.425D+00 0.160D+00
 Coeff:      0.118D+01
 Gap=     0.320 Goal=   None    Shift=    0.000
 Gap=     0.121 Goal=   None    Shift=    0.000
 RMSDP=3.77D-07 MaxDP=6.93D-06 DE=-2.55D-09 OVMax= 7.25D-05

 Cycle  14  Pass 1  IDiag  1:
 E= -228.485662695822     Delta-E=       -0.000000000236 Rises=F Damp=F
 DIIS: error= 9.55D-08 at cycle  14 NSaved=  14.
 NSaved=14 IEnMin=14 EnMin= -228.485662695822     IErMin=14 ErrMin= 9.55D-08
 ErrMax= 9.55D-08  0.00D+00 EMaxC= 1.00D-01 BMatC= 2.37D-12 BMatP= 4.02D-11
 IDIUse=1 WtCom= 1.00D+00 WtEn= 0.00D+00
 Coeff-Com:  0.429D-06-0.132D-05 0.119D-04 0.400D-04 0.130D-03-0.290D-03
 Coeff-Com: -0.759D-03-0.394D-02-0.300D-03 0.243D-01 0.100D+00-0.230D+00
 Coeff-Com:  0.380D-01 0.107D+01
 Coeff:      0.429D-06-0.132D-05 0.119D-04 0.400D-04 0.130D-03-0.290D-03
 Coeff:     -0.759D-03-0.394D-02-0.300D-03 0.243D-01 0.100D+00-0.230D+00
 Coeff:      0.380D-01 0.107D+01
 Gap=     0.320 Goal=   None    Shift=    0.000
 Gap=     0.121 Goal=   None    Shift=    0.000
 RMSDP=5.77D-08 MaxDP=1.06D-06 DE=-2.36D-10 OVMax= 1.09D-05

 Cycle  15  Pass 1  IDiag  1:
 E= -228.485662695827     Delta-E=       -0.000000000006 Rises=F Damp=F
 DIIS: error= 2.77D-08 at cycle  15 NSaved=  15.
 NSaved=15 IEnMin=15 EnMin= -228.485662695827     IErMin=15 ErrMin= 2.77D-08
 ErrMax= 2.77D-08  0.00D+00 EMaxC= 1.00D-01 BMatC= 1.52D-13 BMatP= 2.37D-12
 IDIUse=1 WtCom= 1.00D+00 WtEn= 0.00D+00
 Coeff-Com:  0.303D-06-0.960D-06-0.354D-05-0.235D-05 0.190D-04 0.319D-04
 Coeff-Com:  0.290D-03-0.192D-02-0.864D-03-0.416D-04 0.316D-01-0.262D-01
 Coeff-Com: -0.716D-01 0.115D+00 0.953D+00
 Coeff:      0.303D-06-0.960D-06-0.354D-05-0.235D-05 0.190D-04 0.319D-04
 Coeff:      0.290D-03-0.192D-02-0.864D-03-0.416D-04 0.316D-01-0.262D-01
 Coeff:     -0.716D-01 0.115D+00 0.953D+00
 Gap=     0.320 Goal=   None    Shift=    0.000
 Gap=     0.121 Goal=   None    Shift=    0.000
 RMSDP=4.62D-09 MaxDP=6.15D-08 DE=-5.51D-12 OVMax= 6.21D-07

 SCF Done:  E(UB3LYP) =  -228.485662696     A.U. after   15 cycles
            NFock= 15  Conv=0.46D-08     -V/T= 2.0032
 <Sx>= 0.0000 <Sy>= 0.0000 <Sz>= 0.5000 <S**2>= 0.7568 S= 0.5034
 <L.S>= 0.000000000000E+00
 KE= 2.277602133325D+02 PE=-7.636247030357D+02 EE= 1.937852656217D+02
 Annihilation of the first spin contaminant:
 S**2 before annihilation     0.7568,   after     0.7500
 Leave Link  502 at Fri Mar 15 15:29:10 2019, MaxMem=   196608000 cpu:       205.4
 (Enter /cm/shared/c3ddb/gaussian/09.d01/g09/l508.exe)
 QCSCF skips out because SCF is already converged.
 Leave Link  508 at Fri Mar 15 15:29:11 2019, MaxMem=   196608000 cpu:         0.0
 (Enter /cm/shared/c3ddb/gaussian/09.d01/g09/l801.exe)
 DoSCS=F DFT=T ScalE2(SS,OS)=  1.000000  1.000000
 Range of M.O.s used for correlation:     1   106
 NBasis=   106 NAE=    16 NBE=    15 NFC=     0 NFV=     0
 NROrb=    106 NOA=    16 NOB=    15 NVA=    90 NVB=    91

 **** Warning!!: The largest alpha MO coefficient is  0.26723382D+02


 **** Warning!!: The largest beta MO coefficient is  0.26177589D+02

 Leave Link  801 at Fri Mar 15 15:29:11 2019, MaxMem=   196608000 cpu:         0.2
 (Enter /cm/shared/c3ddb/gaussian/09.d01/g09/l1101.exe)
 Using compressed storage, NAtomX=     7.
 Will process      8 centers per pass.
 Leave Link 1101 at Fri Mar 15 15:29:12 2019, MaxMem=   196608000 cpu:        11.9
 (Enter /cm/shared/c3ddb/gaussian/09.d01/g09/l1102.exe)
 Symmetrizing basis deriv contribution to polar:
 IMax=3 JMax=2 DiffMx= 0.00D+00
 Leave Link 1102 at Fri Mar 15 15:29:13 2019, MaxMem=   196608000 cpu:         0.9
 (Enter /cm/shared/c3ddb/gaussian/09.d01/g09/l1110.exe)
 Forming Gx(P) for the SCF density, NAtomX=     7.
 Integral derivatives from FoFJK, PRISM(SPDF).
 Do as many integral derivatives as possible in FoFJK.
 G2DrvN: MDV=     196607840.
 G2DrvN: will do     8 centers at a time, making    1 passes.
 Calling FoFCou, ICntrl=  3107 FMM=F I1Cent=   0 AccDes= 1.00D-12.
 FoFJK:  IHMeth= 1 ICntrl=    3107 DoSepK=F KAlg= 0 I1Cent=   0 FoldK=F
 IRaf=         0 NMat=   1 IRICut=       1 DoRegI=T DoRafI=F ISym2E= 0.
 FoFCou: FMM=F IPFlag=           0 FMFlag=      100000 FMFlg1=           0
         NFxFlg=           0 DoJE=F BraDBF=F KetDBF=F FulRan=T
         wScrn=  0.000000 ICntrl=    3107 IOpCl=  1 I1Cent=           0 NGrid=           0
         NMat0=    1 NMatS0=      1 NMatT0=    0 NMatD0=    1 NMtDS0=    0 NMtDT0=    0
 Symmetry not used in FoFCou.
 End of G2Drv F.D. properties file   721 does not exist.
 End of G2Drv F.D. properties file   722 does not exist.
 End of G2Drv F.D. properties file   788 does not exist.
 Leave Link 1110 at Fri Mar 15 15:29:36 2019, MaxMem=   196608000 cpu:       162.6
 (Enter /cm/shared/c3ddb/gaussian/09.d01/g09/l1002.exe)
 Minotr:  UHF open shell wavefunction.
          IDoAtm=1111111
          Direct CPHF calculation.
          Differentiating once with respect to nuclear coordinates.
          Requested convergence is 1.0D-08 RMS, and 1.0D-07 maximum.
          Secondary convergence is 1.0D-12 RMS, and 1.0D-12 maximum.
          NewPWx=T KeepS1=F KeepF1=F KeepIn=T MapXYZ=F SortEE=F KeepMc=T.
          MDV=     196607714 using IRadAn=       1.
 Generate precomputed XC quadrature information.
 Keep R1 and R2 ints in memory in canonical form, NReq=33099847.
 FoFCou: FMM=F IPFlag=           0 FMFlag=           0 FMFlg1=           0
         NFxFlg=           0 DoJE=F BraDBF=F KetDBF=F FulRan=T
         wScrn=  0.000000 ICntrl=     600 IOpCl=  0 I1Cent=           0 NGrid=           0
         NMat0=    1 NMatS0=   5671 NMatT0=    0 NMatD0=    1 NMtDS0=    0 NMtDT0=    0
 Symmetry not used in FoFCou.
          Solving linear equations simultaneously, MaxMat=       0.
          There are    24 degrees of freedom in the 1st order CPHF.  IDoFFX=6 NUNeed=     0.
     18 vectors produced by pass  0 Test12= 1.17D-14 4.17D-09 XBig12= 2.49D-01 2.92D-01.
 AX will form    18 AO Fock derivatives at one time.
     18 vectors produced by pass  1 Test12= 1.17D-14 4.17D-09 XBig12= 6.03D-02 1.01D-01.
     18 vectors produced by pass  2 Test12= 1.17D-14 4.17D-09 XBig12= 7.24D-03 2.74D-02.
     18 vectors produced by pass  3 Test12= 1.17D-14 4.17D-09 XBig12= 5.23D-05 2.00D-03.
     18 vectors produced by pass  4 Test12= 1.17D-14 4.17D-09 XBig12= 9.99D-07 2.13D-04.
     18 vectors produced by pass  5 Test12= 1.17D-14 4.17D-09 XBig12= 5.13D-09 1.60D-05.
     15 vectors produced by pass  6 Test12= 1.17D-14 4.17D-09 XBig12= 2.24D-11 9.73D-07.
      7 vectors produced by pass  7 Test12= 1.17D-14 4.17D-09 XBig12= 1.20D-13 8.00D-08.
      1 vectors produced by pass  8 Test12= 1.17D-14 4.17D-09 XBig12= 5.87D-16 4.98D-09.
 InvSVY:  IOpt=1 It=  1 EMax= 2.22D-15
 Solved reduced A of dimension   131 with    18 vectors.
 End of Minotr F.D. properties file   721 does not exist.
 End of Minotr F.D. properties file   722 does not exist.
 End of Minotr F.D. properties file   788 does not exist.
 Leave Link 1002 at Fri Mar 15 15:30:09 2019, MaxMem=   196608000 cpu:       231.8
 (Enter /cm/shared/c3ddb/gaussian/09.d01/g09/l601.exe)
 Copying SCF densities to generalized density rwf, IOpCl= 1 IROHF=0.

 **********************************************************************

            Population analysis using the SCF density.

 **********************************************************************

 Orbital symmetries:
 Alpha Orbitals:
       Occupied  (A) (A) (A) (A) (A) (A) (A) (A) (A) (A) (A) (A)
                 (A) (A) (A) (A)
       Virtual   (A) (A) (A) (A) (A) (A) (A) (A) (A) (A) (A) (A)
                 (A) (A) (A) (A) (A) (A) (A) (A) (A) (A) (A) (A)
                 (A) (A) (A) (A) (A) (A) (A) (A) (A) (A) (A) (A)
                 (A) (A) (A) (A) (A) (A) (A) (A) (A) (A) (A) (A)
                 (A) (A) (A) (A) (A) (A) (A) (A) (A) (A) (A) (A)
                 (A) (A) (A) (A) (A) (A) (A) (A) (A) (A) (A) (A)
                 (A) (A) (A) (A) (A) (A) (A) (A) (A) (A) (A) (A)
                 (A) (A) (A) (A) (A) (A)
 Beta  Orbitals:
       Occupied  (A) (A) (A) (A) (A) (A) (A) (A) (A) (A) (A) (A)
                 (A) (A) (A)
       Virtual   (A) (A) (A) (A) (A) (A) (A) (A) (A) (A) (A) (A)
                 (A) (A) (A) (A) (A) (A) (A) (A) (A) (A) (A) (A)
                 (A) (A) (A) (A) (A) (A) (A) (A) (A) (A) (A) (A)
                 (A) (A) (A) (A) (A) (A) (A) (A) (A) (A) (A) (A)
                 (A) (A) (A) (A) (A) (A) (A) (A) (A) (A) (A) (A)
                 (A) (A) (A) (A) (A) (A) (A) (A) (A) (A) (A) (A)
                 (A) (A) (A) (A) (A) (A) (A) (A) (A) (A) (A) (A)
                 (A) (A) (A) (A) (A) (A) (A)
 The electronic state is 2-A.
 Alpha  occ. eigenvalues --  -19.19223 -19.19220 -10.33430 -10.21280  -1.15874
 Alpha  occ. eigenvalues --   -1.03803  -0.78863  -0.57838  -0.53251  -0.50983
 Alpha  occ. eigenvalues --   -0.50798  -0.44322  -0.42964  -0.37105  -0.35191
 Alpha  occ. eigenvalues --   -0.34709
 Alpha virt. eigenvalues --   -0.02731  -0.00606   0.03666   0.04089   0.04142
 Alpha virt. eigenvalues --    0.07207   0.07560   0.08486   0.11391   0.11684
 Alpha virt. eigenvalues --    0.14186   0.19053   0.21037   0.21182   0.21878
 Alpha virt. eigenvalues --    0.21965   0.27203   0.27754   0.28757   0.28968
 Alpha virt. eigenvalues --    0.31496   0.36418   0.39815   0.41951   0.42602
 Alpha virt. eigenvalues --    0.51792   0.53644   0.56798   0.57652   0.63008
 Alpha virt. eigenvalues --    0.67721   0.68994   0.77944   0.84333   0.97091
 Alpha virt. eigenvalues --    1.02638   1.06410   1.06746   1.12443   1.12909
 Alpha virt. eigenvalues --    1.13528   1.22437   1.31380   1.38814   1.40526
 Alpha virt. eigenvalues --    1.44114   1.50487   1.51080   1.54158   1.54862
 Alpha virt. eigenvalues --    1.67709   1.72145   1.79861   1.83859   1.99733
 Alpha virt. eigenvalues --    2.02643   2.17918   2.33504   2.40492   2.45516
 Alpha virt. eigenvalues --    2.45528   2.51850   2.52446   2.63115   2.74202
 Alpha virt. eigenvalues --    2.76107   2.78614   2.82563   2.83743   3.03209
 Alpha virt. eigenvalues --    3.05120   3.19162   3.23904   3.30871   3.54719
 Alpha virt. eigenvalues --    3.59473   3.76356   3.80702   3.99619   4.12557
 Alpha virt. eigenvalues --    4.91718   4.94825   4.99183   5.14175   5.48862
 Alpha virt. eigenvalues --    5.74808  23.79486  23.91541  49.78802  49.92365
  Beta  occ. eigenvalues --  -19.17728 -19.17727 -10.33547 -10.21286  -1.13081
  Beta  occ. eigenvalues --   -1.00182  -0.78578  -0.56522  -0.50403  -0.49676
  Beta  occ. eigenvalues --   -0.49425  -0.43641  -0.42495  -0.32973  -0.31432
  Beta virt. eigenvalues --   -0.19325  -0.02407  -0.00552   0.03760   0.04185
  Beta virt. eigenvalues --    0.04198   0.07350   0.07810   0.08499   0.11439
  Beta virt. eigenvalues --    0.11776   0.14309   0.19135   0.21297   0.21333
  Beta virt. eigenvalues --    0.22064   0.22133   0.27384   0.28425   0.29108
  Beta virt. eigenvalues --    0.29420   0.31922   0.36806   0.40028   0.42683
  Beta virt. eigenvalues --    0.42789   0.52592   0.53525   0.56976   0.57868
  Beta virt. eigenvalues --    0.63079   0.68097   0.69136   0.78041   0.84653
  Beta virt. eigenvalues --    0.97201   1.03398   1.07397   1.07645   1.13913
  Beta virt. eigenvalues --    1.15695   1.15696   1.22864   1.31428   1.38879
  Beta virt. eigenvalues --    1.40612   1.45267   1.50587   1.51426   1.54898
  Beta virt. eigenvalues --    1.55296   1.68426   1.72408   1.79997   1.83874
  Beta virt. eigenvalues --    2.00323   2.02872   2.18018   2.34453   2.40559
  Beta virt. eigenvalues --    2.45582   2.45783   2.51952   2.52765   2.63576
  Beta virt. eigenvalues --    2.78933   2.79321   2.81167   2.85843   2.86754
  Beta virt. eigenvalues --    3.03866   3.06840   3.20504   3.24962   3.32082
  Beta virt. eigenvalues --    3.56249   3.63032   3.76432   3.80875   4.01238
  Beta virt. eigenvalues --    4.12988   4.93071   5.00494   5.00742   5.19623
  Beta virt. eigenvalues --    5.50515   5.76282  23.79363  23.91534  49.80302
  Beta virt. eigenvalues --   49.93861
          Condensed to atoms (all electrons):
               1          2          3          4          5          6
     1  O    8.037227  -0.087387  -0.111639   0.310144  -0.003697   0.008884
     2  O   -0.087387   8.037236  -0.111642   0.310137  -0.003697   0.000867
     3  C   -0.111639  -0.111642   5.244091   0.161562   0.384904   0.414032
     4  C    0.310144   0.310137   0.161562   5.161664  -0.015211  -0.050627
     5  H   -0.003697  -0.003697   0.384904  -0.015211   0.490889  -0.019229
     6  H    0.008884   0.000867   0.414032  -0.050627  -0.019229   0.497002
     7  H    0.000869   0.008885   0.414035  -0.050631  -0.019228  -0.023887
               7
     1  O    0.000869
     2  O    0.008885
     3  C    0.414035
     4  C   -0.050631
     5  H   -0.019228
     6  H   -0.023887
     7  H    0.497001
          Atomic-Atomic Spin Densities.
               1          2          3          4          5          6
     1  O    0.588892  -0.067980   0.019713  -0.002718   0.000483  -0.000591
     2  O   -0.067980   0.588893   0.019713  -0.002715   0.000483  -0.003166
     3  C    0.019713   0.019713  -0.043654  -0.003058  -0.001731   0.005330
     4  C   -0.002718  -0.002715  -0.003058  -0.065808   0.000835  -0.001952
     5  H    0.000483   0.000483  -0.001731   0.000835  -0.001638   0.000317
     6  H   -0.000591  -0.003166   0.005330  -0.001952   0.000317   0.005244
     7  H   -0.003167  -0.000591   0.005332  -0.001953   0.000317  -0.001485
               7
     1  O   -0.003167
     2  O   -0.000591
     3  C    0.005332
     4  C   -0.001953
     5  H    0.000317
     6  H   -0.001485
     7  H    0.005244
 Mulliken charges and spin densities:
               1          2
     1  O   -0.154401   0.534632
     2  O   -0.154400   0.534636
     3  C   -0.395343   0.001644
     4  C    0.172962  -0.077370
     5  H    0.185268  -0.000935
     6  H    0.172957   0.003696
     7  H    0.172956   0.003697
 Sum of Mulliken charges =   0.00000   1.00000
 Mulliken charges and spin densities with hydrogens summed into heavy atoms:
               1          2
     1  O   -0.154401   0.534632
     2  O   -0.154400   0.534636
     3  C    0.135839   0.008102
     4  C    0.172962  -0.077370
 APT charges:
               1
     1  O   -0.116434
     2  O   -0.116432
     3  C   -1.062797
     4  C    0.115792
     5  H    0.396745
     6  H    0.391564
     7  H    0.391562
 Sum of APT charges =   0.00000
 APT charges with hydrogens summed into heavy atoms:
               1
     1  O   -0.116434
     2  O   -0.116432
     3  C    0.117074
     4  C    0.115792
 Electronic spatial extent (au):  <R**2>=            236.9811
 Charge=              0.0000 electrons
 Dipole moment (field-independent basis, Debye):
    X=              3.4743    Y=              0.0000    Z=              0.0196  Tot=              3.4744
 Quadrupole moment (field-independent basis, Debye-Ang):
   XX=            -23.3929   YY=            -25.7690   ZZ=            -22.2807
   XY=              0.0000   XZ=              0.0759   YZ=              0.0000
 Traceless Quadrupole moment (field-independent basis, Debye-Ang):
   XX=              0.4213   YY=             -1.9548   ZZ=              1.5335
   XY=              0.0000   XZ=              0.0759   YZ=              0.0000
 Octapole moment (field-independent basis, Debye-Ang**2):
  XXX=              0.7969  YYY=              0.0002  ZZZ=              0.8789  XYY=              3.0050
  XXY=              0.0000  XXZ=              0.0753  XZZ=             -0.1204  YZZ=             -0.0002
  YYZ=             -0.8266  XYZ=              0.0000
 Hexadecapole moment (field-independent basis, Debye-Ang**3):
 XXXX=           -165.8486 YYYY=           -101.0488 ZZZZ=            -26.7997 XXXY=              0.0000
 XXXZ=              0.0607 YYYX=              0.0003 YYYZ=              0.0000 ZZZX=              1.6712
 ZZZY=              0.0000 XXYY=            -44.6961 XXZZ=            -30.5103 YYZZ=            -21.4547
 XXYZ=              0.0000 YYXZ=             -1.5332 ZZXY=             -0.0004
 N-N= 1.135935613857D+02 E-N=-7.636247030367D+02  KE= 2.277602133325D+02
  Exact polarizability:   0.000   0.000   0.000   0.000   0.000   0.000
 Approx polarizability:  40.669   0.000  91.374   0.441   0.000  29.675
                          Isotropic Fermi Contact Couplings
        Atom                 a.u.       MegaHertz       Gauss      10(-4) cm-1
     1  O(17)              0.03825     -23.18766      -8.27393      -7.73457
     2  O(17)              0.03825     -23.18783      -8.27399      -7.73463
     3  C(13)             -0.01101     -12.37302      -4.41500      -4.12719
     4  C(13)             -0.03417     -38.41201     -13.70636     -12.81287
     5  H(1)              -0.00077      -3.43541      -1.22584      -1.14593
     6  H(1)               0.00316      14.11853       5.03784       4.70944
     7  H(1)               0.00316      14.12155       5.03892       4.71044
 --------------------------------------------------------
       Center         ----  Spin Dipole Couplings  ----
                      3XX-RR        3YY-RR        3ZZ-RR
 --------------------------------------------------------
     1   Atom        0.195651      0.912449     -1.108100
     2   Atom        0.195671      0.912436     -1.108106
     3   Atom        0.001811      0.012856     -0.014668
     4   Atom        0.022639      0.066788     -0.089427
     5   Atom        0.005447     -0.002461     -0.002986
     6   Atom        0.008309     -0.003177     -0.005132
     7   Atom        0.008309     -0.003177     -0.005133
 --------------------------------------------------------
                        XY            XZ            YZ
 --------------------------------------------------------
     1   Atom        1.702758     -0.043206     -0.054565
     2   Atom       -1.702770     -0.043206      0.054565
     3   Atom        0.000000     -0.001475      0.000000
     4   Atom        0.000000     -0.001285      0.000000
     5   Atom        0.000000      0.004601      0.000000
     6   Atom       -0.001492     -0.003456      0.001431
     7   Atom        0.001493     -0.003455     -0.001431
 --------------------------------------------------------


 ---------------------------------------------------------------------------------
              Anisotropic Spin Dipole Couplings in Principal Axis System
 ---------------------------------------------------------------------------------

       Atom             a.u.   MegaHertz   Gauss  10(-4) cm-1        Axes

              Baa    -1.1860    85.820    30.623    28.626  0.7763 -0.6302 -0.0109
     1 O(17)  Bbb    -1.1095    80.284    28.647    26.780  0.0213  0.0090  0.9997
              Bcc     2.2955  -166.104   -59.270   -55.406  0.6300  0.7764 -0.0204
 
              Baa    -1.1860    85.820    30.623    28.627  0.7763  0.6302 -0.0109
     2 O(17)  Bbb    -1.1095    80.284    28.647    26.780  0.0213 -0.0090  0.9997
              Bcc     2.2956  -166.105   -59.270   -55.407 -0.6300  0.7764  0.0204
 
              Baa    -0.0148    -1.986    -0.709    -0.662  0.0885  0.0000  0.9961
     3 C(13)  Bbb     0.0019     0.261     0.093     0.087  0.9961  0.0000 -0.0885
              Bcc     0.0129     1.725     0.616     0.575  0.0000  1.0000  0.0000
 
              Baa    -0.0894   -12.002    -4.283    -4.004  0.0115  0.0000  0.9999
     4 C(13)  Bbb     0.0227     3.040     1.085     1.014  0.9999  0.0000 -0.0115
              Bcc     0.0668     8.962     3.198     2.990  0.0000  1.0000  0.0000
 
              Baa    -0.0050    -2.673    -0.954    -0.892 -0.4028  0.0000  0.9153
     5 H(1)   Bbb    -0.0025    -1.313    -0.469    -0.438  0.0000  1.0000  0.0000
              Bcc     0.0075     3.986     1.422     1.330  0.9153  0.0000  0.4028
 
              Baa    -0.0063    -3.380    -1.206    -1.127  0.1845 -0.3321  0.9250
     6 H(1)   Bbb    -0.0031    -1.636    -0.584    -0.546  0.2113  0.9326  0.2926
              Bcc     0.0094     5.016     1.790     1.673  0.9599 -0.1415 -0.2422
 
              Baa    -0.0063    -3.380    -1.206    -1.127  0.1844  0.3320  0.9251
     7 H(1)   Bbb    -0.0031    -1.636    -0.584    -0.546 -0.2113  0.9326 -0.2926
              Bcc     0.0094     5.016     1.790     1.673  0.9599  0.1415 -0.2421
 

 ---------------------------------------------------------------------------------

 No NMR shielding tensors so no spin-rotation constants.
 Leave Link  601 at Fri Mar 15 15:30:11 2019, MaxMem=   196608000 cpu:         6.7
 (Enter /cm/shared/c3ddb/gaussian/09.d01/g09/l701.exe)
 Compute integral second derivatives.
 ... and contract with generalized density number  0.
 Leave Link  701 at Fri Mar 15 15:30:12 2019, MaxMem=   196608000 cpu:         7.9
 (Enter /cm/shared/c3ddb/gaussian/09.d01/g09/l702.exe)
 L702 exits ... SP integral derivatives will be done elsewhere.
 Leave Link  702 at Fri Mar 15 15:30:12 2019, MaxMem=   196608000 cpu:         0.2
 (Enter /cm/shared/c3ddb/gaussian/09.d01/g09/l703.exe)
 Compute integral second derivatives, UseDBF=F ICtDFT=           0.
 Integral derivatives from FoFJK, PRISM(SPDF).
 Calling FoFJK, ICntrl=    100147 FMM=F ISym2X=0 I1Cent= 0 IOpClX= 1 NMat=1 NMatS=1 NMatT=0.
 FoFJK:  IHMeth= 1 ICntrl=  100147 DoSepK=F KAlg= 0 I1Cent=   0 FoldK=F
 IRaf=         0 NMat=   1 IRICut=       1 DoRegI=T DoRafI=F ISym2E= 0.
 FoFCou: FMM=F IPFlag=           0 FMFlag=      100000 FMFlg1=         800
         NFxFlg=           0 DoJE=F BraDBF=F KetDBF=F FulRan=T
         wScrn=  0.000000 ICntrl=  100147 IOpCl=  1 I1Cent=           0 NGrid=           0
         NMat0=    1 NMatS0=      1 NMatT0=    0 NMatD0=    1 NMtDS0=    0 NMtDT0=    0
 Symmetry not used in FoFCou.
 Leave Link  703 at Fri Mar 15 15:30:41 2019, MaxMem=   196608000 cpu:       203.4
 (Enter /cm/shared/c3ddb/gaussian/09.d01/g09/l716.exe)
 Dipole        = 1.36689692D+00-1.36456396D-06 7.71761343D-03
 Polarizability= 0.00000000D+00 0.00000000D+00 0.00000000D+00
                 0.00000000D+00 0.00000000D+00 0.00000000D+00
 ***** Axes restored to original set *****
 -------------------------------------------------------------------
 Center     Atomic                   Forces (Hartrees/Bohr)
 Number     Number              X              Y              Z
 -------------------------------------------------------------------
      1        8           0.003944083   -0.009865348    0.000046908
      2        8           0.003943924    0.009865076    0.000046873
      3        6          -0.000936915   -0.000000678    0.000012128
      4        6          -0.005404446    0.000000350   -0.000227427
      5        1          -0.000650162    0.000000065    0.000326416
      6        1          -0.000448341    0.000169239   -0.000102574
      7        1          -0.000448143   -0.000168702   -0.000102324
 -------------------------------------------------------------------
 Cartesian Forces:  Max     0.009865348 RMS     0.003497662
 Force constants in Cartesian coordinates: 
                1             2             3             4             5 
      1  0.229021D+00
      2 -0.220820D+00  0.411839D+00
      3  0.268977D-02 -0.259615D-02  0.146040D-01
      4  0.658866D-01 -0.569121D-01  0.133853D-02  0.229018D+00
      5  0.569132D-01 -0.201924D+00  0.971168D-03  0.220817D+00  0.411837D+00
      6  0.133853D-02 -0.971176D-03  0.195147D-01  0.268969D-02  0.259612D-02
      7 -0.188566D-01  0.117816D-01 -0.335268D-03 -0.188567D-01 -0.117817D-01
      8  0.427080D-01 -0.136119D-01 -0.155639D-02 -0.427064D-01 -0.136119D-01
      9  0.259056D-02 -0.122092D-02  0.215114D-01  0.259068D-02  0.122097D-02
     10 -0.269196D+00  0.264092D+00 -0.321144D-02 -0.269193D+00 -0.264090D+00
     11  0.117815D+00 -0.194296D+00  0.168803D-02 -0.117813D+00 -0.194294D+00
     12 -0.398258D-02  0.354490D-02 -0.563550D-01 -0.398254D-02 -0.354486D-02
     13 -0.156124D-02  0.454993D-03 -0.483307D-02 -0.155998D-02 -0.454500D-03
     14  0.167194D-02 -0.950209D-03  0.848608D-03 -0.167239D-02 -0.950494D-03
     15 -0.576252D-03  0.101323D-02 -0.180580D-03 -0.576209D-03 -0.101323D-02
     16 -0.957833D-02  0.385762D-02  0.206879D-02  0.428389D-02  0.245459D-02
     17  0.126111D-02  0.180487D-03  0.689468D-03 -0.451138D-03 -0.123717D-02
     18 -0.544265D-03  0.861989D-04  0.843188D-03 -0.151588D-02 -0.143887D-03
     19  0.428443D-02 -0.245483D-02  0.228268D-02 -0.957908D-02 -0.385817D-02
     20  0.450385D-03 -0.123703D-02 -0.447352D-04 -0.126143D-02  0.180458D-03
     21 -0.151576D-02  0.143916D-03  0.621669D-04 -0.544285D-03 -0.862896D-04
                6             7             8             9            10 
      6  0.146046D-01
      7 -0.335232D-03  0.489161D+00
      8  0.155642D-02  0.153025D-05  0.583531D+00
      9  0.215104D-01  0.121007D-01 -0.136392D-05  0.533019D+00
     10 -0.321142D-02 -0.223201D+00 -0.342537D-05 -0.121372D-01  0.789470D+00
     11 -0.168801D-02  0.000000D+00 -0.546320D-01  0.000000D+00 -0.181927D-05
     12 -0.563555D-01 -0.107711D-03  0.000000D+00 -0.922926D-01  0.650605D-02
     13 -0.483301D-02 -0.708055D-01  0.631487D-05  0.823464D-01 -0.101469D-01
     14 -0.848588D-03  0.594605D-05 -0.410804D-01 -0.202513D-04  0.000000D+00
     15 -0.180307D-03  0.784272D-01 -0.201241D-04 -0.284994D+00  0.247621D-02
     16  0.228331D-02 -0.787207D-01  0.745203D-01 -0.437520D-01 -0.886685D-02
     17  0.447464D-04  0.755561D-01 -0.230282D+00  0.101688D+00 -0.368657D-03
     18  0.622167D-04 -0.448812D-01  0.101261D+00 -0.993931D-01  0.478905D-02
     19  0.206812D-02 -0.787210D-01 -0.745264D-01 -0.437392D-01 -0.886661D-02
     20 -0.689510D-03 -0.755631D-01 -0.230313D+00 -0.101667D+00  0.370500D-03
     21  0.843797D-03 -0.448685D-01 -0.101239D+00 -0.993615D-01  0.478871D-02
               11            12            13            14            15 
     11  0.439707D+00
     12  0.000000D+00  0.207135D+00
     13  0.215507D-05  0.388903D-01  0.762982D-01
     14 -0.836824D-03  0.000000D+00 -0.713031D-05  0.418863D-01
     15  0.000000D+00  0.119444D-02 -0.881122D-01  0.219261D-04  0.309032D+00
     16  0.221417D-01 -0.186644D-01  0.388762D-02 -0.967397D-02  0.418148D-02
     17  0.217549D-02 -0.231180D-02 -0.113474D-02  0.967741D-03 -0.956085D-03
     18 -0.219422D-02 -0.166239D-02 -0.117291D-01  0.247763D-01 -0.124376D-01
     19 -0.221435D-01 -0.186591D-01  0.388770D-02  0.967466D-02  0.417982D-02
     20  0.217606D-02  0.231152D-02  0.113291D-02  0.963957D-03  0.954003D-03
     21  0.219389D-02 -0.166349D-02 -0.117293D-01 -0.247782D-01 -0.124335D-01
               16            17            18            19            20 
     16  0.839802D-01
     17 -0.840820D-01  0.245749D+00
     18  0.468342D-01 -0.111472D+00  0.105095D+00
     19  0.501414D-02  0.921928D-02  0.704720D-02  0.839804D-01
     20 -0.921820D-02 -0.175541D-01 -0.123131D-01  0.840889D-01  0.245784D+00
     21  0.704864D-02  0.123171D-01  0.749249D-02  0.468205D-01  0.111449D+00
               21 
     21  0.105060D+00
 FormGI is forming the generalized inverse of G from B-inverse, IUseBI=4.
 Force constants in internal coordinates: 
                1             2             3             4             5 
      1  0.559370D+00
      2  0.211464D+00  0.559365D+00
      3  0.258041D-01  0.258045D-01  0.302500D+00
      4 -0.698439D-03 -0.699032D-03  0.543845D-02  0.338616D+00
      5  0.359755D-02 -0.214691D-02  0.399466D-02  0.228088D-02  0.342984D+00
      6 -0.214687D-02  0.359803D-02  0.399454D-02  0.228082D-02  0.180876D-02
      7  0.179944D-02  0.179761D-02  0.114579D-01  0.696886D-02 -0.665358D-02
      8  0.123886D-01 -0.860453D-02  0.145465D-01 -0.657761D-02  0.587753D-02
      9 -0.860546D-02  0.123897D-01  0.145468D-01 -0.657739D-02 -0.593210D-02
     10 -0.497451D-02  0.194988D-02 -0.140704D-01  0.389347D-02  0.430587D-02
     11  0.194943D-02 -0.497448D-02 -0.140700D-01  0.389338D-02 -0.128862D-02
     12 -0.255208D-02 -0.255286D-02 -0.126227D-01 -0.116466D-02  0.351419D-02
     13  0.378484D-01  0.378484D-01 -0.212331D-01 -0.643181D-03 -0.248770D-02
     14  0.260378D-01 -0.638888D-01  0.106116D-01  0.306035D-03  0.482984D-02
     15 -0.638886D-01  0.260380D-01  0.106117D-01  0.305225D-03 -0.232563D-02
     16 -0.960913D-03  0.134212D-02 -0.409642D-03 -0.873364D-03 -0.419874D-02
     17 -0.134223D-02  0.960782D-03  0.410086D-03  0.873460D-03 -0.506445D-02
     18  0.129917D-02 -0.222433D-03 -0.212504D-02  0.420924D-02  0.450065D-03
     19  0.917847D-03 -0.603767D-03 -0.130531D-02  0.595607D-02 -0.415648D-03
     20  0.603649D-03 -0.917599D-03  0.130503D-02 -0.595600D-02  0.481898D-02
     21  0.222330D-03 -0.129893D-02  0.212476D-02 -0.420918D-02  0.395326D-02
                6             7             8             9            10 
      6  0.342982D+00
      7 -0.665347D-02  0.985059D-01
      8 -0.593219D-02 -0.156590D-01  0.100274D+00
      9  0.587757D-02 -0.156594D-01 -0.190708D-01  0.100275D+00
     10 -0.128861D-02 -0.369719D-01 -0.360988D-01  0.766932D-02  0.518962D-01
     11  0.430577D-02 -0.369721D-01  0.766937D-02 -0.360989D-01  0.670817D-02
     12  0.351418D-02  0.819842D-02 -0.380586D-01 -0.380586D-01  0.694098D-02
     13 -0.248810D-02 -0.140145D-02 -0.219590D-02 -0.219564D-02  0.161652D-02
     14 -0.232564D-02  0.605151D-03  0.164642D-01 -0.141798D-01 -0.570223D-02
     15  0.483025D-02  0.602318D-03 -0.141784D-01  0.164653D-01  0.411949D-02
     16  0.506425D-02 -0.529093D-02 -0.295310D-02  0.781900D-02 -0.852326D-02
     17  0.419879D-02  0.529075D-02 -0.781958D-02  0.295396D-02 -0.103839D-01
     18 -0.395337D-02 -0.667296D-04  0.222849D-02 -0.339330D-02  0.112054D-01
     19 -0.481883D-02  0.105150D-01 -0.263799D-02 -0.825834D-02  0.934474D-02
     20  0.415479D-03 -0.105151D-01  0.825905D-02  0.263734D-02  0.109260D-02
     21 -0.449985D-03  0.665864D-04  0.339257D-02 -0.222771D-02 -0.768055D-03
               11            12            13            14            15 
     11  0.518965D-01
     12  0.694104D-02  0.542480D-01
     13  0.161667D-02  0.257284D-02  0.176674D+00
     14  0.411889D-02 -0.131488D-02 -0.883508D-01  0.126723D+00
     15 -0.570178D-02 -0.131579D-02 -0.883507D-01 -0.383528D-01  0.126723D+00
     16  0.103840D-01 -0.155685D-02  0.444728D-03 -0.219417D-02  0.204176D-02
     17  0.852291D-02  0.155691D-02 -0.444485D-03 -0.204186D-02  0.219402D-02
     18  0.768243D-03 -0.103712D-01  0.285103D-03  0.838570D-03 -0.854605D-03
     19 -0.109286D-02 -0.725741D-02 -0.604109D-03  0.990877D-03 -0.702347D-03
     20 -0.934450D-02  0.725754D-02  0.604029D-03  0.702103D-03 -0.990555D-03
     21 -0.112056D-01  0.103713D-01 -0.285183D-03  0.854409D-03 -0.838297D-03
               16            17            18            19            20 
     16  0.174345D-01
     17  0.151123D-02  0.174350D-01
     18  0.219184D-02 -0.124632D-01  0.170469D-01
     19 -0.137314D-01  0.346051D-02  0.239186D-02  0.195838D-01
     20  0.346036D-02 -0.137315D-01  0.327593D-02 -0.139159D-01  0.195839D-01
     21 -0.124629D-01  0.219226D-02 -0.113791D-01  0.327605D-02  0.239208D-02
               21 
     21  0.170473D-01
 Leave Link  716 at Fri Mar 15 15:30:41 2019, MaxMem=   196608000 cpu:         0.5
 (Enter /cm/shared/c3ddb/gaussian/09.d01/g09/l103.exe)

 GradGradGradGradGradGradGradGradGradGradGradGradGradGradGradGradGradGrad
 Berny optimization.
 Red2BG is reusing G-inverse.
 Internal  Forces:  Max     0.010365305 RMS     0.003401307
 Search for a local minimum.
 Step number   1 out of a maximum of   31 on scan point     1 out of    46
 All quantities printed in internal units (Hartrees-Bohrs-Radians)
 RMS Force = .34853D-02 SwitMx=.10000D-02 MixMth= 1
 Mixed Optimization -- RFO/linear search
 Second derivative matrix not updated -- analytic derivatives used.
 ITU=  0
     Eigenvalues ---    0.01702   0.04805   0.05373   0.11055   0.12577
     Eigenvalues ---    0.13830   0.15284   0.24176   0.31952   0.33875
     Eigenvalues ---    0.34028   0.34845   0.39079   0.781561000.00000
     Eigenvalues --- 1000.000001000.000001000.000001000.000001000.00000
     Eigenvalues --- 1000.00000
 RFO step:  Lambda=-3.41845191D-04 EMin= 1.70154499D-02
 Linear search not attempted -- first point.
 Iteration  1 RMS(Cart)=  0.00609081 RMS(Int)=  0.00001971
 Iteration  2 RMS(Cart)=  0.00002146 RMS(Int)=  0.00000216
 Iteration  3 RMS(Cart)=  0.00000000 RMS(Int)=  0.00000216
 Iteration  1 RMS(Cart)=  0.00000001 RMS(Int)=  0.00000001
 ITry= 1 IFail=0 DXMaxC= 1.76D-02 DCOld= 1.00D+10 DXMaxT= 5.00D-02 DXLimC= 3.00D+00 Rises=F
 Variable       Old X    -DE/DX   Delta X   Delta X   Delta X     New X
                                 (Linear)    (Quad)   (Total)
    R1        2.36417   0.01037   0.00000   0.01238   0.01238   2.37655
    R2        2.36417   0.01037   0.00000   0.01237   0.01237   2.37654
    R3        2.81282   0.00248   0.00000   0.00658   0.00658   2.81940
    R4        2.06518   0.00051   0.00000   0.00144   0.00144   2.06663
    R5        2.06081   0.00034   0.00000   0.00111   0.00111   2.06192
    R6        2.06081   0.00034   0.00000   0.00112   0.00112   2.06193
    A1        1.89270   0.00063   0.00000   0.00448   0.00447   1.89718
    A2        1.92090   0.00031   0.00000   0.00146   0.00146   1.92235
    A3        1.92090   0.00031   0.00000   0.00144   0.00144   1.92233
    A4        1.89862  -0.00044   0.00000  -0.00225  -0.00225   1.89636
    A5        1.89862  -0.00044   0.00000  -0.00230  -0.00230   1.89632
    A6        1.93139  -0.00039   0.00000  -0.00277  -0.00277   1.92862
    A7        1.93810   0.00368   0.00000   0.01098   0.01098   1.94908
    A8        2.17243  -0.00184   0.00000  -0.00549  -0.00549   2.16694
    A9        2.17243  -0.00184   0.00000  -0.00547  -0.00547   2.16695
    D1        1.55827   0.00002   0.00000   0.00000   0.00000   1.55827
    D2       -1.55811  -0.00002   0.00000  -0.00119  -0.00119  -1.55930
    D3       -2.64991   0.00005   0.00000   0.00081   0.00081  -2.64910
    D4        0.51690   0.00002   0.00000  -0.00038  -0.00038   0.51652
    D5       -0.51674  -0.00002   0.00000  -0.00074  -0.00074  -0.51748
    D6        2.65007  -0.00005   0.00000  -0.00193  -0.00193   2.64814
         Item               Value     Threshold  Converged?
 Maximum Force            0.010365     0.000450     NO 
 RMS     Force            0.003485     0.000300     NO 
 Maximum Displacement     0.017558     0.001800     NO 
 RMS     Displacement     0.006089     0.001200     NO 
 Predicted change in Energy=-1.710224D-04
 Lowest energy point so far.  Saving SCF results.
 GradGradGradGradGradGradGradGradGradGradGradGradGradGradGradGradGradGrad

 Leave Link  103 at Fri Mar 15 15:30:43 2019, MaxMem=   196608000 cpu:        12.4
 (Enter /cm/shared/c3ddb/gaussian/09.d01/g09/l202.exe)
                          Input orientation:                          
 ---------------------------------------------------------------------
 Center     Atomic      Atomic             Coordinates (Angstroms)
 Number     Number       Type             X           Y           Z
 ---------------------------------------------------------------------
      1          8           0        0.811801   -1.040602    0.001351
      2          8           0        0.811813    1.040605    0.000640
      3          6           0       -1.386288    0.000009   -0.002118
      4          6           0        0.105658    0.000004   -0.008489
      5          1           0       -1.732492   -0.000168    1.035248
      6          1           0       -1.764134    0.896604   -0.495979
      7          1           0       -1.764124   -0.896453   -0.496234
 ---------------------------------------------------------------------
                    Distance matrix (angstroms):
                    1          2          3          4          5
     1  O    0.000000
     2  O    2.081207   0.000000
     3  C    2.431970   2.431974   0.000000
     4  C    1.257615   1.257613   1.491960   0.000000
     5  H    2.936813   2.937195   1.093611   2.113807   0.000000
     6  H    3.261219   2.627332   1.091123   2.130179   1.774784
     7  H    2.627500   3.261063   1.091125   2.130167   1.774758
                    6          7
     6  H    0.000000
     7  H    1.793057   0.000000
 Stoichiometry    C2H3O2(2)
 Framework group  C1[X(C2H3O2)]
 Deg. of freedom    15
 Full point group                 C1      NOp   1
 RotChk:  IX=3 Diff= 9.81D-04
 Largest Abelian subgroup         C1      NOp   1
 Largest concise Abelian subgroup C1      NOp   1
                         Standard orientation:                         
 ---------------------------------------------------------------------
 Center     Atomic      Atomic             Coordinates (Angstroms)
 Number     Number       Type             X           Y           Z
 ---------------------------------------------------------------------
      1          8           0       -0.810362    1.040610    0.001635
      2          8           0       -0.810387   -1.040597    0.001636
      3          6           0        1.387719   -0.000015   -0.002805
      4          6           0       -0.104231   -0.000003   -0.008275
      5          1           0        1.734548    0.000515    1.034352
      6          1           0        1.765261   -0.896781   -0.496587
      7          1           0        1.765261    0.896275   -0.497456
 ---------------------------------------------------------------------
 Rotational constants (GHZ):     13.3565299      9.2430025      5.6555215
 Leave Link  202 at Fri Mar 15 15:30:43 2019, MaxMem=   196608000 cpu:         0.5
 (Enter /cm/shared/c3ddb/gaussian/09.d01/g09/l301.exe)
 Standard basis: 6-311+G(d,p) (5D, 7F)
 Ernie: Thresh=  0.10000D-02 Tol=  0.10000D-05 Strict=F.
 There are   110 symmetry adapted cartesian basis functions of A   symmetry.
 There are   106 symmetry adapted basis functions of A   symmetry.
   106 basis functions,   168 primitive gaussians,   110 cartesian basis functions
    16 alpha electrons       15 beta electrons
       nuclear repulsion energy       113.1244333780 Hartrees.
 IExCor=  402 DFT=T Ex+Corr=B3LYP ExCW=0 ScaHFX=  0.200000
 ScaDFX=  0.800000  0.720000  1.000000  0.810000 ScalE2=  1.000000  1.000000
 IRadAn=      5 IRanWt=     -1 IRanGd=            0 ICorTp=0 IEmpDi=  4
 NAtoms=    7 NActive=    7 NUniq=    7 SFac= 1.00D+00 NAtFMM=   60 NAOKFM=F Big=F
 Integral buffers will be    131072 words long.
 Raffenetti 2 integral format.
 Two-electron integral symmetry is turned on.
 Leave Link  301 at Fri Mar 15 15:30:43 2019, MaxMem=   196608000 cpu:         0.3
 (Enter /cm/shared/c3ddb/gaussian/09.d01/g09/l302.exe)
 NPDir=0 NMtPBC=     1 NCelOv=     1 NCel=       1 NClECP=     1 NCelD=      1
         NCelK=      1 NCelE2=     1 NClLst=     1 CellRange=     0.0.
 One-electron integrals computed using PRISM.
 NBasis=   106 RedAO= T EigKep=  1.44D-04  NBF=   106
 NBsUse=   106 1.00D-06 EigRej= -1.00D+00 NBFU=   106
 Precomputing XC quadrature grid using
 IXCGrd= 4 IRadAn=           5 IRanWt=          -1 IRanGd=           0 AccXCQ= 0.00D+00.
 Generated NRdTot=       0 NPtTot=           0 NUsed=           0 NTot=          32
 NSgBfM=   110   110   110   110   110 MxSgAt=     7 MxSgA2=     7.
 Leave Link  302 at Fri Mar 15 15:30:44 2019, MaxMem=   196608000 cpu:         4.9
 (Enter /cm/shared/c3ddb/gaussian/09.d01/g09/l303.exe)
 DipDrv:  MaxL=1.
 Leave Link  303 at Fri Mar 15 15:30:44 2019, MaxMem=   196608000 cpu:         1.8
 (Enter /cm/shared/c3ddb/gaussian/09.d01/g09/l401.exe)
 Initial guess from the checkpoint file:  "check.chk"
 B after Tr=     0.000000    0.000000    0.000000
         Rot=    1.000000    0.000045   -0.000117    0.000005 Ang=   0.01 deg.
 Guess basis will be translated and rotated to current coordinates.
 JPrj=2 DoOrth=T DoCkMO=T.
 Initial guess <Sx>= 0.0000 <Sy>= 0.0000 <Sz>= 0.5000 <S**2>= 0.7568 S= 0.5034
 Leave Link  401 at Fri Mar 15 15:30:45 2019, MaxMem=   196608000 cpu:         5.9
 (Enter /cm/shared/c3ddb/gaussian/09.d01/g09/l502.exe)
 UHF open shell SCF:
 Using DIIS extrapolation, IDIIS=  1040.
 Integral symmetry usage will be decided dynamically.
 Keep R1 and R2 ints in memory in canonical form, NReq=33143622.
 IVT=       43938 IEndB=       43938 NGot=   196608000 MDV=   164398151
 LenX=   164398151 LenY=   164385610
 Requested convergence on RMS density matrix=1.00D-08 within  64 cycles.
 Requested convergence on MAX density matrix=1.00D-06.
 Requested convergence on             energy=1.00D-06.
 No special actions if energy rises.
 FoFCou: FMM=F IPFlag=           0 FMFlag=           0 FMFlg1=           0
         NFxFlg=           0 DoJE=F BraDBF=F KetDBF=F FulRan=T
         wScrn=  0.000000 ICntrl=     600 IOpCl=  0 I1Cent=           0 NGrid=           0
         NMat0=    1 NMatS0=   5671 NMatT0=    0 NMatD0=    1 NMtDS0=    0 NMtDT0=    0
 Symmetry not used in FoFCou.

 Cycle   1  Pass 1  IDiag  1:
 E= -228.485756780544    
 DIIS: error= 9.61D-04 at cycle   1 NSaved=   1.
 NSaved= 1 IEnMin= 1 EnMin= -228.485756780544     IErMin= 1 ErrMin= 9.61D-04
 ErrMax= 9.61D-04  0.00D+00 EMaxC= 1.00D-01 BMatC= 3.17D-04 BMatP= 3.17D-04
 IDIUse=3 WtCom= 9.90D-01 WtEn= 9.61D-03
 Coeff-Com:  0.100D+01
 Coeff-En:   0.100D+01
 Coeff:      0.100D+01
 Gap=     0.528 Goal=   None    Shift=    0.000
 Gap=     0.496 Goal=   None    Shift=    0.000
 RMSDP=1.13D-04 MaxDP=1.35D-03              OVMax= 3.13D-03

 Cycle   2  Pass 1  IDiag  1:
 E= -228.485826418665     Delta-E=       -0.000069638121 Rises=F Damp=F
 DIIS: error= 4.78D-04 at cycle   2 NSaved=   2.
 NSaved= 2 IEnMin= 2 EnMin= -228.485826418665     IErMin= 2 ErrMin= 4.78D-04
 ErrMax= 4.78D-04  0.00D+00 EMaxC= 1.00D-01 BMatC= 4.59D-05 BMatP= 3.17D-04
 IDIUse=3 WtCom= 9.95D-01 WtEn= 4.78D-03
 Coeff-Com:  0.186D+00 0.814D+00
 Coeff-En:   0.000D+00 0.100D+01
 Coeff:      0.185D+00 0.815D+00
 Gap=     0.317 Goal=   None    Shift=    0.000
 Gap=     0.118 Goal=   None    Shift=    0.000
 RMSDP=4.12D-05 MaxDP=1.53D-03 DE=-6.96D-05 OVMax= 1.68D-03

 Cycle   3  Pass 1  IDiag  1:
 E= -228.485829337718     Delta-E=       -0.000002919054 Rises=F Damp=F
 DIIS: error= 5.00D-04 at cycle   3 NSaved=   3.
 NSaved= 3 IEnMin= 3 EnMin= -228.485829337718     IErMin= 2 ErrMin= 4.78D-04
 ErrMax= 5.00D-04  0.00D+00 EMaxC= 1.00D-01 BMatC= 3.49D-05 BMatP= 4.59D-05
 IDIUse=3 WtCom= 9.95D-01 WtEn= 5.00D-03
 Coeff-Com:  0.269D-03 0.464D+00 0.536D+00
 Coeff-En:   0.000D+00 0.414D+00 0.586D+00
 Coeff:      0.268D-03 0.464D+00 0.536D+00
 Gap=     0.318 Goal=   None    Shift=    0.000
 Gap=     0.118 Goal=   None    Shift=    0.000
 RMSDP=2.24D-05 MaxDP=6.16D-04 DE=-2.92D-06 OVMax= 1.00D-03

 Cycle   4  Pass 1  IDiag  1:
 E= -228.485835954243     Delta-E=       -0.000006616525 Rises=F Damp=F
 DIIS: error= 9.76D-05 at cycle   4 NSaved=   4.
 NSaved= 4 IEnMin= 4 EnMin= -228.485835954243     IErMin= 4 ErrMin= 9.76D-05
 ErrMax= 9.76D-05  0.00D+00 EMaxC= 1.00D-01 BMatC= 2.53D-06 BMatP= 3.49D-05
 IDIUse=1 WtCom= 1.00D+00 WtEn= 0.00D+00
 Coeff-Com: -0.139D-01 0.191D+00 0.292D+00 0.530D+00
 Coeff:     -0.139D-01 0.191D+00 0.292D+00 0.530D+00
 Gap=     0.318 Goal=   None    Shift=    0.000
 Gap=     0.118 Goal=   None    Shift=    0.000
 RMSDP=5.50D-06 MaxDP=1.06D-04 DE=-6.62D-06 OVMax= 2.09D-04

 Cycle   5  Pass 1  IDiag  1:
 E= -228.485836401462     Delta-E=       -0.000000447218 Rises=F Damp=F
 DIIS: error= 1.81D-05 at cycle   5 NSaved=   5.
 NSaved= 5 IEnMin= 5 EnMin= -228.485836401462     IErMin= 5 ErrMin= 1.81D-05
 ErrMax= 1.81D-05  0.00D+00 EMaxC= 1.00D-01 BMatC= 6.97D-08 BMatP= 2.53D-06
 IDIUse=1 WtCom= 1.00D+00 WtEn= 0.00D+00
 Coeff-Com: -0.200D-02-0.543D-02 0.164D-01 0.128D+00 0.863D+00
 Coeff:     -0.200D-02-0.543D-02 0.164D-01 0.128D+00 0.863D+00
 Gap=     0.318 Goal=   None    Shift=    0.000
 Gap=     0.118 Goal=   None    Shift=    0.000
 RMSDP=1.77D-06 MaxDP=2.50D-05 DE=-4.47D-07 OVMax= 1.55D-04

 Cycle   6  Pass 1  IDiag  1:
 E= -228.485836429213     Delta-E=       -0.000000027751 Rises=F Damp=F
 DIIS: error= 5.79D-06 at cycle   6 NSaved=   6.
 NSaved= 6 IEnMin= 6 EnMin= -228.485836429213     IErMin= 6 ErrMin= 5.79D-06
 ErrMax= 5.79D-06  0.00D+00 EMaxC= 1.00D-01 BMatC= 1.10D-08 BMatP= 6.97D-08
 IDIUse=1 WtCom= 1.00D+00 WtEn= 0.00D+00
 Coeff-Com:  0.107D-02-0.305D-01-0.393D-01-0.410D-01 0.241D+00 0.868D+00
 Coeff:      0.107D-02-0.305D-01-0.393D-01-0.410D-01 0.241D+00 0.868D+00
 Gap=     0.318 Goal=   None    Shift=    0.000
 Gap=     0.118 Goal=   None    Shift=    0.000
 RMSDP=1.03D-06 MaxDP=1.86D-05 DE=-2.78D-08 OVMax= 6.36D-05

 Cycle   7  Pass 1  IDiag  1:
 E= -228.485836431742     Delta-E=       -0.000000002530 Rises=F Damp=F
 DIIS: error= 7.12D-06 at cycle   7 NSaved=   7.
 NSaved= 7 IEnMin= 7 EnMin= -228.485836431742     IErMin= 6 ErrMin= 5.79D-06
 ErrMax= 7.12D-06  0.00D+00 EMaxC= 1.00D-01 BMatC= 1.23D-08 BMatP= 1.10D-08
 IDIUse=1 WtCom= 1.00D+00 WtEn= 0.00D+00
 Coeff-Com:  0.971D-03-0.222D-01-0.308D-01-0.415D-01 0.102D+00 0.643D+00
 Coeff-Com:  0.349D+00
 Coeff:      0.971D-03-0.222D-01-0.308D-01-0.415D-01 0.102D+00 0.643D+00
 Coeff:      0.349D+00
 Gap=     0.318 Goal=   None    Shift=    0.000
 Gap=     0.118 Goal=   None    Shift=    0.000
 RMSDP=4.70D-07 MaxDP=1.01D-05 DE=-2.53D-09 OVMax= 5.91D-05

 Cycle   8  Pass 1  IDiag  1:
 E= -228.485836433414     Delta-E=       -0.000000001671 Rises=F Damp=F
 DIIS: error= 4.40D-06 at cycle   8 NSaved=   8.
 NSaved= 8 IEnMin= 8 EnMin= -228.485836433414     IErMin= 8 ErrMin= 4.40D-06
 ErrMax= 4.40D-06  0.00D+00 EMaxC= 1.00D-01 BMatC= 4.55D-09 BMatP= 1.10D-08
 IDIUse=1 WtCom= 1.00D+00 WtEn= 0.00D+00
 Coeff-Com:  0.389D-03-0.568D-02-0.964D-02-0.178D-01-0.206D-01 0.176D+00
 Coeff-Com:  0.362D+00 0.515D+00
 Coeff:      0.389D-03-0.568D-02-0.964D-02-0.178D-01-0.206D-01 0.176D+00
 Coeff:      0.362D+00 0.515D+00
 Gap=     0.318 Goal=   None    Shift=    0.000
 Gap=     0.118 Goal=   None    Shift=    0.000
 RMSDP=2.38D-07 MaxDP=4.94D-06 DE=-1.67D-09 OVMax= 2.52D-05

 Cycle   9  Pass 1  IDiag  1:
 E= -228.485836434322     Delta-E=       -0.000000000908 Rises=F Damp=F
 DIIS: error= 6.31D-07 at cycle   9 NSaved=   9.
 NSaved= 9 IEnMin= 9 EnMin= -228.485836434322     IErMin= 9 ErrMin= 6.31D-07
 ErrMax= 6.31D-07  0.00D+00 EMaxC= 1.00D-01 BMatC= 1.87D-10 BMatP= 4.55D-09
 IDIUse=1 WtCom= 1.00D+00 WtEn= 0.00D+00
 Coeff-Com:  0.310D-05 0.148D-02 0.132D-02-0.136D-03-0.268D-01-0.357D-01
 Coeff-Com:  0.111D+00 0.260D+00 0.689D+00
 Coeff:      0.310D-05 0.148D-02 0.132D-02-0.136D-03-0.268D-01-0.357D-01
 Coeff:      0.111D+00 0.260D+00 0.689D+00
 Gap=     0.318 Goal=   None    Shift=    0.000
 Gap=     0.118 Goal=   None    Shift=    0.000
 RMSDP=5.51D-08 MaxDP=1.44D-06 DE=-9.08D-10 OVMax= 3.34D-06

 Cycle  10  Pass 1  IDiag  1:
 E= -228.485836434370     Delta-E=       -0.000000000048 Rises=F Damp=F
 DIIS: error= 1.02D-07 at cycle  10 NSaved=  10.
 NSaved=10 IEnMin=10 EnMin= -228.485836434370     IErMin=10 ErrMin= 1.02D-07
 ErrMax= 1.02D-07  0.00D+00 EMaxC= 1.00D-01 BMatC= 1.91D-12 BMatP= 1.87D-10
 IDIUse=1 WtCom= 1.00D+00 WtEn= 0.00D+00
 Coeff-Com: -0.166D-04 0.143D-03 0.345D-03 0.855D-03 0.502D-03-0.951D-02
 Coeff-Com: -0.169D-01-0.199D-01-0.231D-02 0.105D+01
 Coeff:     -0.166D-04 0.143D-03 0.345D-03 0.855D-03 0.502D-03-0.951D-02
 Coeff:     -0.169D-01-0.199D-01-0.231D-02 0.105D+01
 Gap=     0.318 Goal=   None    Shift=    0.000
 Gap=     0.118 Goal=   None    Shift=    0.000
 RMSDP=2.18D-08 MaxDP=3.30D-07 DE=-4.80D-11 OVMax= 2.51D-06

 Cycle  11  Pass 1  IDiag  1:
 E= -228.485836434372     Delta-E=       -0.000000000002 Rises=F Damp=F
 DIIS: error= 6.68D-08 at cycle  11 NSaved=  11.
 NSaved=11 IEnMin=11 EnMin= -228.485836434372     IErMin=11 ErrMin= 6.68D-08
 ErrMax= 6.68D-08  0.00D+00 EMaxC= 1.00D-01 BMatC= 3.83D-13 BMatP= 1.91D-12
 IDIUse=1 WtCom= 1.00D+00 WtEn= 0.00D+00
 Coeff-Com: -0.134D-05-0.507D-04-0.180D-04 0.126D-03 0.173D-02 0.745D-03
 Coeff-Com: -0.709D-02-0.124D-01-0.331D-01 0.489D-01 0.100D+01
 Coeff:     -0.134D-05-0.507D-04-0.180D-04 0.126D-03 0.173D-02 0.745D-03
 Coeff:     -0.709D-02-0.124D-01-0.331D-01 0.489D-01 0.100D+01
 Gap=     0.318 Goal=   None    Shift=    0.000
 Gap=     0.118 Goal=   None    Shift=    0.000
 RMSDP=1.01D-08 MaxDP=1.79D-07 DE=-1.88D-12 OVMax= 1.91D-06

 Cycle  12  Pass 1  IDiag  1:
 E= -228.485836434373     Delta-E=       -0.000000000001 Rises=F Damp=F
 DIIS: error= 5.31D-08 at cycle  12 NSaved=  12.
 NSaved=12 IEnMin=12 EnMin= -228.485836434373     IErMin=12 ErrMin= 5.31D-08
 ErrMax= 5.31D-08  0.00D+00 EMaxC= 1.00D-01 BMatC= 2.08D-13 BMatP= 3.83D-13
 IDIUse=1 WtCom= 1.00D+00 WtEn= 0.00D+00
 Coeff-Com:  0.454D-05-0.223D-04-0.911D-04-0.276D-03-0.815D-03 0.225D-02
 Coeff-Com:  0.627D-02 0.110D-01 0.125D-01-0.290D+00-0.406D+00 0.167D+01
 Coeff:      0.454D-05-0.223D-04-0.911D-04-0.276D-03-0.815D-03 0.225D-02
 Coeff:      0.627D-02 0.110D-01 0.125D-01-0.290D+00-0.406D+00 0.167D+01
 Gap=     0.318 Goal=   None    Shift=    0.000
 Gap=     0.118 Goal=   None    Shift=    0.000
 RMSDP=1.48D-08 MaxDP=2.71D-07 DE=-9.09D-13 OVMax= 2.85D-06

 Cycle  13  Pass 1  IDiag  1:
 E= -228.485836434374     Delta-E=       -0.000000000001 Rises=F Damp=F
 DIIS: error= 3.19D-08 at cycle  13 NSaved=  13.
 NSaved=13 IEnMin=13 EnMin= -228.485836434374     IErMin=13 ErrMin= 3.19D-08
 ErrMax= 3.19D-08  0.00D+00 EMaxC= 1.00D-01 BMatC= 7.76D-14 BMatP= 2.08D-13
 IDIUse=1 WtCom= 1.00D+00 WtEn= 0.00D+00
 Coeff-Com:  0.100D-05 0.257D-04 0.294D-05-0.104D-03-0.121D-02-0.259D-03
 Coeff-Com:  0.385D-02 0.725D-02 0.184D-01 0.190D-02-0.727D+00-0.105D+00
 Coeff-Com:  0.180D+01
 Coeff:      0.100D-05 0.257D-04 0.294D-05-0.104D-03-0.121D-02-0.259D-03
 Coeff:      0.385D-02 0.725D-02 0.184D-01 0.190D-02-0.727D+00-0.105D+00
 Coeff:      0.180D+01
 Gap=     0.318 Goal=   None    Shift=    0.000
 Gap=     0.118 Goal=   None    Shift=    0.000
 RMSDP=1.89D-08 MaxDP=3.44D-07 DE=-1.42D-12 OVMax= 3.63D-06

 Cycle  14  Pass 1  IDiag  1:
 E= -228.485836434375     Delta-E=        0.000000000000 Rises=F Damp=F
 DIIS: error= 5.22D-09 at cycle  14 NSaved=  14.
 NSaved=14 IEnMin=14 EnMin= -228.485836434375     IErMin=14 ErrMin= 5.22D-09
 ErrMax= 5.22D-09  0.00D+00 EMaxC= 1.00D-01 BMatC= 6.00D-15 BMatP= 7.76D-14
 IDIUse=1 WtCom= 1.00D+00 WtEn= 0.00D+00
 Coeff-Com: -0.457D-06 0.128D-04 0.208D-04 0.273D-04-0.119D-03-0.439D-03
 Coeff-Com: -0.872D-04-0.369D-03 0.216D-02 0.569D-01-0.102D+00-0.280D+00
 Coeff-Com:  0.392D+00 0.933D+00
 Coeff:     -0.457D-06 0.128D-04 0.208D-04 0.273D-04-0.119D-03-0.439D-03
 Coeff:     -0.872D-04-0.369D-03 0.216D-02 0.569D-01-0.102D+00-0.280D+00
 Coeff:      0.392D+00 0.933D+00
 Gap=     0.318 Goal=   None    Shift=    0.000
 Gap=     0.118 Goal=   None    Shift=    0.000
 RMSDP=3.33D-09 MaxDP=6.11D-08 DE=-1.71D-13 OVMax= 6.40D-07

 SCF Done:  E(UB3LYP) =  -228.485836434     A.U. after   14 cycles
            NFock= 14  Conv=0.33D-08     -V/T= 2.0034
 <Sx>= 0.0000 <Sy>= 0.0000 <Sz>= 0.5000 <S**2>= 0.7569 S= 0.5035
 <L.S>= 0.000000000000E+00
 KE= 2.277051752333D+02 PE=-7.626446917179D+02 EE= 1.933292466722D+02
 Annihilation of the first spin contaminant:
 S**2 before annihilation     0.7569,   after     0.7500
 Leave Link  502 at Fri Mar 15 15:31:15 2019, MaxMem=   196608000 cpu:       194.1
 (Enter /cm/shared/c3ddb/gaussian/09.d01/g09/l508.exe)
 QCSCF skips out because SCF is already converged.
 Leave Link  508 at Fri Mar 15 15:31:15 2019, MaxMem=   196608000 cpu:         0.0
 (Enter /cm/shared/c3ddb/gaussian/09.d01/g09/l701.exe)
 Compute integral first derivatives.
 ... and contract with generalized density number  0.
 Leave Link  701 at Fri Mar 15 15:31:16 2019, MaxMem=   196608000 cpu:         7.7
 (Enter /cm/shared/c3ddb/gaussian/09.d01/g09/l702.exe)
 L702 exits ... SP integral derivatives will be done elsewhere.
 Leave Link  702 at Fri Mar 15 15:31:16 2019, MaxMem=   196608000 cpu:         0.2
 (Enter /cm/shared/c3ddb/gaussian/09.d01/g09/l703.exe)
 Compute integral first derivatives, UseDBF=F ICtDFT=           0.
 Integral derivatives from FoFJK, PRISM(SPDF).
 Calling FoFJK, ICntrl=      2127 FMM=F ISym2X=0 I1Cent= 0 IOpClX= 1 NMat=1 NMatS=1 NMatT=0.
 FoFJK:  IHMeth= 1 ICntrl=    2127 DoSepK=F KAlg= 0 I1Cent=   0 FoldK=F
 IRaf=         0 NMat=   1 IRICut=       1 DoRegI=T DoRafI=F ISym2E= 0.
 FoFCou: FMM=F IPFlag=           0 FMFlag=      100000 FMFlg1=         800
         NFxFlg=           0 DoJE=F BraDBF=F KetDBF=F FulRan=T
         wScrn=  0.000000 ICntrl=    2127 IOpCl=  1 I1Cent=           0 NGrid=           0
         NMat0=    1 NMatS0=      1 NMatT0=    0 NMatD0=    1 NMtDS0=    0 NMtDT0=    0
 Symmetry not used in FoFCou.
 Leave Link  703 at Fri Mar 15 15:31:20 2019, MaxMem=   196608000 cpu:        24.1
 (Enter /cm/shared/c3ddb/gaussian/09.d01/g09/l716.exe)
 Dipole        = 1.36778449D+00 4.91090695D-06 7.67343242D-03
 ***** Axes restored to original set *****
 -------------------------------------------------------------------
 Center     Atomic                   Forces (Hartrees/Bohr)
 Number     Number              X              Y              Z
 -------------------------------------------------------------------
      1        8           0.000086748   -0.000250069    0.000000231
      2        8           0.000086634    0.000249932    0.000000203
      3        6          -0.000015614   -0.000000911    0.000000024
      4        6          -0.000149505    0.000000300   -0.000001305
      5        1          -0.000003767    0.000000545    0.000001273
      6        1          -0.000002244    0.000000314   -0.000000038
      7        1          -0.000002251   -0.000000112   -0.000000388
 -------------------------------------------------------------------
 Cartesian Forces:  Max     0.000250069 RMS     0.000088009
 Leave Link  716 at Fri Mar 15 15:31:20 2019, MaxMem=   196608000 cpu:         0.2
 (Enter /cm/shared/c3ddb/gaussian/09.d01/g09/l103.exe)

 GradGradGradGradGradGradGradGradGradGradGradGradGradGradGradGradGradGrad
 Berny optimization.
 Using GEDIIS/GDIIS optimizer.
 FormGI is forming the generalized inverse of G from B-inverse, IUseBI=4.
 Internal  Forces:  Max     0.000255629 RMS     0.000084223
 Search for a local minimum.
 Step number   2 out of a maximum of   31 on scan point     1 out of    46
 All quantities printed in internal units (Hartrees-Bohrs-Radians)
 RMS Force = .86302D-04 SwitMx=.10000D-02 MixMth= 2
 Mixed Optimization -- En-DIIS/RFO-DIIS
 Update second derivatives using D2CorX and points    1    2
 DE= -1.74D-04 DEPred=-1.71D-04 R= 1.02D+00
 TightC=F SS=  1.41D+00  RLast= 2.42D-02 DXNew= 8.4090D-02 7.2467D-02
 Trust test= 1.02D+00 RLast= 2.42D-02 DXMaxT set to 7.25D-02
 ITU=  1  0
 Use linear search instead of GDIIS.
     Eigenvalues ---    0.01700   0.04804   0.05373   0.11055   0.12579
     Eigenvalues ---    0.13830   0.15283   0.24106   0.31954   0.33876
     Eigenvalues ---    0.34028   0.34851   0.39079   0.764831000.00000
     Eigenvalues --- 1000.000001000.000001000.000001000.000001000.00000
     Eigenvalues --- 1000.00000
 RFO step:  Lambda= 0.00000000D+00 EMin= 1.69950953D-02
 Quartic linear search produced a step of  0.02559.
 Iteration  1 RMS(Cart)=  0.00015822 RMS(Int)=  0.00000006
[...]
           D5         -69.01074 -60.92477 -52.91397 -45.04487 -37.26871
           D6         110.22063 118.94758 127.54172 135.95311 144.01036
                          46
     Eigenvalues --  -228.48584
           R1           1.25777
           R2           1.25783
           R3           1.49199
           R4           1.09360
           R5           1.09115
           R6           1.09115
           A1         108.66123
           A2         110.17319
           A3         110.15651
           A4         108.66752
           A5         108.64343
           A6         110.48804
           A7         111.68989
           A8         124.12047
           A9         124.17745
           D1          89.28250
           D2         -89.34122
           D3        -151.77075
           D4          29.60553
           D5         -29.62509
           D6         151.75118
 Largest change from initial coordinates is atom    1       0.004 Angstoms.
 Leave Link  103 at Fri Mar 15 17:24:52 2019, MaxMem=   196608000 cpu:        20.0
 (Enter /cm/shared/c3ddb/gaussian/09.d01/g09/l202.exe)
                          Input orientation:                          
 ---------------------------------------------------------------------
 Center     Atomic      Atomic             Coordinates (Angstroms)
 Number     Number       Type             X           Y           Z
 ---------------------------------------------------------------------
      1          8           0        0.808661    0.876111    0.574217
      2          8           0        0.814830   -0.853477   -0.584238
      3          6           0       -1.386133   -0.010142    0.016765
      4          6           0        0.105809   -0.000482    0.008911
      5          1           0       -1.744308    0.564585   -0.841933
      6          1           0       -1.756267   -1.033035   -0.068679
      7          1           0       -1.760357    0.456439    0.929378
 ---------------------------------------------------------------------
                    Distance matrix (angstroms):
                    1          2          3          4          5
     1  O    0.000000
     2  O    2.081714   0.000000
     3  C    2.431732   2.432418   0.000000
     4  C    1.257771   1.257830   1.491994   0.000000
     5  H    2.936015   2.937090   1.093601   2.113332   0.000000
     6  H    3.261443   2.628418   1.091151   2.130613   1.774953
     7  H    2.627189   3.261672   1.091148   2.130402   1.774682
                    6          7
     6  H    0.000000
     7  H    1.792950   0.000000
 Stoichiometry    C2H3O2(2)
 Framework group  C1[X(C2H3O2)]
 Deg. of freedom    15
 Full point group                 C1      NOp   1
 RotChk:  IX=0 Diff= 9.89D-16
 Largest Abelian subgroup         C1      NOp   1
 Largest concise Abelian subgroup C1      NOp   1
                         Standard orientation:                         
 ---------------------------------------------------------------------
 Center     Atomic      Atomic             Coordinates (Angstroms)
 Number     Number       Type             X           Y           Z
 ---------------------------------------------------------------------
      1          8           0       -0.809401    1.041338    0.001597
      2          8           0       -0.811337   -1.040375    0.001630
      3          6           0        1.387718   -0.000762   -0.002814
      4          6           0       -0.104266   -0.000140   -0.008295
      5          1           0        1.733832   -0.000353    1.034571
      6          1           0        1.765454   -0.897443   -0.496666
      7          1           0        1.765904    0.895507   -0.497064
 ---------------------------------------------------------------------
 Rotational constants (GHZ):     13.3506028      9.2429365      5.6544521
 Leave Link  202 at Fri Mar 15 17:24:52 2019, MaxMem=   196608000 cpu:         0.6
 (Enter /cm/shared/c3ddb/gaussian/09.d01/g09/l601.exe)
 Copying SCF densities to generalized density rwf, IOpCl= 1 IROHF=0.

 **********************************************************************

            Population analysis using the SCF density.

 **********************************************************************

 Orbital symmetries:
 Alpha Orbitals:
       Occupied  (A) (A) (A) (A) (A) (A) (A) (A) (A) (A) (A) (A)
                 (A) (A) (A) (A)
       Virtual   (A) (A) (A) (A) (A) (A) (A) (A) (A) (A) (A) (A)
                 (A) (A) (A) (A) (A) (A) (A) (A) (A) (A) (A) (A)
                 (A) (A) (A) (A) (A) (A) (A) (A) (A) (A) (A) (A)
                 (A) (A) (A) (A) (A) (A) (A) (A) (A) (A) (A) (A)
                 (A) (A) (A) (A) (A) (A) (A) (A) (A) (A) (A) (A)
                 (A) (A) (A) (A) (A) (A) (A) (A) (A) (A) (A) (A)
                 (A) (A) (A) (A) (A) (A) (A) (A) (A) (A) (A) (A)
                 (A) (A) (A) (A) (A) (A)
 Beta  Orbitals:
       Occupied  (A) (A) (A) (A) (A) (A) (A) (A) (A) (A) (A) (A)
                 (A) (A) (A)
       Virtual   (A) (A) (A) (A) (A) (A) (A) (A) (A) (A) (A) (A)
                 (A) (A) (A) (A) (A) (A) (A) (A) (A) (A) (A) (A)
                 (A) (A) (A) (A) (A) (A) (A) (A) (A) (A) (A) (A)
                 (A) (A) (A) (A) (A) (A) (A) (A) (A) (A) (A) (A)
                 (A) (A) (A) (A) (A) (A) (A) (A) (A) (A) (A) (A)
                 (A) (A) (A) (A) (A) (A) (A) (A) (A) (A) (A) (A)
                 (A) (A) (A) (A) (A) (A) (A) (A) (A) (A) (A) (A)
                 (A) (A) (A) (A) (A) (A) (A)
 The electronic state is 2-A.
 Alpha  occ. eigenvalues --  -19.19368 -19.19365 -10.33644 -10.21345  -1.15424
 Alpha  occ. eigenvalues --   -1.03736  -0.78773  -0.57923  -0.53124  -0.50953
 Alpha  occ. eigenvalues --   -0.50607  -0.44305  -0.42885  -0.37052  -0.35391
 Alpha  occ. eigenvalues --   -0.34767
 Alpha virt. eigenvalues --   -0.02993  -0.00623   0.03649   0.04091   0.04141
 Alpha virt. eigenvalues --    0.07203   0.07537   0.08492   0.11359   0.11670
 Alpha virt. eigenvalues --    0.14168   0.19026   0.21007   0.21047   0.21840
 Alpha virt. eigenvalues --    0.21847   0.27178   0.27698   0.28682   0.28871
 Alpha virt. eigenvalues --    0.31435   0.36277   0.39575   0.41484   0.42621
 Alpha virt. eigenvalues --    0.51311   0.53668   0.56745   0.57417   0.62900
 Alpha virt. eigenvalues --    0.67562   0.68993   0.77767   0.84178   0.96930
 Alpha virt. eigenvalues --    1.02516   1.06363   1.06754   1.12486   1.12933
 Alpha virt. eigenvalues --    1.13515   1.22337   1.31239   1.38568   1.40582
 Alpha virt. eigenvalues --    1.44178   1.50529   1.51137   1.53936   1.54744
 Alpha virt. eigenvalues --    1.67313   1.72104   1.79716   1.83636   1.99012
 Alpha virt. eigenvalues --    2.02756   2.17813   2.32799   2.40244   2.45478
 Alpha virt. eigenvalues --    2.45481   2.51624   2.52166   2.62923   2.74125
 Alpha virt. eigenvalues --    2.75722   2.78161   2.82371   2.83459   3.02352
 Alpha virt. eigenvalues --    3.04608   3.17922   3.23217   3.29633   3.53818
 Alpha virt. eigenvalues --    3.57984   3.75957   3.80383   3.99783   4.12289
 Alpha virt. eigenvalues --    4.91651   4.94912   4.98893   5.12923   5.47294
 Alpha virt. eigenvalues --    5.74766  23.77423  23.91139  49.78504  49.91441
  Beta  occ. eigenvalues --  -19.17875 -19.17874 -10.33762 -10.21350  -1.12634
  Beta  occ. eigenvalues --   -1.00106  -0.78488  -0.56605  -0.50224  -0.49652
  Beta  occ. eigenvalues --   -0.49329  -0.43620  -0.42405  -0.33027  -0.31338
  Beta virt. eigenvalues --   -0.19564  -0.02669  -0.00569   0.03746   0.04183
  Beta virt. eigenvalues --    0.04200   0.07351   0.07785   0.08506   0.11409
  Beta virt. eigenvalues --    0.11763   0.14290   0.19109   0.21217   0.21267
  Beta virt. eigenvalues --    0.21920   0.22106   0.27360   0.28363   0.29042
  Beta virt. eigenvalues --    0.29330   0.31854   0.36666   0.39919   0.42286
  Beta virt. eigenvalues --    0.42703   0.52093   0.53525   0.56902   0.57633
  Beta virt. eigenvalues --    0.62978   0.67925   0.69139   0.77837   0.84481
  Beta virt. eigenvalues --    0.97036   1.03276   1.07421   1.07568   1.13923
  Beta virt. eigenvalues --    1.15715   1.15740   1.22760   1.31280   1.38620
  Beta virt. eigenvalues --    1.40669   1.45314   1.50626   1.51496   1.54683
  Beta virt. eigenvalues --    1.55164   1.68048   1.72359   1.79846   1.83649
  Beta virt. eigenvalues --    1.99610   2.02975   2.17911   2.33729   2.40310
  Beta virt. eigenvalues --    2.45544   2.45733   2.51723   2.52481   2.63369
  Beta virt. eigenvalues --    2.78860   2.78922   2.80815   2.85655   2.86464
  Beta virt. eigenvalues --    3.03035   3.06236   3.19390   3.24243   3.30834
  Beta virt. eigenvalues --    3.55308   3.61561   3.76021   3.80552   4.01403
  Beta virt. eigenvalues --    4.12721   4.93005   5.00207   5.00809   5.18447
  Beta virt. eigenvalues --    5.48885   5.76248  23.77298  23.91132  49.80001
  Beta virt. eigenvalues --   49.92935
          Condensed to atoms (all electrons):
               1          2          3          4          5          6
     1  O    8.032196  -0.083222  -0.112950   0.311410  -0.003672   0.008745
     2  O   -0.083222   8.032151  -0.112750   0.311438  -0.003663   0.000960
     3  C   -0.112950  -0.112750   5.247601   0.163339   0.384454   0.413283
     4  C    0.311410   0.311438   0.163339   5.157578  -0.014943  -0.049996
     5  H   -0.003672  -0.003663   0.384454  -0.014943   0.490783  -0.019282
     6  H    0.008745   0.000960   0.413283  -0.049996  -0.019282   0.496979
     7  H    0.000942   0.008724   0.413327  -0.049995  -0.019310  -0.023973
               7
     1  O    0.000942
     2  O    0.008724
     3  C    0.413327
     4  C   -0.049995
     5  H   -0.019310
     6  H   -0.023973
     7  H    0.496977
          Atomic-Atomic Spin Densities.
               1          2          3          4          5          6
     1  O    0.586484  -0.065285   0.019934  -0.002265   0.000487  -0.000575
     2  O   -0.065285   0.586192   0.019930  -0.002216   0.000486  -0.003181
     3  C    0.019934   0.019930  -0.044135  -0.002909  -0.001755   0.005346
     4  C   -0.002265  -0.002216  -0.002909  -0.068895   0.000856  -0.001944
     5  H    0.000487   0.000486  -0.001755   0.000856  -0.001670   0.000318
     6  H   -0.000575  -0.003181   0.005346  -0.001944   0.000318   0.005313
     7  H   -0.003180  -0.000573   0.005329  -0.001929   0.000319  -0.001494
               7
     1  O   -0.003180
     2  O   -0.000573
     3  C    0.005329
     4  C   -0.001929
     5  H    0.000319
     6  H   -0.001494
     7  H    0.005311
 Mulliken charges and spin densities:
               1          2
     1  O   -0.153448   0.535600
     2  O   -0.153638   0.535354
     3  C   -0.396304   0.001741
     4  C    0.171168  -0.079303
     5  H    0.185631  -0.000959
     6  H    0.173284   0.003784
     7  H    0.173307   0.003782
 Sum of Mulliken charges =   0.00000   1.00000
 Mulliken charges and spin densities with hydrogens summed into heavy atoms:
               1          2
     1  O   -0.153448   0.535600
     2  O   -0.153638   0.535354
     3  C    0.135918   0.008348
     4  C    0.171168  -0.079303
 Electronic spatial extent (au):  <R**2>=            238.4240
 Charge=              0.0000 electrons
 Dipole moment (field-independent basis, Debye):
    X=              3.4768    Y=             -0.0017    Z=              0.0196  Tot=              3.4768
 Quadrupole moment (field-independent basis, Debye-Ang):
   XX=            -23.3783   YY=            -25.8261   ZZ=            -22.3205
   XY=             -0.0017   XZ=              0.0763   YZ=              0.0004
 Traceless Quadrupole moment (field-independent basis, Debye-Ang):
   XX=              0.4634   YY=             -1.9845   ZZ=              1.5211
   XY=             -0.0017   XZ=              0.0763   YZ=              0.0004
 Octapole moment (field-independent basis, Debye-Ang**2):
  XXX=              0.9193  YYY=             -0.0048  ZZZ=              0.8758  XYY=              3.0379
  XXY=              0.0058  XXZ=              0.0817  XZZ=             -0.1023  YZZ=              0.0013
  YYZ=             -0.8270  XYZ=              0.0003
 Hexadecapole moment (field-independent basis, Debye-Ang**3):
 XXXX=           -166.0704 YYYY=           -102.4221 ZZZZ=            -26.8874 XXXY=              0.0005
 XXXZ=              0.0785 YYYX=              0.0036 YYYZ=              0.0022 ZZZX=              1.6733
 ZZZY=             -0.0001 XXYY=            -45.0188 XXZZ=            -30.5794 YYZZ=            -21.7013
 XXYZ=              0.0004 YYXZ=             -1.5356 ZZXY=              0.0018
 N-N= 1.131126928645D+02 E-N=-7.626201556234D+02  KE= 2.277037630191D+02
                          Isotropic Fermi Contact Couplings
        Atom                 a.u.       MegaHertz       Gauss      10(-4) cm-1
     1  O(17)              0.03619     -21.93976      -7.82865      -7.31832
     2  O(17)              0.03618     -21.93162      -7.82575      -7.31560
     3  C(13)             -0.01100     -12.37081      -4.41421      -4.12646
     4  C(13)             -0.03481     -39.13799     -13.96541     -13.05503
     5  H(1)              -0.00078      -3.48670      -1.24414      -1.16304
     6  H(1)               0.00320      14.29391       5.10042       4.76794
     7  H(1)               0.00320      14.28893       5.09865       4.76627
 --------------------------------------------------------
       Center         ----  Spin Dipole Couplings  ----
                      3XX-RR        3YY-RR        3ZZ-RR
 --------------------------------------------------------
     1   Atom        0.225703      0.879518     -1.105221
     2   Atom        0.218542      0.886276     -1.104818
     3   Atom        0.001614      0.013117     -0.014732
     4   Atom        0.021310      0.067423     -0.088734
     5   Atom        0.005362     -0.002411     -0.002951
     6   Atom        0.008230     -0.003136     -0.005093
     7   Atom        0.008245     -0.003147     -0.005098
 --------------------------------------------------------
                        XY            XZ            YZ
 --------------------------------------------------------
     1   Atom        1.707430     -0.044480     -0.055024
     2   Atom       -1.705377     -0.044217      0.054934
     3   Atom       -0.000015     -0.001463     -0.000008
     4   Atom        0.000037     -0.001185     -0.000001
     5   Atom       -0.000009      0.004550     -0.000005
     6   Atom       -0.001462     -0.003445      0.001440
     7   Atom        0.001443     -0.003453     -0.001436
 --------------------------------------------------------


 ---------------------------------------------------------------------------------
              Anisotropic Spin Dipole Couplings in Principal Axis System
 ---------------------------------------------------------------------------------

       Atom             a.u.   MegaHertz   Gauss  10(-4) cm-1        Axes

              Baa    -1.1858    85.807    30.618    28.622  0.7706 -0.6373 -0.0098
     1 O(17)  Bbb    -1.1067    80.079    28.574    26.711  0.0208  0.0098  0.9997
              Bcc     2.2925  -165.886   -59.192   -55.333  0.6370  0.7706 -0.0208
 
              Baa    -1.1853    85.771    30.605    28.610  0.7719  0.6357 -0.0098
     2 O(17)  Bbb    -1.1063    80.049    28.564    26.702  0.0208 -0.0098  0.9997
              Bcc     2.2916  -165.820   -59.169   -55.312 -0.6354  0.7719  0.0208
 
              Baa    -0.0149    -1.994    -0.712    -0.665  0.0884  0.0003  0.9961
     3 C(13)  Bbb     0.0017     0.234     0.084     0.078  0.9961  0.0013 -0.0884
              Bcc     0.0131     1.760     0.628     0.587 -0.0013  1.0000 -0.0002
 
              Baa    -0.0887   -11.909    -4.249    -3.972  0.0108  0.0000  0.9999
     4 C(13)  Bbb     0.0213     2.861     1.021     0.954  0.9999 -0.0008 -0.0108
              Bcc     0.0674     9.048     3.228     3.018  0.0008  1.0000  0.0000
 
              Baa    -0.0050    -2.645    -0.944    -0.882 -0.4035  0.0006  0.9150
     5 H(1)   Bbb    -0.0024    -1.286    -0.459    -0.429  0.0012  1.0000 -0.0001
              Bcc     0.0074     3.931     1.403     1.311  0.9150 -0.0010  0.4035
 
              Baa    -0.0063    -3.364    -1.200    -1.122  0.1854 -0.3342  0.9241
     6 H(1)   Bbb    -0.0030    -1.608    -0.574    -0.536  0.2115  0.9319  0.2946
              Bcc     0.0093     4.972     1.774     1.658  0.9596 -0.1408 -0.2434
 
              Baa    -0.0063    -3.368    -1.202    -1.124  0.1860  0.3342  0.9240
     7 H(1)   Bbb    -0.0030    -1.610    -0.575    -0.537 -0.2099  0.9322 -0.2949
              Bcc     0.0093     4.978     1.776     1.661  0.9599  0.1390 -0.2436
 

 ---------------------------------------------------------------------------------

 No NMR shielding tensors so no spin-rotation constants.
 Leave Link  601 at Fri Mar 15 17:24:54 2019, MaxMem=   196608000 cpu:         8.2
 (Enter /cm/shared/c3ddb/gaussian/09.d01/g09/l9999.exe)

 Test job not archived.
 1\1\GINC-NODE020\Scan\UB3LYP\6-311+G(d,p)\C2H3O2(2)\ALONGD\15-Mar-2019
 \0\\#P opt=(modredundant, calcfc, noeigentest, maxStep=5) scf=(tight, 
 direct) integral=(grid=ultrafine, Acc2E=12) ub3lyp/6-311+g(d,p) scf=xq
 c IOp(2/11=1)\\name\\0,2\O,0.8086613805,0.8761109171,0.5742171769\O,0.
 8148299096,-0.8534769648,-0.5842383108\C,-1.3861334335,-0.0101416384,0
 .0167646652\C,0.105808939,-0.0004821822,0.008911069\H,-1.7443084796,0.
 5645854805,-0.8419332275\H,-1.7562669713,-1.0330354224,-0.0686793524\H
 ,-1.7603573447,0.4564388102,0.9293779797\\Version=AS64L-G09RevD.01\Sta
 te=2-A\HF=-228.4858364,-228.4858308,-228.4858169,-228.4858035,-228.485
 7982,-228.4858046,-228.4858187,-228.4858323,-228.4858363,-228.4858272,
 -228.4858108,-228.485799,-228.4858016,-228.4858162,-228.4858314,-228.4
 858364,-228.4858286,-228.4858138,-228.4858013,-228.4857985,-228.485807
 2,-228.4858217,-228.4858338,-228.4858359,-228.4858264,-228.4858109,-22
 8.4857996,-228.4858003,-228.4858126,-228.4858282,-228.4858364,-228.485
 8316,-228.4858172,-228.4858029,-228.4857982,-228.4858067,-228.4858222,
 -228.4858345,-228.485835,-228.4858235,-228.4858078,-228.4857985,-228.4
 858022,-228.4858159,-228.4858305,-228.4858364\S2=0.756943,0.756948,0.7
 56947,0.756946,0.756946,0.756946,0.756947,0.756948,0.756949,0.756948,0
 .756947,0.756946,0.756946,0.756947,0.756948,0.756949,0.756948,0.756947
 ,0.756946,0.756946,0.756946,0.756947,0.756948,0.756949,0.756948,0.7569
 47,0.756946,0.756946,0.756947,0.756948,0.756949,0.756948,0.756947,0.75
 6946,0.756946,0.756946,0.756948,0.756948,0.756949,0.756948,0.756947,0.
 756946,0.756946,0.756947,0.756948,0.756949\S2-1=0.,0.,0.,0.,0.,0.,0.,0
 .,0.,0.,0.,0.,0.,0.,0.,0.,0.,0.,0.,0.,0.,0.,0.,0.,0.,0.,0.,0.,0.,0.,0.
 ,0.,0.,0.,0.,0.,0.,0.,0.,0.,0.,0.,0.,0.,0.,0.\S2A=0.750024,0.750024,0.
 750024,0.750024,0.750024,0.750024,0.750024,0.750024,0.750024,0.750024,
 0.750024,0.750024,0.750024,0.750024,0.750024,0.750024,0.750024,0.75002
 4,0.750024,0.750024,0.750024,0.750024,0.750024,0.750024,0.750024,0.750
 024,0.750024,0.750024,0.750024,0.750024,0.750024,0.750024,0.750024,0.7
 50024,0.750024,0.750024,0.750024,0.750024,0.750024,0.750024,0.750024,0
 .750024,0.750024,0.750024,0.750024,0.750024\RMSD=3.330e-09,4.416e-09,4
 .067e-09,4.320e-09,3.285e-09,2.281e-09,3.750e-09,5.963e-09,4.610e-09,3
 .129e-09,5.400e-09,9.886e-09,4.836e-09,2.445e-09,8.033e-09,2.685e-09,7
 .657e-09,3.944e-09,2.712e-09,5.995e-09,6.315e-09,4.538e-09,6.842e-09,9
 .491e-09,4.195e-09,5.653e-09,3.353e-09,6.005e-09,3.713e-09,3.663e-09,2
 .089e-09,2.461e-09,4.891e-09,4.975e-09,3.986e-09,2.084e-09,7.078e-09,5
 .692e-09,4.051e-09,3.587e-09,3.831e-09,7.176e-09,6.765e-09,7.148e-09,5
 .516e-09,2.032e-09\PG=C01 [X(C2H3O2)]\\@


 IT'S WHAT YOU LEARN AFTER YOU KNOW IT ALL
 THAT COUNTS.
 Job cpu time:       0 days 11 hours 30 minutes 47.2 seconds.
 File lengths (MBytes):  RWF=     21 Int=      0 D2E=      0 Chk=      4 Scr=      1
 Normal termination of Gaussian 09 at Fri Mar 15 17:24:54 2019.
