 Entering Gaussian System, Link 0=g09
 Initial command:
 /cm/shared/c3ddb/gaussian/09.d01/g09/l1.exe "/scratch/users/alongd/g09/a273-7510356/Gau-57684.inp" -scrdir="/scratch/users/alongd/g09/a273-7510356/"
 Entering Link 1 = /cm/shared/c3ddb/gaussian/09.d01/g09/l1.exe PID=     57685.
  
 Copyright (c) 1988,1990,1992,1993,1995,1998,2003,2009,2013,
            Gaussian, Inc.  All Rights Reserved.
  
 This is part of the Gaussian(R) 09 program.  It is based on
 the Gaussian(R) 03 system (copyright 2003, Gaussian, Inc.),
 the Gaussian(R) 98 system (copyright 1998, Gaussian, Inc.),
 the Gaussian(R) 94 system (copyright 1995, Gaussian, Inc.),
 the Gaussian 92(TM) system (copyright 1992, Gaussian, Inc.),
 the Gaussian 90(TM) system (copyright 1990, Gaussian, Inc.),
 the Gaussian 88(TM) system (copyright 1988, Gaussian, Inc.),
 the Gaussian 86(TM) system (copyright 1986, Carnegie Mellon
 University), and the Gaussian 82(TM) system (copyright 1983,
 Carnegie Mellon University). Gaussian is a federally registered
 trademark of Gaussian, Inc.
  
 This software contains proprietary and confidential information,
 including trade secrets, belonging to Gaussian, Inc.
  
 This software is provided under written license and may be
 used, copied, transmitted, or stored only in accord with that
 written license.
  
 The following legend is applicable only to US Government
 contracts under FAR:
  
                    RESTRICTED RIGHTS LEGEND
  
 Use, reproduction and disclosure by the US Government is
 subject to restrictions as set forth in subparagraphs (a)
 and (c) of the Commercial Computer Software - Restricted
 Rights clause in FAR 52.227-19.
  
 Gaussian, Inc.
 340 Quinnipiac St., Bldg. 40, Wallingford CT 06492
  
  
 ---------------------------------------------------------------
 Warning -- This program may not be used in any manner that
 competes with the business of Gaussian, Inc. or will provide
 assistance to any competitor of Gaussian, Inc.  The licensee
 of this program is prohibited from giving any competitor of
 Gaussian, Inc. access to this program.  By using this program,
 the user acknowledges that Gaussian, Inc. is engaged in the
 business of creating and licensing software in the field of
 computational chemistry and represents and warrants to the
 licensee that it is not a competitor of Gaussian, Inc. and that
 it will not use this program in any manner prohibited above.
 ---------------------------------------------------------------
  

 Cite this work as:
 Gaussian 09, Revision D.01,
 M. J. Frisch, G. W. Trucks, H. B. Schlegel, G. E. Scuseria, 
 M. A. Robb, J. R. Cheeseman, G. Scalmani, V. Barone, B. Mennucci, 
 G. A. Petersson, H. Nakatsuji, M. Caricato, X. Li, H. P. Hratchian, 
 A. F. Izmaylov, J. Bloino, G. Zheng, J. L. Sonnenberg, M. Hada, 
 M. Ehara, K. Toyota, R. Fukuda, J. Hasegawa, M. Ishida, T. Nakajima, 
 Y. Honda, O. Kitao, H. Nakai, T. Vreven, J. A. Montgomery, Jr., 
 J. E. Peralta, F. Ogliaro, M. Bearpark, J. J. Heyd, E. Brothers, 
 K. N. Kudin, V. N. Staroverov, T. Keith, R. Kobayashi, J. Normand, 
 K. Raghavachari, A. Rendell, J. C. Burant, S. S. Iyengar, J. Tomasi, 
 M. Cossi, N. Rega, J. M. Millam, M. Klene, J. E. Knox, J. B. Cross, 
 V. Bakken, C. Adamo, J. Jaramillo, R. Gomperts, R. E. Stratmann, 
 O. Yazyev, A. J. Austin, R. Cammi, C. Pomelli, J. W. Ochterski, 
 R. L. Martin, K. Morokuma, V. G. Zakrzewski, G. A. Voth, 
 P. Salvador, J. J. Dannenberg, S. Dapprich, A. D. Daniels, 
 O. Farkas, J. B. Foresman, J. V. Ortiz, J. Cioslowski, 
 and D. J. Fox, Gaussian, Inc., Wallingford CT, 2013.
 
 ******************************************
 Gaussian 09:  AS64L-G09RevD.01 24-Apr-2013
                15-Mar-2019 
 ******************************************
 %chk=check.chk
 %mem=1500mb
 %nproc=8
 Will use up to    8 processors via shared memory.
 ----------------------------------------------------------------------
 #P opt=(modredundant, calcfc, noeigentest, maxStep=5) scf=(tight, dire
 ct) integral=(grid=ultrafine, Acc2E=12) ub3lyp/6-311+g(d,p) scf=xqc IO
 p(2/11=1)
 ----------------------------------------------------------------------
 1/8=5,10=4,11=1,14=-1,18=120,19=15,26=4,38=1/1,3;
 2/9=110,11=1,12=2,17=6,18=5,40=1/2;
 3/5=4,6=6,7=111,11=2,16=1,25=1,30=1,71=2,74=-5,75=-5,116=2,140=1/1,2,3;
 4//1;
 5/5=2,8=3,13=1,32=2,38=5,87=12/2,8;
 8/6=4,10=90,11=11,87=12/1;
 11/6=1,8=1,9=11,15=111,16=1,87=12/1,2,10;
 10/6=1,13=1,87=12/2;
 6/7=2,8=2,9=2,10=2,28=1/1;
 7/10=1,18=20,25=1,87=12/1,2,3,16;
 1/8=5,10=4,11=1,14=-1,18=20,19=15,26=4/3(2);
 2/9=110,11=1/2;
 99//99;
 2/9=110,11=1/2;
 3/5=4,6=6,7=111,11=2,16=1,25=1,30=1,71=1,74=-5,75=-5,116=2/1,2,3;
 4/5=5,16=3,69=1/1;
 5/5=2,8=3,13=1,32=2,38=5,87=12/2,8;
 7/87=12/1,2,3,16;
 1/8=5,11=1,14=-1,18=20,19=15,26=4/3(-5);
 2/9=110,11=1/2;
 6/7=2,8=2,9=2,10=2,19=2,28=1/1;
 99/9=1/99;
 Leave Link    1 at Fri Mar 15 15:15:00 2019, MaxMem=   196608000 cpu:         1.4
 (Enter /cm/shared/c3ddb/gaussian/09.d01/g09/l101.exe)
 ----
 name
 ----
 Symbolic Z-matrix:
 Charge =  0 Multiplicity = 2
 N                     0.59239   0.02451  -0.06614 
 N                    -0.73674  -0.15097   0.02282 
 H                     1.13354  -0.79975   0.14204 
 H                     1.02532   0.90229   0.19142 
 H                    -1.1484    0.78266  -0.03022 
 
 The following ModRedundant input section has been read:
 D       3       1       2       5 S  45 8.0000                                
 
 Add atom      1 valence  3 ND=      2 dihedral       2      1      3      4
 NAtoms=      5 NQM=        5 NQMF=       0 NMMI=      0 NMMIF=      0
                NMic=       0 NMicF=      0.
                    Isotopes and Nuclear Properties:
 (Nuclear quadrupole moments (NQMom) in fm**2, nuclear magnetic moments (NMagM)
  in nuclear magnetons)

  Atom         1           2           3           4           5
 IAtWgt=          14          14           1           1           1
 AtmWgt=  14.0030740  14.0030740   1.0078250   1.0078250   1.0078250
 NucSpn=           2           2           1           1           1
 AtZEff=   0.0000000   0.0000000   0.0000000   0.0000000   0.0000000
 NQMom=    2.0440000   2.0440000   0.0000000   0.0000000   0.0000000
 NMagM=    0.4037610   0.4037610   2.7928460   2.7928460   2.7928460
 AtZNuc=   7.0000000   7.0000000   1.0000000   1.0000000   1.0000000
 Leave Link  101 at Fri Mar 15 15:15:00 2019, MaxMem=   196608000 cpu:         0.9
 (Enter /cm/shared/c3ddb/gaussian/09.d01/g09/l103.exe)

 GradGradGradGradGradGradGradGradGradGradGradGradGradGradGradGradGradGrad
 Berny optimization.
 Initialization pass.
                           ----------------------------
                           !    Initial Parameters    !
                           ! (Angstroms and Degrees)  !
 --------------------------                            --------------------------
 ! Name  Definition              Value          Derivative Info.                !
 --------------------------------------------------------------------------------
 ! R1    R(1,2)                  1.3436         calculate D2E/DX2 analytically  !
 ! R2    R(1,3)                  1.0078         calculate D2E/DX2 analytically  !
 ! R3    R(1,4)                  1.0121         calculate D2E/DX2 analytically  !
 ! R4    R(2,5)                  1.0217         calculate D2E/DX2 analytically  !
 ! A1    A(2,1,3)              114.2488         calculate D2E/DX2 analytically  !
 ! A2    A(2,1,4)              121.3047         calculate D2E/DX2 analytically  !
 ! A3    A(3,1,4)              115.2839         calculate D2E/DX2 analytically  !
 ! A4    A(1,2,5)              106.0089         calculate D2E/DX2 analytically  !
 ! D1    D(3,1,2,5)            169.3067         Scan                            !
 ! D2    D(4,1,2,5)             24.0036         calculate D2E/DX2 analytically  !
 ! D3    D(2,1,3,4)           -147.4597         calculate D2E/DX2 analytically  !
 --------------------------------------------------------------------------------
 Trust Radius=5.00D-02 FncErr=1.00D-07 GrdErr=1.00D-06
 Number of optimizations in scan=  46
 Number of steps in this run=     21 maximum allowed number of steps=    100.
 GradGradGradGradGradGradGradGradGradGradGradGradGradGradGradGradGradGrad

 Leave Link  103 at Fri Mar 15 15:15:00 2019, MaxMem=   196608000 cpu:         0.1
 (Enter /cm/shared/c3ddb/gaussian/09.d01/g09/l202.exe)
                          Input orientation:                          
 ---------------------------------------------------------------------
 Center     Atomic      Atomic             Coordinates (Angstroms)
 Number     Number       Type             X           Y           Z
 ---------------------------------------------------------------------
      1          7           0        0.592387    0.024511   -0.066142
      2          7           0       -0.736739   -0.150969    0.022823
      3          1           0        1.133543   -0.799745    0.142036
      4          1           0        1.025323    0.902291    0.191417
      5          1           0       -1.148404    0.782659   -0.030223
 ---------------------------------------------------------------------
                    Distance matrix (angstroms):
                    1          2          3          4          5
     1  N    0.000000
     2  N    1.343609   0.000000
     3  H    1.007763   1.983199   0.000000
     4  H    1.012061   2.059768   1.706188   0.000000
     5  H    1.899061   1.021735   2.782258   2.188270   0.000000
 Stoichiometry    H3N2(2)
 Framework group  C1[X(H3N2)]
 Deg. of freedom     9
 Full point group                 C1      NOp   1
 Largest Abelian subgroup         C1      NOp   1
 Largest concise Abelian subgroup C1      NOp   1
                         Standard orientation:                         
 ---------------------------------------------------------------------
 Center     Atomic      Atomic             Coordinates (Angstroms)
 Number     Number       Type             X           Y           Z
 ---------------------------------------------------------------------
      1          7           0        0.592387    0.024511   -0.066142
      2          7           0       -0.736739   -0.150969    0.022823
      3          1           0        1.133543   -0.799745    0.142036
      4          1           0        1.025323    0.902291    0.191417
      5          1           0       -1.148404    0.782659   -0.030223
 ---------------------------------------------------------------------
 Rotational constants (GHZ):    206.5035174     30.9267456     27.2278158
 Leave Link  202 at Fri Mar 15 15:15:00 2019, MaxMem=   196608000 cpu:         0.3
 (Enter /cm/shared/c3ddb/gaussian/09.d01/g09/l301.exe)
 Standard basis: 6-311+G(d,p) (5D, 7F)
 Ernie: Thresh=  0.10000D-02 Tol=  0.10000D-05 Strict=F.
 There are    64 symmetry adapted cartesian basis functions of A   symmetry.
 There are    62 symmetry adapted basis functions of A   symmetry.
    62 basis functions,    96 primitive gaussians,    64 cartesian basis functions
     9 alpha electrons        8 beta electrons
       nuclear repulsion energy        36.6187086485 Hartrees.
 IExCor=  402 DFT=T Ex+Corr=B3LYP ExCW=0 ScaHFX=  0.200000
 ScaDFX=  0.800000  0.720000  1.000000  0.810000 ScalE2=  1.000000  1.000000
 IRadAn=      5 IRanWt=     -1 IRanGd=            0 ICorTp=0 IEmpDi=  4
 NAtoms=    5 NActive=    5 NUniq=    5 SFac= 1.00D+00 NAtFMM=   60 NAOKFM=F Big=F
 Integral buffers will be    131072 words long.
 Raffenetti 2 integral format.
 Two-electron integral symmetry is turned on.
 Leave Link  301 at Fri Mar 15 15:15:00 2019, MaxMem=   196608000 cpu:         0.9
 (Enter /cm/shared/c3ddb/gaussian/09.d01/g09/l302.exe)
 NPDir=0 NMtPBC=     1 NCelOv=     1 NCel=       1 NClECP=     1 NCelD=      1
         NCelK=      1 NCelE2=     1 NClLst=     1 CellRange=     0.0.
 One-electron integrals computed using PRISM.
 NBasis=    62 RedAO= T EigKep=  3.73D-04  NBF=    62
 NBsUse=    62 1.00D-06 EigRej= -1.00D+00 NBFU=    62
 Precomputing XC quadrature grid using
 IXCGrd= 4 IRadAn=           5 IRanWt=          -1 IRanGd=           0 AccXCQ= 0.00D+00.
 Generated NRdTot=       0 NPtTot=           0 NUsed=           0 NTot=          32
 NSgBfM=    64    64    64    64    64 MxSgAt=     5 MxSgA2=     5.
 Leave Link  302 at Fri Mar 15 15:15:01 2019, MaxMem=   196608000 cpu:         5.0
 (Enter /cm/shared/c3ddb/gaussian/09.d01/g09/l303.exe)
 DipDrv:  MaxL=1.
 Leave Link  303 at Fri Mar 15 15:15:01 2019, MaxMem=   196608000 cpu:         1.9
 (Enter /cm/shared/c3ddb/gaussian/09.d01/g09/l401.exe)
 ExpMin= 6.39D-02 ExpMax= 6.29D+03 ExpMxC= 9.49D+02 IAcc=3 IRadAn=         5 AccDes= 0.00D+00
 Harris functional with IExCor=  402 and IRadAn=       5 diagonalized for initial guess.
 HarFok:  IExCor=  402 AccDes= 0.00D+00 IRadAn=         5 IDoV= 1 UseB2=F ITyADJ=14
 ICtDFT=  3500011 ScaDFX=  1.000000  1.000000  1.000000  1.000000
 FoFCou: FMM=F IPFlag=           0 FMFlag=      100000 FMFlg1=           0
         NFxFlg=           0 DoJE=T BraDBF=F KetDBF=T FulRan=T
         wScrn=  0.000000 ICntrl=     500 IOpCl=  0 I1Cent=   200000004 NGrid=           0
         NMat0=    1 NMatS0=      1 NMatT0=    0 NMatD0=    1 NMtDS0=    0 NMtDT0=    0
 Petite list used in FoFCou.
 Harris En= -111.249665155663    
 JPrj=0 DoOrth=F DoCkMO=F.
 Initial guess <Sx>= 0.0000 <Sy>= 0.0000 <Sz>= 0.5000 <S**2>= 0.7500 S= 0.5000
 Leave Link  401 at Fri Mar 15 15:15:02 2019, MaxMem=   196608000 cpu:         6.8
 (Enter /cm/shared/c3ddb/gaussian/09.d01/g09/l502.exe)
 UHF open shell SCF:
 Using DIIS extrapolation, IDIIS=  1040.
 Integral symmetry usage will be decided dynamically.
 Keep R1 and R2 ints in memory in canonical form, NReq=4723356.
 IVT=       19222 IEndB=       19222 NGot=   196608000 MDV=   192772617
 LenX=   192772617 LenY=   192768080
 Requested convergence on RMS density matrix=1.00D-08 within  64 cycles.
 Requested convergence on MAX density matrix=1.00D-06.
 Requested convergence on             energy=1.00D-06.
 No special actions if energy rises.
 FoFCou: FMM=F IPFlag=           0 FMFlag=           0 FMFlg1=           0
         NFxFlg=           0 DoJE=F BraDBF=F KetDBF=F FulRan=T
         wScrn=  0.000000 ICntrl=     600 IOpCl=  0 I1Cent=           0 NGrid=           0
         NMat0=    1 NMatS0=   1953 NMatT0=    0 NMatD0=    1 NMtDS0=    0 NMtDT0=    0
 Symmetry not used in FoFCou.
 Integral accuracy reduced to 1.0D-05 until final iterations.

 Cycle   1  Pass 0  IDiag  1:
 E= -111.220053728098    
 DIIS: error= 2.35D-02 at cycle   1 NSaved=   1.
 NSaved= 1 IEnMin= 1 EnMin= -111.220053728098     IErMin= 1 ErrMin= 2.35D-02
 ErrMax= 2.35D-02  0.00D+00 EMaxC= 1.00D-01 BMatC= 2.54D-01 BMatP= 2.54D-01
 IDIUse=3 WtCom= 7.65D-01 WtEn= 2.35D-01
 Coeff-Com:  0.100D+01
 Coeff-En:   0.100D+01
 Coeff:      0.100D+01
 Gap=     0.120 Goal=   None    Shift=    0.000
 Gap=     0.227 Goal=   None    Shift=    0.000
 GapD=    0.120 DampG=1.000 DampE=0.500 DampFc=0.5000 IDamp=-1.
 Damping current iteration by 5.00D-01
 RMSDP=1.08D-02 MaxDP=1.75D-01              OVMax= 1.83D-01

 Cycle   2  Pass 0  IDiag  1:
 E= -111.239184563286     Delta-E=       -0.019130835188 Rises=F Damp=T
 DIIS: error= 8.63D-03 at cycle   2 NSaved=   2.
 NSaved= 2 IEnMin= 2 EnMin= -111.239184563286     IErMin= 2 ErrMin= 8.63D-03
 ErrMax= 8.63D-03  0.00D+00 EMaxC= 1.00D-01 BMatC= 2.24D-02 BMatP= 2.54D-01
 IDIUse=3 WtCom= 9.14D-01 WtEn= 8.63D-02
 Coeff-Com:  0.992D-01 0.901D+00
 Coeff-En:   0.229D+00 0.771D+00
 Coeff:      0.110D+00 0.890D+00
 Gap=     0.206 Goal=   None    Shift=    0.000
 Gap=     0.292 Goal=   None    Shift=    0.000
 RMSDP=2.10D-03 MaxDP=4.22D-02 DE=-1.91D-02 OVMax= 1.10D-01

 Cycle   3  Pass 0  IDiag  1:
 E= -111.270323478825     Delta-E=       -0.031138915539 Rises=F Damp=F
 DIIS: error= 7.80D-03 at cycle   3 NSaved=   3.
 NSaved= 3 IEnMin= 3 EnMin= -111.270323478825     IErMin= 3 ErrMin= 7.80D-03
 ErrMax= 7.80D-03  0.00D+00 EMaxC= 1.00D-01 BMatC= 7.01D-03 BMatP= 2.24D-02
 IDIUse=3 WtCom= 9.22D-01 WtEn= 7.80D-02
 Coeff-Com: -0.333D-01 0.325D+00 0.708D+00
 Coeff-En:   0.000D+00 0.000D+00 0.100D+01
 Coeff:     -0.307D-01 0.299D+00 0.731D+00
 Gap=     0.202 Goal=   None    Shift=    0.000
 Gap=     0.231 Goal=   None    Shift=    0.000
 RMSDP=6.46D-04 MaxDP=9.94D-03 DE=-3.11D-02 OVMax= 3.90D-02

 Cycle   4  Pass 0  IDiag  1:
 E= -111.271246481945     Delta-E=       -0.000923003121 Rises=F Damp=F
 DIIS: error= 4.39D-03 at cycle   4 NSaved=   4.
 NSaved= 4 IEnMin= 4 EnMin= -111.271246481945     IErMin= 4 ErrMin= 4.39D-03
 ErrMax= 4.39D-03  0.00D+00 EMaxC= 1.00D-01 BMatC= 3.46D-03 BMatP= 7.01D-03
 IDIUse=3 WtCom= 9.56D-01 WtEn= 4.39D-02
 Coeff-Com: -0.312D-01 0.106D+00 0.465D+00 0.460D+00
 Coeff-En:   0.000D+00 0.000D+00 0.279D+00 0.721D+00
 Coeff:     -0.298D-01 0.101D+00 0.457D+00 0.471D+00
 Gap=     0.204 Goal=   None    Shift=    0.000
 Gap=     0.235 Goal=   None    Shift=    0.000
 RMSDP=3.53D-04 MaxDP=4.88D-03 DE=-9.23D-04 OVMax= 1.20D-02

 Cycle   5  Pass 0  IDiag  1:
 E= -111.271892848978     Delta-E=       -0.000646367033 Rises=F Damp=F
 DIIS: error= 1.20D-03 at cycle   5 NSaved=   5.
 NSaved= 5 IEnMin= 5 EnMin= -111.271892848978     IErMin= 5 ErrMin= 1.20D-03
 ErrMax= 1.20D-03  0.00D+00 EMaxC= 1.00D-01 BMatC= 1.07D-04 BMatP= 3.46D-03
 IDIUse=3 WtCom= 9.88D-01 WtEn= 1.20D-02
 Coeff-Com: -0.505D-02-0.130D-01 0.599D-01 0.169D+00 0.790D+00
 Coeff-En:   0.000D+00 0.000D+00 0.000D+00 0.000D+00 0.100D+01
 Coeff:     -0.499D-02-0.128D-01 0.592D-01 0.167D+00 0.792D+00
 Gap=     0.204 Goal=   None    Shift=    0.000
 Gap=     0.235 Goal=   None    Shift=    0.000
 RMSDP=8.55D-05 MaxDP=1.27D-03 DE=-6.46D-04 OVMax= 6.01D-03

 Cycle   6  Pass 0  IDiag  1:
 E= -111.271929016132     Delta-E=       -0.000036167154 Rises=F Damp=F
 DIIS: error= 2.52D-04 at cycle   6 NSaved=   6.
 NSaved= 6 IEnMin= 6 EnMin= -111.271929016132     IErMin= 6 ErrMin= 2.52D-04
 ErrMax= 2.52D-04  0.00D+00 EMaxC= 1.00D-01 BMatC= 9.47D-06 BMatP= 1.07D-04
 IDIUse=3 WtCom= 9.97D-01 WtEn= 2.52D-03
 Coeff-Com:  0.431D-02-0.790D-02-0.440D-01-0.103D+00-0.110D+00 0.126D+01
 Coeff-En:   0.000D+00 0.000D+00 0.000D+00 0.000D+00 0.000D+00 0.100D+01
 Coeff:      0.430D-02-0.788D-02-0.439D-01-0.102D+00-0.109D+00 0.126D+01
 Gap=     0.205 Goal=   None    Shift=    0.000
 Gap=     0.236 Goal=   None    Shift=    0.000
 RMSDP=5.71D-05 MaxDP=9.60D-04 DE=-3.62D-05 OVMax= 2.08D-03

 Cycle   7  Pass 0  IDiag  1:
 E= -111.271933924566     Delta-E=       -0.000004908433 Rises=F Damp=F
 DIIS: error= 4.42D-05 at cycle   7 NSaved=   7.
 NSaved= 7 IEnMin= 7 EnMin= -111.271933924566     IErMin= 7 ErrMin= 4.42D-05
 ErrMax= 4.42D-05  0.00D+00 EMaxC= 1.00D-01 BMatC= 3.30D-07 BMatP= 9.47D-06
 IDIUse=1 WtCom= 1.00D+00 WtEn= 0.00D+00
 Coeff-Com:  0.208D-03 0.596D-03-0.226D-02-0.132D-01-0.278D-01 0.723D-02
 Coeff-Com:  0.104D+01
 Coeff:      0.208D-03 0.596D-03-0.226D-02-0.132D-01-0.278D-01 0.723D-02
 Coeff:      0.104D+01
 Gap=     0.205 Goal=   None    Shift=    0.000
 Gap=     0.236 Goal=   None    Shift=    0.000
 RMSDP=1.34D-05 MaxDP=2.05D-04 DE=-4.91D-06 OVMax= 2.52D-04

 Cycle   8  Pass 0  IDiag  1:
 E= -111.271934083814     Delta-E=       -0.000000159248 Rises=F Damp=F
 DIIS: error= 9.38D-06 at cycle   8 NSaved=   8.
 NSaved= 8 IEnMin= 8 EnMin= -111.271934083814     IErMin= 8 ErrMin= 9.38D-06
 ErrMax= 9.38D-06  0.00D+00 EMaxC= 1.00D-01 BMatC= 2.41D-08 BMatP= 3.30D-07
 IDIUse=1 WtCom= 1.00D+00 WtEn= 0.00D+00
 Coeff-Com: -0.449D-03 0.973D-03 0.462D-02 0.936D-02 0.900D-02-0.134D+00
 Coeff-Com:  0.136D+00 0.974D+00
 Coeff:     -0.449D-03 0.973D-03 0.462D-02 0.936D-02 0.900D-02-0.134D+00
 Coeff:      0.136D+00 0.974D+00
 Gap=     0.205 Goal=   None    Shift=    0.000
 Gap=     0.236 Goal=   None    Shift=    0.000
 RMSDP=2.75D-06 MaxDP=3.13D-05 DE=-1.59D-07 OVMax= 7.08D-05

 Initial convergence to 1.0D-05 achieved.  Increase integral accuracy.
 Cycle   9  Pass 1  IDiag  1:
 E= -111.271937212954     Delta-E=       -0.000003129140 Rises=F Damp=F
 DIIS: error= 3.14D-06 at cycle   1 NSaved=   1.
 NSaved= 1 IEnMin= 1 EnMin= -111.271937212954     IErMin= 1 ErrMin= 3.14D-06
 ErrMax= 3.14D-06  0.00D+00 EMaxC= 1.00D-01 BMatC= 2.40D-09 BMatP= 2.40D-09
 IDIUse=1 WtCom= 1.00D+00 WtEn= 0.00D+00
 Coeff-Com:  0.100D+01
 Coeff:      0.100D+01
 Gap=     0.205 Goal=   None    Shift=    0.000
 Gap=     0.236 Goal=   None    Shift=    0.000
 RMSDP=2.75D-06 MaxDP=3.13D-05 DE=-3.13D-06 OVMax= 2.43D-05

 Cycle  10  Pass 1  IDiag  1:
 E= -111.271937214210     Delta-E=       -0.000000001256 Rises=F Damp=F
 DIIS: error= 2.45D-06 at cycle   2 NSaved=   2.
 NSaved= 2 IEnMin= 2 EnMin= -111.271937214210     IErMin= 2 ErrMin= 2.45D-06
 ErrMax= 2.45D-06  0.00D+00 EMaxC= 1.00D-01 BMatC= 1.13D-09 BMatP= 2.40D-09
 IDIUse=1 WtCom= 1.00D+00 WtEn= 0.00D+00
 Coeff-Com:  0.354D+00 0.646D+00
 Coeff:      0.354D+00 0.646D+00
 Gap=     0.205 Goal=   None    Shift=    0.000
 Gap=     0.236 Goal=   None    Shift=    0.000
 RMSDP=4.23D-07 MaxDP=5.73D-06 DE=-1.26D-09 OVMax= 1.19D-05

 Cycle  11  Pass 1  IDiag  1:
 E= -111.271937214374     Delta-E=       -0.000000000164 Rises=F Damp=F
 DIIS: error= 2.17D-06 at cycle   3 NSaved=   3.
 NSaved= 3 IEnMin= 3 EnMin= -111.271937214374     IErMin= 3 ErrMin= 2.17D-06
 ErrMax= 2.17D-06  0.00D+00 EMaxC= 1.00D-01 BMatC= 5.87D-10 BMatP= 1.13D-09
 IDIUse=1 WtCom= 1.00D+00 WtEn= 0.00D+00
 Coeff-Com: -0.358D-01 0.407D+00 0.628D+00
 Coeff:     -0.358D-01 0.407D+00 0.628D+00
 Gap=     0.205 Goal=   None    Shift=    0.000
 Gap=     0.236 Goal=   None    Shift=    0.000
 RMSDP=2.84D-07 MaxDP=4.23D-06 DE=-1.64D-10 OVMax= 7.06D-06

 Cycle  12  Pass 1  IDiag  1:
 E= -111.271937214507     Delta-E=       -0.000000000133 Rises=F Damp=F
 DIIS: error= 5.30D-07 at cycle   4 NSaved=   4.
 NSaved= 4 IEnMin= 4 EnMin= -111.271937214507     IErMin= 4 ErrMin= 5.30D-07
 ErrMax= 5.30D-07  0.00D+00 EMaxC= 1.00D-01 BMatC= 5.30D-11 BMatP= 5.87D-10
 IDIUse=1 WtCom= 1.00D+00 WtEn= 0.00D+00
 Coeff-Com: -0.753D-01 0.349D-01 0.261D+00 0.780D+00
 Coeff:     -0.753D-01 0.349D-01 0.261D+00 0.780D+00
 Gap=     0.205 Goal=   None    Shift=    0.000
 Gap=     0.236 Goal=   None    Shift=    0.000
 RMSDP=1.00D-07 MaxDP=1.70D-06 DE=-1.33D-10 OVMax= 2.82D-06

 Cycle  13  Pass 1  IDiag  1:
 E= -111.271937214524     Delta-E=       -0.000000000017 Rises=F Damp=F
 DIIS: error= 1.56D-07 at cycle   5 NSaved=   5.
 NSaved= 5 IEnMin= 5 EnMin= -111.271937214524     IErMin= 5 ErrMin= 1.56D-07
 ErrMax= 1.56D-07  0.00D+00 EMaxC= 1.00D-01 BMatC= 7.12D-12 BMatP= 5.30D-11
 IDIUse=1 WtCom= 1.00D+00 WtEn= 0.00D+00
 Coeff-Com: -0.211D-01-0.459D-01 0.217D-01 0.272D+00 0.773D+00
 Coeff:     -0.211D-01-0.459D-01 0.217D-01 0.272D+00 0.773D+00
 Gap=     0.205 Goal=   None    Shift=    0.000
 Gap=     0.236 Goal=   None    Shift=    0.000
 RMSDP=3.91D-08 MaxDP=6.20D-07 DE=-1.68D-11 OVMax= 1.38D-06

 Cycle  14  Pass 1  IDiag  1:
 E= -111.271937214526     Delta-E=       -0.000000000002 Rises=F Damp=F
 DIIS: error= 1.22D-07 at cycle   6 NSaved=   6.
 NSaved= 6 IEnMin= 6 EnMin= -111.271937214526     IErMin= 6 ErrMin= 1.22D-07
 ErrMax= 1.22D-07  0.00D+00 EMaxC= 1.00D-01 BMatC= 2.30D-12 BMatP= 7.12D-12
 IDIUse=1 WtCom= 1.00D+00 WtEn= 0.00D+00
 Coeff-Com:  0.730D-02-0.377D-01-0.498D-01-0.674D-01 0.409D+00 0.739D+00
 Coeff:      0.730D-02-0.377D-01-0.498D-01-0.674D-01 0.409D+00 0.739D+00
 Gap=     0.205 Goal=   None    Shift=    0.000
 Gap=     0.236 Goal=   None    Shift=    0.000
 RMSDP=1.96D-08 MaxDP=3.04D-07 DE=-2.13D-12 OVMax= 5.82D-07

 Cycle  15  Pass 1  IDiag  1:
 E= -111.271937214527     Delta-E=       -0.000000000001 Rises=F Damp=F
 DIIS: error= 1.37D-08 at cycle   7 NSaved=   7.
 NSaved= 7 IEnMin= 7 EnMin= -111.271937214527     IErMin= 7 ErrMin= 1.37D-08
 ErrMax= 1.37D-08  0.00D+00 EMaxC= 1.00D-01 BMatC= 3.26D-14 BMatP= 2.30D-12
 IDIUse=1 WtCom= 1.00D+00 WtEn= 0.00D+00
 Coeff-Com:  0.115D-02-0.157D-02 0.221D-03-0.129D-01-0.194D-02-0.942D-02
 Coeff-Com:  0.102D+01
 Coeff:      0.115D-02-0.157D-02 0.221D-03-0.129D-01-0.194D-02-0.942D-02
 Coeff:      0.102D+01
 Gap=     0.205 Goal=   None    Shift=    0.000
 Gap=     0.236 Goal=   None    Shift=    0.000
 RMSDP=3.42D-09 MaxDP=5.15D-08 DE=-8.24D-13 OVMax= 1.19D-07

 SCF Done:  E(UB3LYP) =  -111.271937215     A.U. after   15 cycles
            NFock= 15  Conv=0.34D-08     -V/T= 2.0033
 <Sx>= 0.0000 <Sy>= 0.0000 <Sz>= 0.5000 <S**2>= 0.7543 S= 0.5021
 <L.S>= 0.000000000000E+00
 KE= 1.109024162540D+02 PE=-3.336080025786D+02 EE= 7.481494046160D+01
 Annihilation of the first spin contaminant:
 S**2 before annihilation     0.7543,   after     0.7500
 Leave Link  502 at Fri Mar 15 15:15:16 2019, MaxMem=   196608000 cpu:        93.7
 (Enter /cm/shared/c3ddb/gaussian/09.d01/g09/l508.exe)
 QCSCF skips out because SCF is already converged.
 Leave Link  508 at Fri Mar 15 15:15:16 2019, MaxMem=   196608000 cpu:         0.0
 (Enter /cm/shared/c3ddb/gaussian/09.d01/g09/l801.exe)
 DoSCS=F DFT=T ScalE2(SS,OS)=  1.000000  1.000000
 Range of M.O.s used for correlation:     1    62
 NBasis=    62 NAE=     9 NBE=     8 NFC=     0 NFV=     0
 NROrb=     62 NOA=     9 NOB=     8 NVA=    53 NVB=    54

 **** Warning!!: The largest alpha MO coefficient is  0.25089939D+02


 **** Warning!!: The largest beta MO coefficient is  0.26323821D+02

 Leave Link  801 at Fri Mar 15 15:15:16 2019, MaxMem=   196608000 cpu:         0.2
 (Enter /cm/shared/c3ddb/gaussian/09.d01/g09/l1101.exe)
 Using compressed storage, NAtomX=     5.
 Will process      6 centers per pass.
 Leave Link 1101 at Fri Mar 15 15:15:18 2019, MaxMem=   196608000 cpu:         8.2
 (Enter /cm/shared/c3ddb/gaussian/09.d01/g09/l1102.exe)
 Symmetrizing basis deriv contribution to polar:
 IMax=3 JMax=2 DiffMx= 0.00D+00
 Leave Link 1102 at Fri Mar 15 15:15:18 2019, MaxMem=   196608000 cpu:         0.9
 (Enter /cm/shared/c3ddb/gaussian/09.d01/g09/l1110.exe)
 Forming Gx(P) for the SCF density, NAtomX=     5.
 Integral derivatives from FoFJK, PRISM(SPDF).
 Do as many integral derivatives as possible in FoFJK.
 G2DrvN: MDV=     196607856.
 G2DrvN: will do     6 centers at a time, making    1 passes.
 Calling FoFCou, ICntrl=  3107 FMM=F I1Cent=   0 AccDes= 1.00D-12.
 FoFJK:  IHMeth= 1 ICntrl=    3107 DoSepK=F KAlg= 0 I1Cent=   0 FoldK=F
 IRaf=         0 NMat=   1 IRICut=       1 DoRegI=T DoRafI=F ISym2E= 0.
 FoFCou: FMM=F IPFlag=           0 FMFlag=      100000 FMFlg1=           0
         NFxFlg=           0 DoJE=F BraDBF=F KetDBF=F FulRan=T
         wScrn=  0.000000 ICntrl=    3107 IOpCl=  1 I1Cent=           0 NGrid=           0
         NMat0=    1 NMatS0=      1 NMatT0=    0 NMatD0=    1 NMtDS0=    0 NMtDT0=    0
 Symmetry not used in FoFCou.
 End of G2Drv F.D. properties file   721 does not exist.
 End of G2Drv F.D. properties file   722 does not exist.
 End of G2Drv F.D. properties file   788 does not exist.
 Leave Link 1110 at Fri Mar 15 15:15:31 2019, MaxMem=   196608000 cpu:        49.4
 (Enter /cm/shared/c3ddb/gaussian/09.d01/g09/l1002.exe)
 Minotr:  UHF open shell wavefunction.
          IDoAtm=11111
          Direct CPHF calculation.
          Differentiating once with respect to nuclear coordinates.
          Requested convergence is 1.0D-08 RMS, and 1.0D-07 maximum.
          Secondary convergence is 1.0D-12 RMS, and 1.0D-12 maximum.
          NewPWx=T KeepS1=F KeepF1=F KeepIn=T MapXYZ=F SortEE=F KeepMc=T.
          MDV=     196607822 using IRadAn=       1.
 Generate precomputed XC quadrature information.
 Keep R1 and R2 ints in memory in canonical form, NReq=4703172.
 FoFCou: FMM=F IPFlag=           0 FMFlag=           0 FMFlg1=           0
         NFxFlg=           0 DoJE=F BraDBF=F KetDBF=F FulRan=T
         wScrn=  0.000000 ICntrl=     600 IOpCl=  0 I1Cent=           0 NGrid=           0
         NMat0=    1 NMatS0=   1953 NMatT0=    0 NMatD0=    1 NMtDS0=    0 NMtDT0=    0
 Symmetry not used in FoFCou.
          Solving linear equations simultaneously, MaxMat=       0.
          There are    18 degrees of freedom in the 1st order CPHF.  IDoFFX=6 NUNeed=     0.
     12 vectors produced by pass  0 Test12= 5.05D-15 5.56D-09 XBig12= 2.65D-01 1.89D-01.
 AX will form    12 AO Fock derivatives at one time.
     12 vectors produced by pass  1 Test12= 5.05D-15 5.56D-09 XBig12= 5.70D-02 9.80D-02.
     12 vectors produced by pass  2 Test12= 5.05D-15 5.56D-09 XBig12= 2.20D-03 1.75D-02.
     12 vectors produced by pass  3 Test12= 5.05D-15 5.56D-09 XBig12= 3.46D-05 1.81D-03.
     12 vectors produced by pass  4 Test12= 5.05D-15 5.56D-09 XBig12= 3.96D-07 1.32D-04.
     12 vectors produced by pass  5 Test12= 5.05D-15 5.56D-09 XBig12= 2.03D-09 7.78D-06.
      9 vectors produced by pass  6 Test12= 5.05D-15 5.56D-09 XBig12= 5.93D-12 4.69D-07.
      3 vectors produced by pass  7 Test12= 5.05D-15 5.56D-09 XBig12= 1.11D-14 1.94D-08.
 InvSVY:  IOpt=1 It=  1 EMax= 1.33D-15
 Solved reduced A of dimension    84 with    12 vectors.
 End of Minotr F.D. properties file   721 does not exist.
 End of Minotr F.D. properties file   722 does not exist.
 End of Minotr F.D. properties file   788 does not exist.
 Leave Link 1002 at Fri Mar 15 15:15:49 2019, MaxMem=   196608000 cpu:       106.8
 (Enter /cm/shared/c3ddb/gaussian/09.d01/g09/l601.exe)
 Copying SCF densities to generalized density rwf, IOpCl= 1 IROHF=0.

 **********************************************************************

            Population analysis using the SCF density.

 **********************************************************************

 Orbital symmetries:
 Alpha Orbitals:
       Occupied  (A) (A) (A) (A) (A) (A) (A) (A) (A)
       Virtual   (A) (A) (A) (A) (A) (A) (A) (A) (A) (A) (A) (A)
                 (A) (A) (A) (A) (A) (A) (A) (A) (A) (A) (A) (A)
                 (A) (A) (A) (A) (A) (A) (A) (A) (A) (A) (A) (A)
                 (A) (A) (A) (A) (A) (A) (A) (A) (A) (A) (A) (A)
                 (A) (A) (A) (A) (A)
 Beta  Orbitals:
       Occupied  (A) (A) (A) (A) (A) (A) (A) (A)
       Virtual   (A) (A) (A) (A) (A) (A) (A) (A) (A) (A) (A) (A)
                 (A) (A) (A) (A) (A) (A) (A) (A) (A) (A) (A) (A)
                 (A) (A) (A) (A) (A) (A) (A) (A) (A) (A) (A) (A)
                 (A) (A) (A) (A) (A) (A) (A) (A) (A) (A) (A) (A)
                 (A) (A) (A) (A) (A) (A)
 The electronic state is 2-A.
 Alpha  occ. eigenvalues --  -14.36766 -14.32755  -0.99536  -0.74805  -0.56375
 Alpha  occ. eigenvalues --   -0.48454  -0.39911  -0.30280  -0.19336
 Alpha virt. eigenvalues --    0.01148   0.04315   0.07039   0.09476   0.11705
 Alpha virt. eigenvalues --    0.13745   0.15337   0.15590   0.18806   0.20361
 Alpha virt. eigenvalues --    0.24574   0.28809   0.50220   0.53108   0.58817
 Alpha virt. eigenvalues --    0.67008   0.70210   0.74195   0.76431   0.79327
 Alpha virt. eigenvalues --    0.79625   0.91518   1.14568   1.16601   1.26167
 Alpha virt. eigenvalues --    1.37302   1.43505   1.61915   1.73861   1.79825
 Alpha virt. eigenvalues --    1.83864   1.94416   2.12150   2.18971   2.22317
 Alpha virt. eigenvalues --    2.34870   2.50962   2.55180   2.59293   2.67009
 Alpha virt. eigenvalues --    2.70422   2.82939   2.93035   3.06224   3.22678
 Alpha virt. eigenvalues --    3.70676   3.86653   3.98368   4.36966   4.71851
 Alpha virt. eigenvalues --    5.20525  35.41605  35.52160
  Beta  occ. eigenvalues --  -14.36097 -14.31191  -0.97443  -0.72034  -0.55711
  Beta  occ. eigenvalues --   -0.47375  -0.33862  -0.28299
  Beta virt. eigenvalues --   -0.04720   0.01411   0.04650   0.07230   0.10000
  Beta virt. eigenvalues --    0.11773   0.13898   0.15642   0.17003   0.18938
  Beta virt. eigenvalues --    0.20670   0.25224   0.30240   0.50471   0.53491
  Beta virt. eigenvalues --    0.59560   0.67537   0.70612   0.76245   0.77382
  Beta virt. eigenvalues --    0.80229   0.84312   0.92455   1.16380   1.17811
  Beta virt. eigenvalues --    1.27713   1.38789   1.43799   1.62109   1.74318
  Beta virt. eigenvalues --    1.81339   1.84897   1.96277   2.13921   2.21321
  Beta virt. eigenvalues --    2.24044   2.37712   2.52036   2.55843   2.60525
  Beta virt. eigenvalues --    2.68311   2.72841   2.84391   2.94929   3.07021
  Beta virt. eigenvalues --    3.23426   3.74972   3.91162   4.00524   4.38336
  Beta virt. eigenvalues --    4.72578   5.21879  35.43022  35.53068
          Condensed to atoms (all electrons):
               1          2          3          4          5
     1  N    6.578826   0.069482   0.390955   0.333295  -0.011314
     2  N    0.069482   7.091885  -0.086860   0.005510   0.243995
     3  H    0.390955  -0.086860   0.468233  -0.055843   0.015838
     4  H    0.333295   0.005510  -0.055843   0.514522  -0.028765
     5  H   -0.011314   0.243995   0.015838  -0.028765   0.593945
          Atomic-Atomic Spin Densities.
               1          2          3          4          5
     1  N    0.555510  -0.317303   0.011195   0.002605   0.010053
     2  N   -0.317303   1.124953  -0.012983  -0.005546  -0.015389
     3  H    0.011195  -0.012983  -0.008115   0.002706  -0.000172
     4  H    0.002605  -0.005546   0.002706  -0.002440   0.000383
     5  H    0.010053  -0.015389  -0.000172   0.000383  -0.021006
 Mulliken charges and spin densities:
               1          2
     1  N   -0.361245   0.262060
     2  N   -0.324012   0.773732
     3  H    0.267677  -0.007369
     4  H    0.231280  -0.002292
     5  H    0.186300  -0.026131
 Sum of Mulliken charges =   0.00000   1.00000
 Mulliken charges and spin densities with hydrogens summed into heavy atoms:
               1          2
     1  N    0.137712   0.252399
     2  N   -0.137712   0.747601
 APT charges:
               1
     1  N   -0.695136
     2  N   -0.634193
     3  H    0.490612
     4  H    0.431449
     5  H    0.407268
 Sum of APT charges =   0.00000
 APT charges with hydrogens summed into heavy atoms:
               1
     1  N    0.226925
     2  N   -0.226925
 Electronic spatial extent (au):  <R**2>=             71.8817
 Charge=              0.0000 electrons
 Dipole moment (field-independent basis, Debye):
    X=              2.0817    Y=              1.7470    Z=              0.6170  Tot=              2.7867
 Quadrupole moment (field-independent basis, Debye-Ang):
   XX=            -12.0599   YY=            -11.1382   ZZ=            -14.7277
   XY=             -2.4004   XZ=              0.9562   YZ=              0.1096
 Traceless Quadrupole moment (field-independent basis, Debye-Ang):
   XX=              0.5820   YY=              1.5037   ZZ=             -2.0858
   XY=             -2.4004   XZ=              0.9562   YZ=              0.1096
 Octapole moment (field-independent basis, Debye-Ang**2):
  XXX=              4.6211  YYY=              2.5622  ZZZ=              0.4672  XYY=              3.0188
  XXY=              2.5993  XXZ=              0.8325  XZZ=              0.3973  YZZ=              0.5645
  YYZ=              0.5102  XYZ=              0.1062
 Hexadecapole moment (field-independent basis, Debye-Ang**3):
 XXXX=            -54.8421 YYYY=            -18.7746 ZZZZ=            -16.7421 XXXY=             -5.1147
 XXXZ=              1.5584 YYYX=             -3.0640 YYYZ=              0.1621 ZZZX=              0.9312
 ZZZY=              0.1181 XXYY=            -10.7148 XXZZ=            -13.8512 YYZZ=             -6.3369
 XXYZ=              0.0299 YYXZ=              0.7193 ZZXY=             -0.8554
 N-N= 3.661870864853D+01 E-N=-3.336080025015D+02  KE= 1.109024162540D+02
  Exact polarizability:   0.000   0.000   0.000   0.000   0.000   0.000
 Approx polarizability:  32.366   0.474  21.985  -0.586  -0.105  17.820
                          Isotropic Fermi Contact Couplings
        Atom                 a.u.       MegaHertz       Gauss      10(-4) cm-1
     1  N(14)              0.06426      20.76207       7.40842       6.92548
     2  N(14)              0.06949      22.45201       8.01144       7.48919
     3  H(1)              -0.00261     -11.64744      -4.15610      -3.88517
     4  H(1)               0.00048       2.14791       0.76643       0.71647
     5  H(1)              -0.01023     -45.74631     -16.32342     -15.25933
 --------------------------------------------------------
       Center         ----  Spin Dipole Couplings  ----
                      3XX-RR        3YY-RR        3ZZ-RR
 --------------------------------------------------------
     1   Atom       -0.359961     -0.406115      0.766077
     2   Atom       -0.925700     -0.905275      1.830975
     3   Atom       -0.001728      0.013968     -0.012240
     4   Atom       -0.013850      0.024539     -0.010689
     5   Atom       -0.047990      0.065092     -0.017102
 --------------------------------------------------------
                        XY            XZ            YZ
 --------------------------------------------------------
     1   Atom        0.010150     -0.139594     -0.045413
     2   Atom       -0.017851      0.002746      0.108273
     3   Atom       -0.039476      0.005233     -0.009783
     4   Atom        0.036583      0.005148      0.009947
     5   Atom       -0.066783      0.002279     -0.001414
 --------------------------------------------------------


 ---------------------------------------------------------------------------------
              Anisotropic Spin Dipole Couplings in Principal Axis System
 ---------------------------------------------------------------------------------

       Atom             a.u.   MegaHertz   Gauss  10(-4) cm-1        Axes

              Baa    -0.4086   -15.758    -5.623    -5.256 -0.1468  0.9890  0.0208
     1 N(14)  Bbb    -0.3763   -14.515    -5.179    -4.842  0.9817  0.1431  0.1256
              Bcc     0.7849    30.273    10.802    10.098 -0.1213 -0.0389  0.9919
 
              Baa    -0.9373   -36.150   -12.899   -12.058  0.8397  0.5425 -0.0221
     2 N(14)  Bbb    -0.8979   -34.632   -12.358   -11.552 -0.5430  0.8391 -0.0327
              Bcc     1.8353    70.782    25.257    23.610  0.0007  0.0395  0.9992
 
              Baa    -0.0344   -18.330    -6.541    -6.114  0.7598  0.6418  0.1041
     3 H(1)   Bbb    -0.0140    -7.454    -2.660    -2.486 -0.1931  0.0698  0.9787
              Bcc     0.0483    25.784     9.200     8.601 -0.6208  0.7637 -0.1770
 
              Baa    -0.0360   -19.203    -6.852    -6.406  0.8531 -0.5207  0.0311
     4 H(1)   Bbb    -0.0128    -6.812    -2.431    -2.272 -0.1224 -0.1418  0.9823
              Bcc     0.0488    26.015     9.283     8.678  0.5071  0.8418  0.1848
 
              Baa    -0.0790   -42.144   -15.038   -14.058  0.9071  0.4202 -0.0238
     5 H(1)   Bbb    -0.0171    -9.130    -3.258    -3.045  0.0133  0.0280  0.9995
              Bcc     0.0961    51.274    18.296    17.103 -0.4207  0.9070 -0.0198
 

 ---------------------------------------------------------------------------------

 No NMR shielding tensors so no spin-rotation constants.
 Leave Link  601 at Fri Mar 15 15:15:52 2019, MaxMem=   196608000 cpu:        10.5
 (Enter /cm/shared/c3ddb/gaussian/09.d01/g09/l701.exe)
 Compute integral second derivatives.
 ... and contract with generalized density number  0.
 Leave Link  701 at Fri Mar 15 15:15:53 2019, MaxMem=   196608000 cpu:         7.3
 (Enter /cm/shared/c3ddb/gaussian/09.d01/g09/l702.exe)
 L702 exits ... SP integral derivatives will be done elsewhere.
 Leave Link  702 at Fri Mar 15 15:15:53 2019, MaxMem=   196608000 cpu:         0.1
 (Enter /cm/shared/c3ddb/gaussian/09.d01/g09/l703.exe)
 Compute integral second derivatives, UseDBF=F ICtDFT=           0.
 Integral derivatives from FoFJK, PRISM(SPDF).
 Calling FoFJK, ICntrl=    100147 FMM=F ISym2X=0 I1Cent= 0 IOpClX= 1 NMat=1 NMatS=1 NMatT=0.
 FoFJK:  IHMeth= 1 ICntrl=  100147 DoSepK=F KAlg= 0 I1Cent=   0 FoldK=F
 IRaf=         0 NMat=   1 IRICut=       1 DoRegI=T DoRafI=F ISym2E= 0.
 FoFCou: FMM=F IPFlag=           0 FMFlag=      100000 FMFlg1=         800
         NFxFlg=           0 DoJE=F BraDBF=F KetDBF=F FulRan=T
         wScrn=  0.000000 ICntrl=  100147 IOpCl=  1 I1Cent=           0 NGrid=           0
         NMat0=    1 NMatS0=      1 NMatT0=    0 NMatD0=    1 NMtDS0=    0 NMtDT0=    0
 Symmetry not used in FoFCou.
 Leave Link  703 at Fri Mar 15 15:16:05 2019, MaxMem=   196608000 cpu:        58.2
 (Enter /cm/shared/c3ddb/gaussian/09.d01/g09/l716.exe)
 Dipole        = 8.18997572D-01 6.87304591D-01 2.42755261D-01
 Polarizability= 0.00000000D+00 0.00000000D+00 0.00000000D+00
                 0.00000000D+00 0.00000000D+00 0.00000000D+00
 ***** Axes restored to original set *****
 -------------------------------------------------------------------
 Center     Atomic                   Forces (Hartrees/Bohr)
 Number     Number              X              Y              Z
 -------------------------------------------------------------------
      1        7           0.003235777    0.000185350   -0.000990280
      2        7          -0.005005249   -0.001867138    0.000272946
      3        1           0.001330090   -0.001174787    0.000324347
      4        1           0.001498275    0.001573588    0.000483205
      5        1          -0.001058894    0.001282988   -0.000090218
 -------------------------------------------------------------------
 Cartesian Forces:  Max     0.005005249 RMS     0.001845407
 Force constants in Cartesian coordinates: 
                1             2             3             4             5 
      1  0.696028D+00
      2 -0.319431D-01  0.807166D+00
      3  0.781481D-01  0.175824D-01  0.622143D-01
      4 -0.383438D+00 -0.556136D-01  0.133587D-01  0.526167D+00
      5  0.621491D-02 -0.115186D+00 -0.576533D-03 -0.959524D-01  0.462624D+00
      6  0.305625D-01  0.924887D-02 -0.184869D-02 -0.120034D-01 -0.231909D-01
      7 -0.158278D+00  0.155030D+00 -0.464205D-01 -0.289420D-01  0.346688D-01
      8  0.161838D+00 -0.338881D+00  0.613946D-01 -0.273768D-02  0.122033D-01
      9 -0.616696D-01  0.869608D-01 -0.261274D-01  0.410478D-02 -0.570671D-02
     10 -0.118437D+00 -0.118427D+00 -0.425749D-01 -0.262336D-01 -0.335232D-01
     11 -0.114816D+00 -0.353976D+00 -0.799655D-01 -0.750447D-02  0.500094D-02
     12 -0.493516D-01 -0.107743D+00 -0.318179D-01  0.154220D-02  0.772823D-02
     13 -0.358744D-01  0.509536D-01 -0.251137D-02 -0.875530D-01  0.885919D-01
     14 -0.212942D-01  0.875647D-03  0.156497D-02  0.161808D+00 -0.364643D+00
     15  0.231068D-02 -0.604898D-02 -0.242028D-02 -0.700228D-02  0.217459D-01
                6             7             8             9            10 
      6  0.163396D-01
      7 -0.604903D-02  0.184129D+00
      8 -0.294163D-02 -0.173751D+00  0.340975D+00
      9 -0.746412D-02  0.494110D-01 -0.698673D-01  0.277464D-01
     10 -0.883816D-02  0.113243D-01  0.169230D-01  0.661103D-02  0.131008D+00
     11 -0.151164D-02 -0.143849D-01 -0.170521D-01 -0.110753D-01  0.135349D+00
     12  0.526272D-02  0.418278D-02  0.995131D-02 -0.140363D-02  0.445207D-01
     13 -0.367185D-02 -0.823360D-02 -0.227284D-02  0.154281D-02  0.233879D-02
     14  0.183953D-01 -0.156372D-02  0.275425D-02 -0.311469D-03 -0.321746D-03
     15 -0.122895D-01 -0.112426D-02  0.146301D-02  0.724880D-02  0.281385D-03
               11            12            13            14            15 
     11  0.361255D+00
     12  0.903279D-01  0.313144D-01
     13  0.135589D-02 -0.894061D-03  0.129322D+00
     14  0.477220D-02 -0.264308D-03 -0.138629D+00  0.356241D+00
     15  0.222453D-02 -0.335554D-02  0.553447D-02 -0.193845D-01  0.108165D-01
 FormGI is forming the generalized inverse of G from B-inverse, IUseBI=4.
 Force constants in internal coordinates: 
                1             2             3             4             5 
      1  0.477998D+00
      2  0.138000D-01  0.469577D+00
      3  0.155903D-01 -0.896190D-03  0.447754D+00
      4 -0.609874D-02 -0.196552D-02  0.274833D-02  0.422619D+00
      5  0.272931D-01  0.367396D-02 -0.350479D-02  0.659580D-02  0.118294D+00
      6  0.994761D-02 -0.731525D-02 -0.517463D-02 -0.518401D-02 -0.614534D-01
      7 -0.283618D-01  0.830797D-02  0.129716D-01 -0.206768D-03 -0.433017D-01
      8  0.781360D-01  0.633395D-02 -0.626776D-02  0.182030D-01  0.205845D-01
      9  0.532823D-02  0.615472D-02  0.439049D-02  0.520492D-03  0.906152D-02
     10 -0.365368D-03 -0.488659D-02 -0.739455D-02 -0.174000D-02 -0.337704D-02
     11 -0.176549D-01 -0.483306D-02 -0.494349D-02 -0.134058D-03 -0.668828D-03
                6             7             8             9            10 
      6  0.881307D-01
      7 -0.353548D-01  0.775608D-01
      8 -0.100346D-01 -0.788121D-02  0.241957D+00
      9 -0.166859D-01  0.124175D-01  0.363062D-02  0.168708D-01
     10  0.138881D-01 -0.122676D-01  0.107190D-02  0.383520D-02  0.114654D-01
     11 -0.166755D-01  0.143451D-01 -0.839767D-03 -0.179645D-02 -0.205434D-02
               11 
     11  0.105562D-01
 Leave Link  716 at Fri Mar 15 15:16:05 2019, MaxMem=   196608000 cpu:         0.7
 (Enter /cm/shared/c3ddb/gaussian/09.d01/g09/l103.exe)

 GradGradGradGradGradGradGradGradGradGradGradGradGradGradGradGradGradGrad
 Berny optimization.
 Red2BG is reusing G-inverse.
 Internal  Forces:  Max     0.006087195 RMS     0.002106016
 Search for a local minimum.
 Step number   1 out of a maximum of   21 on scan point     1 out of    46
 All quantities printed in internal units (Hartrees-Bohrs-Radians)
 RMS Force = .22088D-02 SwitMx=.10000D-02 MixMth= 1
 Mixed Optimization -- RFO/linear search
 Second derivative matrix not updated -- analytic derivatives used.
 The second derivative matrix:
                          R1        R2        R3        R4        A1
           R1           0.47800
           R2           0.01380   0.46958
           R3           0.01559  -0.00090   0.44775
           R4          -0.00610  -0.00197   0.00275   0.42262
           A1           0.02729   0.00367  -0.00350   0.00660   0.11829
           A2           0.00995  -0.00732  -0.00517  -0.00518  -0.06145
           A3          -0.02836   0.00831   0.01297  -0.00021  -0.04330
           A4           0.07814   0.00633  -0.00627   0.01820   0.02058
           D1           0.00533   0.00615   0.00439   0.00052   0.00906
           D2          -0.00037  -0.00489  -0.00739  -0.00174  -0.00338
           D3          -0.01765  -0.00483  -0.00494  -0.00013  -0.00067
                          A2        A3        A4        D1        D2
           A2           0.08813
           A3          -0.03535   0.07756
           A4          -0.01003  -0.00788   0.24196
           D1          -0.01669   0.01242   0.00363   0.01687
           D2           0.01389  -0.01227   0.00107   0.00384   0.01147
           D3          -0.01668   0.01435  -0.00084  -0.00180  -0.00205
                          D3
           D3           0.01056
 ITU=  0
     Eigenvalues ---    0.00869   0.11539   0.16199   0.22095   0.42463
     Eigenvalues ---    0.44645   0.46605   0.514321000.000001000.00000
     Eigenvalues --- 1000.00000
 RFO step:  Lambda=-1.01287450D-04 EMin= 8.68580811D-03
 Linear search not attempted -- first point.
 Iteration  1 RMS(Cart)=  0.00561446 RMS(Int)=  0.00001076
 Iteration  2 RMS(Cart)=  0.00000707 RMS(Int)=  0.00000494
 Iteration  3 RMS(Cart)=  0.00000000 RMS(Int)=  0.00000494
 Iteration  1 RMS(Cart)=  0.00000111 RMS(Int)=  0.00000092
 Iteration  2 RMS(Cart)=  0.00000034 RMS(Int)=  0.00000102
 ITry= 1 IFail=0 DXMaxC= 1.01D-02 DCOld= 1.00D+10 DXMaxT= 5.00D-02 DXLimC= 3.00D+00 Rises=F
 Variable       Old X    -DE/DX   Delta X   Delta X   Delta X     New X
                                 (Linear)    (Quad)   (Total)
    R1        2.53905   0.00609   0.00000   0.01257   0.01257   2.55163
    R2        1.90440   0.00174   0.00000   0.00361   0.00361   1.90800
    R3        1.91252   0.00213   0.00000   0.00459   0.00459   1.91711
    R4        1.93080   0.00160   0.00000   0.00406   0.00406   1.93486
    A1        1.99402   0.00026   0.00000  -0.00103  -0.00103   1.99298
    A2        2.11717   0.00049   0.00000   0.00214   0.00213   2.11930
    A3        2.01208  -0.00066   0.00000  -0.00428  -0.00429   2.00780
    A4        1.85020   0.00087   0.00000  -0.00074  -0.00074   1.84947
    D1        2.95496   0.00000   0.00000   0.00000   0.00000   2.95496
    D2        0.41894   0.00008   0.00000   0.00693   0.00693   0.42588
    D3       -2.57366  -0.00032   0.00000   0.00426   0.00425  -2.56941
         Item               Value     Threshold  Converged?
 Maximum Force            0.006087     0.000450     NO 
 RMS     Force            0.002209     0.000300     NO 
 Maximum Displacement     0.010090     0.001800     NO 
 RMS     Displacement     0.005614     0.001200     NO 
 Predicted change in Energy=-5.065869D-05
 Lowest energy point so far.  Saving SCF results.
 GradGradGradGradGradGradGradGradGradGradGradGradGradGradGradGradGradGrad

 Leave Link  103 at Fri Mar 15 15:16:08 2019, MaxMem=   196608000 cpu:        15.5
 (Enter /cm/shared/c3ddb/gaussian/09.d01/g09/l202.exe)
                          Input orientation:                          
 ---------------------------------------------------------------------
 Center     Atomic      Atomic             Coordinates (Angstroms)
 Number     Number       Type             X           Y           Z
 ---------------------------------------------------------------------
      1          7           0        0.594214    0.024870   -0.067758
      2          7           0       -0.741290   -0.151918    0.023795
      3          1           0        1.136195   -0.800677    0.142402
      4          1           0        1.030662    0.902842    0.192756
      5          1           0       -1.153671    0.783630   -0.031284
 ---------------------------------------------------------------------
                    Distance matrix (angstroms):
                    1          2          3          4          5
     1  N    0.000000
     2  N    1.350262   0.000000
     3  H    1.009672   1.989951   0.000000
     4  H    1.014490   2.069029   1.707528   0.000000
     5  H    1.905820   1.023886   2.789925   2.199026   0.000000
 Stoichiometry    H3N2(2)
 Framework group  C1[X(H3N2)]
 Deg. of freedom     9
 Full point group                 C1      NOp   1
 RotChk:  IX=0 Diff= 2.25D-03
 Largest Abelian subgroup         C1      NOp   1
 Largest concise Abelian subgroup C1      NOp   1
                         Standard orientation:                         
 ---------------------------------------------------------------------
 Center     Atomic      Atomic             Coordinates (Angstroms)
 Number     Number       Type             X           Y           Z
 ---------------------------------------------------------------------
      1          7           0        0.595262    0.024477   -0.066986
      2          7           0       -0.740515   -0.150917    0.023255
      3          1           0        1.136153   -0.801820    0.143037
      4          1           0        1.032441    0.901776    0.194569
      5          1           0       -1.151823    0.785123   -0.031490
 ---------------------------------------------------------------------
 Rotational constants (GHZ):    205.7268506     30.6315365     26.9943168
 Leave Link  202 at Fri Mar 15 15:16:08 2019, MaxMem=   196608000 cpu:         0.4
 (Enter /cm/shared/c3ddb/gaussian/09.d01/g09/l301.exe)
 Standard basis: 6-311+G(d,p) (5D, 7F)
 Ernie: Thresh=  0.10000D-02 Tol=  0.10000D-05 Strict=F.
 There are    64 symmetry adapted cartesian basis functions of A   symmetry.
 There are    62 symmetry adapted basis functions of A   symmetry.
    62 basis functions,    96 primitive gaussians,    64 cartesian basis functions
     9 alpha electrons        8 beta electrons
       nuclear repulsion energy        36.4770316304 Hartrees.
 IExCor=  402 DFT=T Ex+Corr=B3LYP ExCW=0 ScaHFX=  0.200000
 ScaDFX=  0.800000  0.720000  1.000000  0.810000 ScalE2=  1.000000  1.000000
 IRadAn=      5 IRanWt=     -1 IRanGd=            0 ICorTp=0 IEmpDi=  4
 NAtoms=    5 NActive=    5 NUniq=    5 SFac= 1.00D+00 NAtFMM=   60 NAOKFM=F Big=F
 Integral buffers will be    131072 words long.
 Raffenetti 2 integral format.
 Two-electron integral symmetry is turned on.
 Leave Link  301 at Fri Mar 15 15:16:08 2019, MaxMem=   196608000 cpu:         0.3
 (Enter /cm/shared/c3ddb/gaussian/09.d01/g09/l302.exe)
 NPDir=0 NMtPBC=     1 NCelOv=     1 NCel=       1 NClECP=     1 NCelD=      1
         NCelK=      1 NCelE2=     1 NClLst=     1 CellRange=     0.0.
 One-electron integrals computed using PRISM.
 NBasis=    62 RedAO= T EigKep=  3.84D-04  NBF=    62
 NBsUse=    62 1.00D-06 EigRej= -1.00D+00 NBFU=    62
 Precomputing XC quadrature grid using
 IXCGrd= 4 IRadAn=           5 IRanWt=          -1 IRanGd=           0 AccXCQ= 0.00D+00.
 Generated NRdTot=       0 NPtTot=           0 NUsed=           0 NTot=          32
 NSgBfM=    64    64    64    64    64 MxSgAt=     5 MxSgA2=     5.
 Leave Link  302 at Fri Mar 15 15:16:09 2019, MaxMem=   196608000 cpu:         3.8
 (Enter /cm/shared/c3ddb/gaussian/09.d01/g09/l303.exe)
 DipDrv:  MaxL=1.
 Leave Link  303 at Fri Mar 15 15:16:10 2019, MaxMem=   196608000 cpu:         1.2
 (Enter /cm/shared/c3ddb/gaussian/09.d01/g09/l401.exe)
 Initial guess from the checkpoint file:  "check.chk"
 B after Tr=     0.000000    0.000000    0.000000
         Rot=    1.000000   -0.000192    0.000010    0.000503 Ang=  -0.06 deg.
 Guess basis will be translated and rotated to current coordinates.
 JPrj=2 DoOrth=T DoCkMO=T.
 Initial guess <Sx>= 0.0000 <Sy>= 0.0000 <Sz>= 0.5000 <S**2>= 0.7543 S= 0.5021
 Leave Link  401 at Fri Mar 15 15:16:11 2019, MaxMem=   196608000 cpu:         6.9
 (Enter /cm/shared/c3ddb/gaussian/09.d01/g09/l502.exe)
 UHF open shell SCF:
 Using DIIS extrapolation, IDIIS=  1040.
 Integral symmetry usage will be decided dynamically.
 Keep R1 and R2 ints in memory in canonical form, NReq=4723356.
 IVT=       19222 IEndB=       19222 NGot=   196608000 MDV=   192772617
 LenX=   192772617 LenY=   192768080
 Requested convergence on RMS density matrix=1.00D-08 within  64 cycles.
 Requested convergence on MAX density matrix=1.00D-06.
 Requested convergence on             energy=1.00D-06.
 No special actions if energy rises.
 FoFCou: FMM=F IPFlag=           0 FMFlag=           0 FMFlg1=           0
         NFxFlg=           0 DoJE=F BraDBF=F KetDBF=F FulRan=T
         wScrn=  0.000000 ICntrl=     600 IOpCl=  0 I1Cent=           0 NGrid=           0
         NMat0=    1 NMatS0=   1953 NMatT0=    0 NMatD0=    1 NMtDS0=    0 NMtDT0=    0
 Symmetry not used in FoFCou.

 Cycle   1  Pass 1  IDiag  1:
 E= -111.271960574102    
 DIIS: error= 5.67D-04 at cycle   1 NSaved=   1.
 NSaved= 1 IEnMin= 1 EnMin= -111.271960574102     IErMin= 1 ErrMin= 5.67D-04
 ErrMax= 5.67D-04  0.00D+00 EMaxC= 1.00D-01 BMatC= 9.40D-05 BMatP= 9.40D-05
 IDIUse=3 WtCom= 9.94D-01 WtEn= 5.67D-03
 Coeff-Com:  0.100D+01
 Coeff-En:   0.100D+01
 Coeff:      0.100D+01
 Gap=     0.385 Goal=   None    Shift=    0.000
 Gap=     0.479 Goal=   None    Shift=    0.000
 RMSDP=9.78D-05 MaxDP=1.19D-03              OVMax= 2.24D-03

 Cycle   2  Pass 1  IDiag  1:
 E= -111.271985293834     Delta-E=       -0.000024719732 Rises=F Damp=F
 DIIS: error= 2.49D-04 at cycle   2 NSaved=   2.
 NSaved= 2 IEnMin= 2 EnMin= -111.271985293834     IErMin= 2 ErrMin= 2.49D-04
 ErrMax= 2.49D-04  0.00D+00 EMaxC= 1.00D-01 BMatC= 1.45D-05 BMatP= 9.40D-05
 IDIUse=3 WtCom= 9.98D-01 WtEn= 2.49D-03
 Coeff-Com:  0.186D+00 0.814D+00
 Coeff-En:   0.000D+00 0.100D+01
 Coeff:      0.186D+00 0.814D+00
 Gap=     0.207 Goal=   None    Shift=    0.000
 Gap=     0.235 Goal=   None    Shift=    0.000
 RMSDP=4.92D-05 MaxDP=6.64D-04 DE=-2.47D-05 OVMax= 1.17D-03

 Cycle   3  Pass 1  IDiag  1:
 E= -111.271985995766     Delta-E=       -0.000000701932 Rises=F Damp=F
 DIIS: error= 2.08D-04 at cycle   3 NSaved=   3.
 NSaved= 3 IEnMin= 3 EnMin= -111.271985995766     IErMin= 3 ErrMin= 2.08D-04
 ErrMax= 2.08D-04  0.00D+00 EMaxC= 1.00D-01 BMatC= 1.22D-05 BMatP= 1.45D-05
 IDIUse=3 WtCom= 9.98D-01 WtEn= 2.08D-03
 Coeff-Com: -0.205D-01 0.479D+00 0.542D+00
 Coeff-En:   0.000D+00 0.442D+00 0.558D+00
 Coeff:     -0.205D-01 0.479D+00 0.542D+00
 Gap=     0.206 Goal=   None    Shift=    0.000
 Gap=     0.235 Goal=   None    Shift=    0.000
 RMSDP=2.11D-05 MaxDP=3.18D-04 DE=-7.02D-07 OVMax= 5.70D-04

 Cycle   4  Pass 1  IDiag  1:
 E= -111.271988437482     Delta-E=       -0.000002441715 Rises=F Damp=F
 DIIS: error= 5.80D-05 at cycle   4 NSaved=   4.
 NSaved= 4 IEnMin= 4 EnMin= -111.271988437482     IErMin= 4 ErrMin= 5.80D-05
 ErrMax= 5.80D-05  0.00D+00 EMaxC= 1.00D-01 BMatC= 2.67D-07 BMatP= 1.22D-05
 IDIUse=1 WtCom= 1.00D+00 WtEn= 0.00D+00
 Coeff-Com: -0.126D-01 0.192D+00 0.243D+00 0.577D+00
 Coeff:     -0.126D-01 0.192D+00 0.243D+00 0.577D+00
 Gap=     0.206 Goal=   None    Shift=    0.000
 Gap=     0.235 Goal=   None    Shift=    0.000
 RMSDP=4.78D-06 MaxDP=6.10D-05 DE=-2.44D-06 OVMax= 2.39D-04

 Cycle   5  Pass 1  IDiag  1:
 E= -111.271988481154     Delta-E=       -0.000000043673 Rises=F Damp=F
 DIIS: error= 2.53D-05 at cycle   5 NSaved=   5.
 NSaved= 5 IEnMin= 5 EnMin= -111.271988481154     IErMin= 5 ErrMin= 2.53D-05
 ErrMax= 2.53D-05  0.00D+00 EMaxC= 1.00D-01 BMatC= 9.50D-08 BMatP= 2.67D-07
 IDIUse=1 WtCom= 1.00D+00 WtEn= 0.00D+00
 Coeff-Com: -0.298D-02 0.118D-01 0.269D-01 0.379D+00 0.585D+00
 Coeff:     -0.298D-02 0.118D-01 0.269D-01 0.379D+00 0.585D+00
 Gap=     0.206 Goal=   None    Shift=    0.000
 Gap=     0.235 Goal=   None    Shift=    0.000
 RMSDP=2.51D-06 MaxDP=4.46D-05 DE=-4.37D-08 OVMax= 5.44D-05

 Cycle   6  Pass 1  IDiag  1:
 E= -111.271988501171     Delta-E=       -0.000000020016 Rises=F Damp=F
 DIIS: error= 2.37D-06 at cycle   6 NSaved=   6.
 NSaved= 6 IEnMin= 6 EnMin= -111.271988501171     IErMin= 6 ErrMin= 2.37D-06
 ErrMax= 2.37D-06  0.00D+00 EMaxC= 1.00D-01 BMatC= 1.91D-09 BMatP= 9.50D-08
 IDIUse=1 WtCom= 1.00D+00 WtEn= 0.00D+00
 Coeff-Com:  0.830D-03-0.219D-01-0.273D-01 0.344D-01 0.820D-01 0.932D+00
 Coeff:      0.830D-03-0.219D-01-0.273D-01 0.344D-01 0.820D-01 0.932D+00
 Gap=     0.206 Goal=   None    Shift=    0.000
 Gap=     0.235 Goal=   None    Shift=    0.000
 RMSDP=6.50D-07 MaxDP=7.24D-06 DE=-2.00D-08 OVMax= 2.05D-05

 Cycle   7  Pass 1  IDiag  1:
 E= -111.271988502077     Delta-E=       -0.000000000906 Rises=F Damp=F
 DIIS: error= 1.08D-06 at cycle   7 NSaved=   7.
 NSaved= 7 IEnMin= 7 EnMin= -111.271988502077     IErMin= 7 ErrMin= 1.08D-06
 ErrMax= 1.08D-06  0.00D+00 EMaxC= 1.00D-01 BMatC= 1.87D-10 BMatP= 1.91D-09
 IDIUse=1 WtCom= 1.00D+00 WtEn= 0.00D+00
 Coeff-Com:  0.265D-03-0.849D-03-0.311D-02-0.282D-01-0.682D-01 0.458D-02
 Coeff-Com:  0.110D+01
 Coeff:      0.265D-03-0.849D-03-0.311D-02-0.282D-01-0.682D-01 0.458D-02
 Coeff:      0.110D+01
 Gap=     0.206 Goal=   None    Shift=    0.000
 Gap=     0.235 Goal=   None    Shift=    0.000
 RMSDP=2.25D-07 MaxDP=3.19D-06 DE=-9.06D-10 OVMax= 8.23D-06

 Cycle   8  Pass 1  IDiag  1:
 E= -111.271988502187     Delta-E=       -0.000000000111 Rises=F Damp=F
 DIIS: error= 2.31D-07 at cycle   8 NSaved=   8.
 NSaved= 8 IEnMin= 8 EnMin= -111.271988502187     IErMin= 8 ErrMin= 2.31D-07
 ErrMax= 2.31D-07  0.00D+00 EMaxC= 1.00D-01 BMatC= 9.49D-12 BMatP= 1.87D-10
 IDIUse=1 WtCom= 1.00D+00 WtEn= 0.00D+00
 Coeff-Com: -0.490D-04 0.158D-02 0.196D-02-0.121D-02-0.906D-02-0.611D-01
 Coeff-Com: -0.777D-03 0.107D+01
 Coeff:     -0.490D-04 0.158D-02 0.196D-02-0.121D-02-0.906D-02-0.611D-01
 Coeff:     -0.777D-03 0.107D+01
 Gap=     0.206 Goal=   None    Shift=    0.000
 Gap=     0.235 Goal=   None    Shift=    0.000
 RMSDP=6.46D-08 MaxDP=8.44D-07 DE=-1.11D-10 OVMax= 2.73D-06

 Cycle   9  Pass 1  IDiag  1:
 E= -111.271988502195     Delta-E=       -0.000000000007 Rises=F Damp=F
 DIIS: error= 5.17D-08 at cycle   9 NSaved=   9.
 NSaved= 9 IEnMin= 9 EnMin= -111.271988502195     IErMin= 9 ErrMin= 5.17D-08
 ErrMax= 5.17D-08  0.00D+00 EMaxC= 1.00D-01 BMatC= 6.72D-13 BMatP= 9.49D-12
 IDIUse=1 WtCom= 1.00D+00 WtEn= 0.00D+00
 Coeff-Com: -0.183D-04-0.114D-03 0.928D-04 0.268D-02 0.665D-02 0.367D-02
 Coeff-Com: -0.105D+00-0.163D-01 0.111D+01
 Coeff:     -0.183D-04-0.114D-03 0.928D-04 0.268D-02 0.665D-02 0.367D-02
 Coeff:     -0.105D+00-0.163D-01 0.111D+01
 Gap=     0.206 Goal=   None    Shift=    0.000
 Gap=     0.235 Goal=   None    Shift=    0.000
 RMSDP=1.74D-08 MaxDP=1.75D-07 DE=-7.05D-12 OVMax= 7.43D-07

 Cycle  10  Pass 1  IDiag  1:
 E= -111.271988502195     Delta-E=       -0.000000000001 Rises=F Damp=F
 DIIS: error= 8.81D-09 at cycle  10 NSaved=  10.
 NSaved=10 IEnMin=10 EnMin= -111.271988502195     IErMin=10 ErrMin= 8.81D-09
 ErrMax= 8.81D-09  0.00D+00 EMaxC= 1.00D-01 BMatC= 2.19D-14 BMatP= 6.72D-13
 IDIUse=1 WtCom= 1.00D+00 WtEn= 0.00D+00
 Coeff-Com:  0.160D-05-0.376D-04-0.634D-04 0.603D-04 0.368D-03 0.190D-02
 Coeff-Com:  0.291D-02-0.348D-01-0.501D-01 0.108D+01
 Coeff:      0.160D-05-0.376D-04-0.634D-04 0.603D-04 0.368D-03 0.190D-02
 Coeff:      0.291D-02-0.348D-01-0.501D-01 0.108D+01
 Gap=     0.206 Goal=   None    Shift=    0.000
 Gap=     0.235 Goal=   None    Shift=    0.000
 RMSDP=3.60D-09 MaxDP=4.78D-08 DE=-7.39D-13 OVMax= 1.30D-07

 SCF Done:  E(UB3LYP) =  -111.271988502     A.U. after   10 cycles
            NFock= 10  Conv=0.36D-08     -V/T= 2.0036
 <Sx>= 0.0000 <Sy>= 0.0000 <Sz>= 0.5000 <S**2>= 0.7543 S= 0.5022
 <L.S>= 0.000000000000E+00
 KE= 1.108781707148D+02 PE=-3.333129562111D+02 EE= 7.468576536365D+01
 Annihilation of the first spin contaminant:
 S**2 before annihilation     0.7543,   after     0.7500
 Leave Link  502 at Fri Mar 15 15:16:24 2019, MaxMem=   196608000 cpu:        74.7
 (Enter /cm/shared/c3ddb/gaussian/09.d01/g09/l508.exe)
 QCSCF skips out because SCF is already converged.
 Leave Link  508 at Fri Mar 15 15:16:24 2019, MaxMem=   196608000 cpu:         0.0
 (Enter /cm/shared/c3ddb/gaussian/09.d01/g09/l701.exe)
 Compute integral first derivatives.
 ... and contract with generalized density number  0.
 Leave Link  701 at Fri Mar 15 15:16:25 2019, MaxMem=   196608000 cpu:         7.6
 (Enter /cm/shared/c3ddb/gaussian/09.d01/g09/l702.exe)
 L702 exits ... SP integral derivatives will be done elsewhere.
 Leave Link  702 at Fri Mar 15 15:16:25 2019, MaxMem=   196608000 cpu:         0.2
 (Enter /cm/shared/c3ddb/gaussian/09.d01/g09/l703.exe)
 Compute integral first derivatives, UseDBF=F ICtDFT=           0.
 Integral derivatives from FoFJK, PRISM(SPDF).
 Calling FoFJK, ICntrl=      2127 FMM=F ISym2X=0 I1Cent= 0 IOpClX= 1 NMat=1 NMatS=1 NMatT=0.
 FoFJK:  IHMeth= 1 ICntrl=    2127 DoSepK=F KAlg= 0 I1Cent=   0 FoldK=F
 IRaf=         0 NMat=   1 IRICut=       1 DoRegI=T DoRafI=F ISym2E= 0.
 FoFCou: FMM=F IPFlag=           0 FMFlag=      100000 FMFlg1=         800
         NFxFlg=           0 DoJE=F BraDBF=F KetDBF=F FulRan=T
         wScrn=  0.000000 ICntrl=    2127 IOpCl=  1 I1Cent=           0 NGrid=           0
         NMat0=    1 NMatS0=      1 NMatT0=    0 NMatD0=    1 NMtDS0=    0 NMtDT0=    0
 Symmetry not used in FoFCou.
 Leave Link  703 at Fri Mar 15 15:16:28 2019, MaxMem=   196608000 cpu:        13.0
 (Enter /cm/shared/c3ddb/gaussian/09.d01/g09/l716.exe)
 Dipole        = 8.15548397D-01 6.84739666D-01 2.45770642D-01
 ***** Axes restored to original set *****
 -------------------------------------------------------------------
 Center     Atomic                   Forces (Hartrees/Bohr)
 Number     Number              X              Y              Z
 -------------------------------------------------------------------
      1        7           0.000108245    0.000004662   -0.000045255
      2        7          -0.000123740   -0.000026459   -0.000008552
      3        1           0.000010133   -0.000003775    0.000026815
      4        1           0.000013233    0.000013737    0.000006729
      5        1          -0.000007872    0.000011835    0.000020263
 -------------------------------------------------------------------
 Cartesian Forces:  Max     0.000123740 RMS     0.000045992
 Leave Link  716 at Fri Mar 15 15:16:28 2019, MaxMem=   196608000 cpu:         0.2
 (Enter /cm/shared/c3ddb/gaussian/09.d01/g09/l103.exe)

 GradGradGradGradGradGradGradGradGradGradGradGradGradGradGradGradGradGrad
 Berny optimization.
 Using GEDIIS/GDIIS optimizer.
 FormGI is forming the generalized inverse of G from B-inverse, IUseBI=4.
 Internal  Forces:  Max     0.000132905 RMS     0.000042357
 Search for a local minimum.
 Step number   2 out of a maximum of   21 on scan point     1 out of    46
 All quantities printed in internal units (Hartrees-Bohrs-Radians)
 RMS Force = .43051D-04 SwitMx=.10000D-02 MixMth= 2
 Mixed Optimization -- En-DIIS/RFO-DIIS
 Update second derivatives using D2CorX and points    1    2
 DE= -5.13D-05 DEPred=-5.07D-05 R= 1.01D+00
 TightC=F SS=  1.41D+00  RLast= 1.73D-02 DXNew= 8.4090D-02 5.1906D-02
 Trust test= 1.01D+00 RLast= 1.73D-02 DXMaxT set to 5.19D-02
 The second derivative matrix:
                          R1        R2        R3        R4        A1
           R1           0.46897
           R2           0.01265   0.46966
           R3           0.01406  -0.00083   0.44779
           R4          -0.00714  -0.00188   0.00282   0.42270
           A1           0.02727   0.00373  -0.00344   0.00665   0.11831
           A2           0.00958  -0.00730  -0.00517  -0.00517  -0.06144
           A3          -0.02793   0.00828   0.01295  -0.00024  -0.04332
           A4           0.07747   0.00635  -0.00627   0.01822   0.02061
           D1           0.00541   0.00619   0.00443   0.00055   0.00907
           D2          -0.00050  -0.00490  -0.00742  -0.00175  -0.00338
           D3          -0.01758  -0.00489  -0.00500  -0.00019  -0.00069
                          A2        A3        A4        D1        D2
           A2           0.08813
           A3          -0.03536   0.07757
           A4          -0.01004  -0.00789   0.24195
           D1          -0.01668   0.01241   0.00365   0.01687
           D2           0.01388  -0.01226   0.00106   0.00384   0.01146
           D3          -0.01669   0.01437  -0.00086  -0.00180  -0.00205
                          D3
           D3           0.01057
 ITU=  1  0
 Use linear search instead of GDIIS.
     Eigenvalues ---    0.00868   0.11542   0.16195   0.22043   0.42475
     Eigenvalues ---    0.44680   0.46573   0.505821000.000001000.00000
     Eigenvalues --- 1000.00000
 RFO step:  Lambda= 0.00000000D+00 EMin= 8.68053229D-03
 Quartic linear search produced a step of  0.01960.
 Iteration  1 RMS(Cart)=  0.00014666 RMS(Int)=  0.00000013
 Iteration  2 RMS(Cart)=  0.00000003 RMS(Int)=  0.00000012
 Iteration  1 RMS(Cart)=  0.00000012 RMS(Int)=  0.00000010
 ITry= 1 IFail=0 DXMaxC= 2.73D-04 DCOld= 1.00D+10 DXMaxT= 5.19D-02 DXLimC= 3.00D+00 Rises=F
 Variable       Old X    -DE/DX   Delta X   Delta X   Delta X     New X
                                 (Linear)    (Quad)   (Total)
    R1        2.55163   0.00013   0.00025   0.00008   0.00032   2.55195
    R2        1.90800   0.00001   0.00007  -0.00003   0.00004   1.90804
    R3        1.91711   0.00002   0.00009  -0.00004   0.00005   1.91716
    R4        1.93486   0.00001   0.00008  -0.00004   0.00004   1.93491
    A1        1.99298   0.00000  -0.00002  -0.00012  -0.00014   1.99285
    A2        2.11930   0.00001   0.00004  -0.00014  -0.00010   2.11920
    A3        2.00780  -0.00001  -0.00008  -0.00002  -0.00010   2.00770
    A4        1.84947   0.00001  -0.00001  -0.00005  -0.00007   1.84940
    D1        2.95496  -0.00003   0.00000   0.00000   0.00000   2.95496
    D2        0.42588  -0.00001   0.00014   0.00047   0.00061   0.42648
    D3       -2.56941   0.00001   0.00008   0.00048   0.00056  -2.56884
         Item               Value     Threshold  Converged?
 Maximum Force            0.000133     0.000450     YES
 RMS     Force            0.000043     0.000300     YES
 Maximum Displacement     0.000273     0.001800     YES
 RMS     Displacement     0.000147     0.001200     YES
 Predicted change in Energy=-2.228552D-08
 Optimization completed.
    -- Stationary point found.
                           ----------------------------
                           !   Optimized Parameters   !
                           ! (Angstroms and Degrees)  !
 --------------------------                            --------------------------
 ! Name  Definition              Value          Derivative Info.                !
 --------------------------------------------------------------------------------
 ! R1    R(1,2)                  1.3503         -DE/DX =    0.0001              !
 ! R2    R(1,3)                  1.0097         -DE/DX =    0.0                 !
 ! R3    R(1,4)                  1.0145         -DE/DX =    0.0                 !
 ! R4    R(2,5)                  1.0239         -DE/DX =    0.0                 !
 ! A1    A(2,1,3)              114.1896         -DE/DX =    0.0                 !
 ! A2    A(2,1,4)              121.4269         -DE/DX =    0.0                 !
 ! A3    A(3,1,4)              115.0384         -DE/DX =    0.0                 !
 ! A4    A(1,2,5)              105.9667         -DE/DX =    0.0                 !
 ! D1    D(3,1,2,5)            169.3067         -DE/DX =    0.0                 !
 ! D2    D(4,1,2,5)             24.4009         -DE/DX =    0.0                 !
 ! D3    D(2,1,3,4)           -147.2162         -DE/DX =    0.0                 !
 --------------------------------------------------------------------------------
 Lowest energy point so far.  Saving SCF results.
 Iteration  1 RMS(Cart)=  0.02782706 RMS(Int)=  0.02337811
 Iteration  2 RMS(Cart)=  0.00110080 RMS(Int)=  0.02335545
 Iteration  3 RMS(Cart)=  0.00001636 RMS(Int)=  0.02335545
 Iteration  4 RMS(Cart)=  0.00000052 RMS(Int)=  0.02335545
 Iteration  1 RMS(Cart)=  0.00848273 RMS(Int)=  0.00725558
 Iteration  2 RMS(Cart)=  0.00262574 RMS(Int)=  0.00799850
 Iteration  3 RMS(Cart)=  0.00081818 RMS(Int)=  0.00849198
 Iteration  4 RMS(Cart)=  0.00025547 RMS(Int)=  0.00866625
 Iteration  5 RMS(Cart)=  0.00007982 RMS(Int)=  0.00872250
 Iteration  6 RMS(Cart)=  0.00002494 RMS(Int)=  0.00874025
 Iteration  7 RMS(Cart)=  0.00000780 RMS(Int)=  0.00874582
 Iteration  8 RMS(Cart)=  0.00000244 RMS(Int)=  0.00874756
 Iteration  9 RMS(Cart)=  0.00000076 RMS(Int)=  0.00874810
 GradGradGradGradGradGradGradGradGradGradGradGradGradGradGradGradGradGrad

 Leave Link  103 at Fri Mar 15 15:16:37 2019, MaxMem=   196608000 cpu:        51.3
 (Enter /cm/shared/c3ddb/gaussian/09.d01/g09/l202.exe)
                          Input orientation:                          
 ---------------------------------------------------------------------
 Center     Atomic      Atomic             Coordinates (Angstroms)
 Number     Number       Type             X           Y           Z
 ---------------------------------------------------------------------
      1          7           0        0.593644    0.024240   -0.042513
      2          7           0       -0.741983   -0.145800    0.061720
      3          1           0        1.141884   -0.810189    0.108547
      4          1           0        1.027547    0.908365    0.201029
      5          1           0       -1.154982    0.782131   -0.068872
 ---------------------------------------------------------------------
                    Distance matrix (angstroms):
                    1          2          3          4          5
     1  N    0.000000
     2  N    1.350436   0.000000
     3  H    1.009781   1.998139   0.000000
     4  H    1.014525   2.064439   1.724835   0.000000
     5  H    1.905987   1.024050   2.800456   2.202774   0.000000
 Stoichiometry    H3N2(2)
 Framework group  C1[X(H3N2)]
 Deg. of freedom     9
 Full point group                 C1      NOp   1
 RotChk:  IX=0 Diff= 2.34D-02
 Largest Abelian subgroup         C1      NOp   1
 Largest concise Abelian subgroup C1      NOp   1
                         Standard orientation:                         
 ---------------------------------------------------------------------
 Center     Atomic      Atomic             Coordinates (Angstroms)
 Number     Number       Type             X           Y           Z
 ---------------------------------------------------------------------
      1          7           0        0.595478    0.026165   -0.059031
      2          7           0       -0.740186   -0.151488    0.031070
      3          1           0        1.146327   -0.807774    0.085081
      4          1           0        1.023050    0.908758    0.200724
      5          1           0       -1.156422    0.776277   -0.090075
 ---------------------------------------------------------------------
 Rotational constants (GHZ):    205.6345768     30.6263604     26.9590783
 Leave Link  202 at Fri Mar 15 15:16:37 2019, MaxMem=   196608000 cpu:         0.2
 (Enter /cm/shared/c3ddb/gaussian/09.d01/g09/l301.exe)
 Standard basis: 6-311+G(d,p) (5D, 7F)
 Ernie: Thresh=  0.10000D-02 Tol=  0.10000D-05 Strict=F.
 There are    64 symmetry adapted cartesian basis functions of A   symmetry.
 There are    62 symmetry adapted basis functions of A   symmetry.
    62 basis functions,    96 primitive gaussians,    64 cartesian basis functions
     9 alpha electrons        8 beta electrons
       nuclear repulsion energy        36.4654038674 Hartrees.
 IExCor=  402 DFT=T Ex+Corr=B3LYP ExCW=0 ScaHFX=  0.200000
 ScaDFX=  0.800000  0.720000  1.000000  0.810000 ScalE2=  1.000000  1.000000
 IRadAn=      5 IRanWt=     -1 IRanGd=            0 ICorTp=0 IEmpDi=  4
 NAtoms=    5 NActive=    5 NUniq=    5 SFac= 1.00D+00 NAtFMM=   60 NAOKFM=F Big=F
 Integral buffers will be    131072 words long.
 Raffenetti 2 integral format.
 Two-electron integral symmetry is turned on.
 Leave Link  301 at Fri Mar 15 15:16:37 2019, MaxMem=   196608000 cpu:         0.4
 (Enter /cm/shared/c3ddb/gaussian/09.d01/g09/l302.exe)
 NPDir=0 NMtPBC=     1 NCelOv=     1 NCel=       1 NClECP=     1 NCelD=      1
         NCelK=      1 NCelE2=     1 NClLst=     1 CellRange=     0.0.
 One-electron integrals computed using PRISM.
 NBasis=    62 RedAO= T EigKep=  3.95D-04  NBF=    62
 NBsUse=    62 1.00D-06 EigRej= -1.00D+00 NBFU=    62
 Precomputing XC quadrature grid using
 IXCGrd= 4 IRadAn=           5 IRanWt=          -1 IRanGd=           0 AccXCQ= 0.00D+00.
 Generated NRdTot=       0 NPtTot=           0 NUsed=           0 NTot=          32
 NSgBfM=    64    64    64    64    64 MxSgAt=     5 MxSgA2=     5.
 Leave Link  302 at Fri Mar 15 15:16:38 2019, MaxMem=   196608000 cpu:         3.7
 (Enter /cm/shared/c3ddb/gaussian/09.d01/g09/l303.exe)
 DipDrv:  MaxL=1.
 Leave Link  303 at Fri Mar 15 15:16:38 2019, MaxMem=   196608000 cpu:         0.9
 (Enter /cm/shared/c3ddb/gaussian/09.d01/g09/l401.exe)
 Initial guess from the checkpoint file:  "check.chk"
 B after Tr=     0.000000    0.000000    0.000000
         Rot=    0.999999    0.000165    0.000045   -0.001681 Ang=   0.19 deg.
 Guess basis will be translated and rotated to current coordinates.
 JPrj=2 DoOrth=T DoCkMO=T.
 Initial guess <Sx>= 0.0000 <Sy>= 0.0000 <Sz>= 0.5000 <S**2>= 0.7544 S= 0.5022
 Generating alternative initial guess.
 ExpMin= 6.39D-02 ExpMax= 6.29D+03 ExpMxC= 9.49D+02 IAcc=2 IRadAn=         4 AccDes= 0.00D+00
 Harris functional with IExCor=  402 and IRadAn=       4 diagonalized for initial guess.
 HarFok:  IExCor=  402 AccDes= 0.00D+00 IRadAn=         4 IDoV= 1 UseB2=F ITyADJ=14
 ICtDFT=  3500011 ScaDFX=  1.000000  1.000000  1.000000  1.000000
 FoFCou: FMM=F IPFlag=           0 FMFlag=      100000 FMFlg1=           0
         NFxFlg=           0 DoJE=T BraDBF=F KetDBF=T FulRan=T
         wScrn=  0.000000 ICntrl=     500 IOpCl=  0 I1Cent=   200000004 NGrid=           0
         NMat0=    1 NMatS0=      1 NMatT0=    0 NMatD0=    1 NMtDS0=    0 NMtDT0=    0
 Petite list used in FoFCou.
 Harris En= -111.248898792197    
 Leave Link  401 at Fri Mar 15 15:16:39 2019, MaxMem=   196608000 cpu:         7.4
 (Enter /cm/shared/c3ddb/gaussian/09.d01/g09/l502.exe)
 UHF open shell SCF:
 Using DIIS extrapolation, IDIIS=  1040.
 Integral symmetry usage will be decided dynamically.
 Keep R1 and R2 ints in memory in canonical form, NReq=4723356.
 IVT=       19222 IEndB=       19222 NGot=   196608000 MDV=   192772617
 LenX=   192772617 LenY=   192768080
 Requested convergence on RMS density matrix=1.00D-08 within  64 cycles.
 Requested convergence on MAX density matrix=1.00D-06.
 Requested convergence on             energy=1.00D-06.
 No special actions if energy rises.
 FoFCou: FMM=F IPFlag=           0 FMFlag=           0 FMFlg1=           0
         NFxFlg=           0 DoJE=F BraDBF=F KetDBF=F FulRan=T
         wScrn=  0.000000 ICntrl=     600 IOpCl=  0 I1Cent=           0 NGrid=           0
         NMat0=    1 NMatS0=   1953 NMatT0=    0 NMatD0=    1 NMtDS0=    0 NMtDT0=    0
 Symmetry not used in FoFCou.
 Integral accuracy reduced to 1.0D-05 until final iterations.

 Cycle   1  Pass 0  IDiag  1:
 E= -111.270683250724    
 DIIS: error= 5.22D-03 at cycle   1 NSaved=   1.
 NSaved= 1 IEnMin= 1 EnMin= -111.270683250724     IErMin= 1 ErrMin= 5.22D-03
 ErrMax= 5.22D-03  0.00D+00 EMaxC= 1.00D-01 BMatC= 2.58D-03 BMatP= 2.58D-03
 IDIUse=3 WtCom= 9.48D-01 WtEn= 5.22D-02
 Coeff-Com:  0.100D+01
 Coeff-En:   0.100D+01
 Coeff:      0.100D+01
 Gap=     0.385 Goal=   None    Shift=    0.000
 Gap=     0.478 Goal=   None    Shift=    0.000
 GapD=    0.385 DampG=1.000 DampE=1.000 DampFc=1.0000 IDamp=-1.
 RMSDP=9.55D-04 MaxDP=1.26D-02              OVMax= 2.04D-02

 Cycle   2  Pass 0  IDiag  1:
 E= -111.271625947262     Delta-E=       -0.000942696538 Rises=F Damp=F
 DIIS: error= 7.41D-04 at cycle   2 NSaved=   2.
 NSaved= 2 IEnMin= 2 EnMin= -111.271625947262     IErMin= 2 ErrMin= 7.41D-04
 ErrMax= 7.41D-04  0.00D+00 EMaxC= 1.00D-01 BMatC= 3.44D-05 BMatP= 2.58D-03
 IDIUse=3 WtCom= 9.93D-01 WtEn= 7.41D-03
 Coeff-Com: -0.662D-01 0.107D+01
 Coeff-En:   0.000D+00 0.100D+01
 Coeff:     -0.657D-01 0.107D+01
 Gap=     0.206 Goal=   None    Shift=    0.000
 Gap=     0.232 Goal=   None    Shift=    0.000
 RMSDP=1.41D-04 MaxDP=1.61D-03 DE=-9.43D-04 OVMax= 4.33D-03

 Cycle   3  Pass 0  IDiag  1:
 E= -111.271649055909     Delta-E=       -0.000023108647 Rises=F Damp=F
 DIIS: error= 1.54D-04 at cycle   3 NSaved=   3.
 NSaved= 3 IEnMin= 3 EnMin= -111.271649055909     IErMin= 3 ErrMin= 1.54D-04
 ErrMax= 1.54D-04  0.00D+00 EMaxC= 1.00D-01 BMatC= 6.52D-06 BMatP= 3.44D-05
 IDIUse=3 WtCom= 9.98D-01 WtEn= 1.54D-03
 Coeff-Com: -0.199D-01 0.227D+00 0.793D+00
 Coeff-En:   0.000D+00 0.000D+00 0.100D+01
 Coeff:     -0.199D-01 0.227D+00 0.793D+00
 Gap=     0.206 Goal=   None    Shift=    0.000
 Gap=     0.232 Goal=   None    Shift=    0.000
 RMSDP=3.74D-05 MaxDP=3.96D-04 DE=-2.31D-05 OVMax= 1.06D-03

 Cycle   4  Pass 0  IDiag  1:
 E= -111.271650596380     Delta-E=       -0.000001540471 Rises=F Damp=F
 DIIS: error= 1.10D-04 at cycle   4 NSaved=   4.
 NSaved= 4 IEnMin= 4 EnMin= -111.271650596380     IErMin= 4 ErrMin= 1.10D-04
 ErrMax= 1.10D-04  0.00D+00 EMaxC= 1.00D-01 BMatC= 4.03D-06 BMatP= 6.52D-06
 IDIUse=3 WtCom= 9.99D-01 WtEn= 1.10D-03
 Coeff-Com:  0.451D-02-0.128D+00 0.447D+00 0.676D+00
 Coeff-En:   0.000D+00 0.000D+00 0.577D-01 0.942D+00
 Coeff:      0.451D-02-0.128D+00 0.447D+00 0.677D+00
 Gap=     0.206 Goal=   None    Shift=    0.000
 Gap=     0.232 Goal=   None    Shift=    0.000
 RMSDP=2.38D-05 MaxDP=3.02D-04 DE=-1.54D-06 OVMax= 5.78D-04

 Cycle   5  Pass 0  IDiag  1:
 E= -111.271651580267     Delta-E=       -0.000000983887 Rises=F Damp=F
 DIIS: error= 5.44D-05 at cycle   5 NSaved=   5.
 NSaved= 5 IEnMin= 5 EnMin= -111.271651580267     IErMin= 5 ErrMin= 5.44D-05
 ErrMax= 5.44D-05  0.00D+00 EMaxC= 1.00D-01 BMatC= 3.77D-07 BMatP= 4.03D-06
 IDIUse=1 WtCom= 1.00D+00 WtEn= 0.00D+00
 Coeff-Com:  0.398D-02-0.874D-01 0.132D+00 0.326D+00 0.625D+00
 Coeff:      0.398D-02-0.874D-01 0.132D+00 0.326D+00 0.625D+00
 Gap=     0.206 Goal=   None    Shift=    0.000
 Gap=     0.232 Goal=   None    Shift=    0.000
 RMSDP=6.33D-06 MaxDP=8.47D-05 DE=-9.84D-07 OVMax= 1.99D-04

 Initial convergence to 1.0D-05 achieved.  Increase integral accuracy.
 Cycle   6  Pass 1  IDiag  1:
 E= -111.271653946555     Delta-E=       -0.000002366287 Rises=F Damp=F
 DIIS: error= 2.52D-05 at cycle   1 NSaved=   1.
 NSaved= 1 IEnMin= 1 EnMin= -111.271653946555     IErMin= 1 ErrMin= 2.52D-05
[...]
           D3         115.05102 114.04157 118.07168-130.90072-135.06076
                          21        22        23        24        25
     Eigenvalues --  -111.27188-111.27198-111.27180-111.27152-111.27142
           R1           1.35208   1.34998   1.34777   1.34567   1.34507
           R2           1.01597   1.01414   1.01231   1.01062   1.00992
           R3           1.01077   1.00942   1.00803   1.00654   1.00594
           R4           1.02424   1.02383   1.02350   1.02328   1.02321
           A1         120.54947 121.65148 122.83442 124.08559 124.61002
           A2         113.28082 114.40925 115.48069 116.45722 116.80498
           A3         113.83605 115.31461 116.72141 118.02016 118.52899
           A4         105.88101 105.98906 106.08030 106.12499 106.11704
           D1         -30.69318 -22.69319 -14.69321  -6.69321   1.30680
           D2        -170.58258-168.93175-168.89580-172.70397 178.53653
           D3        -139.68472-145.95661-153.90683-165.80879 177.18564
                          26        27        28        29        30
     Eigenvalues --  -111.27161-111.27188-111.27199-111.27177-111.27113
           R1           1.34656   1.34859   1.35072   1.35284   1.35500
           R2           1.01123   1.01292   1.01473   1.01654   1.01832
           R3           1.00720   1.00848   1.00985   1.01110   1.01235
           R4           1.02339   1.02363   1.02395   1.02441   1.02493
           A1         123.69685 122.44668 121.29171 120.24996 119.30210
           A2         116.21349 115.13761 114.05017 113.00375 111.98500
           A3         117.64692 116.29934 114.87271 113.43340 111.96845
           A4         106.14361 106.06407 105.94644 105.83492 105.73912
           D1           9.30682  17.30686  25.30684  33.30678  41.30679
           D2         171.10900 168.74125 169.42681 171.70099 174.87382
           D3         161.56108 151.12779 143.84795 138.23005 133.57405
                          31        32        33        34        35
     Eigenvalues --  -111.26998-111.26827-111.26596-111.26305-111.25958
           R1           1.35744   1.36028   1.36388   1.36854   1.37473
           R2           1.01995   1.02147   1.02285   1.02397   1.02483
           R3           1.01346   1.01477   1.01594   1.01728   1.01868
           R4           1.02550   1.02604   1.02658   1.02703   1.02744
           A1         118.51092 117.61224 116.81644 115.97886 115.01109
           A2         111.04565 110.00987 109.07881 108.11228 107.09564
           A3         110.59454 109.10241 107.55896 106.01416 104.44328
           A4         105.67112 105.62565 105.64416 105.64450 105.60846
           D1          49.30670  57.30684  65.30679  73.30680  81.30678
           D2         178.94369-176.99405-172.51708-167.85977-163.13407
           D3         129.84332 126.14408 122.96390 119.97620 117.07376
                          36        37        38        39        40
     Eigenvalues --  -111.25566-111.25149-111.24741-111.24394-111.24165
           R1           1.38363   1.39544   1.41039   1.42719   1.44076
           R2           1.02533   1.02577   1.02623   1.02656   1.02589
           R3           1.02012   1.02163   1.02309   1.02434   1.02489
           R4           1.02778   1.02816   1.02864   1.02901   1.02942
           A1         113.91865 112.23028 110.07664 107.47090 105.28874
           A2         106.11998 105.00081 103.93399 103.27040 103.30695
           A3         102.95198 101.48652 100.29150  99.70222 100.32230
           A4         105.43476 105.09490 104.55214 103.89859 103.38337
           D1          89.30668  97.30670 105.30669 113.30669 121.30666
           D2        -158.14818-153.28870-148.03518-141.87500-133.88785
           D3         114.43546 111.61598 109.08311 107.33466 106.99722
                          41        42        43        44        45
     Eigenvalues --  -111.24136-111.26756-111.26949-111.27088-111.27172
           R1           1.43928   1.35785   1.35599   1.35439   1.35244
           R2           1.02125   1.01417   1.01297   1.01188   1.01087
           R3           1.02188   1.01709   1.01643   1.01577   1.01534
           R4           1.02979   1.02459   1.02420   1.02400   1.02389
           A1         104.80839 113.22230 113.26359 113.42839 113.73339
           A2         106.67557 118.36184 119.07682 119.69135 120.49265
           A3         105.12522 110.92211 111.89146 112.92343 113.88082
           A4         103.42884 106.85186 106.52878 106.26896 106.05305
           D1         129.30667 137.30671 145.30671 153.30666 161.30668
           D2        -119.53577   4.99142  10.60382  15.93748  20.76173
           D3         112.26670-135.84338-137.97468-140.29771-143.21235
                          46
     Eigenvalues --  -111.27199
           R1           1.35029
           R2           1.00977
           R3           1.01464
           R4           1.02394
           A1         114.16115
           A2         121.32783
           A3         114.98850
           A4         105.95904
           D1         169.30671
           D2          24.71221
           D3        -146.90681
 Largest change from initial coordinates is atom    4       0.005 Angstoms.
 Leave Link  103 at Fri Mar 15 16:20:20 2019, MaxMem=   196608000 cpu:        10.6
 (Enter /cm/shared/c3ddb/gaussian/09.d01/g09/l202.exe)
                          Input orientation:                          
 ---------------------------------------------------------------------
 Center     Atomic      Atomic             Coordinates (Angstroms)
 Number     Number       Type             X           Y           Z
 ---------------------------------------------------------------------
      1          7           0        0.621442    0.218747    0.000133
      2          7           0       -0.644534    0.107148   -0.456082
      3          1           0        1.310170   -0.245345   -0.574245
      4          1           0        0.825487    0.224063    0.994031
      5          1           0       -1.246455    0.454133    0.296074
 ---------------------------------------------------------------------
                    Distance matrix (angstroms):
                    1          2          3          4          5
     1  N    0.000000
     2  N    1.350290   0.000000
     3  H    1.009771   1.989743   0.000000
     4  H    1.014641   2.068202   1.707265   0.000000
     5  H    1.905788   1.023938   2.789813   2.198413   0.000000
 Stoichiometry    H3N2(2)
 Framework group  C1[X(H3N2)]
 Deg. of freedom     9
 Full point group                 C1      NOp   1
 RotChk:  IX=0 Diff= 1.26D-15
 Largest Abelian subgroup         C1      NOp   1
 Largest concise Abelian subgroup C1      NOp   1
                         Standard orientation:                         
 ---------------------------------------------------------------------
 Center     Atomic      Atomic             Coordinates (Angstroms)
 Number     Number       Type             X           Y           Z
 ---------------------------------------------------------------------
      1          7           0        0.595311    0.024548   -0.067618
      2          7           0       -0.740408   -0.150986    0.023618
      3          1           0        1.136128   -0.801557    0.143818
      4          1           0        1.031413    0.901667    0.196909
      5          1           0       -1.151857    0.784955   -0.032724
 ---------------------------------------------------------------------
 Rotational constants (GHZ):    205.5797063     30.6329346     26.9997383
 Leave Link  202 at Fri Mar 15 16:20:20 2019, MaxMem=   196608000 cpu:         0.5
 (Enter /cm/shared/c3ddb/gaussian/09.d01/g09/l601.exe)
 Copying SCF densities to generalized density rwf, IOpCl= 1 IROHF=0.

 **********************************************************************

            Population analysis using the SCF density.

 **********************************************************************

 Orbital symmetries:
 Alpha Orbitals:
       Occupied  (A) (A) (A) (A) (A) (A) (A) (A) (A)
       Virtual   (A) (A) (A) (A) (A) (A) (A) (A) (A) (A) (A) (A)
                 (A) (A) (A) (A) (A) (A) (A) (A) (A) (A) (A) (A)
                 (A) (A) (A) (A) (A) (A) (A) (A) (A) (A) (A) (A)
                 (A) (A) (A) (A) (A) (A) (A) (A) (A) (A) (A) (A)
                 (A) (A) (A) (A) (A)
 Beta  Orbitals:
       Occupied  (A) (A) (A) (A) (A) (A) (A) (A)
       Virtual   (A) (A) (A) (A) (A) (A) (A) (A) (A) (A) (A) (A)
                 (A) (A) (A) (A) (A) (A) (A) (A) (A) (A) (A) (A)
                 (A) (A) (A) (A) (A) (A) (A) (A) (A) (A) (A) (A)
                 (A) (A) (A) (A) (A) (A) (A) (A) (A) (A) (A) (A)
                 (A) (A) (A) (A) (A) (A)
 The electronic state is 2-A.
 Alpha  occ. eigenvalues --  -14.36796 -14.32903  -0.99235  -0.74796  -0.56160
 Alpha  occ. eigenvalues --   -0.48346  -0.39784  -0.30346  -0.19512
 Alpha virt. eigenvalues --    0.01125   0.04291   0.07031   0.09488   0.11706
 Alpha virt. eigenvalues --    0.13725   0.15322   0.15589   0.18689   0.20230
 Alpha virt. eigenvalues --    0.24472   0.28343   0.50145   0.53068   0.58556
 Alpha virt. eigenvalues --    0.67003   0.70154   0.74230   0.76302   0.79349
 Alpha virt. eigenvalues --    0.79603   0.91659   1.14536   1.16734   1.26023
 Alpha virt. eigenvalues --    1.37012   1.43327   1.61922   1.73768   1.79470
 Alpha virt. eigenvalues --    1.83664   1.93949   2.12083   2.18570   2.22008
 Alpha virt. eigenvalues --    2.34409   2.50634   2.55249   2.59097   2.66941
 Alpha virt. eigenvalues --    2.70031   2.82687   2.92572   3.05665   3.21493
 Alpha virt. eigenvalues --    3.70645   3.86094   3.97831   4.36326   4.70966
 Alpha virt. eigenvalues --    5.19205  35.41187  35.51136
  Beta  occ. eigenvalues --  -14.36132 -14.31334  -0.97140  -0.72010  -0.55497
  Beta  occ. eigenvalues --   -0.47275  -0.33746  -0.28353
  Beta virt. eigenvalues --   -0.04870   0.01389   0.04636   0.07221   0.10014
  Beta virt. eigenvalues --    0.11773   0.13882   0.15652   0.16972   0.18821
  Beta virt. eigenvalues --    0.20541   0.25155   0.29745   0.50393   0.53447
  Beta virt. eigenvalues --    0.59298   0.67526   0.70554   0.76281   0.77250
  Beta virt. eigenvalues --    0.80262   0.84291   0.92591   1.16386   1.17889
  Beta virt. eigenvalues --    1.27556   1.38489   1.43628   1.62115   1.74212
  Beta virt. eigenvalues --    1.81024   1.84675   1.95796   2.13890   2.20962
  Beta virt. eigenvalues --    2.23694   2.37351   2.51677   2.55886   2.60349
  Beta virt. eigenvalues --    2.68266   2.72367   2.84150   2.94462   3.06469
  Beta virt. eigenvalues --    3.22241   3.74890   3.90572   4.00072   4.37707
  Beta virt. eigenvalues --    4.71687   5.20551  35.42626  35.52025
          Condensed to atoms (all electrons):
               1          2          3          4          5
     1  N    6.580035   0.071459   0.390521   0.333094  -0.011055
     2  N    0.071459   7.086960  -0.085143   0.005077   0.243424
     3  H    0.390521  -0.085143   0.466735  -0.055219   0.015452
     4  H    0.333094   0.005077  -0.055219   0.513388  -0.027949
     5  H   -0.011055   0.243424   0.015452  -0.027949   0.593559
          Atomic-Atomic Spin Densities.
               1          2          3          4          5
     1  N    0.546553  -0.310525   0.010813   0.002735   0.009969
     2  N   -0.310525   1.120068  -0.012631  -0.005869  -0.015289
     3  H    0.010813  -0.012631  -0.007951   0.002676  -0.000170
     4  H    0.002735  -0.005869   0.002676  -0.001773   0.000393
     5  H    0.009969  -0.015289  -0.000170   0.000393  -0.021102
 Mulliken charges and spin densities:
               1          2
     1  N   -0.364054   0.259546
     2  N   -0.321777   0.775754
     3  H    0.267653  -0.007262
     4  H    0.231609  -0.001839
     5  H    0.186568  -0.026199
 Sum of Mulliken charges =   0.00000   1.00000
 Mulliken charges and spin densities with hydrogens summed into heavy atoms:
               1          2
     1  N    0.135208   0.250444
     2  N   -0.135208   0.749556
 Electronic spatial extent (au):  <R**2>=             72.2351
 Charge=              0.0000 electrons
 Dipole moment (field-independent basis, Debye):
    X=              2.0701    Y=              1.7399    Z=              0.6285  Tot=              2.7763
 Quadrupole moment (field-independent basis, Debye-Ang):
   XX=            -12.0395   YY=            -11.1476   ZZ=            -14.7411
   XY=             -2.4007   XZ=              0.9815   YZ=              0.1137
 Traceless Quadrupole moment (field-independent basis, Debye-Ang):
   XX=              0.6032   YY=              1.4951   ZZ=             -2.0984
   XY=             -2.4007   XZ=              0.9815   YZ=              0.1137
 Octapole moment (field-independent basis, Debye-Ang**2):
  XXX=              4.6172  YYY=              2.5443  ZZZ=              0.4773  XYY=              3.0178
  XXY=              2.6109  XXZ=              0.8521  XZZ=              0.3856  YZZ=              0.5599
  YYZ=              0.5197  XYZ=              0.1176
 Hexadecapole moment (field-independent basis, Debye-Ang**3):
 XXXX=            -55.1846 YYYY=            -18.8202 ZZZZ=            -16.7871 XXXY=             -5.1220
 XXXZ=              1.6071 YYYX=             -3.0676 YYYZ=              0.1671 ZZZX=              0.9500
 ZZZY=              0.1223 XXYY=            -10.7552 XXZZ=            -13.9187 YYZZ=             -6.3481
 XXYZ=              0.0356 YYXZ=              0.7413 ZZXY=             -0.8485
 N-N= 3.647661835098D+01 E-N=-3.333119692499D+02  KE= 1.108781905214D+02
                          Isotropic Fermi Contact Couplings
        Atom                 a.u.       MegaHertz       Gauss      10(-4) cm-1
     1  N(14)              0.06565      21.21090       7.56858       7.07520
     2  N(14)              0.06996      22.60433       8.06579       7.53999
     3  H(1)              -0.00253     -11.32358      -4.04053      -3.77714
     4  H(1)               0.00073       3.28173       1.17100       1.09467
     5  H(1)              -0.01025     -45.83596     -16.35541     -15.28923
 --------------------------------------------------------
       Center         ----  Spin Dipole Couplings  ----
                      3XX-RR        3YY-RR        3ZZ-RR
 --------------------------------------------------------
     1   Atom       -0.357271     -0.402847      0.760118
     2   Atom       -0.929133     -0.907922      1.837054
     3   Atom       -0.001526      0.013807     -0.012281
     4   Atom       -0.013248      0.023973     -0.010725
     5   Atom       -0.047987      0.065317     -0.017330
 --------------------------------------------------------
                        XY            XZ            YZ
 --------------------------------------------------------
     1   Atom        0.010261     -0.141057     -0.047135
     2   Atom       -0.018213      0.000346      0.113812
     3   Atom       -0.039028      0.005245     -0.009869
     4   Atom        0.036326      0.005274      0.010035
     5   Atom       -0.066637      0.002397     -0.001648
 --------------------------------------------------------


 ---------------------------------------------------------------------------------
              Anisotropic Spin Dipole Couplings in Principal Axis System
 ---------------------------------------------------------------------------------

       Atom             a.u.   MegaHertz   Gauss  10(-4) cm-1        Axes

              Baa    -0.4054   -15.636    -5.579    -5.216 -0.1450  0.9892  0.0225
     1 N(14)  Bbb    -0.3742   -14.431    -5.149    -4.814  0.9817  0.1410  0.1279
              Bcc     0.7796    30.067    10.729    10.029 -0.1234 -0.0406  0.9915
 
              Baa    -0.9409   -36.287   -12.948   -12.104  0.8404  0.5415 -0.0223
     2 N(14)  Bbb    -0.9009   -34.745   -12.398   -11.590 -0.5419  0.8397 -0.0348
              Bcc     1.8418    71.033    25.346    23.694 -0.0001  0.0414  0.9991
 
              Baa    -0.0339   -18.076    -6.450    -6.029  0.7579  0.6430  0.1098
     3 H(1)   Bbb    -0.0140    -7.486    -2.671    -2.497 -0.1990  0.0676  0.9777
              Bcc     0.0479    25.562     9.121     8.527 -0.6213  0.7628 -0.1792
 
              Baa    -0.0355   -18.928    -6.754    -6.314  0.8505 -0.5250  0.0316
     4 H(1)   Bbb    -0.0129    -6.866    -2.450    -2.290 -0.1253 -0.1438  0.9816
              Bcc     0.0483    25.794     9.204     8.604  0.5108  0.8388  0.1881
 
              Baa    -0.0788   -42.063   -15.009   -14.031  0.9075  0.4193 -0.0241
     5 H(1)   Bbb    -0.0173    -9.257    -3.303    -3.088  0.0127  0.0301  0.9995
              Bcc     0.0962    51.319    18.312    17.118 -0.4198  0.9074 -0.0220
 

 ---------------------------------------------------------------------------------

 No NMR shielding tensors so no spin-rotation constants.
 Leave Link  601 at Fri Mar 15 16:20:21 2019, MaxMem=   196608000 cpu:         6.9
 (Enter /cm/shared/c3ddb/gaussian/09.d01/g09/l9999.exe)

 Test job not archived.
 1\1\GINC-NODE019\Scan\UB3LYP\6-311+G(d,p)\H3N2(2)\ALONGD\15-Mar-2019\0
 \\#P opt=(modredundant, calcfc, noeigentest, maxStep=5) scf=(tight, di
 rect) integral=(grid=ultrafine, Acc2E=12) ub3lyp/6-311+g(d,p) scf=xqc 
 IOp(2/11=1)\\name\\0,2\N,0.621442234,0.218747448,0.0001328582\N,-0.644
 5336336,0.1071477606,-0.4560824129\H,1.3101697376,-0.2453446889,-0.574
 2453199\H,0.8254869923,0.2240630678,0.9940314419\H,-1.2464553303,0.454
 1334124,0.2960744327\\Version=AS64L-G09RevD.01\State=2-A\HF=-111.27198
 85,-111.2717238,-111.2718645,-111.2719613,-111.2715067,-111.2704896,-1
 11.2689213,-111.2668176,-111.2641939,-111.2610693,-111.2574741,-111.25
 34677,-111.2491641,-111.2447635,-111.2405814,-111.237034,-111.2345937,
 -111.2339668,-111.2704161,-111.2713909,-111.2718831,-111.2719817,-111.
 2718032,-111.2715247,-111.2714159,-111.2716116,-111.2718829,-111.27198
 65,-111.2717707,-111.2711292,-111.2699811,-111.2682679,-111.2659561,-1
 11.2630451,-111.2595776,-111.2556587,-111.2514882,-111.2474105,-111.24
 39353,-111.2416547,-111.2413588,-111.2675624,-111.2694931,-111.2708828
 ,-111.2717171,-111.2719882\S2=0.75432,0.754316,0.754317,0.754323,0.754
 322,0.754312,0.754293,0.754262,0.75422,0.754172,0.754111,0.754036,0.75
 3947,0.753835,0.753723,0.753646,0.753626,0.753604,0.754216,0.75426,0.7
 54296,0.754326,0.754343,0.754343,0.75434,0.754347,0.75434,0.754318,0.7
 54285,0.754245,0.754203,0.754156,0.754111,0.754065,0.754011,0.753944,0
 .753845,0.75372,0.753605,0.753562,0.753537,0.754276,0.754301,0.754318,
 0.754323,0.754319\S2-1=0.,0.,0.,0.,0.,0.,0.,0.,0.,0.,0.,0.,0.,0.,0.,0.
 ,0.,0.,0.,0.,0.,0.,0.,0.,0.,0.,0.,0.,0.,0.,0.,0.,0.,0.,0.,0.,0.,0.,0.,
 0.,0.,0.,0.,0.,0.,0.\S2A=0.750012,0.750012,0.750012,0.750012,0.750012,
 0.750012,0.750012,0.750011,0.750011,0.750011,0.750011,0.750011,0.75001
 1,0.750011,0.75001,0.75001,0.750009,0.750009,0.750011,0.750011,0.75001
 2,0.750012,0.750012,0.750012,0.750012,0.750012,0.750012,0.750012,0.750
 012,0.750011,0.750011,0.750011,0.750011,0.750011,0.750011,0.750011,0.7
 50011,0.75001,0.75001,0.750009,0.750009,0.750012,0.750012,0.750012,0.7
 50012,0.750012\RMSD=3.602e-09,7.624e-09,8.899e-09,6.369e-09,5.413e-09,
 5.152e-09,6.113e-09,4.146e-09,1.948e-09,7.185e-09,3.630e-09,4.345e-09,
 8.386e-09,6.921e-09,9.721e-09,9.670e-09,5.830e-09,9.441e-09,2.738e-09,
 5.074e-09,4.092e-09,9.126e-09,7.427e-09,4.738e-09,1.830e-09,8.949e-09,
 3.987e-09,6.228e-09,2.987e-09,8.248e-09,8.950e-09,6.603e-09,9.229e-09,
 1.092e-09,1.549e-09,5.988e-09,4.645e-09,5.299e-09,1.528e-09,8.362e-09,
 3.761e-09,3.567e-09,7.706e-09,1.957e-09,5.467e-09,8.532e-09\PG=C01 [X(
 H3N2)]\\@


 A people that values its privileges above its principles soon loses both.
 -- Dwight D. Eisenhower
 Job cpu time:       0 days  6 hours 21 minutes 44.5 seconds.
 File lengths (MBytes):  RWF=     11 Int=      0 D2E=      0 Chk=      3 Scr=      1
 Normal termination of Gaussian 09 at Fri Mar 15 16:20:22 2019.
