 Entering Gaussian System, Link 0=g09
 Initial command:
 /cm/shared/c3ddb/gaussian/09.d01/g09/l1.exe "/scratch/users/alongd/g09/a270-7510354/Gau-56772.inp" -scrdir="/scratch/users/alongd/g09/a270-7510354/"
 Entering Link 1 = /cm/shared/c3ddb/gaussian/09.d01/g09/l1.exe PID=     56773.
  
 Copyright (c) 1988,1990,1992,1993,1995,1998,2003,2009,2013,
            Gaussian, Inc.  All Rights Reserved.
  
 This is part of the Gaussian(R) 09 program.  It is based on
 the Gaussian(R) 03 system (copyright 2003, Gaussian, Inc.),
 the Gaussian(R) 98 system (copyright 1998, Gaussian, Inc.),
 the Gaussian(R) 94 system (copyright 1995, Gaussian, Inc.),
 the Gaussian 92(TM) system (copyright 1992, Gaussian, Inc.),
 the Gaussian 90(TM) system (copyright 1990, Gaussian, Inc.),
 the Gaussian 88(TM) system (copyright 1988, Gaussian, Inc.),
 the Gaussian 86(TM) system (copyright 1986, Carnegie Mellon
 University), and the Gaussian 82(TM) system (copyright 1983,
 Carnegie Mellon University). Gaussian is a federally registered
 trademark of Gaussian, Inc.
  
 This software contains proprietary and confidential information,
 including trade secrets, belonging to Gaussian, Inc.
  
 This software is provided under written license and may be
 used, copied, transmitted, or stored only in accord with that
 written license.
  
 The following legend is applicable only to US Government
 contracts under FAR:
  
                    RESTRICTED RIGHTS LEGEND
  
 Use, reproduction and disclosure by the US Government is
 subject to restrictions as set forth in subparagraphs (a)
 and (c) of the Commercial Computer Software - Restricted
 Rights clause in FAR 52.227-19.
  
 Gaussian, Inc.
 340 Quinnipiac St., Bldg. 40, Wallingford CT 06492
  
  
 ---------------------------------------------------------------
 Warning -- This program may not be used in any manner that
 competes with the business of Gaussian, Inc. or will provide
 assistance to any competitor of Gaussian, Inc.  The licensee
 of this program is prohibited from giving any competitor of
 Gaussian, Inc. access to this program.  By using this program,
 the user acknowledges that Gaussian, Inc. is engaged in the
 business of creating and licensing software in the field of
 computational chemistry and represents and warrants to the
 licensee that it is not a competitor of Gaussian, Inc. and that
 it will not use this program in any manner prohibited above.
 ---------------------------------------------------------------
  

 Cite this work as:
 Gaussian 09, Revision D.01,
 M. J. Frisch, G. W. Trucks, H. B. Schlegel, G. E. Scuseria, 
 M. A. Robb, J. R. Cheeseman, G. Scalmani, V. Barone, B. Mennucci, 
 G. A. Petersson, H. Nakatsuji, M. Caricato, X. Li, H. P. Hratchian, 
 A. F. Izmaylov, J. Bloino, G. Zheng, J. L. Sonnenberg, M. Hada, 
 M. Ehara, K. Toyota, R. Fukuda, J. Hasegawa, M. Ishida, T. Nakajima, 
 Y. Honda, O. Kitao, H. Nakai, T. Vreven, J. A. Montgomery, Jr., 
 J. E. Peralta, F. Ogliaro, M. Bearpark, J. J. Heyd, E. Brothers, 
 K. N. Kudin, V. N. Staroverov, T. Keith, R. Kobayashi, J. Normand, 
 K. Raghavachari, A. Rendell, J. C. Burant, S. S. Iyengar, J. Tomasi, 
 M. Cossi, N. Rega, J. M. Millam, M. Klene, J. E. Knox, J. B. Cross, 
 V. Bakken, C. Adamo, J. Jaramillo, R. Gomperts, R. E. Stratmann, 
 O. Yazyev, A. J. Austin, R. Cammi, C. Pomelli, J. W. Ochterski, 
 R. L. Martin, K. Morokuma, V. G. Zakrzewski, G. A. Voth, 
 P. Salvador, J. J. Dannenberg, S. Dapprich, A. D. Daniels, 
 O. Farkas, J. B. Foresman, J. V. Ortiz, J. Cioslowski, 
 and D. J. Fox, Gaussian, Inc., Wallingford CT, 2013.
 
 ******************************************
 Gaussian 09:  AS64L-G09RevD.01 24-Apr-2013
                15-Mar-2019 
 ******************************************
 %chk=check.chk
 %mem=1500mb
 %nproc=8
 Will use up to    8 processors via shared memory.
 ----------------------------------------------------------------------
 #P opt=(modredundant, calcfc, noeigentest, maxStep=5) scf=(tight, dire
 ct) integral=(grid=ultrafine, Acc2E=12) b3lyp/6-311+g(d,p) scf=xqc IOp
 (2/11=1)
 ----------------------------------------------------------------------
 1/8=5,10=4,11=1,14=-1,18=120,19=15,26=4,38=1/1,3;
 2/9=110,11=1,12=2,17=6,18=5,40=1/2;
 3/5=4,6=6,7=111,11=2,16=1,25=1,30=1,71=2,74=-5,75=-5,140=1/1,2,3;
 4//1;
 5/5=2,8=3,13=1,32=2,38=5,87=12/2,8;
 8/6=4,10=90,11=11,87=12/1;
 11/6=1,8=1,9=11,15=111,16=1,87=12/1,2,10;
 10/6=1,13=1,87=12/2;
 6/7=2,8=2,9=2,10=2,28=1/1;
 7/10=1,18=20,25=1,87=12/1,2,3,16;
 1/8=5,10=4,11=1,14=-1,18=20,19=15,26=4/3(2);
 2/9=110,11=1/2;
 99//99;
 2/9=110,11=1/2;
 3/5=4,6=6,7=111,11=2,16=1,25=1,30=1,71=1,74=-5,75=-5/1,2,3;
 4/5=5,16=3,69=1/1;
 5/5=2,8=3,13=1,32=2,38=5,87=12/2,8;
 7/87=12/1,2,3,16;
 1/8=5,11=1,14=-1,18=20,19=15,26=4/3(-5);
 2/9=110,11=1/2;
 6/7=2,8=2,9=2,10=2,19=2,28=1/1;
 99/9=1/99;
 Leave Link    1 at Fri Mar 15 15:13:53 2019, MaxMem=   196608000 cpu:         1.2
 (Enter /cm/shared/c3ddb/gaussian/09.d01/g09/l101.exe)
 ----
 name
 ----
 Symbolic Z-matrix:
 Charge =  0 Multiplicity = 1
 O                     0.        0.71356  -0.0531 
 O                     0.       -0.71356  -0.0531 
 H                     0.81446   0.89969   0.42477 
 H                    -0.81446  -0.89969   0.42477 
 
 The following ModRedundant input section has been read:
 D       3       1       2       4 S  45 8.0000                                
 
 NAtoms=      4 NQM=        4 NQMF=       0 NMMI=      0 NMMIF=      0
                NMic=       0 NMicF=      0.
                    Isotopes and Nuclear Properties:
 (Nuclear quadrupole moments (NQMom) in fm**2, nuclear magnetic moments (NMagM)
  in nuclear magnetons)

  Atom         1           2           3           4
 IAtWgt=          16          16           1           1
 AtmWgt=  15.9949146  15.9949146   1.0078250   1.0078250
 NucSpn=           0           0           1           1
 AtZEff=   0.0000000   0.0000000   0.0000000   0.0000000
 NQMom=    0.0000000   0.0000000   0.0000000   0.0000000
 NMagM=    0.0000000   0.0000000   2.7928460   2.7928460
 AtZNuc=   8.0000000   8.0000000   1.0000000   1.0000000
 Leave Link  101 at Fri Mar 15 15:13:53 2019, MaxMem=   196608000 cpu:         0.8
 (Enter /cm/shared/c3ddb/gaussian/09.d01/g09/l103.exe)

 GradGradGradGradGradGradGradGradGradGradGradGradGradGradGradGradGradGrad
 Berny optimization.
 Initialization pass.
                           ----------------------------
                           !    Initial Parameters    !
                           ! (Angstroms and Degrees)  !
 --------------------------                            --------------------------
 ! Name  Definition              Value          Derivative Info.                !
 --------------------------------------------------------------------------------
 ! R1    R(1,2)                  1.4271         calculate D2E/DX2 analytically  !
 ! R2    R(1,3)                  0.9625         calculate D2E/DX2 analytically  !
 ! R3    R(2,4)                  0.9625         calculate D2E/DX2 analytically  !
 ! A1    A(2,1,3)              101.1503         calculate D2E/DX2 analytically  !
 ! A2    A(1,2,4)              101.1503         calculate D2E/DX2 analytically  !
 ! D1    D(3,1,2,4)            119.198          Scan                            !
 --------------------------------------------------------------------------------
 Trust Radius=5.00D-02 FncErr=1.00D-07 GrdErr=1.00D-06
 Number of optimizations in scan=  46
 Number of steps in this run=     20 maximum allowed number of steps=    100.
 GradGradGradGradGradGradGradGradGradGradGradGradGradGradGradGradGradGrad

 Leave Link  103 at Fri Mar 15 15:13:53 2019, MaxMem=   196608000 cpu:         0.1
 (Enter /cm/shared/c3ddb/gaussian/09.d01/g09/l202.exe)
                          Input orientation:                          
 ---------------------------------------------------------------------
 Center     Atomic      Atomic             Coordinates (Angstroms)
 Number     Number       Type             X           Y           Z
 ---------------------------------------------------------------------
      1          8           0        0.000000    0.713561   -0.053096
      2          8           0        0.000000   -0.713561   -0.053096
      3          1           0        0.814462    0.899686    0.424765
      4          1           0       -0.814462   -0.899686    0.424765
 ---------------------------------------------------------------------
                    Distance matrix (angstroms):
                    1          2          3          4
     1  O    0.000000
     2  O    1.427122   0.000000
     3  H    0.962467   1.869295   0.000000
     4  H    1.869295   0.962467   2.427166   0.000000
 Stoichiometry    H2O2
 Framework group  C2[X(H2O2)]
 Deg. of freedom     4
 Full point group                 C2      NOp   2
 Largest Abelian subgroup         C2      NOp   2
 Largest concise Abelian subgroup C2      NOp   2
                         Standard orientation:                         
 ---------------------------------------------------------------------
 Center     Atomic      Atomic             Coordinates (Angstroms)
 Number     Number       Type             X           Y           Z
 ---------------------------------------------------------------------
      1          8           0        0.000000    0.713561   -0.053096
      2          8           0        0.000000   -0.713561   -0.053096
      3          1           0        0.814462    0.899686    0.424765
      4          1           0       -0.814462   -0.899686    0.424765
 ---------------------------------------------------------------------
 Rotational constants (GHZ):    308.2431427     27.3424736     26.2441096
 Leave Link  202 at Fri Mar 15 15:13:53 2019, MaxMem=   196608000 cpu:         0.5
 (Enter /cm/shared/c3ddb/gaussian/09.d01/g09/l301.exe)
 Standard basis: 6-311+G(d,p) (5D, 7F)
 Ernie: Thresh=  0.10000D-02 Tol=  0.10000D-05 Strict=F.
 There are    29 symmetry adapted cartesian basis functions of A   symmetry.
 There are    29 symmetry adapted cartesian basis functions of B   symmetry.
 There are    28 symmetry adapted basis functions of A   symmetry.
 There are    28 symmetry adapted basis functions of B   symmetry.
    56 basis functions,    88 primitive gaussians,    58 cartesian basis functions
     9 alpha electrons        9 beta electrons
       nuclear repulsion energy        37.2756824677 Hartrees.
 IExCor=  402 DFT=T Ex+Corr=B3LYP ExCW=0 ScaHFX=  0.200000
 ScaDFX=  0.800000  0.720000  1.000000  0.810000 ScalE2=  1.000000  1.000000
 IRadAn=      5 IRanWt=     -1 IRanGd=            0 ICorTp=0 IEmpDi=  4
 NAtoms=    4 NActive=    4 NUniq=    2 SFac= 4.00D+00 NAtFMM=   60 NAOKFM=F Big=F
 Integral buffers will be    131072 words long.
 Raffenetti 2 integral format.
 Two-electron integral symmetry is turned on.
 Leave Link  301 at Fri Mar 15 15:13:53 2019, MaxMem=   196608000 cpu:         1.0
 (Enter /cm/shared/c3ddb/gaussian/09.d01/g09/l302.exe)
 NPDir=0 NMtPBC=     1 NCelOv=     1 NCel=       1 NClECP=     1 NCelD=      1
         NCelK=      1 NCelE2=     1 NClLst=     1 CellRange=     0.0.
 One-electron integrals computed using PRISM.
 One-electron integral symmetry used in STVInt
 NBasis=    56 RedAO= T EigKep=  9.81D-04  NBF=    28    28
 NBsUse=    56 1.00D-06 EigRej= -1.00D+00 NBFU=    28    28
 Precomputing XC quadrature grid using
 IXCGrd= 4 IRadAn=           5 IRanWt=          -1 IRanGd=           0 AccXCQ= 0.00D+00.
 Generated NRdTot=       0 NPtTot=           0 NUsed=           0 NTot=          32
 NSgBfM=    58    58    58    58    58 MxSgAt=     4 MxSgA2=     4.
 Leave Link  302 at Fri Mar 15 15:13:54 2019, MaxMem=   196608000 cpu:         4.5
 (Enter /cm/shared/c3ddb/gaussian/09.d01/g09/l303.exe)
 DipDrv:  MaxL=1.
 Leave Link  303 at Fri Mar 15 15:13:54 2019, MaxMem=   196608000 cpu:         1.5
 (Enter /cm/shared/c3ddb/gaussian/09.d01/g09/l401.exe)
 ExpMin= 8.45D-02 ExpMax= 8.59D+03 ExpMxC= 1.30D+03 IAcc=3 IRadAn=         5 AccDes= 0.00D+00
 Harris functional with IExCor=  402 and IRadAn=       5 diagonalized for initial guess.
 HarFok:  IExCor=  402 AccDes= 0.00D+00 IRadAn=         5 IDoV= 1 UseB2=F ITyADJ=14
 ICtDFT=  3500011 ScaDFX=  1.000000  1.000000  1.000000  1.000000
 FoFCou: FMM=F IPFlag=           0 FMFlag=      100000 FMFlg1=           0
         NFxFlg=           0 DoJE=T BraDBF=F KetDBF=T FulRan=T
         wScrn=  0.000000 ICntrl=     500 IOpCl=  0 I1Cent=   200000004 NGrid=           0
         NMat0=    1 NMatS0=      1 NMatT0=    0 NMatD0=    1 NMtDS0=    0 NMtDT0=    0
 Petite list used in FoFCou.
 Harris En= -151.622719211832    
 JPrj=0 DoOrth=F DoCkMO=F.
 Initial guess orbital symmetries:
       Occupied  (B) (A) (A) (B) (A) (B) (A) (A) (B)
       Virtual   (B) (A) (B) (A) (B) (A) (B) (A) (B) (A) (B) (A)
                 (B) (B) (A) (B) (A) (B) (A) (A) (B) (A) (B) (B)
                 (A) (A) (B) (B) (A) (A) (A) (B) (A) (B) (B) (A)
                 (B) (A) (B) (A) (A) (B) (B) (A) (B) (A) (B)
 The electronic state of the initial guess is 1-A.
 Leave Link  401 at Fri Mar 15 15:13:56 2019, MaxMem=   196608000 cpu:         8.5
 (Enter /cm/shared/c3ddb/gaussian/09.d01/g09/l502.exe)
 Closed shell SCF:
 Using DIIS extrapolation, IDIIS=  1040.
 Integral symmetry usage will be decided dynamically.
 Keep R1 ints in memory in symmetry-blocked form, NReq=2174742.
 IVT=       17010 IEndB=       17010 NGot=   196608000 MDV=   195949609
 LenX=   195949609 LenY=   195945804
 Requested convergence on RMS density matrix=1.00D-08 within  64 cycles.
 Requested convergence on MAX density matrix=1.00D-06.
 Requested convergence on             energy=1.00D-06.
 No special actions if energy rises.
 FoFCou: FMM=F IPFlag=           0 FMFlag=           0 FMFlg1=           0
         NFxFlg=           0 DoJE=F BraDBF=F KetDBF=F FulRan=T
         wScrn=  0.000000 ICntrl=     600 IOpCl=  0 I1Cent=           0 NGrid=           0
         NMat0=    1 NMatS0=   1596 NMatT0=    0 NMatD0=    1 NMtDS0=    0 NMtDT0=    0
 Petite list used in FoFCou.
 Integral accuracy reduced to 1.0D-05 until final iterations.

 Cycle   1  Pass 0  IDiag  1:
 E= -151.561909977652    
 DIIS: error= 2.82D-02 at cycle   1 NSaved=   1.
 NSaved= 1 IEnMin= 1 EnMin= -151.561909977652     IErMin= 1 ErrMin= 2.82D-02
 ErrMax= 2.82D-02  0.00D+00 EMaxC= 1.00D-01 BMatC= 6.48D-02 BMatP= 6.48D-02
 IDIUse=3 WtCom= 7.18D-01 WtEn= 2.82D-01
 Coeff-Com:  0.100D+01
 Coeff-En:   0.100D+01
 Coeff:      0.100D+01
 Gap=     0.242 Goal=   None    Shift=    0.000
 GapD=    0.242 DampG=1.000 DampE=0.500 DampFc=0.5000 IDamp=-1.
 Damping current iteration by 5.00D-01
 RMSDP=6.71D-03 MaxDP=5.20D-02              OVMax= 9.98D-02

 Cycle   2  Pass 0  IDiag  1:
 E= -151.578147640026     Delta-E=       -0.016237662374 Rises=F Damp=T
 DIIS: error= 8.20D-03 at cycle   2 NSaved=   2.
 NSaved= 2 IEnMin= 2 EnMin= -151.578147640026     IErMin= 2 ErrMin= 8.20D-03
 ErrMax= 8.20D-03  0.00D+00 EMaxC= 1.00D-01 BMatC= 4.05D-03 BMatP= 6.48D-02
 IDIUse=3 WtCom= 9.18D-01 WtEn= 8.20D-02
 Coeff-Com:  0.622D-01 0.938D+00
 Coeff-En:   0.176D+00 0.824D+00
 Coeff:      0.716D-01 0.928D+00
 Gap=     0.303 Goal=   None    Shift=    0.000
 RMSDP=1.13D-03 MaxDP=1.32D-02 DE=-1.62D-02 OVMax= 6.40D-02

 Cycle   3  Pass 0  IDiag  1:
 E= -151.600662680414     Delta-E=       -0.022515040388 Rises=F Damp=F
 DIIS: error= 5.37D-03 at cycle   3 NSaved=   3.
 NSaved= 3 IEnMin= 3 EnMin= -151.600662680414     IErMin= 3 ErrMin= 5.37D-03
 ErrMax= 5.37D-03  0.00D+00 EMaxC= 1.00D-01 BMatC= 1.49D-03 BMatP= 4.05D-03
 IDIUse=3 WtCom= 9.46D-01 WtEn= 5.37D-02
 Coeff-Com: -0.371D-01 0.363D+00 0.674D+00
 Coeff-En:   0.000D+00 0.000D+00 0.100D+01
 Coeff:     -0.351D-01 0.344D+00 0.692D+00
 Gap=     0.288 Goal=   None    Shift=    0.000
 RMSDP=4.27D-04 MaxDP=3.86D-03 DE=-2.25D-02 OVMax= 7.74D-03

 Cycle   4  Pass 0  IDiag  1:
 E= -151.601660378302     Delta-E=       -0.000997697887 Rises=F Damp=F
 DIIS: error= 5.93D-04 at cycle   4 NSaved=   4.
 NSaved= 4 IEnMin= 4 EnMin= -151.601660378302     IErMin= 4 ErrMin= 5.93D-04
 ErrMax= 5.93D-04  0.00D+00 EMaxC= 1.00D-01 BMatC= 1.54D-05 BMatP= 1.49D-03
 IDIUse=3 WtCom= 9.94D-01 WtEn= 5.93D-03
 Coeff-Com: -0.626D-02 0.137D-01 0.116D+00 0.877D+00
 Coeff-En:   0.000D+00 0.000D+00 0.000D+00 0.100D+01
 Coeff:     -0.622D-02 0.136D-01 0.115D+00 0.878D+00
 Gap=     0.288 Goal=   None    Shift=    0.000
 RMSDP=3.93D-05 MaxDP=3.04D-04 DE=-9.98D-04 OVMax= 8.61D-04

 Cycle   5  Pass 0  IDiag  1:
 E= -151.601669472582     Delta-E=       -0.000009094281 Rises=F Damp=F
 DIIS: error= 3.86D-05 at cycle   5 NSaved=   5.
 NSaved= 5 IEnMin= 5 EnMin= -151.601669472582     IErMin= 5 ErrMin= 3.86D-05
 ErrMax= 3.86D-05  0.00D+00 EMaxC= 1.00D-01 BMatC= 9.83D-08 BMatP= 1.54D-05
 IDIUse=1 WtCom= 1.00D+00 WtEn= 0.00D+00
 Coeff-Com: -0.743D-03 0.238D-03 0.214D-01 0.184D+00 0.795D+00
 Coeff:     -0.743D-03 0.238D-03 0.214D-01 0.184D+00 0.795D+00
 Gap=     0.288 Goal=   None    Shift=    0.000
 RMSDP=3.96D-06 MaxDP=3.27D-05 DE=-9.09D-06 OVMax= 6.01D-05

 Initial convergence to 1.0D-05 achieved.  Increase integral accuracy.
 Cycle   6  Pass 1  IDiag  1:
 E= -151.601671477535     Delta-E=       -0.000002004953 Rises=F Damp=F
 DIIS: error= 8.31D-06 at cycle   1 NSaved=   1.
 NSaved= 1 IEnMin= 1 EnMin= -151.601671477535     IErMin= 1 ErrMin= 8.31D-06
 ErrMax= 8.31D-06  0.00D+00 EMaxC= 1.00D-01 BMatC= 2.93D-09 BMatP= 2.93D-09
 IDIUse=1 WtCom= 1.00D+00 WtEn= 0.00D+00
 Coeff-Com:  0.100D+01
 Coeff:      0.100D+01
 Gap=     0.288 Goal=   None    Shift=    0.000
 RMSDP=3.96D-06 MaxDP=3.27D-05 DE=-2.00D-06 OVMax= 2.50D-05

 Cycle   7  Pass 1  IDiag  1:
 E= -151.601671476871     Delta-E=        0.000000000664 Rises=F Damp=F
 DIIS: error= 8.01D-06 at cycle   2 NSaved=   2.
 NSaved= 2 IEnMin= 1 EnMin= -151.601671477535     IErMin= 2 ErrMin= 8.01D-06
 ErrMax= 8.01D-06  0.00D+00 EMaxC= 1.00D-01 BMatC= 4.17D-09 BMatP= 2.93D-09
 IDIUse=1 WtCom= 1.00D+00 WtEn= 0.00D+00
 Coeff-Com:  0.547D+00 0.453D+00
 Coeff:      0.547D+00 0.453D+00
 Gap=     0.288 Goal=   None    Shift=    0.000
 RMSDP=8.02D-07 MaxDP=8.28D-06 DE= 6.64D-10 OVMax= 1.33D-05

 Cycle   8  Pass 1  IDiag  1:
 E= -151.601671479765     Delta-E=       -0.000000002894 Rises=F Damp=F
 DIIS: error= 7.09D-07 at cycle   3 NSaved=   3.
 NSaved= 3 IEnMin= 3 EnMin= -151.601671479765     IErMin= 3 ErrMin= 7.09D-07
 ErrMax= 7.09D-07  0.00D+00 EMaxC= 1.00D-01 BMatC= 3.62D-11 BMatP= 2.93D-09
 IDIUse=1 WtCom= 1.00D+00 WtEn= 0.00D+00
 Coeff-Com:  0.122D+00 0.134D+00 0.744D+00
 Coeff:      0.122D+00 0.134D+00 0.744D+00
 Gap=     0.288 Goal=   None    Shift=    0.000
 RMSDP=8.23D-08 MaxDP=8.52D-07 DE=-2.89D-09 OVMax= 1.58D-06

 Cycle   9  Pass 1  IDiag  1:
 E= -151.601671479788     Delta-E=       -0.000000000022 Rises=F Damp=F
 DIIS: error= 8.13D-08 at cycle   4 NSaved=   4.
 NSaved= 4 IEnMin= 4 EnMin= -151.601671479788     IErMin= 4 ErrMin= 8.13D-08
 ErrMax= 8.13D-08  0.00D+00 EMaxC= 1.00D-01 BMatC= 5.31D-13 BMatP= 3.62D-11
 IDIUse=1 WtCom= 1.00D+00 WtEn= 0.00D+00
 Coeff-Com: -0.888D-02-0.655D-02 0.794D-01 0.936D+00
 Coeff:     -0.888D-02-0.655D-02 0.794D-01 0.936D+00
 Gap=     0.288 Goal=   None    Shift=    0.000
 RMSDP=2.70D-08 MaxDP=3.24D-07 DE=-2.24D-11 OVMax= 3.05D-07

 Cycle  10  Pass 1  IDiag  1:
 E= -151.601671479788     Delta-E=        0.000000000000 Rises=F Damp=F
 DIIS: error= 1.24D-08 at cycle   5 NSaved=   5.
 NSaved= 5 IEnMin= 5 EnMin= -151.601671479788     IErMin= 5 ErrMin= 1.24D-08
 ErrMax= 1.24D-08  0.00D+00 EMaxC= 1.00D-01 BMatC= 1.13D-14 BMatP= 5.31D-13
 IDIUse=1 WtCom= 1.00D+00 WtEn= 0.00D+00
 Coeff-Com: -0.241D-02-0.115D-02 0.247D-02 0.130D+00 0.872D+00
 Coeff:     -0.241D-02-0.115D-02 0.247D-02 0.130D+00 0.872D+00
 Gap=     0.288 Goal=   None    Shift=    0.000
 RMSDP=1.81D-09 MaxDP=1.28D-08 DE=-2.84D-14 OVMax= 3.95D-08

 SCF Done:  E(RB3LYP) =  -151.601671480     A.U. after   10 cycles
            NFock= 10  Conv=0.18D-08     -V/T= 2.0023
 KE= 1.512563975918D+02 PE=-4.334610451289D+02 EE= 9.332729358965D+01
 Leave Link  502 at Fri Mar 15 15:14:02 2019, MaxMem=   196608000 cpu:        40.4
 (Enter /cm/shared/c3ddb/gaussian/09.d01/g09/l508.exe)
 QCSCF skips out because SCF is already converged.
 Leave Link  508 at Fri Mar 15 15:14:02 2019, MaxMem=   196608000 cpu:         0.0
 (Enter /cm/shared/c3ddb/gaussian/09.d01/g09/l801.exe)
 DoSCS=F DFT=T ScalE2(SS,OS)=  1.000000  1.000000
 Range of M.O.s used for correlation:     1    56
 NBasis=    56 NAE=     9 NBE=     9 NFC=     0 NFV=     0
 NROrb=     56 NOA=     9 NOB=     9 NVA=    47 NVB=    47

 **** Warning!!: The largest alpha MO coefficient is  0.14029550D+02

 Leave Link  801 at Fri Mar 15 15:14:02 2019, MaxMem=   196608000 cpu:         0.9
 (Enter /cm/shared/c3ddb/gaussian/09.d01/g09/l1101.exe)
 Using compressed storage, NAtomX=     4.
 Will process      5 centers per pass.
 Leave Link 1101 at Fri Mar 15 15:14:03 2019, MaxMem=   196608000 cpu:         8.4
 (Enter /cm/shared/c3ddb/gaussian/09.d01/g09/l1102.exe)
 Symmetrizing basis deriv contribution to polar:
 IMax=3 JMax=2 DiffMx= 0.00D+00
 Leave Link 1102 at Fri Mar 15 15:14:04 2019, MaxMem=   196608000 cpu:         1.0
 (Enter /cm/shared/c3ddb/gaussian/09.d01/g09/l1110.exe)
 Forming Gx(P) for the SCF density, NAtomX=     4.
 Integral derivatives from FoFJK, PRISM(SPDF).
 Do as many integral derivatives as possible in FoFJK.
 G2DrvN: MDV=     196607864.
 G2DrvN: will do     5 centers at a time, making    1 passes.
 Calling FoFCou, ICntrl=  3107 FMM=F I1Cent=   0 AccDes= 1.00D-12.
 FoFJK:  IHMeth= 1 ICntrl=    3107 DoSepK=F KAlg= 0 I1Cent=   0 FoldK=F
 IRaf=         0 NMat=   1 IRICut=       1 DoRegI=T DoRafI=F ISym2E= 1.
 FoFCou: FMM=F IPFlag=           0 FMFlag=      100000 FMFlg1=           0
         NFxFlg=           0 DoJE=F BraDBF=F KetDBF=F FulRan=T
         wScrn=  0.000000 ICntrl=    3107 IOpCl=  0 I1Cent=           0 NGrid=           0
         NMat0=    1 NMatS0=      1 NMatT0=    0 NMatD0=    1 NMtDS0=    0 NMtDT0=    0
 Petite list used in FoFCou.
 End of G2Drv F.D. properties file   721 does not exist.
 End of G2Drv F.D. properties file   722 does not exist.
 End of G2Drv F.D. properties file   788 does not exist.
 Leave Link 1110 at Fri Mar 15 15:14:06 2019, MaxMem=   196608000 cpu:        15.9
 (Enter /cm/shared/c3ddb/gaussian/09.d01/g09/l1002.exe)
 Minotr:  Closed shell wavefunction.
          IDoAtm=1111
          Direct CPHF calculation.
          Differentiating once with respect to nuclear coordinates.
          Using symmetry in CPHF.
          Requested convergence is 1.0D-08 RMS, and 1.0D-07 maximum.
          Secondary convergence is 1.0D-12 RMS, and 1.0D-12 maximum.
          NewPWx=T KeepS1=F KeepF1=F KeepIn=T MapXYZ=F SortEE=F KeepMc=T.
          MDV=     196607900 using IRadAn=       1.
 Generate precomputed XC quadrature information.
 Keep R1 ints in memory in symmetry-blocked form, NReq=2156341.
 FoFCou: FMM=F IPFlag=           0 FMFlag=           0 FMFlg1=           0
         NFxFlg=           0 DoJE=F BraDBF=F KetDBF=F FulRan=T
         wScrn=  0.000000 ICntrl=     600 IOpCl=  0 I1Cent=           0 NGrid=           0
         NMat0=    1 NMatS0=   1596 NMatT0=    0 NMatD0=    1 NMtDS0=    0 NMtDT0=    0
 Petite list used in FoFCou.
          Solving linear equations simultaneously, MaxMat=       0.
          There are     9 degrees of freedom in the 1st order CPHF.  IDoFFX=4 NUNeed=     9.
      6 vectors produced by pass  0 Test12= 4.70D-15 1.11D-08 XBig12= 7.33D-02 1.57D-01.
 AX will form     6 AO Fock derivatives at one time.
      6 vectors produced by pass  1 Test12= 4.70D-15 1.11D-08 XBig12= 1.39D-02 5.48D-02.
      6 vectors produced by pass  2 Test12= 4.70D-15 1.11D-08 XBig12= 1.13D-03 7.95D-03.
      6 vectors produced by pass  3 Test12= 4.70D-15 1.11D-08 XBig12= 3.05D-05 1.56D-03.
      6 vectors produced by pass  4 Test12= 4.70D-15 1.11D-08 XBig12= 3.14D-07 1.43D-04.
      6 vectors produced by pass  5 Test12= 4.70D-15 1.11D-08 XBig12= 2.01D-09 1.04D-05.
      4 vectors produced by pass  6 Test12= 4.70D-15 1.11D-08 XBig12= 1.22D-11 7.68D-07.
      1 vectors produced by pass  7 Test12= 4.70D-15 1.11D-08 XBig12= 2.39D-14 4.88D-08.
 InvSVY:  IOpt=1 It=  1 EMax= 3.33D-16
 Solved reduced A of dimension    41 with     6 vectors.
 FullF1:  Do perturbations    4 to     9.
 End of Minotr F.D. properties file   721 does not exist.
 End of Minotr F.D. properties file   722 does not exist.
 End of Minotr F.D. properties file   788 does not exist.
 Leave Link 1002 at Fri Mar 15 15:14:12 2019, MaxMem=   196608000 cpu:        43.8
 (Enter /cm/shared/c3ddb/gaussian/09.d01/g09/l601.exe)
 Copying SCF densities to generalized density rwf, IOpCl= 0 IROHF=0.

 **********************************************************************

            Population analysis using the SCF density.

 **********************************************************************

 Orbital symmetries:
       Occupied  (A) (B) (A) (B) (A) (B) (A) (A) (B)
       Virtual   (B) (A) (B) (A) (B) (A) (A) (B) (B) (A) (B) (A)
                 (B) (B) (A) (B) (A) (B) (A) (B) (A) (A) (B) (B)
                 (A) (A) (B) (B) (A) (A) (A) (B) (A) (B) (B) (A)
                 (B) (A) (B) (A) (A) (B) (B) (A) (B) (A) (B)
 The electronic state is 1-A.
 Alpha  occ. eigenvalues --  -19.19227 -19.19221  -1.14712  -0.91394  -0.55527
 Alpha  occ. eigenvalues --   -0.51257  -0.43824  -0.34079  -0.29174
 Alpha virt. eigenvalues --   -0.00361   0.02281   0.07627   0.14027   0.14719
 Alpha virt. eigenvalues --    0.17167   0.18701   0.18837   0.20280   0.25706
 Alpha virt. eigenvalues --    0.31396   0.46589   0.47909   0.92734   0.95108
 Alpha virt. eigenvalues --    0.95138   0.95664   1.02311   1.05479   1.26617
 Alpha virt. eigenvalues --    1.26985   1.38317   1.41762   1.49929   1.60026
 Alpha virt. eigenvalues --    1.96602   2.00211   2.40213   2.49053   2.55936
 Alpha virt. eigenvalues --    2.60521   2.73409   3.07355   3.10335   3.22425
 Alpha virt. eigenvalues --    3.33425   3.62586   3.72517   3.86392   4.73075
 Alpha virt. eigenvalues --    4.87261   4.92484   5.30924   5.45996   5.67854
 Alpha virt. eigenvalues --   49.77172  49.80419
          Condensed to atoms (all electrons):
               1          2          3          4
     1  O    7.987294   0.069761   0.240581  -0.037346
     2  O    0.069761   7.987294  -0.037346   0.240581
     3  H    0.240581  -0.037346   0.531930   0.004546
     4  H   -0.037346   0.240581   0.004546   0.531930
 Mulliken charges:
               1
     1  O   -0.260289
     2  O   -0.260289
     3  H    0.260289
     4  H    0.260289
 Sum of Mulliken charges =   0.00000
 Mulliken charges with hydrogens summed into heavy atoms:
               1
     1  O    0.000000
     2  O    0.000000
 APT charges:
               1
     1  O   -0.487218
     2  O   -0.487218
     3  H    0.487218
     4  H    0.487218
 Sum of APT charges =   0.00000
 APT charges with hydrogens summed into heavy atoms:
               1
     1  O    0.000000
     2  O    0.000000
 Electronic spatial extent (au):  <R**2>=             66.0791
 Charge=              0.0000 electrons
 Dipole moment (field-independent basis, Debye):
    X=              0.0000    Y=              0.0000    Z=              1.7834  Tot=              1.7834
 Quadrupole moment (field-independent basis, Debye-Ang):
   XX=             -9.6462   YY=            -11.7909   ZZ=            -12.2131
   XY=              3.2310   XZ=              0.0000   YZ=              0.0000
 Traceless Quadrupole moment (field-independent basis, Debye-Ang):
   XX=              1.5705   YY=             -0.5742   ZZ=             -0.9964
   XY=              3.2310   XZ=              0.0000   YZ=              0.0000
 Octapole moment (field-independent basis, Debye-Ang**2):
  XXX=              0.0000  YYY=              0.0000  ZZZ=              1.1209  XYY=              0.0000
  XXY=              0.0000  XXZ=              1.3582  XZZ=              0.0000  YZZ=              0.0000
  YYZ=              1.9519  XYZ=              1.6452
 Hexadecapole moment (field-independent basis, Debye-Ang**3):
 XXXX=            -10.9379 YYYY=            -45.7966 ZZZZ=            -11.9366 XXXY=              0.5903
 XXXZ=              0.0000 YYYX=              1.6118 YYYZ=              0.0000 ZZZX=              0.0000
 ZZZY=              0.0000 XXYY=             -8.6300 XXZZ=             -3.5840 YYZZ=            -10.5351
 XXYZ=              0.0000 YYXZ=              0.0000 ZZXY=              0.0347
 N-N= 3.727568246775D+01 E-N=-4.334610458339D+02  KE= 1.512563975918D+02
 Symmetry A    KE= 7.747120560435D+01
 Symmetry B    KE= 7.378519198740D+01
  Exact polarizability:   0.000   0.000   0.000   0.000   0.000   0.000
 Approx polarizability:  13.957   1.936  20.773   0.000   0.000  11.749
 No NMR shielding tensors so no spin-rotation constants.
 Leave Link  601 at Fri Mar 15 15:14:14 2019, MaxMem=   196608000 cpu:         8.2
 (Enter /cm/shared/c3ddb/gaussian/09.d01/g09/l701.exe)
 Compute integral second derivatives.
 ... and contract with generalized density number  0.
 Leave Link  701 at Fri Mar 15 15:14:15 2019, MaxMem=   196608000 cpu:         7.8
 (Enter /cm/shared/c3ddb/gaussian/09.d01/g09/l702.exe)
 L702 exits ... SP integral derivatives will be done elsewhere.
 Leave Link  702 at Fri Mar 15 15:14:15 2019, MaxMem=   196608000 cpu:         0.2
 (Enter /cm/shared/c3ddb/gaussian/09.d01/g09/l703.exe)
 Compute integral second derivatives, UseDBF=F ICtDFT=           0.
 Integral derivatives from FoFJK, PRISM(SPDF).
 Calling FoFJK, ICntrl=    100147 FMM=F ISym2X=1 I1Cent= 0 IOpClX= 0 NMat=1 NMatS=1 NMatT=0.
 FoFJK:  IHMeth= 1 ICntrl=  100147 DoSepK=F KAlg= 0 I1Cent=   0 FoldK=F
 IRaf=         0 NMat=   1 IRICut=       1 DoRegI=T DoRafI=F ISym2E= 1.
 FoFCou: FMM=F IPFlag=           0 FMFlag=      100000 FMFlg1=         800
         NFxFlg=           0 DoJE=F BraDBF=F KetDBF=F FulRan=T
         wScrn=  0.000000 ICntrl=  100147 IOpCl=  0 I1Cent=           0 NGrid=           0
         NMat0=    1 NMatS0=      1 NMatT0=    0 NMatD0=    1 NMtDS0=    0 NMtDT0=    0
 Petite list used in FoFCou.
 Leave Link  703 at Fri Mar 15 15:14:18 2019, MaxMem=   196608000 cpu:        23.0
 (Enter /cm/shared/c3ddb/gaussian/09.d01/g09/l716.exe)
 Dipole        = 7.43608300D-16 5.55111512D-16 7.01649607D-01
 Polarizability= 0.00000000D+00 0.00000000D+00 0.00000000D+00
                 0.00000000D+00 0.00000000D+00 0.00000000D+00
 ***** Axes restored to original set *****
 -------------------------------------------------------------------
 Center     Atomic                   Forces (Hartrees/Bohr)
 Number     Number              X              Y              Z
 -------------------------------------------------------------------
      1        8          -0.003229744    0.013333989   -0.002224873
      2        8           0.003229744   -0.013333989   -0.002224873
      3        1           0.003805002    0.001374252    0.002224873
      4        1          -0.003805002   -0.001374252    0.002224873
 -------------------------------------------------------------------
 Cartesian Forces:  Max     0.013333989 RMS     0.005979036
 Force constants in Cartesian coordinates: 
                1             2             3             4             5 
      1  0.440661D+00
      2  0.895214D-01  0.354184D+00
      3  0.234086D+00  0.248172D-01  0.144874D+00
      4 -0.613373D-01 -0.154422D-01 -0.126227D-02  0.440661D+00
      5 -0.154422D-01 -0.278660D+00 -0.222466D-01  0.895214D-01  0.354184D+00
      6  0.126227D-02  0.222466D-01 -0.131096D-01 -0.234086D+00 -0.248172D-01
      7 -0.387939D+00 -0.853461D-01 -0.226608D+00  0.861513D-02  0.112669D-01
      8 -0.318288D-01 -0.440896D-01 -0.199176D-01 -0.422504D-01 -0.314345D-01
      9 -0.229678D+00 -0.452673D-01 -0.133133D+00  0.567062D-02  0.179659D-02
     10  0.861513D-02  0.112669D-01 -0.621599D-02 -0.387939D+00 -0.853461D-01
     11 -0.422504D-01 -0.314345D-01  0.173469D-01 -0.318288D-01 -0.440896D-01
     12 -0.567062D-02 -0.179659D-02  0.136834D-02  0.229678D+00  0.452673D-01
                6             7             8             9            10 
      6  0.144874D+00
      7  0.621599D-02  0.380508D+00
      8 -0.173469D-01  0.745888D-01  0.825642D-01
      9  0.136834D-02  0.222199D+00  0.403676D-01  0.130359D+00
     10  0.226608D+00 -0.118466D-02 -0.509639D-03  0.180764D-02  0.380508D+00
     11  0.199176D-01 -0.509639D-03 -0.704019D-02  0.310310D-02  0.745888D-01
     12 -0.133133D+00 -0.180764D-02 -0.310310D-02  0.140591D-02 -0.222199D+00
               11            12 
     11  0.825642D-01
     12 -0.403676D-01  0.130359D+00
 FormGI is forming the generalized inverse of G from B-inverse, IUseBI=4.
 Force constants in internal coordinates: 
                1             2             3             4             5 
      1  0.348569D+00
      2 -0.409495D-02  0.526578D+00
      3 -0.409495D-02 -0.489810D-03  0.526578D+00
      4  0.727947D-01 -0.551136D-02  0.643972D-03  0.228021D+00
      5  0.727947D-01  0.643972D-03 -0.551136D-02  0.238019D-01  0.228021D+00
      6 -0.217173D-02  0.238354D-02  0.238354D-02  0.884189D-02  0.884189D-02
                6 
      6  0.931093D-02
 Leave Link  716 at Fri Mar 15 15:14:19 2019, MaxMem=   196608000 cpu:         0.8
 (Enter /cm/shared/c3ddb/gaussian/09.d01/g09/l103.exe)

 GradGradGradGradGradGradGradGradGradGradGradGradGradGradGradGradGradGrad
 Berny optimization.
 Red2BG is reusing G-inverse.
 Internal  Forces:  Max     0.014707999 RMS     0.006584013
 Search for a local minimum.
 Step number   1 out of a maximum of   20 on scan point     1 out of    46
 All quantities printed in internal units (Hartrees-Bohrs-Radians)
 RMS Force = .72124D-02 SwitMx=.10000D-02 MixMth= 1
 Mixed Optimization -- RFO/linear search
 Second derivative matrix not updated -- analytic derivatives used.
 The second derivative matrix:
                          R1        R2        R3        A1        A2
           R1           0.34857
           R2          -0.00409   0.52658
           R3          -0.00409  -0.00049   0.52658
           A1           0.07279  -0.00551   0.00064   0.22802
           A2           0.07279   0.00064  -0.00551   0.02380   0.22802
           D1          -0.00217   0.00238   0.00238   0.00884   0.00884
                          D1
           D1           0.00931
 ITU=  0
     Eigenvalues ---    0.18645   0.20410   0.41344   0.52659   0.52718
     Eigenvalues --- 1000.00000
 RFO step:  Lambda=-7.46438747D-04 EMin= 1.86446772D-01
 Linear search not attempted -- first point.
 Iteration  1 RMS(Cart)=  0.01550273 RMS(Int)=  0.00005255
 Iteration  2 RMS(Cart)=  0.00006654 RMS(Int)=  0.00000000
 Iteration  3 RMS(Cart)=  0.00000000 RMS(Int)=  0.00000000
 Iteration  1 RMS(Cart)=  0.00000000 RMS(Int)=  0.00000000
 ITry= 1 IFail=0 DXMaxC= 2.32D-02 DCOld= 1.00D+10 DXMaxT= 5.00D-02 DXLimC= 3.00D+00 Rises=F
 ClnCor:  largest displacement from symmetrization is 1.07D-12 for atom     2.
 Variable       Old X    -DE/DX   Delta X   Delta X   Delta X     New X
                                 (Linear)    (Quad)   (Total)
    R1        2.69687   0.01471   0.00000   0.04632   0.04632   2.74319
    R2        1.81880   0.00459   0.00000   0.00898   0.00898   1.82778
    R3        1.81880   0.00459   0.00000   0.00898   0.00898   1.82778
    A1        1.76541   0.00090   0.00000  -0.00961  -0.00961   1.75580
    A2        1.76541   0.00090   0.00000  -0.00961  -0.00961   1.75580
    D1        2.08040   0.00001   0.00000   0.00000   0.00000   2.08040
         Item               Value     Threshold  Converged?
 Maximum Force            0.014708     0.000450     NO 
 RMS     Force            0.007212     0.000300     NO 
 Maximum Displacement     0.023160     0.001800     NO 
 RMS     Displacement     0.015472     0.001200     NO 
 Predicted change in Energy=-3.741516D-04
 Lowest energy point so far.  Saving SCF results.
 GradGradGradGradGradGradGradGradGradGradGradGradGradGradGradGradGradGrad

 Leave Link  103 at Fri Mar 15 15:14:21 2019, MaxMem=   196608000 cpu:        12.6
 (Enter /cm/shared/c3ddb/gaussian/09.d01/g09/l202.exe)
                          Input orientation:                          
 ---------------------------------------------------------------------
 Center     Atomic      Atomic             Coordinates (Angstroms)
 Number     Number       Type             X           Y           Z
 ---------------------------------------------------------------------
      1          8           0       -0.000611    0.725817   -0.054720
      2          8           0        0.000611   -0.725817   -0.054720
      3          1           0        0.819237    0.904425    0.426389
      4          1           0       -0.819237   -0.904425    0.426389
 ---------------------------------------------------------------------
                    Distance matrix (angstroms):
                    1          2          3          4
     1  O    0.000000
     2  O    1.451634   0.000000
     3  H    0.967221   1.886611   0.000000
     4  H    1.886611   0.967221   2.440601   0.000000
 Stoichiometry    H2O2
 Framework group  C2[X(H2O2)]
 Deg. of freedom     4
 Full point group                 C2      NOp   2
 RotChk:  IX=0 Diff= 1.19D-03
 Largest Abelian subgroup         C2      NOp   2
 Largest concise Abelian subgroup C2      NOp   2
                         Standard orientation:                         
 ---------------------------------------------------------------------
 Center     Atomic      Atomic             Coordinates (Angstroms)
 Number     Number       Type             X           Y           Z
 ---------------------------------------------------------------------
      1          8           0        0.000000    0.725817   -0.053457
      2          8           0        0.000000   -0.725817   -0.053457
      3          1           0        0.819998    0.903735    0.427652
      4          1           0       -0.819998   -0.903735    0.427652
 ---------------------------------------------------------------------
 Rotational constants (GHZ):    303.5237841     26.5055742     25.4545956
 Leave Link  202 at Fri Mar 15 15:14:21 2019, MaxMem=   196608000 cpu:         0.6
 (Enter /cm/shared/c3ddb/gaussian/09.d01/g09/l301.exe)
 Standard basis: 6-311+G(d,p) (5D, 7F)
 Ernie: Thresh=  0.10000D-02 Tol=  0.10000D-05 Strict=F.
 There are    29 symmetry adapted cartesian basis functions of A   symmetry.
 There are    29 symmetry adapted cartesian basis functions of B   symmetry.
 There are    28 symmetry adapted basis functions of A   symmetry.
 There are    28 symmetry adapted basis functions of B   symmetry.
    56 basis functions,    88 primitive gaussians,    58 cartesian basis functions
     9 alpha electrons        9 beta electrons
       nuclear repulsion energy        36.7889528234 Hartrees.
 IExCor=  402 DFT=T Ex+Corr=B3LYP ExCW=0 ScaHFX=  0.200000
 ScaDFX=  0.800000  0.720000  1.000000  0.810000 ScalE2=  1.000000  1.000000
 IRadAn=      5 IRanWt=     -1 IRanGd=            0 ICorTp=0 IEmpDi=  4
 NAtoms=    4 NActive=    4 NUniq=    2 SFac= 4.00D+00 NAtFMM=   60 NAOKFM=F Big=F
 Integral buffers will be    131072 words long.
 Raffenetti 2 integral format.
 Two-electron integral symmetry is turned on.
 Leave Link  301 at Fri Mar 15 15:14:21 2019, MaxMem=   196608000 cpu:         0.3
 (Enter /cm/shared/c3ddb/gaussian/09.d01/g09/l302.exe)
 NPDir=0 NMtPBC=     1 NCelOv=     1 NCel=       1 NClECP=     1 NCelD=      1
         NCelK=      1 NCelE2=     1 NClLst=     1 CellRange=     0.0.
 One-electron integrals computed using PRISM.
 One-electron integral symmetry used in STVInt
 NBasis=    56 RedAO= T EigKep=  1.06D-03  NBF=    28    28
 NBsUse=    56 1.00D-06 EigRej= -1.00D+00 NBFU=    28    28
 Precomputing XC quadrature grid using
 IXCGrd= 4 IRadAn=           5 IRanWt=          -1 IRanGd=           0 AccXCQ= 0.00D+00.
 Generated NRdTot=       0 NPtTot=           0 NUsed=           0 NTot=          32
 NSgBfM=    58    58    58    58    58 MxSgAt=     4 MxSgA2=     4.
 Leave Link  302 at Fri Mar 15 15:14:22 2019, MaxMem=   196608000 cpu:         4.5
 (Enter /cm/shared/c3ddb/gaussian/09.d01/g09/l303.exe)
 DipDrv:  MaxL=1.
 Leave Link  303 at Fri Mar 15 15:14:22 2019, MaxMem=   196608000 cpu:         1.5
 (Enter /cm/shared/c3ddb/gaussian/09.d01/g09/l401.exe)
 Initial guess from the checkpoint file:  "check.chk"
 B after Tr=     0.000000    0.000000    0.000000
         Rot=    1.000000    0.000000    0.000000    0.000150 Ang=   0.02 deg.
 Guess basis will be translated and rotated to current coordinates.
 JPrj=2 DoOrth=T DoCkMO=T.
 Initial guess orbital symmetries:
       Occupied  (A) (B) (A) (B) (A) (B) (A) (A) (B)
       Virtual   (A) (A) (A) (A) (A) (A) (A) (A) (A) (A) (A) (A)
                 (A) (A) (A) (A) (A) (A) (A) (A) (A) (A) (A) (B)
                 (B) (B) (B) (B) (B) (B) (B) (B) (B) (B) (B) (B)
                 (B) (B) (B) (B) (B) (B) (B) (B) (B) (B) (B)
 The electronic state of the initial guess is 1-A.
 Generating alternative initial guess.
 ExpMin= 8.45D-02 ExpMax= 8.59D+03 ExpMxC= 1.30D+03 IAcc=2 IRadAn=         4 AccDes= 0.00D+00
 Harris functional with IExCor=  402 and IRadAn=       4 diagonalized for initial guess.
 HarFok:  IExCor=  402 AccDes= 0.00D+00 IRadAn=         4 IDoV= 1 UseB2=F ITyADJ=14
 ICtDFT=  3500011 ScaDFX=  1.000000  1.000000  1.000000  1.000000
 FoFCou: FMM=F IPFlag=           0 FMFlag=      100000 FMFlg1=           0
         NFxFlg=           0 DoJE=T BraDBF=F KetDBF=T FulRan=T
         wScrn=  0.000000 ICntrl=     500 IOpCl=  0 I1Cent=   200000004 NGrid=           0
         NMat0=    1 NMatS0=      1 NMatT0=    0 NMatD0=    1 NMtDS0=    0 NMtDT0=    0
 Petite list used in FoFCou.
 Harris En= -151.622768704432    
 Leave Link  401 at Fri Mar 15 15:14:25 2019, MaxMem=   196608000 cpu:        12.8
 (Enter /cm/shared/c3ddb/gaussian/09.d01/g09/l502.exe)
 Closed shell SCF:
 Using DIIS extrapolation, IDIIS=  1040.
 Integral symmetry usage will be decided dynamically.
 Keep R1 ints in memory in symmetry-blocked form, NReq=2174742.
 IVT=       17010 IEndB=       17010 NGot=   196608000 MDV=   195949609
 LenX=   195949609 LenY=   195945804
 Requested convergence on RMS density matrix=1.00D-08 within  64 cycles.
 Requested convergence on MAX density matrix=1.00D-06.
 Requested convergence on             energy=1.00D-06.
 No special actions if energy rises.
 FoFCou: FMM=F IPFlag=           0 FMFlag=           0 FMFlg1=           0
         NFxFlg=           0 DoJE=F BraDBF=F KetDBF=F FulRan=T
         wScrn=  0.000000 ICntrl=     600 IOpCl=  0 I1Cent=           0 NGrid=           0
         NMat0=    1 NMatS0=   1596 NMatT0=    0 NMatD0=    1 NMtDS0=    0 NMtDT0=    0
 Petite list used in FoFCou.
 Integral accuracy reduced to 1.0D-05 until final iterations.

 Cycle   1  Pass 0  IDiag  1:
 E= -151.601750180583    
 DIIS: error= 1.99D-03 at cycle   1 NSaved=   1.
 NSaved= 1 IEnMin= 1 EnMin= -151.601750180583     IErMin= 1 ErrMin= 1.99D-03
 ErrMax= 1.99D-03  0.00D+00 EMaxC= 1.00D-01 BMatC= 2.66D-04 BMatP= 2.66D-04
 IDIUse=3 WtCom= 9.80D-01 WtEn= 1.99D-02
 Coeff-Com:  0.100D+01
 Coeff-En:   0.100D+01
 Coeff:      0.100D+01
 Gap=     0.491 Goal=   None    Shift=    0.000
 GapD=    0.491 DampG=2.000 DampE=1.000 DampFc=2.0000 IDamp=-1.
 RMSDP=2.87D-04 MaxDP=3.24D-03              OVMax= 5.20D-03

 Cycle   2  Pass 0  IDiag  1:
 E= -151.602049761440     Delta-E=       -0.000299580857 Rises=F Damp=F
 DIIS: error= 3.77D-04 at cycle   2 NSaved=   2.
 NSaved= 2 IEnMin= 2 EnMin= -151.602049761440     IErMin= 2 ErrMin= 3.77D-04
 ErrMax= 3.77D-04  0.00D+00 EMaxC= 1.00D-01 BMatC= 1.13D-05 BMatP= 2.66D-04
 IDIUse=3 WtCom= 9.96D-01 WtEn= 3.77D-03
 Coeff-Com:  0.383D-01 0.962D+00
 Coeff-En:   0.000D+00 0.100D+01
 Coeff:      0.381D-01 0.962D+00
 Gap=     0.280 Goal=   None    Shift=    0.000
 RMSDP=9.17D-05 MaxDP=1.18D-03 DE=-3.00D-04 OVMax= 1.64D-03

 Cycle   3  Pass 0  IDiag  1:
 E= -151.602048199087     Delta-E=        0.000001562353 Rises=F Damp=F
 DIIS: error= 4.74D-04 at cycle   3 NSaved=   3.
 NSaved= 3 IEnMin= 2 EnMin= -151.602049761440     IErMin= 2 ErrMin= 3.77D-04
 ErrMax= 4.74D-04  0.00D+00 EMaxC= 1.00D-01 BMatC= 1.58D-05 BMatP= 1.13D-05
 IDIUse=3 WtCom= 3.15D-01 WtEn= 6.85D-01
 Coeff-Com: -0.288D-01 0.550D+00 0.479D+00
 Coeff-En:   0.000D+00 0.540D+00 0.460D+00
 Coeff:     -0.907D-02 0.543D+00 0.466D+00
 Gap=     0.280 Goal=   None    Shift=    0.000
 RMSDP=4.36D-05 MaxDP=5.03D-04 DE= 1.56D-06 OVMax= 7.70D-04

 Cycle   4  Pass 0  IDiag  1:
 E= -151.602058936224     Delta-E=       -0.000010737137 Rises=F Damp=F
 DIIS: error= 2.95D-05 at cycle   4 NSaved=   4.
 NSaved= 4 IEnMin= 4 EnMin= -151.602058936224     IErMin= 4 ErrMin= 2.95D-05
 ErrMax= 2.95D-05  0.00D+00 EMaxC= 1.00D-01 BMatC= 3.45D-08 BMatP= 1.13D-05
 IDIUse=1 WtCom= 1.00D+00 WtEn= 0.00D+00
 Coeff-Com: -0.485D-02 0.487D-01 0.740D-01 0.882D+00
 Coeff:     -0.485D-02 0.487D-01 0.740D-01 0.882D+00
 Gap=     0.280 Goal=   None    Shift=    0.000
 RMSDP=4.26D-06 MaxDP=2.88D-05 DE=-1.07D-05 OVMax= 6.79D-05

 Initial convergence to 1.0D-05 achieved.  Increase integral accuracy.
 Cycle   5  Pass 1  IDiag  1:
 E= -151.602061225682     Delta-E=       -0.000002289458 Rises=F Damp=F
 DIIS: error= 5.53D-06 at cycle   1 NSaved=   1.
 NSaved= 1 IEnMin= 1 EnMin= -151.602061225682     IErMin= 1 ErrMin= 5.53D-06
 ErrMax= 5.53D-06  0.00D+00 EMaxC= 1.00D-01 BMatC= 1.33D-09 BMatP= 1.33D-09
 IDIUse=1 WtCom= 1.00D+00 WtEn= 0.00D+00
 Coeff-Com:  0.100D+01
 Coeff:      0.100D+01
 Gap=     0.280 Goal=   None    Shift=    0.000
 RMSDP=4.26D-06 MaxDP=2.88D-05 DE=-2.29D-06 OVMax= 1.30D-05

 Cycle   6  Pass 1  IDiag  1:
 E= -151.602061226309     Delta-E=       -0.000000000627 Rises=F Damp=F
 DIIS: error= 3.46D-06 at cycle   2 NSaved=   2.
 NSaved= 2 IEnMin= 2 EnMin= -151.602061226309     IErMin= 2 ErrMin= 3.46D-06
 ErrMax= 3.46D-06  0.00D+00 EMaxC= 1.00D-01 BMatC= 4.72D-10 BMatP= 1.33D-09
 IDIUse=1 WtCom= 1.00D+00 WtEn= 0.00D+00
 Coeff-Com:  0.359D+00 0.641D+00
 Coeff:      0.359D+00 0.641D+00
 Gap=     0.280 Goal=   None    Shift=    0.000
 RMSDP=4.05D-07 MaxDP=3.15D-06 DE=-6.27D-10 OVMax= 6.36D-06

 Cycle   7  Pass 1  IDiag  1:
 E= -151.602061226583     Delta-E=       -0.000000000274 Rises=F Damp=F
 DIIS: error= 1.11D-06 at cycle   3 NSaved=   3.
 NSaved= 3 IEnMin= 3 EnMin= -151.602061226583     IErMin= 3 ErrMin= 1.11D-06
 ErrMax= 1.11D-06  0.00D+00 EMaxC= 1.00D-01 BMatC= 8.62D-11 BMatP= 4.72D-10
 IDIUse=1 WtCom= 1.00D+00 WtEn= 0.00D+00
 Coeff-Com:  0.122D+00 0.345D+00 0.534D+00
 Coeff:      0.122D+00 0.345D+00 0.534D+00
 Gap=     0.280 Goal=   None    Shift=    0.000
 RMSDP=1.08D-07 MaxDP=1.18D-06 DE=-2.74D-10 OVMax= 1.96D-06

 Cycle   8  Pass 1  IDiag  1:
 E= -151.602061226642     Delta-E=       -0.000000000059 Rises=F Damp=F
 DIIS: error= 1.18D-07 at cycle   4 NSaved=   4.
 NSaved= 4 IEnMin= 4 EnMin= -151.602061226642     IErMin= 4 ErrMin= 1.18D-07
 ErrMax= 1.18D-07  0.00D+00 EMaxC= 1.00D-01 BMatC= 8.43D-13 BMatP= 8.62D-11
 IDIUse=1 WtCom= 1.00D+00 WtEn= 0.00D+00
 Coeff-Com: -0.174D-01 0.672D-02 0.761D-01 0.935D+00
 Coeff:     -0.174D-01 0.672D-02 0.761D-01 0.935D+00
 Gap=     0.280 Goal=   None    Shift=    0.000
 RMSDP=1.63D-08 MaxDP=1.55D-07 DE=-5.92D-11 OVMax= 3.72D-07

 Cycle   9  Pass 1  IDiag  1:
 E= -151.602061226643     Delta-E=       -0.000000000001 Rises=F Damp=F
 DIIS: error= 1.31D-08 at cycle   5 NSaved=   5.
 NSaved= 5 IEnMin= 5 EnMin= -151.602061226643     IErMin= 5 ErrMin= 1.31D-08
 ErrMax= 1.31D-08  0.00D+00 EMaxC= 1.00D-01 BMatC= 1.33D-14 BMatP= 8.43D-13
 IDIUse=1 WtCom= 1.00D+00 WtEn= 0.00D+00
 Coeff-Com: -0.513D-02-0.200D-02 0.959D-02 0.156D+00 0.841D+00
 Coeff:     -0.513D-02-0.200D-02 0.959D-02 0.156D+00 0.841D+00
 Gap=     0.280 Goal=   None    Shift=    0.000
 RMSDP=2.75D-09 MaxDP=2.34D-08 DE=-5.68D-13 OVMax= 7.75D-08

 SCF Done:  E(RB3LYP) =  -151.602061227     A.U. after    9 cycles
            NFock=  9  Conv=0.27D-08     -V/T= 2.0026
 KE= 1.512024888995D+02 PE=-4.324657107689D+02 EE= 9.287220781931D+01
 Leave Link  502 at Fri Mar 15 15:14:31 2019, MaxMem=   196608000 cpu:        38.1
 (Enter /cm/shared/c3ddb/gaussian/09.d01/g09/l508.exe)
 QCSCF skips out because SCF is already converged.
 Leave Link  508 at Fri Mar 15 15:14:31 2019, MaxMem=   196608000 cpu:         0.0
 (Enter /cm/shared/c3ddb/gaussian/09.d01/g09/l701.exe)
 Compute integral first derivatives.
 ... and contract with generalized density number  0.
 Leave Link  701 at Fri Mar 15 15:14:32 2019, MaxMem=   196608000 cpu:         6.9
 (Enter /cm/shared/c3ddb/gaussian/09.d01/g09/l702.exe)
 L702 exits ... SP integral derivatives will be done elsewhere.
 Leave Link  702 at Fri Mar 15 15:14:32 2019, MaxMem=   196608000 cpu:         0.2
 (Enter /cm/shared/c3ddb/gaussian/09.d01/g09/l703.exe)
 Compute integral first derivatives, UseDBF=F ICtDFT=           0.
 Integral derivatives from FoFJK, PRISM(SPDF).
 Calling FoFJK, ICntrl=      2127 FMM=F ISym2X=1 I1Cent= 0 IOpClX= 0 NMat=1 NMatS=1 NMatT=0.
 FoFJK:  IHMeth= 1 ICntrl=    2127 DoSepK=F KAlg= 0 I1Cent=   0 FoldK=F
 IRaf=         0 NMat=   1 IRICut=       1 DoRegI=T DoRafI=F ISym2E= 1.
 FoFCou: FMM=F IPFlag=           0 FMFlag=      100000 FMFlg1=         800
         NFxFlg=           0 DoJE=F BraDBF=F KetDBF=F FulRan=T
         wScrn=  0.000000 ICntrl=    2127 IOpCl=  0 I1Cent=           0 NGrid=           0
         NMat0=    1 NMatS0=      1 NMatT0=    0 NMatD0=    1 NMtDS0=    0 NMtDT0=    0
 Petite list used in FoFCou.
 Leave Link  703 at Fri Mar 15 15:14:34 2019, MaxMem=   196608000 cpu:         6.3
 (Enter /cm/shared/c3ddb/gaussian/09.d01/g09/l716.exe)
 Dipole        = 0.00000000D+00 2.22044605D-16 7.03569031D-01
 ***** Axes restored to original set *****
 -------------------------------------------------------------------
 Center     Atomic                   Forces (Hartrees/Bohr)
 Number     Number              X              Y              Z
 -------------------------------------------------------------------
      1        8          -0.000115123    0.000977760    0.000066166
      2        8           0.000115123   -0.000977760    0.000066166
      3        1           0.000138812    0.000052536   -0.000066166
      4        1          -0.000138812   -0.000052536   -0.000066166
 -------------------------------------------------------------------
 Cartesian Forces:  Max     0.000977760 RMS     0.000408259
 Leave Link  716 at Fri Mar 15 15:14:34 2019, MaxMem=   196608000 cpu:         0.2
 (Enter /cm/shared/c3ddb/gaussian/09.d01/g09/l103.exe)

 GradGradGradGradGradGradGradGradGradGradGradGradGradGradGradGradGradGrad
 Berny optimization.
 Using GEDIIS/GDIIS optimizer.
 FormGI is forming the generalized inverse of G from B-inverse, IUseBI=4.
 Internal  Forces:  Max     0.001030090 RMS     0.000435851
 Search for a local minimum.
 Step number   2 out of a maximum of   20 on scan point     1 out of    46
 All quantities printed in internal units (Hartrees-Bohrs-Radians)
 RMS Force = .46634D-03 SwitMx=.10000D-02 MixMth= 2
 Mixed Optimization -- En-DIIS/RFO-DIIS
 Update second derivatives using D2CorX and points    1    2
 DE= -3.90D-04 DEPred=-3.74D-04 R= 1.04D+00
 TightC=F SS=  1.41D+00  RLast= 4.99D-02 DXNew= 8.4090D-02 1.4975D-01
 Trust test= 1.04D+00 RLast= 4.99D-02 DXMaxT set to 8.41D-02
 The second derivative matrix:
                          R1        R2        R3        A1        A2
           R1           0.32733
           R2          -0.00636   0.52731
           R3          -0.00636   0.00024   0.52731
           A1           0.07128  -0.00572   0.00044   0.22791
           A2           0.07128   0.00044  -0.00572   0.02370   0.22791
           D1          -0.00194   0.00239   0.00239   0.00886   0.00886
                          D1
           D1           0.00931
 ITU=  1  0
 Use linear search instead of GDIIS.
     Eigenvalues ---    0.18179   0.20410   0.39632   0.52718   0.52837
     Eigenvalues --- 1000.00000
 RFO step:  Lambda=-2.19625046D-07 EMin= 1.81789797D-01
 Quartic linear search produced a step of  0.07409.
 Iteration  1 RMS(Cart)=  0.00113361 RMS(Int)=  0.00000037
 Iteration  2 RMS(Cart)=  0.00000036 RMS(Int)=  0.00000000
 Iteration  1 RMS(Cart)=  0.00000000 RMS(Int)=  0.00000000
 ITry= 1 IFail=0 DXMaxC= 1.86D-03 DCOld= 1.00D+10 DXMaxT= 8.41D-02 DXLimC= 3.00D+00 Rises=F
 ClnCor:  largest displacement from symmetrization is 7.43D-15 for atom     2.
 Variable       Old X    -DE/DX   Delta X   Delta X   Delta X     New X
                                 (Linear)    (Quad)   (Total)
    R1        2.74319   0.00103   0.00343   0.00030   0.00373   2.74692
    R2        1.82778   0.00009   0.00067  -0.00043   0.00024   1.82802
    R3        1.82778   0.00009   0.00067  -0.00043   0.00024   1.82802
    A1        1.75580   0.00006  -0.00071  -0.00014  -0.00085   1.75495
    A2        1.75580   0.00006  -0.00071  -0.00014  -0.00085   1.75495
    D1        2.08040   0.00023   0.00000   0.00000   0.00000   2.08040
         Item               Value     Threshold  Converged?
 Maximum Force            0.001030     0.000450     NO 
 RMS     Force            0.000466     0.000300     NO 
 Maximum Displacement     0.001864     0.001800     NO 
 RMS     Displacement     0.001134     0.001200     YES
 Predicted change in Energy=-1.749689D-06
 Lowest energy point so far.  Saving SCF results.
 GradGradGradGradGradGradGradGradGradGradGradGradGradGradGradGradGradGrad

 Leave Link  103 at Fri Mar 15 15:14:35 2019, MaxMem=   196608000 cpu:         7.4
 (Enter /cm/shared/c3ddb/gaussian/09.d01/g09/l202.exe)
                          Input orientation:                          
 ---------------------------------------------------------------------
 Center     Atomic      Atomic             Coordinates (Angstroms)
 Number     Number       Type             X           Y           Z
 ---------------------------------------------------------------------
      1          8           0       -0.000629    0.726803   -0.054790
      2          8           0        0.000629   -0.726803   -0.054790
      3          1           0        0.819452    0.904648    0.426459
      4          1           0       -0.819452   -0.904648    0.426459
 ---------------------------------------------------------------------
                    Distance matrix (angstroms):
                    1          2          3          4
     1  O    0.000000
     2  O    1.453607   0.000000
     3  H    0.967348   1.887777   0.000000
     4  H    1.887777   0.967348   2.441221   0.000000
 Stoichiometry    H2O2
 Framework group  C2[X(H2O2)]
 Deg. of freedom     4
 Full point group                 C2      NOp   2
 RotChk:  IX=0 Diff= 3.38D-05
 Largest Abelian subgroup         C2      NOp   2
 Largest concise Abelian subgroup C2      NOp   2
                         Standard orientation:                         
 ---------------------------------------------------------------------
 Center     Atomic      Atomic             Coordinates (Angstroms)
 Number     Number       Type             X           Y           Z
 ---------------------------------------------------------------------
      1          8           0        0.000000    0.726803   -0.053472
      2          8           0        0.000000   -0.726803   -0.053472
      3          1           0        0.820235    0.903938    0.427776
      4          1           0       -0.820235   -0.903938    0.427776
 ---------------------------------------------------------------------
 Rotational constants (GHZ):    303.2965612     26.4409156     25.3940147
 Leave Link  202 at Fri Mar 15 15:14:35 2019, MaxMem=   196608000 cpu:         0.5
 (Enter /cm/shared/c3ddb/gaussian/09.d01/g09/l301.exe)
 Standard basis: 6-311+G(d,p) (5D, 7F)
 Ernie: Thresh=  0.10000D-02 Tol=  0.10000D-05 Strict=F.
 There are    29 symmetry adapted cartesian basis functions of A   symmetry.
 There are    29 symmetry adapted cartesian basis functions of B   symmetry.
 There are    28 symmetry adapted basis functions of A   symmetry.
 There are    28 symmetry adapted basis functions of B   symmetry.
    56 basis functions,    88 primitive gaussians,    58 cartesian basis functions
     9 alpha electrons        9 beta electrons
       nuclear repulsion energy        36.7533101300 Hartrees.
 IExCor=  402 DFT=T Ex+Corr=B3LYP ExCW=0 ScaHFX=  0.200000
 ScaDFX=  0.800000  0.720000  1.000000  0.810000 ScalE2=  1.000000  1.000000
 IRadAn=      5 IRanWt=     -1 IRanGd=            0 ICorTp=0 IEmpDi=  4
 NAtoms=    4 NActive=    4 NUniq=    2 SFac= 4.00D+00 NAtFMM=   60 NAOKFM=F Big=F
 Integral buffers will be    131072 words long.
 Raffenetti 2 integral format.
 Two-electron integral symmetry is turned on.
 Leave Link  301 at Fri Mar 15 15:14:36 2019, MaxMem=   196608000 cpu:         0.3
 (Enter /cm/shared/c3ddb/gaussian/09.d01/g09/l302.exe)
 NPDir=0 NMtPBC=     1 NCelOv=     1 NCel=       1 NClECP=     1 NCelD=      1
         NCelK=      1 NCelE2=     1 NClLst=     1 CellRange=     0.0.
 One-electron integrals computed using PRISM.
 One-electron integral symmetry used in STVInt
 NBasis=    56 RedAO= T EigKep=  1.07D-03  NBF=    28    28
 NBsUse=    56 1.00D-06 EigRej= -1.00D+00 NBFU=    28    28
 Precomputing XC quadrature grid using
 IXCGrd= 4 IRadAn=           5 IRanWt=          -1 IRanGd=           0 AccXCQ= 0.00D+00.
 Generated NRdTot=       0 NPtTot=           0 NUsed=           0 NTot=          32
 NSgBfM=    58    58    58    58    58 MxSgAt=     4 MxSgA2=     4.
 Leave Link  302 at Fri Mar 15 15:14:37 2019, MaxMem=   196608000 cpu:         6.6
 (Enter /cm/shared/c3ddb/gaussian/09.d01/g09/l303.exe)
 DipDrv:  MaxL=1.
 Leave Link  303 at Fri Mar 15 15:14:37 2019, MaxMem=   196608000 cpu:         1.7
 (Enter /cm/shared/c3ddb/gaussian/09.d01/g09/l401.exe)
 Initial guess from the checkpoint file:  "check.chk"
 B after Tr=     0.000000    0.000000    0.000000
         Rot=    1.000000    0.000000    0.000000    0.000004 Ang=   0.00 deg.
 Guess basis will be translated and rotated to current coordinates.
 JPrj=2 DoOrth=T DoCkMO=T.
 Initial guess orbital symmetries:
       Occupied  (A) (B) (A) (B) (A) (B) (A) (A) (B)
       Virtual   (A) (A) (A) (A) (A) (A) (A) (A) (A) (A) (A) (A)
                 (A) (A) (A) (A) (A) (A) (A) (A) (A) (A) (A) (B)
                 (B) (B) (B) (B) (B) (B) (B) (B) (B) (B) (B) (B)
                 (B) (B) (B) (B) (B) (B) (B) (B) (B) (B) (B)
 The electronic state of the initial guess is 1-A.
 Leave Link  401 at Fri Mar 15 15:14:38 2019, MaxMem=   196608000 cpu:         7.5
 (Enter /cm/shared/c3ddb/gaussian/09.d01/g09/l502.exe)
 Closed shell SCF:
 Using DIIS extrapolation, IDIIS=  1040.
 Integral symmetry usage will be decided dynamically.
 Keep R1 ints in memory in symmetry-blocked form, NReq=2174742.
 IVT=       17010 IEndB=       17010 NGot=   196608000 MDV=   195949609
 LenX=   195949609 LenY=   195945804
 Requested convergence on RMS density matrix=1.00D-08 within  64 cycles.
 Requested convergence on MAX density matrix=1.00D-06.
 Requested convergence on             energy=1.00D-06.
 No special actions if energy rises.
 FoFCou: FMM=F IPFlag=           0 FMFlag=           0 FMFlg1=           0
         NFxFlg=           0 DoJE=F BraDBF=F KetDBF=F FulRan=T
         wScrn=  0.000000 ICntrl=     600 IOpCl=  0 I1Cent=           0 NGrid=           0
         NMat0=    1 NMatS0=   1596 NMatT0=    0 NMatD0=    1 NMtDS0=    0 NMtDT0=    0
 Petite list used in FoFCou.

 Cycle   1  Pass 1  IDiag  1:
 E= -151.602061243427    
 DIIS: error= 1.57D-04 at cycle   1 NSaved=   1.
 NSaved= 1 IEnMin= 1 EnMin= -151.602061243427     IErMin= 1 ErrMin= 1.57D-04
 ErrMax= 1.57D-04  0.00D+00 EMaxC= 1.00D-01 BMatC= 1.59D-06 BMatP= 1.59D-06
 IDIUse=3 WtCom= 9.98D-01 WtEn= 1.57D-03
 Coeff-Com:  0.100D+01
 Coeff-En:   0.100D+01
 Coeff:      0.100D+01
 Gap=     0.491 Goal=   None    Shift=    0.000
 RMSDP=2.26D-05 MaxDP=2.51D-04              OVMax= 4.16D-04

 Cycle   2  Pass 1  IDiag  1:
 E= -151.602063086715     Delta-E=       -0.000001843288 Rises=F Damp=F
 DIIS: error= 2.12D-05 at cycle   2 NSaved=   2.
 NSaved= 2 IEnMin= 2 EnMin= -151.602063086715     IErMin= 2 ErrMin= 2.12D-05
 ErrMax= 2.12D-05  0.00D+00 EMaxC= 1.00D-01 BMatC= 4.00D-08 BMatP= 1.59D-06
 IDIUse=1 WtCom= 1.00D+00 WtEn= 0.00D+00
 Coeff-Com:  0.370D-02 0.996D+00
 Coeff:      0.370D-02 0.996D+00
 Gap=     0.279 Goal=   None    Shift=    0.000
 RMSDP=6.03D-06 MaxDP=7.32D-05 DE=-1.84D-06 OVMax= 1.06D-04

 Cycle   3  Pass 1  IDiag  1:
 E= -151.602063081363     Delta-E=        0.000000005353 Rises=F Damp=F
 DIIS: error= 3.01D-05 at cycle   3 NSaved=   3.
 NSaved= 3 IEnMin= 2 EnMin= -151.602063086715     IErMin= 2 ErrMin= 2.12D-05
 ErrMax= 3.01D-05  0.00D+00 EMaxC= 1.00D-01 BMatC= 6.18D-08 BMatP= 4.00D-08
 IDIUse=1 WtCom= 1.00D+00 WtEn= 0.00D+00
 Coeff-Com: -0.309D-01 0.569D+00 0.462D+00
 Coeff:     -0.309D-01 0.569D+00 0.462D+00
 Gap=     0.279 Goal=   None    Shift=    0.000
 RMSDP=2.71D-06 MaxDP=3.09D-05 DE= 5.35D-09 OVMax= 4.78D-05

 Cycle   4  Pass 1  IDiag  1:
 E= -151.602063123567     Delta-E=       -0.000000042205 Rises=F Damp=F
 DIIS: error= 1.13D-06 at cycle   4 NSaved=   4.
 NSaved= 4 IEnMin= 4 EnMin= -151.602063123567     IErMin= 4 ErrMin= 1.13D-06
 ErrMax= 1.13D-06  0.00D+00 EMaxC= 1.00D-01 BMatC= 6.27D-11 BMatP= 4.00D-08
 IDIUse=1 WtCom= 1.00D+00 WtEn= 0.00D+00
 Coeff-Com: -0.144D-02 0.330D-02 0.275D-01 0.971D+00
 Coeff:     -0.144D-02 0.330D-02 0.275D-01 0.971D+00
 Gap=     0.279 Goal=   None    Shift=    0.000
 RMSDP=2.04D-07 MaxDP=1.59D-06 DE=-4.22D-08 OVMax= 3.33D-06

 Cycle   5  Pass 1  IDiag  1:
 E= -151.602063123626     Delta-E=       -0.000000000059 Rises=F Damp=F
 DIIS: error= 2.65D-07 at cycle   5 NSaved=   5.
 NSaved= 5 IEnMin= 5 EnMin= -151.602063123626     IErMin= 5 ErrMin= 2.65D-07
 ErrMax= 2.65D-07  0.00D+00 EMaxC= 1.00D-01 BMatC= 3.22D-12 BMatP= 6.27D-11
 IDIUse=1 WtCom= 1.00D+00 WtEn= 0.00D+00
 Coeff-Com:  0.269D-03-0.975D-02-0.409D-02 0.220D+00 0.794D+00
 Coeff:      0.269D-03-0.975D-02-0.409D-02 0.220D+00 0.794D+00
 Gap=     0.279 Goal=   None    Shift=    0.000
 RMSDP=3.85D-08 MaxDP=2.99D-07 DE=-5.93D-11 OVMax= 4.78D-07

 Cycle   6  Pass 1  IDiag  1:
 E= -151.602063123629     Delta-E=       -0.000000000002 Rises=F Damp=F
 DIIS: error= 1.80D-08 at cycle   6 NSaved=   6.
 NSaved= 6 IEnMin= 6 EnMin= -151.602063123629     IErMin= 6 ErrMin= 1.80D-08
 ErrMax= 1.80D-08  0.00D+00 EMaxC= 1.00D-01 BMatC= 2.09D-14 BMatP= 3.22D-12
 IDIUse=1 WtCom= 1.00D+00 WtEn= 0.00D+00
 Coeff-Com:  0.247D-04-0.108D-03-0.847D-03-0.139D-01 0.748D-02 0.101D+01
 Coeff:      0.247D-04-0.108D-03-0.847D-03-0.139D-01 0.748D-02 0.101D+01
 Gap=     0.279 Goal=   None    Shift=    0.000
 RMSDP=4.05D-09 MaxDP=2.41D-08 DE=-2.39D-12 OVMax= 1.23D-07

 SCF Done:  E(RB3LYP) =  -151.602063124     A.U. after    6 cycles
            NFock=  6  Conv=0.40D-08     -V/T= 2.0027
 KE= 1.511991877955D+02 PE=-4.323928685673D+02 EE= 9.283830751813D+01
 Leave Link  502 at Fri Mar 15 15:14:45 2019, MaxMem=   196608000 cpu:        42.4
 (Enter /cm/shared/c3ddb/gaussian/09.d01/g09/l508.exe)
 QCSCF skips out because SCF is already converged.
 Leave Link  508 at Fri Mar 15 15:14:45 2019, MaxMem=   196608000 cpu:         0.0
 (Enter /cm/shared/c3ddb/gaussian/09.d01/g09/l701.exe)
 Compute integral first derivatives.
 ... and contract with generalized density number  0.
 Leave Link  701 at Fri Mar 15 15:14:46 2019, MaxMem=   196608000 cpu:         8.0
 (Enter /cm/shared/c3ddb/gaussian/09.d01/g09/l702.exe)
 L702 exits ... SP integral derivatives will be done elsewhere.
 Leave Link  702 at Fri Mar 15 15:14:46 2019, MaxMem=   196608000 cpu:         0.3
 (Enter /cm/shared/c3ddb/gaussian/09.d01/g09/l703.exe)
 Compute integral first derivatives, UseDBF=F ICtDFT=           0.
 Integral derivatives from FoFJK, PRISM(SPDF).
 Calling FoFJK, ICntrl=      2127 FMM=F ISym2X=1 I1Cent= 0 IOpClX= 0 NMat=1 NMatS=1 NMatT=0.
 FoFJK:  IHMeth= 1 ICntrl=    2127 DoSepK=F KAlg= 0 I1Cent=   0 FoldK=F
 IRaf=         0 NMat=   1 IRICut=       1 DoRegI=T DoRafI=F ISym2E= 1.
 FoFCou: FMM=F IPFlag=           0 FMFlag=      100000 FMFlg1=         800
         NFxFlg=           0 DoJE=F BraDBF=F KetDBF=F FulRan=T
         wScrn=  0.000000 ICntrl=    2127 IOpCl=  0 I1Cent=           0 NGrid=           0
         NMat0=    1 NMatS0=      1 NMatT0=    0 NMatD0=    1 NMtDS0=    0 NMtDT0=    0
 Petite list used in FoFCou.
 Leave Link  703 at Fri Mar 15 15:14:47 2019, MaxMem=   196608000 cpu:         7.0
 (Enter /cm/shared/c3ddb/gaussian/09.d01/g09/l716.exe)
 Dipole        = 0.00000000D+00 2.22044605D-16 7.03632092D-01
 ***** Axes restored to original set *****
 -------------------------------------------------------------------
 Center     Atomic                   Forces (Hartrees/Bohr)
 Number     Number              X              Y              Z
 -------------------------------------------------------------------
      1        8          -0.000061645    0.000009484    0.000127384
      2        8           0.000061645   -0.000009484    0.000127384
      3        1           0.000056301    0.000008023   -0.000127384
      4        1          -0.000056301   -0.000008023   -0.000127384
 -------------------------------------------------------------------
 Cartesian Forces:  Max     0.000127384 RMS     0.000081217
 Leave Link  716 at Fri Mar 15 15:14:47 2019, MaxMem=   196608000 cpu:         0.3
 (Enter /cm/shared/c3ddb/gaussian/09.d01/g09/l103.exe)

 GradGradGradGradGradGradGradGradGradGradGradGradGradGradGradGradGradGrad
 Berny optimization.
 Using GEDIIS/GDIIS optimizer.
 FormGI is forming the generalized inverse of G from B-inverse, IUseBI=4.
 Internal  Forces:  Max     0.000248835 RMS     0.000102759
 Search for a local minimum.
 Step number   3 out of a maximum of   20 on scan point     1 out of    46
 All quantities printed in internal units (Hartrees-Bohrs-Radians)
 RMS Force = .16955D-04 SwitMx=.10000D-02 MixMth= 2
 Mixed Optimization -- En-DIIS/RFO-DIIS
 Swapping is turned off.
 Update second derivatives using D2CorX and points    1    2    3
 DE= -1.90D-06 DEPred=-1.75D-06 R= 1.08D+00
 TightC=F SS=  1.41D+00  RLast= 3.93D-03 DXNew= 1.4142D-01 1.1793D-02
 Trust test= 1.08D+00 RLast= 3.93D-03 DXMaxT set to 8.41D-02
 The second derivative matrix:
                          R1        R2        R3        A1        A2
           R1           0.30418
           R2          -0.00612   0.52774
           R3          -0.00612   0.00067   0.52774
           A1           0.06976  -0.00575   0.00040   0.22782
           A2           0.06976   0.00040  -0.00575   0.02360   0.22782
           D1          -0.00159   0.00237   0.00237   0.00888   0.00888
                          D1
           D1           0.00930
 ITU=  1  1  0
     Eigenvalues ---    0.17568   0.20410   0.37923   0.52718   0.52909
     Eigenvalues --- 1000.00000
 En-DIIS/RFO-DIIS IScMMF=        0 using points:     3    2
 RFO step:  Lambda= 0.00000000D+00.
 NNeg= 0 NP= 2 Switch=  2.50D-03 Rises=F DC=  1.90D-06 SmlDif=  1.00D-05
 RMS Error=  0.2540975708D-04 NUsed= 2 EDIIS=F
 DidBck=F Rises=F RFO-DIIS coefs:    1.00671   -0.00671
 Iteration  1 RMS(Cart)=  0.00005498 RMS(Int)=  0.00000000
 Iteration  2 RMS(Cart)=  0.00000000 RMS(Int)=  0.00000000
 Iteration  1 RMS(Cart)=  0.00000000 RMS(Int)=  0.00000000
 ITry= 1 IFail=0 DXMaxC= 7.28D-05 DCOld= 1.00D+10 DXMaxT= 8.41D-02 DXLimC= 3.00D+00 Rises=F
 ClnCor:  largest displacement from symmetrization is 1.20D-14 for atom     2.
 Variable       Old X    -DE/DX   Delta X   Delta X   Delta X     New X
                                 (Linear)    (Quad)   (Total)
    R1        2.74692   0.00002   0.00003   0.00000   0.00002   2.74694
    R2        1.82802  -0.00001   0.00000  -0.00003  -0.00003   1.82800
    R3        1.82802  -0.00001   0.00000  -0.00003  -0.00003   1.82800
    A1        1.75495   0.00002  -0.00001   0.00008   0.00007   1.75502
    A2        1.75495   0.00002  -0.00001   0.00008   0.00007   1.75502
    D1        2.08040   0.00025   0.00000   0.00000   0.00000   2.08040
         Item               Value     Threshold  Converged?
 Maximum Force            0.000019     0.000450     YES
 RMS     Force            0.000017     0.000300     YES
 Maximum Displacement     0.000073     0.001800     YES
 RMS     Displacement     0.000055     0.001200     YES
 Predicted change in Energy=-1.906008D-09
 Optimization completed.
    -- Stationary point found.
                           ----------------------------
                           !   Optimized Parameters   !
                           ! (Angstroms and Degrees)  !
 --------------------------                            --------------------------
 ! Name  Definition              Value          Derivative Info.                !
 --------------------------------------------------------------------------------
 ! R1    R(1,2)                  1.4536         -DE/DX =    0.0                 !
 ! R2    R(1,3)                  0.9673         -DE/DX =    0.0                 !
 ! R3    R(2,4)                  0.9673         -DE/DX =    0.0                 !
 ! A1    A(2,1,3)              100.5512         -DE/DX =    0.0                 !
 ! A2    A(1,2,4)              100.5512         -DE/DX =    0.0                 !
 ! D1    D(3,1,2,4)            119.198          -DE/DX =    0.0002              !
 --------------------------------------------------------------------------------
 Lowest energy point so far.  Saving SCF results.
 Iteration  1 RMS(Cart)=  0.05240060 RMS(Int)=  0.00253193
 Iteration  2 RMS(Cart)=  0.00182930 RMS(Int)=  0.00000070
 Iteration  3 RMS(Cart)=  0.00000076 RMS(Int)=  0.00000000
 Iteration  1 RMS(Cart)=  0.00000000 RMS(Int)=  0.00000000
 GradGradGradGradGradGradGradGradGradGradGradGradGradGradGradGradGradGrad

 Leave Link  103 at Fri Mar 15 15:14:49 2019, MaxMem=   196608000 cpu:        13.5
 (Enter /cm/shared/c3ddb/gaussian/09.d01/g09/l202.exe)
                          Input orientation:                          
 ---------------------------------------------------------------------
 Center     Atomic      Atomic             Coordinates (Angstroms)
 Number     Number       Type             X           Y           Z
 ---------------------------------------------------------------------
      1          8           0       -0.010747    0.726730   -0.025589
      2          8           0        0.010747   -0.726730   -0.025589
      3          1           0        0.838324    0.916504    0.397258
      4          1           0       -0.838324   -0.916504    0.397258
 ---------------------------------------------------------------------
                    Distance matrix (angstroms):
                    1          2          3          4
     1  O    0.000000
     2  O    1.453619   0.000000
     3  H    0.967335   1.887831   0.000000
     4  H    1.887831   0.967335   2.484164   0.000000
 Stoichiometry    H2O2
 Framework group  C2[X(H2O2)]
 Deg. of freedom     4
 Full point group                 C2      NOp   2
 RotChk:  IX=0 Diff= 1.97D-02
 Largest Abelian subgroup         C2      NOp   2
 Largest concise Abelian subgroup C2      NOp   2
                         Standard orientation:                         
 ---------------------------------------------------------------------
 Center     Atomic      Atomic             Coordinates (Angstroms)
 Number     Number       Type             X           Y           Z
 ---------------------------------------------------------------------
      1          8           0        0.000000    0.726810   -0.046983
      2          8           0        0.000000   -0.726810   -0.046983
      3          1           0        0.851784    0.904008    0.375865
      4          1           0       -0.851784   -0.904008    0.375865
 ---------------------------------------------------------------------
 Rotational constants (GHZ):    304.1525577     26.5641443     25.2583675
 Leave Link  202 at Fri Mar 15 15:14:49 2019, MaxMem=   196608000 cpu:         0.6
 (Enter /cm/shared/c3ddb/gaussian/09.d01/g09/l301.exe)
 Standard basis: 6-311+G(d,p) (5D, 7F)
 Ernie: Thresh=  0.10000D-02 Tol=  0.10000D-05 Strict=F.
 There are    29 symmetry adapted cartesian basis functions of A   symmetry.
 There are    29 symmetry adapted cartesian basis functions of B   symmetry.
 There are    28 symmetry adapted basis functions of A   symmetry.
 There are    28 symmetry adapted basis functions of B   symmetry.
    56 basis functions,    88 primitive gaussians,    58 cartesian basis functions
     9 alpha electrons        9 beta electrons
       nuclear repulsion energy        36.7493549410 Hartrees.
 IExCor=  402 DFT=T Ex+Corr=B3LYP ExCW=0 ScaHFX=  0.200000
 ScaDFX=  0.800000  0.720000  1.000000  0.810000 ScalE2=  1.000000  1.000000
 IRadAn=      5 IRanWt=     -1 IRanGd=            0 ICorTp=0 IEmpDi=  4
 NAtoms=    4 NActive=    4 NUniq=    2 SFac= 4.00D+00 NAtFMM=   60 NAOKFM=F Big=F
 Integral buffers will be    131072 words long.
 Raffenetti 2 integral format.
 Two-electron integral symmetry is turned on.
 Leave Link  301 at Fri Mar 15 15:14:50 2019, MaxMem=   196608000 cpu:         0.4
 (Enter /cm/shared/c3ddb/gaussian/09.d01/g09/l302.exe)
 NPDir=0 NMtPBC=     1 NCelOv=     1 NCel=       1 NClECP=     1 NCelD=      1
         NCelK=      1 NCelE2=     1 NClLst=     1 CellRange=     0.0.
 One-electron integrals computed using PRISM.
 One-electron integral symmetry used in STVInt
 NBasis=    56 RedAO= T EigKep=  1.03D-03  NBF=    28    28
 NBsUse=    56 1.00D-06 EigRej= -1.00D+00 NBFU=    28    28
 Precomputing XC quadrature grid using
 IXCGrd= 4 IRadAn=           5 IRanWt=          -1 IRanGd=           0 AccXCQ= 0.00D+00.
 Generated NRdTot=       0 NPtTot=           0 NUsed=           0 NTot=          32
 NSgBfM=    58    58    58    58    58 MxSgAt=     4 MxSgA2=     4.
 Leave Link  302 at Fri Mar 15 15:14:51 2019, MaxMem=   196608000 cpu:         5.1
 (Enter /cm/shared/c3ddb/gaussian/09.d01/g09/l303.exe)
 DipDrv:  MaxL=1.
 Leave Link  303 at Fri Mar 15 15:14:51 2019, MaxMem=   196608000 cpu:         0.2
 (Enter /cm/shared/c3ddb/gaussian/09.d01/g09/l401.exe)
 Initial guess from the checkpoint file:  "check.chk"
 B after Tr=     0.000000    0.000000    0.000000
         Rot=    0.999997    0.000000    0.000000    0.002478 Ang=   0.28 deg.
 Guess basis will be translated and rotated to current coordinates.
 JPrj=2 DoOrth=T DoCkMO=T.
 Initial guess orbital symmetries:
       Occupied  (A) (B) (A) (B) (A) (B) (A) (A) (B)
       Virtual   (A) (A) (A) (A) (A) (A) (A) (A) (A) (A) (A) (A)
                 (A) (A) (A) (A) (A) (A) (A) (A) (A) (A) (A) (B)
                 (B) (B) (B) (B) (B) (B) (B) (B) (B) (B) (B) (B)
                 (B) (B) (B) (B) (B) (B) (B) (B) (B) (B) (B)
 The electronic state of the initial guess is 1-A.
 Generating alternative initial guess.
 ExpMin= 8.45D-02 ExpMax= 8.59D+03 ExpMxC= 1.30D+03 IAcc=2 IRadAn=         4 AccDes= 0.00D+00
 Harris functional with IExCor=  402 and IRadAn=       4 diagonalized for initial guess.
 HarFok:  IExCor=  402 AccDes= 0.00D+00 IRadAn=         4 IDoV= 1 UseB2=F ITyADJ=14
 ICtDFT=  3500011 ScaDFX=  1.000000  1.000000  1.000000  1.000000
 FoFCou: FMM=F IPFlag=           0 FMFlag=      100000 FMFlg1=           0
         NFxFlg=           0 DoJE=T BraDBF=F KetDBF=T FulRan=T
         wScrn=  0.000000 ICntrl=     500 IOpCl=  0 I1Cent=   200000004 NGrid=           0
         NMat0=    1 NMatS0=      1 NMatT0=    0 NMatD0=    1 NMtDS0=    0 NMtDT0=    0
 Petite list used in FoFCou.
 Harris En= -151.622633896934    
 Leave Link  401 at Fri Mar 15 15:14:53 2019, MaxMem=   196608000 cpu:        11.6
 (Enter /cm/shared/c3ddb/gaussian/09.d01/g09/l502.exe)
 Closed shell SCF:
 Using DIIS extrapolation, IDIIS=  1040.
 Integral symmetry usage will be decided dynamically.
 Keep R1 ints in memory in symmetry-blocked form, NReq=2174742.
 IVT=       17010 IEndB=       17010 NGot=   196608000 MDV=   195949609
 LenX=   195949609 LenY=   195945804
 Requested convergence on RMS density matrix=1.00D-08 within  64 cycles.
 Requested convergence on MAX density matrix=1.00D-06.
 Requested convergence on             energy=1.00D-06.
 No special actions if energy rises.
 FoFCou: FMM=F IPFlag=           0 FMFlag=           0 FMFlg1=           0
         NFxFlg=           0 DoJE=F BraDBF=F KetDBF=F FulRan=T
         wScrn=  0.000000 ICntrl=     600 IOpCl=  0 I1Cent=           0 NGrid=           0
         NMat0=    1 NMatS0=   1596 NMatT0=    0 NMatD0=    1 NMtDS0=    0 NMtDT0=    0
 Petite list used in FoFCou.
 Integral accuracy reduced to 1.0D-05 until final iterations.

 Cycle   1  Pass 0  IDiag  1:
 E= -151.600654493861    
 DIIS: error= 4.38D-03 at cycle   1 NSaved=   1.
 NSaved= 1 IEnMin= 1 EnMin= -151.600654493861     IErMin= 1 ErrMin= 4.38D-03
 ErrMax= 4.38D-03  0.00D+00 EMaxC= 1.00D-01 BMatC= 1.08D-03 BMatP= 1.08D-03
 IDIUse=3 WtCom= 9.56D-01 WtEn= 4.38D-02
 Coeff-Com:  0.100D+01
 Coeff-En:   0.100D+01
 Coeff:      0.100D+01
 Gap=     0.482 Goal=   None    Shift=    0.000
 GapD=    0.482 DampG=2.000 DampE=1.000 DampFc=2.0000 IDamp=-1.
 RMSDP=7.81D-04 MaxDP=6.87D-03              OVMax= 1.69D-02

 Cycle   2  Pass 0  IDiag  1:
 E= -151.601997413302     Delta-E=       -0.001342919441 Rises=F Damp=F
 DIIS: error= 6.26D-04 at cycle   2 NSaved=   2.
 NSaved= 2 IEnMin= 2 EnMin= -151.601997413302     IErMin= 2 ErrMin= 6.26D-04
 ErrMax= 6.26D-04  0.00D+00 EMaxC= 1.00D-01 BMatC= 1.98D-05 BMatP= 1.08D-03
 IDIUse=3 WtCom= 9.94D-01 WtEn= 6.26D-03
 Coeff-Com: -0.439D-01 0.104D+01
 Coeff-En:   0.000D+00 0.100D+01
 Coeff:     -0.436D-01 0.104D+01
 Gap=     0.274 Goal=   None    Shift=    0.000
 RMSDP=1.26D-04 MaxDP=1.05D-03 DE=-1.34D-03 OVMax= 2.08D-03

 Cycle   3  Pass 0  IDiag  1:
 E= -151.602008818279     Delta-E=       -0.000011404976 Rises=F Damp=F
 DIIS: error= 3.65D-04 at cycle   3 NSaved=   3.
 NSaved= 3 IEnMin= 3 EnMin= -151.602008818279     IErMin= 3 ErrMin= 3.65D-04
 ErrMax= 3.65D-04  0.00D+00 EMaxC= 1.00D-01 BMatC= 9.18D-06 BMatP= 1.98D-05
 IDIUse=3 WtCom= 9.96D-01 WtEn= 3.65D-03
 Coeff-Com: -0.245D-01 0.426D+00 0.599D+00
 Coeff-En:   0.000D+00 0.000D+00 0.100D+01
 Coeff:     -0.244D-01 0.424D+00 0.600D+00
 Gap=     0.274 Goal=   None    Shift=    0.000
 RMSDP=5.05D-05 MaxDP=5.20D-04 DE=-1.14D-05 OVMax= 8.87D-04

 Cycle   4  Pass 0  IDiag  1:
 E= -151.602014277302     Delta-E=       -0.000005459024 Rises=F Damp=F
 DIIS: error= 1.53D-04 at cycle   4 NSaved=   4.
 NSaved= 4 IEnMin= 4 EnMin= -151.602014277302     IErMin= 4 ErrMin= 1.53D-04
 ErrMax= 1.53D-04  0.00D+00 EMaxC= 1.00D-01 BMatC= 1.31D-06 BMatP= 9.18D-06
 IDIUse=3 WtCom= 9.98D-01 WtEn= 1.53D-03
 Coeff-Com: -0.603D-02 0.951D-01 0.299D+00 0.612D+00
 Coeff-En:   0.000D+00 0.000D+00 0.703D-01 0.930D+00
 Coeff:     -0.602D-02 0.949D-01 0.298D+00 0.613D+00
 Gap=     0.274 Goal=   None    Shift=    0.000
 RMSDP=1.63D-05 MaxDP=1.47D-04 DE=-5.46D-06 OVMax= 2.62D-04

 Cycle   5  Pass 0  IDiag  1:
 E= -151.602015192999     Delta-E=       -0.000000915696 Rises=F Damp=F
 DIIS: error= 1.25D-05 at cycle   5 NSaved=   5.
 NSaved= 5 IEnMin= 5 EnMin= -151.602015192999     IErMin= 5 ErrMin= 1.25D-05
 ErrMax= 1.25D-05  0.00D+00 EMaxC= 1.00D-01 BMatC= 1.00D-08 BMatP= 1.31D-06
 IDIUse=1 WtCom= 1.00D+00 WtEn= 0.00D+00
 Coeff-Com:  0.492D-03-0.163D-01 0.728D-02 0.854D-01 0.923D+00
 Coeff:      0.492D-03-0.163D-01 0.728D-02 0.854D-01 0.923D+00
 Gap=     0.274 Goal=   None    Shift=    0.000
 RMSDP=2.49D-06 MaxDP=2.27D-05 DE=-9.16D-07 OVMax= 5.96D-05

 Initial convergence to 1.0D-05 achieved.  Increase integral accuracy.
 Cycle   6  Pass 1  IDiag  1:
 E= -151.602017991913     Delta-E=       -0.000002798915 Rises=F Damp=F
 DIIS: error= 1.34D-06 at cycle   1 NSaved=   1.
 NSaved= 1 IEnMin= 1 EnMin= -151.602017991913     IErMin= 1 ErrMin= 1.34D-06
 ErrMax= 1.34D-06  0.00D+00 EMaxC= 1.00D-01 BMatC= 1.28D-10 BMatP= 1.28D-10
 IDIUse=1 WtCom= 1.00D+00 WtEn= 0.00D+00
 Coeff-Com:  0.100D+01
 Coeff:      0.100D+01
 Gap=     0.274 Goal=   None    Shift=    0.000
 RMSDP=2.49D-06 MaxDP=2.27D-05 DE=-2.80D-06 OVMax= 6.97D-06

 Cycle   7  Pass 1  IDiag  1:
 E= -151.602017992075     Delta-E=       -0.000000000161 Rises=F Damp=F
[...]
 (Enter /cm/shared/c3ddb/gaussian/09.d01/g09/l508.exe)
 QCSCF skips out because SCF is already converged.
 Leave Link  508 at Fri Mar 15 15:35:15 2019, MaxMem=   196608000 cpu:         0.0
 (Enter /cm/shared/c3ddb/gaussian/09.d01/g09/l701.exe)
 Compute integral first derivatives.
 ... and contract with generalized density number  0.
 Leave Link  701 at Fri Mar 15 15:35:17 2019, MaxMem=   196608000 cpu:         7.7
 (Enter /cm/shared/c3ddb/gaussian/09.d01/g09/l702.exe)
 L702 exits ... SP integral derivatives will be done elsewhere.
 Leave Link  702 at Fri Mar 15 15:35:17 2019, MaxMem=   196608000 cpu:         0.2
 (Enter /cm/shared/c3ddb/gaussian/09.d01/g09/l703.exe)
 Compute integral first derivatives, UseDBF=F ICtDFT=           0.
 Integral derivatives from FoFJK, PRISM(SPDF).
 Calling FoFJK, ICntrl=      2127 FMM=F ISym2X=1 I1Cent= 0 IOpClX= 0 NMat=1 NMatS=1 NMatT=0.
 FoFJK:  IHMeth= 1 ICntrl=    2127 DoSepK=F KAlg= 0 I1Cent=   0 FoldK=F
 IRaf=         0 NMat=   1 IRICut=       1 DoRegI=T DoRafI=F ISym2E= 1.
 FoFCou: FMM=F IPFlag=           0 FMFlag=      100000 FMFlg1=         800
         NFxFlg=           0 DoJE=F BraDBF=F KetDBF=F FulRan=T
         wScrn=  0.000000 ICntrl=    2127 IOpCl=  0 I1Cent=           0 NGrid=           0
         NMat0=    1 NMatS0=      1 NMatT0=    0 NMatD0=    1 NMtDS0=    0 NMtDT0=    0
 Petite list used in FoFCou.
 Leave Link  703 at Fri Mar 15 15:35:18 2019, MaxMem=   196608000 cpu:         7.5
 (Enter /cm/shared/c3ddb/gaussian/09.d01/g09/l716.exe)
 Dipole        =-6.66133815D-16 6.66133815D-16-7.03623472D-01
 ***** Axes restored to original set *****
 -------------------------------------------------------------------
 Center     Atomic                   Forces (Hartrees/Bohr)
 Number     Number              X              Y              Z
 -------------------------------------------------------------------
      1        8           0.000032618   -0.000074580   -0.000115701
      2        8          -0.000032618    0.000074580   -0.000115701
      3        1          -0.000029944    0.000072658    0.000115701
      4        1           0.000029944   -0.000072658    0.000115701
 -------------------------------------------------------------------
 Cartesian Forces:  Max     0.000115701 RMS     0.000081215
 Leave Link  716 at Fri Mar 15 15:35:18 2019, MaxMem=   196608000 cpu:         0.2
 (Enter /cm/shared/c3ddb/gaussian/09.d01/g09/l103.exe)

 GradGradGradGradGradGradGradGradGradGradGradGradGradGradGradGradGradGrad
 Berny optimization.
 Using GEDIIS/GDIIS optimizer.
 FormGI is forming the generalized inverse of G from B-inverse, IUseBI=4.
 Internal  Forces:  Max     0.000249755 RMS     0.000103008
 Search for a local minimum.
 Step number   2 out of a maximum of   20 on scan point    46 out of    46
 All quantities printed in internal units (Hartrees-Bohrs-Radians)
 RMS Force = .16037D-04 SwitMx=.10000D-02 MixMth= 2
 Mixed Optimization -- En-DIIS/RFO-DIIS
 Update second derivatives using D2CorX and points    1    2
 DE= -7.90D-06 DEPred=-8.06D-06 R= 9.81D-01
 TightC=F SS=  1.41D+00  RLast= 9.28D-03 DXNew= 1.4142D-01 2.7840D-02
 Trust test= 9.81D-01 RLast= 9.28D-03 DXMaxT set to 8.41D-02
 The second derivative matrix:
                          R1        R2        R3        A1        A2
           R1           0.30104
           R2          -0.00559   0.52726
           R3          -0.00559   0.00019   0.52726
           A1           0.06725  -0.00684  -0.00068   0.22390
           A2           0.06725  -0.00068  -0.00684   0.01968   0.22390
           D1           0.03399  -0.00460  -0.00460   0.01873   0.01873
                          D1
           D1           0.01354
 ITU=  1  0
 Use linear search instead of GDIIS.
     Eigenvalues ---    0.17295   0.20410   0.37092   0.52718   0.52821
     Eigenvalues --- 1000.00000
 RFO step:  Lambda= 0.00000000D+00 EMin= 1.72945096D-01
 Quartic linear search produced a step of -0.01782.
 Iteration  1 RMS(Cart)=  0.00008030 RMS(Int)=  0.00000000
 Iteration  2 RMS(Cart)=  0.00000000 RMS(Int)=  0.00000000
 Iteration  1 RMS(Cart)=  0.00000000 RMS(Int)=  0.00000000
 ITry= 1 IFail=0 DXMaxC= 1.08D-04 DCOld= 1.00D+10 DXMaxT= 8.41D-02 DXLimC= 3.00D+00 Rises=F
 ClnCor:  largest displacement from symmetrization is 4.34D-15 for atom     4.
 Variable       Old X    -DE/DX   Delta X   Delta X   Delta X     New X
                                 (Linear)    (Quad)   (Total)
    R1        2.74699   0.00000  -0.00006   0.00001  -0.00004   2.74694
    R2        1.82797   0.00001   0.00001   0.00001   0.00002   1.82800
    R3        1.82797   0.00001   0.00001   0.00001   0.00002   1.82800
    A1        1.75491   0.00002   0.00011   0.00000   0.00011   1.75502
    A2        1.75491   0.00002   0.00011   0.00000   0.00011   1.75502
    D1        2.08040   0.00025   0.00000   0.00000   0.00000   2.08040
         Item               Value     Threshold  Converged?
 Maximum Force            0.000023     0.000450     YES
 RMS     Force            0.000016     0.000300     YES
 Maximum Displacement     0.000108     0.001800     YES
 RMS     Displacement     0.000080     0.001200     YES
 Predicted change in Energy=-2.664646D-09
 Optimization completed.
    -- Stationary point found.
                           ----------------------------
                           !   Optimized Parameters   !
                           ! (Angstroms and Degrees)  !
 --------------------------                            --------------------------
 ! Name  Definition              Value          Derivative Info.                !
 --------------------------------------------------------------------------------
 ! R1    R(1,2)                  1.4536         -DE/DX =    0.0                 !
 ! R2    R(1,3)                  0.9673         -DE/DX =    0.0                 !
 ! R3    R(2,4)                  0.9673         -DE/DX =    0.0                 !
 ! A1    A(2,1,3)              100.5492         -DE/DX =    0.0                 !
 ! A2    A(1,2,4)              100.5492         -DE/DX =    0.0                 !
 ! D1    D(3,1,2,4)            119.198          -DE/DX =    0.0002              !
 --------------------------------------------------------------------------------
 Lowest energy point so far.  Saving SCF results.
 GradGradGradGradGradGradGradGradGradGradGradGradGradGradGradGradGradGrad

 Summary of Optimized Potential Surface Scan
                           1         2         3         4         5
     Eigenvalues --  -151.60206-151.60202-151.60187-151.60165-151.60140
           R1           1.45361   1.45549   1.45737   1.45913   1.46069
           R2           0.96735   0.96704   0.96677   0.96657   0.96643
           R3           0.96735   0.96704   0.96677   0.96657   0.96643
           A1         100.55120 100.24014  99.94536  99.69638  99.49005
           A2         100.55120 100.24014  99.94536  99.69638  99.49005
           D1         119.19801 127.19801 135.19801 143.19801 151.19801
                           6         7         8         9        10
     Eigenvalues --  -151.60117-151.60099-151.60089-151.60088-151.60096
           R1           1.46195   1.46194   1.46285   1.46333   1.46338
           R2           0.96633   0.96634   0.96627   0.96625   0.96625
           R3           0.96633   0.96634   0.96627   0.96625   0.96625
           A1          99.33108  99.33314  99.22286  99.16599  99.16151
           A2          99.33108  99.33314  99.22286  99.16599  99.16151
           D1         159.19801 167.19801 175.19801-176.80199-168.80199
                          11        12        13        14        15
     Eigenvalues --  -151.60113-151.60135-151.60160-151.60183-151.60200
           R1           1.46298   1.46097   1.45946   1.45773   1.45587
           R2           0.96627   0.96641   0.96654   0.96673   0.96697
           R3           0.96627   0.96641   0.96654   0.96673   0.96697
           A1          99.20864  99.45538  99.65246  99.89319 100.17202
           A2          99.20864  99.45538  99.65246  99.89319 100.17202
           D1        -160.80199-152.80199-144.80199-136.80199-128.80199
                          16        17        18        19        20
     Eigenvalues --  -151.60207-151.60198-151.60171-151.60122-151.60051
           R1           1.45400   1.45226   1.45078   1.44969   1.44908
           R2           0.96726   0.96759   0.96793   0.96827   0.96856
           R3           0.96726   0.96759   0.96793   0.96827   0.96856
           A1         100.48353 100.82251 101.18392 101.56198 101.94838
           A2         100.48353 100.82251 101.18392 101.56198 101.94838
           D1        -120.80199-112.80199-104.80199 -96.80199 -88.80199
                          21        22        23        24        25
     Eigenvalues --  -151.59959-151.59848-151.59721-151.59582-151.59437
           R1           1.44902   1.44954   1.45060   1.45213   1.45399
           R2           0.96877   0.96887   0.96885   0.96874   0.96854
           R3           0.96877   0.96887   0.96885   0.96874   0.96854
           A1         102.33380 102.71401 103.09046 103.46484 103.83541
           A2         102.33380 102.71401 103.09046 103.46484 103.83541
           D1         -80.80199 -72.80199 -64.80199 -56.80199 -48.80199
                          26        27        28        29        30
     Eigenvalues --  -151.59292-151.59156-151.59038-151.58944-151.58882
           R1           1.45604   1.45808   1.45995   1.46145   1.46244
           R2           0.96829   0.96803   0.96778   0.96759   0.96746
           R3           0.96829   0.96803   0.96778   0.96759   0.96746
           A1         104.19600 104.53351 104.83163 105.07199 105.23364
           A2         104.19600 104.53351 104.83163 105.07199 105.23364
           D1         -40.80199 -32.80199 -24.80199 -16.80199  -8.80199
                          31        32        33        34        35
     Eigenvalues --  -151.58858-151.58874-151.58929-151.59017-151.59131
           R1           1.46284   1.46284   1.46171   1.46030   1.45849
           R2           0.96742   0.96742   0.96756   0.96774   0.96797
           R3           0.96742   0.96742   0.96756   0.96774   0.96797
           A1         105.29731 105.29735 105.11192 104.88546 104.59752
           A2         105.29731 105.29735 105.11192 104.88546 104.59752
           D1          -0.80199   7.19801  15.19801  23.19801  31.19801
                          36        37        38        39        40
     Eigenvalues --  -151.59264-151.59408-151.59553-151.59694-151.59824
           R1           1.45646   1.45439   1.45247   1.45087   1.44970
           R2           0.96824   0.96849   0.96870   0.96883   0.96887
           R3           0.96824   0.96849   0.96870   0.96883   0.96887
           A1         104.26703 103.90999 103.54061 103.16661 102.79038
           A2         104.26703 103.90999 103.54061 103.16661 102.79038
           D1          39.19801  47.19801  55.19801  63.19801  71.19801
                          41        42        43        44        45
     Eigenvalues --  -151.59939-151.60034-151.60109-151.60163-151.60194
           R1           1.44907   1.44901   1.44952   1.45053   1.45194
           R2           0.96880   0.96862   0.96834   0.96801   0.96766
           R3           0.96880   0.96862   0.96834   0.96801   0.96766
           A1         102.41075 102.02607 101.63897 101.25826 100.89302
           A2         102.41075 102.02607 101.63897 101.25826 100.89302
           D1          79.19801  87.19801  95.19801 103.19801 111.19801
                          46
     Eigenvalues --  -151.60206
           R1           1.45364
           R2           0.96732
           R3           0.96732
           A1         100.54918
           A2         100.54918
           D1         119.19801
 Largest change from initial coordinates is atom    3       1.844 Angstoms.
 Leave Link  103 at Fri Mar 15 15:35:19 2019, MaxMem=   196608000 cpu:         5.1
 (Enter /cm/shared/c3ddb/gaussian/09.d01/g09/l202.exe)
                          Input orientation:                          
 ---------------------------------------------------------------------
 Center     Atomic      Atomic             Coordinates (Angstroms)
 Number     Number       Type             X           Y           Z
 ---------------------------------------------------------------------
      1          8           0        0.609387    0.396127    0.426454
      2          8           0       -0.609387   -0.396127    0.426454
      3          1           0        0.310840    1.180341   -0.054785
      4          1           0       -0.310840   -1.180341   -0.054785
 ---------------------------------------------------------------------
                    Distance matrix (angstroms):
                    1          2          3          4
     1  O    0.000000
     2  O    1.453643   0.000000
     3  H    0.967323   1.887766   0.000000
     4  H    1.887766   0.967323   2.441170   0.000000
 Stoichiometry    H2O2
 Framework group  C2[X(H2O2)]
 Deg. of freedom     4
 Full point group                 C2      NOp   2
 RotChk:  IX=2 Diff= 4.44D-16
 Largest Abelian subgroup         C2      NOp   2
 Largest concise Abelian subgroup C2      NOp   2
                         Standard orientation:                         
 ---------------------------------------------------------------------
 Center     Atomic      Atomic             Coordinates (Angstroms)
 Number     Number       Type             X           Y           Z
 ---------------------------------------------------------------------
      1          8           0        0.000000    0.726821    0.053471
      2          8           0        0.000000   -0.726821    0.053471
      3          1           0       -0.820219    0.903918   -0.427768
      4          1           0        0.820219   -0.903918   -0.427768
 ---------------------------------------------------------------------
 Rotational constants (GHZ):    303.3064438     26.4399000     25.3931029
 Leave Link  202 at Fri Mar 15 15:35:19 2019, MaxMem=   196608000 cpu:         0.6
 (Enter /cm/shared/c3ddb/gaussian/09.d01/g09/l601.exe)
 Copying SCF densities to generalized density rwf, IOpCl= 0 IROHF=0.

 **********************************************************************

            Population analysis using the SCF density.

 **********************************************************************

 Orbital symmetries:
       Occupied  (A) (B) (A) (B) (A) (B) (A) (A) (B)
       Virtual   (B) (A) (B) (A) (B) (A) (A) (B) (B) (A) (B) (A)
                 (B) (B) (A) (B) (A) (B) (A) (B) (A) (A) (B) (B)
                 (A) (A) (B) (B) (A) (A) (A) (B) (A) (B) (B) (A)
                 (B) (A) (B) (A) (A) (B) (B) (A) (B) (A) (B)
 The electronic state is 1-A.
 Alpha  occ. eigenvalues --  -19.19419 -19.19413  -1.13574  -0.91669  -0.54817
 Alpha  occ. eigenvalues --   -0.50990  -0.43500  -0.34319  -0.29525
 Alpha virt. eigenvalues --   -0.01614   0.02147   0.07187   0.14058   0.14401
 Alpha virt. eigenvalues --    0.17143   0.18657   0.18729   0.20250   0.25774
 Alpha virt. eigenvalues --    0.31284   0.46139   0.47660   0.92493   0.95096
 Alpha virt. eigenvalues --    0.95186   0.95909   1.02413   1.05783   1.26624
 Alpha virt. eigenvalues --    1.27050   1.38403   1.41448   1.50050   1.59326
 Alpha virt. eigenvalues --    1.95733   1.99561   2.40230   2.49185   2.54661
 Alpha virt. eigenvalues --    2.61646   2.74872   3.07175   3.09636   3.19250
 Alpha virt. eigenvalues --    3.30335   3.61081   3.72390   3.85393   4.73412
 Alpha virt. eigenvalues --    4.87556   4.92174   5.29597   5.44690   5.59622
 Alpha virt. eigenvalues --   49.76677  49.80179
          Condensed to atoms (all electrons):
               1          2          3          4
     1  O    7.977112   0.074343   0.241897  -0.033206
     2  O    0.074343   7.977112  -0.033206   0.241897
     3  H    0.241897  -0.033206   0.527047   0.004113
     4  H   -0.033206   0.241897   0.004113   0.527047
 Mulliken charges:
               1
     1  O   -0.260147
     2  O   -0.260147
     3  H    0.260147
     4  H    0.260147
 Sum of Mulliken charges =   0.00000
 Mulliken charges with hydrogens summed into heavy atoms:
               1
     1  O    0.000000
     2  O    0.000000
 Electronic spatial extent (au):  <R**2>=             67.3229
 Charge=              0.0000 electrons
 Dipole moment (field-independent basis, Debye):
    X=              0.0000    Y=              0.0000    Z=             -1.7884  Tot=              1.7884
 Quadrupole moment (field-independent basis, Debye-Ang):
   XX=             -9.6422   YY=            -11.7784   ZZ=            -12.2433
   XY=             -3.2507   XZ=              0.0000   YZ=              0.0000
 Traceless Quadrupole moment (field-independent basis, Debye-Ang):
   XX=              1.5791   YY=             -0.5571   ZZ=             -1.0219
   XY=             -3.2507   XZ=              0.0000   YZ=              0.0000
 Octapole moment (field-independent basis, Debye-Ang**2):
  XXX=              0.0000  YYY=              0.0000  ZZZ=             -1.1238  XYY=              0.0000
  XXY=              0.0000  XXZ=             -1.3834  XZZ=              0.0000  YZZ=              0.0000
  YYZ=             -1.9664  XYZ=              1.6850
 Hexadecapole moment (field-independent basis, Debye-Ang**3):
 XXXX=            -10.9941 YYYY=            -47.0211 ZZZZ=            -12.0161 XXXY=             -0.6032
 XXXZ=              0.0000 YYYX=             -1.6097 YYYZ=              0.0000 ZZZX=              0.0000
 ZZZY=              0.0000 XXYY=             -8.8141 XXZZ=             -3.5990 YYZZ=            -10.7592
 XXYZ=              0.0000 YYXZ=              0.0000 ZZXY=             -0.0369
 N-N= 3.675299206540D+01 E-N=-4.323922256288D+02  KE= 1.511992285109D+02
 Symmetry A    KE= 7.742293278190D+01
 Symmetry B    KE= 7.377629572900D+01
 No NMR shielding tensors so no spin-rotation constants.
 Leave Link  601 at Fri Mar 15 15:35:20 2019, MaxMem=   196608000 cpu:         6.5
 (Enter /cm/shared/c3ddb/gaussian/09.d01/g09/l9999.exe)

 Test job not archived.
 1\1\GINC-NODE019\Scan\RB3LYP\6-311+G(d,p)\H2O2\ALONGD\15-Mar-2019\0\\#
 P opt=(modredundant, calcfc, noeigentest, maxStep=5) scf=(tight, direc
 t) integral=(grid=ultrafine, Acc2E=12) b3lyp/6-311+g(d,p) scf=xqc IOp(
 2/11=1)\\name\\0,1\O,0.6093871681,0.3961269849,0.4264538423\O,-0.60938
 71681,-0.3961269849,0.4264538423\H,0.3108402805,1.1803413081,-0.054784
 8423\H,-0.3108402805,-1.1803413081,-0.0547848423\\Version=AS64L-G09Rev
 D.01\State=1-A\HF=-151.6020631,-151.602025,-151.6018718,-151.6016497,-
 151.6014031,-151.6011718,-151.6009895,-151.6008863,-151.6008768,-151.6
 009625,-151.6011297,-151.6013543,-151.6016009,-151.6018313,-151.602002
 ,-151.6020669,-151.601981,-151.6017063,-151.6012183,-151.6005108,-151.
 5995932,-151.5984847,-151.597214,-151.5958229,-151.5943688,-151.592922
 8,-151.5915648,-151.5903765,-151.5894379,-151.5888211,-151.588581,-151
 .5887413,-151.5892864,-151.5901659,-151.5913103,-151.5926409,-151.5940
 758,-151.5955343,-151.5969431,-151.5982418,-151.5993855,-151.6003432,-
 151.6010939,-151.601626,-151.6019421,-151.6020631\RMSD=4.046e-09,4.236
 e-09,4.335e-09,4.120e-09,3.753e-09,3.142e-09,6.625e-09,8.732e-09,7.359
 e-09,7.903e-09,7.240e-09,2.656e-09,3.128e-09,3.449e-09,3.625e-09,3.668
 e-09,3.673e-09,3.742e-09,3.886e-09,3.930e-09,3.902e-09,3.930e-09,4.093
 e-09,4.290e-09,4.376e-09,4.254e-09,3.867e-09,3.240e-09,2.445e-09,9.942
 e-09,4.572e-09,9.008e-09,8.768e-09,2.443e-09,3.309e-09,3.962e-09,4.355
 e-09,4.464e-09,4.352e-09,4.133e-09,3.951e-09,3.895e-09,3.924e-09,3.991
 e-09,4.065e-09,4.233e-09\PG=C02 [X(H2O2)]\\@


 At the touch of love, everyone becomves a poet.
                                -- Plato
 Job cpu time:       0 days  2 hours  6 minutes 46.2 seconds.
 File lengths (MBytes):  RWF=      5 Int=      0 D2E=      0 Chk=      3 Scr=      1
 Normal termination of Gaussian 09 at Fri Mar 15 15:35:21 2019.
