 Entering Gaussian System, Link 0=g09
 Initial command:
 /cm/shared/c3ddb/gaussian/09.d01/g09/l1.exe "/scratch/users/alongd/g09/a16778-7359102/Gau-29555.inp" -scrdir="/scratch/users/alongd/g09/a16778-7359102/"
 Entering Link 1 = /cm/shared/c3ddb/gaussian/09.d01/g09/l1.exe PID=     29556.
  
 Copyright (c) 1988,1990,1992,1993,1995,1998,2003,2009,2013,
            Gaussian, Inc.  All Rights Reserved.
  
 This is part of the Gaussian(R) 09 program.  It is based on
 the Gaussian(R) 03 system (copyright 2003, Gaussian, Inc.),
 the Gaussian(R) 98 system (copyright 1998, Gaussian, Inc.),
 the Gaussian(R) 94 system (copyright 1995, Gaussian, Inc.),
 the Gaussian 92(TM) system (copyright 1992, Gaussian, Inc.),
 the Gaussian 90(TM) system (copyright 1990, Gaussian, Inc.),
 the Gaussian 88(TM) system (copyright 1988, Gaussian, Inc.),
 the Gaussian 86(TM) system (copyright 1986, Carnegie Mellon
 University), and the Gaussian 82(TM) system (copyright 1983,
 Carnegie Mellon University). Gaussian is a federally registered
 trademark of Gaussian, Inc.
  
 This software contains proprietary and confidential information,
 including trade secrets, belonging to Gaussian, Inc.
  
 This software is provided under written license and may be
 used, copied, transmitted, or stored only in accord with that
 written license.
  
 The following legend is applicable only to US Government
 contracts under FAR:
  
                    RESTRICTED RIGHTS LEGEND
  
 Use, reproduction and disclosure by the US Government is
 subject to restrictions as set forth in subparagraphs (a)
 and (c) of the Commercial Computer Software - Restricted
 Rights clause in FAR 52.227-19.
  
 Gaussian, Inc.
 340 Quinnipiac St., Bldg. 40, Wallingford CT 06492
  
  
 ---------------------------------------------------------------
 Warning -- This program may not be used in any manner that
 competes with the business of Gaussian, Inc. or will provide
 assistance to any competitor of Gaussian, Inc.  The licensee
 of this program is prohibited from giving any competitor of
 Gaussian, Inc. access to this program.  By using this program,
 the user acknowledges that Gaussian, Inc. is engaged in the
 business of creating and licensing software in the field of
 computational chemistry and represents and warrants to the
 licensee that it is not a competitor of Gaussian, Inc. and that
 it will not use this program in any manner prohibited above.
 ---------------------------------------------------------------
  

 Cite this work as:
 Gaussian 09, Revision D.01,
 M. J. Frisch, G. W. Trucks, H. B. Schlegel, G. E. Scuseria, 
 M. A. Robb, J. R. Cheeseman, G. Scalmani, V. Barone, B. Mennucci, 
 G. A. Petersson, H. Nakatsuji, M. Caricato, X. Li, H. P. Hratchian, 
 A. F. Izmaylov, J. Bloino, G. Zheng, J. L. Sonnenberg, M. Hada, 
 M. Ehara, K. Toyota, R. Fukuda, J. Hasegawa, M. Ishida, T. Nakajima, 
 Y. Honda, O. Kitao, H. Nakai, T. Vreven, J. A. Montgomery, Jr., 
 J. E. Peralta, F. Ogliaro, M. Bearpark, J. J. Heyd, E. Brothers, 
 K. N. Kudin, V. N. Staroverov, T. Keith, R. Kobayashi, J. Normand, 
 K. Raghavachari, A. Rendell, J. C. Burant, S. S. Iyengar, J. Tomasi, 
 M. Cossi, N. Rega, J. M. Millam, M. Klene, J. E. Knox, J. B. Cross, 
 V. Bakken, C. Adamo, J. Jaramillo, R. Gomperts, R. E. Stratmann, 
 O. Yazyev, A. J. Austin, R. Cammi, C. Pomelli, J. W. Ochterski, 
 R. L. Martin, K. Morokuma, V. G. Zakrzewski, G. A. Voth, 
 P. Salvador, J. J. Dannenberg, S. Dapprich, A. D. Daniels, 
 O. Farkas, J. B. Foresman, J. V. Ortiz, J. Cioslowski, 
 and D. J. Fox, Gaussian, Inc., Wallingford CT, 2013.
 
 ******************************************
 Gaussian 09:  AS64L-G09RevD.01 24-Apr-2013
                19-Feb-2019 
 ******************************************
 %chk=check.chk
 %mem=1500mb
 %nproc=8
 Will use up to    8 processors via shared memory.
 ----------------------------------------------------------------------
 #P opt=(modredundant, calcfc, noeigentest) ub3lyp/6-311+g(d,p) scf=xqc
 ----------------------------------------------------------------------
 1/10=4,11=1,14=-1,18=120,19=15,26=3,38=1/1,3;
 2/9=110,12=2,17=6,18=5,40=1/2;
 3/5=4,6=6,7=111,11=2,16=1,25=1,30=1,71=2,74=-5,116=2,140=1/1,2,3;
 4//1;
 5/5=2,8=3,13=1,38=5/2,8;
 8/6=4,10=90,11=11/1;
 11/6=1,8=1,9=11,15=111,16=1/1,2,10;
 10/6=1,13=1/2;
 6/7=2,8=2,9=2,10=2,28=1/1;
 7/10=1,18=20,25=1/1,2,3,16;
 1/10=4,11=1,14=-1,18=20,19=15,26=3/3(2);
 2/9=110/2;
 99//99;
 2/9=110/2;
 3/5=4,6=6,7=111,11=2,16=1,25=1,30=1,71=1,74=-5,116=2/1,2,3;
 4/5=5,16=3,69=1/1;
 5/5=2,8=3,13=1,38=5/2,8;
 7//1,2,3,16;
 1/11=1,14=-1,18=20,19=15,26=3/3(-5);
 2/9=110/2;
 6/7=2,8=2,9=2,10=2,19=2,28=1/1;
 99/9=1/99;
 Leave Link    1 at Tue Feb 19 10:36:32 2019, MaxMem=   196608000 cpu:         0.8
 (Enter /cm/shared/c3ddb/gaussian/09.d01/g09/l101.exe)
 ----
 name
 ----
 Symbolic Z-matrix:
 Charge =  0 Multiplicity = 2
 N                    -0.57412  -0.00739  -0.00383 
 N                     0.74727   0.20696  -0.11978 
 H                    -1.11521   0.82619   0.16336 
 H                    -0.93404  -0.84976   0.42657 
 H                     1.18505  -0.71608  -0.10237 
 
 The following ModRedundant input section has been read:
 D       3       1       2       5 S  45 8.0000                                
 
 Add atom      1 valence  3 ND=      2 dihedral       2      1      3      4
 NAtoms=      5 NQM=        5 NQMF=       0 NMMI=      0 NMMIF=      0
                NMic=       0 NMicF=      0.
                    Isotopes and Nuclear Properties:
 (Nuclear quadrupole moments (NQMom) in fm**2, nuclear magnetic moments (NMagM)
  in nuclear magnetons)

  Atom         1           2           3           4           5
 IAtWgt=          14          14           1           1           1
 AtmWgt=  14.0030740  14.0030740   1.0078250   1.0078250   1.0078250
 NucSpn=           2           2           1           1           1
 AtZEff=   0.0000000   0.0000000   0.0000000   0.0000000   0.0000000
 NQMom=    2.0440000   2.0440000   0.0000000   0.0000000   0.0000000
 NMagM=    0.4037610   0.4037610   2.7928460   2.7928460   2.7928460
 AtZNuc=   7.0000000   7.0000000   1.0000000   1.0000000   1.0000000
 Leave Link  101 at Tue Feb 19 10:36:32 2019, MaxMem=   196608000 cpu:         1.1
 (Enter /cm/shared/c3ddb/gaussian/09.d01/g09/l103.exe)

 GradGradGradGradGradGradGradGradGradGradGradGradGradGradGradGradGradGrad
 Berny optimization.
 Initialization pass.
                           ----------------------------
                           !    Initial Parameters    !
                           ! (Angstroms and Degrees)  !
 --------------------------                            --------------------------
 ! Name  Definition              Value          Derivative Info.                !
 --------------------------------------------------------------------------------
 ! R1    R(1,2)                  1.3437         calculate D2E/DX2 analytically  !
 ! R2    R(1,3)                  1.0078         calculate D2E/DX2 analytically  !
 ! R3    R(1,4)                  1.0121         calculate D2E/DX2 analytically  !
 ! R4    R(2,5)                  1.0217         calculate D2E/DX2 analytically  !
 ! A1    A(2,1,3)              114.2285         calculate D2E/DX2 analytically  !
 ! A2    A(2,1,4)              121.2779         calculate D2E/DX2 analytically  !
 ! A3    A(3,1,4)              115.2738         calculate D2E/DX2 analytically  !
 ! A4    A(1,2,5)              106.0075         calculate D2E/DX2 analytically  !
 ! D1    D(3,1,2,5)            169.2984         Scan                            !
 ! D2    D(4,1,2,5)             24.0956         calculate D2E/DX2 analytically  !
 ! D3    D(2,1,3,4)           -147.3599         calculate D2E/DX2 analytically  !
 --------------------------------------------------------------------------------
 Trust Radius=3.00D-01 FncErr=1.00D-07 GrdErr=1.00D-06
 Number of optimizations in scan=  46
 Number of steps in this run=     21 maximum allowed number of steps=    100.
 GradGradGradGradGradGradGradGradGradGradGradGradGradGradGradGradGradGrad

 Leave Link  103 at Tue Feb 19 10:36:33 2019, MaxMem=   196608000 cpu:         0.1
 (Enter /cm/shared/c3ddb/gaussian/09.d01/g09/l202.exe)
                          Input orientation:                          
 ---------------------------------------------------------------------
 Center     Atomic      Atomic             Coordinates (Angstroms)
 Number     Number       Type             X           Y           Z
 ---------------------------------------------------------------------
      1          7           0       -0.574115   -0.007393   -0.003832
      2          7           0        0.747272    0.206962   -0.119775
      3          1           0       -1.115208    0.826192    0.163357
      4          1           0       -0.934041   -0.849759    0.426565
      5          1           0        1.185046   -0.716081   -0.102369
 ---------------------------------------------------------------------
                    Distance matrix (angstroms):
                    1          2          3          4          5
     1  N    0.000000
     2  N    1.343672   0.000000
     3  H    1.007769   1.983038   0.000000
     4  H    1.012111   2.059602   1.706139   0.000000
     5  H    1.899104   1.021742   2.782155   2.188189   0.000000
 Stoichiometry    H3N2(2)
 Framework group  C1[X(H3N2)]
 Deg. of freedom     9
 Full point group                 C1      NOp   1
 Largest Abelian subgroup         C1      NOp   1
 Largest concise Abelian subgroup C1      NOp   1
                         Standard orientation:                         
 ---------------------------------------------------------------------
 Center     Atomic      Atomic             Coordinates (Angstroms)
 Number     Number       Type             X           Y           Z
 ---------------------------------------------------------------------
      1          7           0        0.592436    0.024531   -0.066345
      2          7           0       -0.736730   -0.150973    0.022922
      3          1           0        1.133368   -0.799750    0.142347
      4          1           0        1.025116    0.902224    0.192135
      5          1           0       -1.148427    0.782626   -0.030525
 ---------------------------------------------------------------------
 Rotational constants (GHZ):    206.4531353     30.9253891     27.2280582
 Leave Link  202 at Tue Feb 19 10:36:33 2019, MaxMem=   196608000 cpu:         0.4
 (Enter /cm/shared/c3ddb/gaussian/09.d01/g09/l301.exe)
 Standard basis: 6-311+G(d,p) (5D, 7F)
 Ernie: Thresh=  0.10000D-02 Tol=  0.10000D-05 Strict=F.
 There are    64 symmetry adapted cartesian basis functions of A   symmetry.
 There are    62 symmetry adapted basis functions of A   symmetry.
    62 basis functions,    96 primitive gaussians,    64 cartesian basis functions
     9 alpha electrons        8 beta electrons
       nuclear repulsion energy        36.6178470527 Hartrees.
 IExCor=  402 DFT=T Ex+Corr=B3LYP ExCW=0 ScaHFX=  0.200000
 ScaDFX=  0.800000  0.720000  1.000000  0.810000 ScalE2=  1.000000  1.000000
 IRadAn=      0 IRanWt=     -1 IRanGd=            0 ICorTp=0 IEmpDi=  4
 NAtoms=    5 NActive=    5 NUniq=    5 SFac= 1.00D+00 NAtFMM=   60 NAOKFM=F Big=F
 Integral buffers will be    131072 words long.
 Raffenetti 2 integral format.
 Two-electron integral symmetry is turned on.
 Leave Link  301 at Tue Feb 19 10:36:33 2019, MaxMem=   196608000 cpu:         1.0
 (Enter /cm/shared/c3ddb/gaussian/09.d01/g09/l302.exe)
 NPDir=0 NMtPBC=     1 NCelOv=     1 NCel=       1 NClECP=     1 NCelD=      1
         NCelK=      1 NCelE2=     1 NClLst=     1 CellRange=     0.0.
 One-electron integrals computed using PRISM.
 NBasis=    62 RedAO= T EigKep=  3.73D-04  NBF=    62
 NBsUse=    62 1.00D-06 EigRej= -1.00D+00 NBFU=    62
 Precomputing XC quadrature grid using
 IXCGrd= 4 IRadAn=           0 IRanWt=          -1 IRanGd=           0 AccXCQ= 0.00D+00.
 Generated NRdTot=       0 NPtTot=           0 NUsed=           0 NTot=          32
 NSgBfM=    64    64    64    64    64 MxSgAt=     5 MxSgA2=     5.
 Leave Link  302 at Tue Feb 19 10:36:34 2019, MaxMem=   196608000 cpu:         3.2
 (Enter /cm/shared/c3ddb/gaussian/09.d01/g09/l303.exe)
 DipDrv:  MaxL=1.
 Leave Link  303 at Tue Feb 19 10:36:34 2019, MaxMem=   196608000 cpu:         1.5
 (Enter /cm/shared/c3ddb/gaussian/09.d01/g09/l401.exe)
 ExpMin= 6.39D-02 ExpMax= 6.29D+03 ExpMxC= 9.49D+02 IAcc=2 IRadAn=         4 AccDes= 0.00D+00
 Harris functional with IExCor=  402 and IRadAn=       4 diagonalized for initial guess.
 HarFok:  IExCor=  402 AccDes= 0.00D+00 IRadAn=         4 IDoV= 1 UseB2=F ITyADJ=14
 ICtDFT=  3500011 ScaDFX=  1.000000  1.000000  1.000000  1.000000
 FoFCou: FMM=F IPFlag=           0 FMFlag=      100000 FMFlg1=           0
         NFxFlg=           0 DoJE=T BraDBF=F KetDBF=T FulRan=T
         wScrn=  0.000000 ICntrl=     500 IOpCl=  0 I1Cent=   200000004 NGrid=           0
         NMat0=    1 NMatS0=      1 NMatT0=    0 NMatD0=    1 NMtDS0=    0 NMtDT0=    0
 Petite list used in FoFCou.
 Harris En= -111.249456029891    
 JPrj=0 DoOrth=F DoCkMO=F.
 Initial guess <Sx>= 0.0000 <Sy>= 0.0000 <Sz>= 0.5000 <S**2>= 0.7500 S= 0.5000
 Leave Link  401 at Tue Feb 19 10:36:35 2019, MaxMem=   196608000 cpu:         6.3
 (Enter /cm/shared/c3ddb/gaussian/09.d01/g09/l502.exe)
 UHF open shell SCF:
 Using DIIS extrapolation, IDIIS=  1040.
 Integral symmetry usage will be decided dynamically.
 Keep R1 and R2 ints in memory in canonical form, NReq=4720884.
 IVT=       19222 IEndB=       19222 NGot=   196608000 MDV=   192772617
 LenX=   192772617 LenY=   192768080
 Requested convergence on RMS density matrix=1.00D-08 within  64 cycles.
 Requested convergence on MAX density matrix=1.00D-06.
 Requested convergence on             energy=1.00D-06.
 No special actions if energy rises.
 FoFCou: FMM=F IPFlag=           0 FMFlag=           0 FMFlg1=           0
         NFxFlg=           0 DoJE=F BraDBF=F KetDBF=F FulRan=T
         wScrn=  0.000000 ICntrl=     600 IOpCl=  0 I1Cent=           0 NGrid=           0
         NMat0=    1 NMatS0=   1953 NMatT0=    0 NMatD0=    1 NMtDS0=    0 NMtDT0=    0
 Symmetry not used in FoFCou.
 Integral accuracy reduced to 1.0D-05 until final iterations.

 Cycle   1  Pass 0  IDiag  1:
 E= -111.220052394130    
 DIIS: error= 2.35D-02 at cycle   1 NSaved=   1.
 NSaved= 1 IEnMin= 1 EnMin= -111.220052394130     IErMin= 1 ErrMin= 2.35D-02
 ErrMax= 2.35D-02  0.00D+00 EMaxC= 1.00D-01 BMatC= 2.54D-01 BMatP= 2.54D-01
 IDIUse=3 WtCom= 7.65D-01 WtEn= 2.35D-01
 Coeff-Com:  0.100D+01
 Coeff-En:   0.100D+01
 Coeff:      0.100D+01
 Gap=     0.120 Goal=   None    Shift=    0.000
 Gap=     0.227 Goal=   None    Shift=    0.000
 GapD=    0.120 DampG=1.000 DampE=0.500 DampFc=0.5000 IDamp=-1.
 Damping current iteration by 5.00D-01
 RMSDP=1.08D-02 MaxDP=1.75D-01              OVMax= 1.83D-01

 Cycle   2  Pass 0  IDiag  1:
 E= -111.239185063107     Delta-E=       -0.019132668978 Rises=F Damp=T
 DIIS: error= 8.62D-03 at cycle   2 NSaved=   2.
 NSaved= 2 IEnMin= 2 EnMin= -111.239185063107     IErMin= 2 ErrMin= 8.62D-03
 ErrMax= 8.62D-03  0.00D+00 EMaxC= 1.00D-01 BMatC= 2.24D-02 BMatP= 2.54D-01
 IDIUse=3 WtCom= 9.14D-01 WtEn= 8.62D-02
 Coeff-Com:  0.992D-01 0.901D+00
 Coeff-En:   0.229D+00 0.771D+00
 Coeff:      0.110D+00 0.890D+00
 Gap=     0.206 Goal=   None    Shift=    0.000
 Gap=     0.292 Goal=   None    Shift=    0.000
 RMSDP=2.10D-03 MaxDP=4.22D-02 DE=-1.91D-02 OVMax= 1.10D-01

 Cycle   3  Pass 0  IDiag  1:
 E= -111.270326186912     Delta-E=       -0.031141123805 Rises=F Damp=F
 DIIS: error= 7.80D-03 at cycle   3 NSaved=   3.
 NSaved= 3 IEnMin= 3 EnMin= -111.270326186912     IErMin= 3 ErrMin= 7.80D-03
 ErrMax= 7.80D-03  0.00D+00 EMaxC= 1.00D-01 BMatC= 7.00D-03 BMatP= 2.24D-02
 IDIUse=3 WtCom= 9.22D-01 WtEn= 7.80D-02
 Coeff-Com: -0.333D-01 0.325D+00 0.709D+00
 Coeff-En:   0.000D+00 0.000D+00 0.100D+01
 Coeff:     -0.307D-01 0.299D+00 0.731D+00
 Gap=     0.202 Goal=   None    Shift=    0.000
 Gap=     0.231 Goal=   None    Shift=    0.000
 RMSDP=6.46D-04 MaxDP=9.94D-03 DE=-3.11D-02 OVMax= 3.90D-02

 Cycle   4  Pass 0  IDiag  1:
 E= -111.271248739313     Delta-E=       -0.000922552400 Rises=F Damp=F
 DIIS: error= 4.39D-03 at cycle   4 NSaved=   4.
 NSaved= 4 IEnMin= 4 EnMin= -111.271248739313     IErMin= 4 ErrMin= 4.39D-03
 ErrMax= 4.39D-03  0.00D+00 EMaxC= 1.00D-01 BMatC= 3.46D-03 BMatP= 7.00D-03
 IDIUse=3 WtCom= 9.56D-01 WtEn= 4.39D-02
 Coeff-Com: -0.311D-01 0.106D+00 0.465D+00 0.460D+00
 Coeff-En:   0.000D+00 0.000D+00 0.279D+00 0.721D+00
 Coeff:     -0.298D-01 0.101D+00 0.457D+00 0.471D+00
 Gap=     0.204 Goal=   None    Shift=    0.000
 Gap=     0.235 Goal=   None    Shift=    0.000
 RMSDP=3.53D-04 MaxDP=4.87D-03 DE=-9.23D-04 OVMax= 1.20D-02

 Cycle   5  Pass 0  IDiag  1:
 E= -111.271894759349     Delta-E=       -0.000646020036 Rises=F Damp=F
 DIIS: error= 1.20D-03 at cycle   5 NSaved=   5.
 NSaved= 5 IEnMin= 5 EnMin= -111.271894759349     IErMin= 5 ErrMin= 1.20D-03
 ErrMax= 1.20D-03  0.00D+00 EMaxC= 1.00D-01 BMatC= 1.07D-04 BMatP= 3.46D-03
 IDIUse=3 WtCom= 9.88D-01 WtEn= 1.20D-02
 Coeff-Com: -0.505D-02-0.130D-01 0.599D-01 0.169D+00 0.790D+00
 Coeff-En:   0.000D+00 0.000D+00 0.000D+00 0.000D+00 0.100D+01
 Coeff:     -0.499D-02-0.128D-01 0.592D-01 0.167D+00 0.792D+00
 Gap=     0.204 Goal=   None    Shift=    0.000
 Gap=     0.235 Goal=   None    Shift=    0.000
 RMSDP=8.58D-05 MaxDP=1.27D-03 DE=-6.46D-04 OVMax= 6.01D-03

 Cycle   6  Pass 0  IDiag  1:
 E= -111.271930943652     Delta-E=       -0.000036184303 Rises=F Damp=F
 DIIS: error= 2.52D-04 at cycle   6 NSaved=   6.
 NSaved= 6 IEnMin= 6 EnMin= -111.271930943652     IErMin= 6 ErrMin= 2.52D-04
 ErrMax= 2.52D-04  0.00D+00 EMaxC= 1.00D-01 BMatC= 9.48D-06 BMatP= 1.07D-04
 IDIUse=3 WtCom= 9.97D-01 WtEn= 2.52D-03
 Coeff-Com:  0.431D-02-0.790D-02-0.440D-01-0.103D+00-0.110D+00 0.126D+01
 Coeff-En:   0.000D+00 0.000D+00 0.000D+00 0.000D+00 0.000D+00 0.100D+01
 Coeff:      0.430D-02-0.788D-02-0.439D-01-0.102D+00-0.109D+00 0.126D+01
 Gap=     0.205 Goal=   None    Shift=    0.000
 Gap=     0.236 Goal=   None    Shift=    0.000
 RMSDP=5.73D-05 MaxDP=9.58D-04 DE=-3.62D-05 OVMax= 2.08D-03

 Cycle   7  Pass 0  IDiag  1:
 E= -111.271935855423     Delta-E=       -0.000004911770 Rises=F Damp=F
 DIIS: error= 4.43D-05 at cycle   7 NSaved=   7.
 NSaved= 7 IEnMin= 7 EnMin= -111.271935855423     IErMin= 7 ErrMin= 4.43D-05
 ErrMax= 4.43D-05  0.00D+00 EMaxC= 1.00D-01 BMatC= 3.30D-07 BMatP= 9.48D-06
 IDIUse=1 WtCom= 1.00D+00 WtEn= 0.00D+00
 Coeff-Com:  0.208D-03 0.595D-03-0.227D-02-0.133D-01-0.279D-01 0.730D-02
 Coeff-Com:  0.104D+01
 Coeff:      0.208D-03 0.595D-03-0.227D-02-0.133D-01-0.279D-01 0.730D-02
 Coeff:      0.104D+01
 Gap=     0.205 Goal=   None    Shift=    0.000
 Gap=     0.236 Goal=   None    Shift=    0.000
 RMSDP=1.35D-05 MaxDP=2.08D-04 DE=-4.91D-06 OVMax= 2.52D-04

 Cycle   8  Pass 0  IDiag  1:
 E= -111.271936014987     Delta-E=       -0.000000159564 Rises=F Damp=F
 DIIS: error= 9.39D-06 at cycle   8 NSaved=   8.
 NSaved= 8 IEnMin= 8 EnMin= -111.271936014987     IErMin= 8 ErrMin= 9.39D-06
 ErrMax= 9.39D-06  0.00D+00 EMaxC= 1.00D-01 BMatC= 2.41D-08 BMatP= 3.30D-07
 IDIUse=1 WtCom= 1.00D+00 WtEn= 0.00D+00
 Coeff-Com: -0.449D-03 0.974D-03 0.462D-02 0.936D-02 0.899D-02-0.134D+00
 Coeff-Com:  0.136D+00 0.974D+00
 Coeff:     -0.449D-03 0.974D-03 0.462D-02 0.936D-02 0.899D-02-0.134D+00
 Coeff:      0.136D+00 0.974D+00
 Gap=     0.205 Goal=   None    Shift=    0.000
 Gap=     0.236 Goal=   None    Shift=    0.000
 RMSDP=2.75D-06 MaxDP=3.13D-05 DE=-1.60D-07 OVMax= 7.11D-05

 Initial convergence to 1.0D-05 achieved.  Increase integral accuracy.
 Cycle   9  Pass 1  IDiag  1:
 E= -111.271934382891     Delta-E=        0.000001632096 Rises=F Damp=F
 DIIS: error= 8.73D-06 at cycle   1 NSaved=   1.
 NSaved= 1 IEnMin= 1 EnMin= -111.271934382891     IErMin= 1 ErrMin= 8.73D-06
 ErrMax= 8.73D-06  0.00D+00 EMaxC= 1.00D-01 BMatC= 1.04D-08 BMatP= 1.04D-08
 IDIUse=1 WtCom= 1.00D+00 WtEn= 0.00D+00
 Coeff-Com:  0.100D+01
 Coeff:      0.100D+01
 Gap=     0.205 Goal=   None    Shift=    0.000
 Gap=     0.236 Goal=   None    Shift=    0.000
 RMSDP=2.75D-06 MaxDP=3.13D-05 DE= 1.63D-06 OVMax= 9.48D-05

 Cycle  10  Pass 1  IDiag  1:
 E= -111.271934389497     Delta-E=       -0.000000006607 Rises=F Damp=F
 DIIS: error= 4.37D-06 at cycle   2 NSaved=   2.
 NSaved= 2 IEnMin= 2 EnMin= -111.271934389497     IErMin= 2 ErrMin= 4.37D-06
 ErrMax= 4.37D-06  0.00D+00 EMaxC= 1.00D-01 BMatC= 2.33D-09 BMatP= 1.04D-08
 IDIUse=1 WtCom= 1.00D+00 WtEn= 0.00D+00
 Coeff-Com:  0.203D+00 0.797D+00
 Coeff:      0.203D+00 0.797D+00
 Gap=     0.205 Goal=   None    Shift=    0.000
 Gap=     0.236 Goal=   None    Shift=    0.000
 RMSDP=1.27D-06 MaxDP=2.83D-05 DE=-6.61D-09 OVMax= 2.64D-05

 Cycle  11  Pass 1  IDiag  1:
 E= -111.271934389465     Delta-E=        0.000000000032 Rises=F Damp=F
 DIIS: error= 4.90D-06 at cycle   3 NSaved=   3.
 NSaved= 3 IEnMin= 2 EnMin= -111.271934389497     IErMin= 2 ErrMin= 4.37D-06
 ErrMax= 4.90D-06  0.00D+00 EMaxC= 1.00D-01 BMatC= 3.20D-09 BMatP= 2.33D-09
 IDIUse=1 WtCom= 1.00D+00 WtEn= 0.00D+00
 Coeff-Com: -0.462D-01 0.557D+00 0.489D+00
 Coeff:     -0.462D-01 0.557D+00 0.489D+00
 Gap=     0.205 Goal=   None    Shift=    0.000
 Gap=     0.236 Goal=   None    Shift=    0.000
 RMSDP=6.26D-07 MaxDP=1.38D-05 DE= 3.21D-11 OVMax= 1.28D-05

 Cycle  12  Pass 1  IDiag  1:
 E= -111.271934390106     Delta-E=       -0.000000000641 Rises=F Damp=F
 DIIS: error= 4.33D-07 at cycle   4 NSaved=   4.
 NSaved= 4 IEnMin= 4 EnMin= -111.271934390106     IErMin= 4 ErrMin= 4.33D-07
 ErrMax= 4.33D-07  0.00D+00 EMaxC= 1.00D-01 BMatC= 3.89D-11 BMatP= 2.33D-09
 IDIUse=1 WtCom= 1.00D+00 WtEn= 0.00D+00
 Coeff-Com: -0.236D-01 0.112D+00 0.137D+00 0.774D+00
 Coeff:     -0.236D-01 0.112D+00 0.137D+00 0.774D+00
 Gap=     0.205 Goal=   None    Shift=    0.000
 Gap=     0.236 Goal=   None    Shift=    0.000
 RMSDP=1.17D-07 MaxDP=2.02D-06 DE=-6.41D-10 OVMax= 1.98D-06

 Cycle  13  Pass 1  IDiag  1:
 E= -111.271934390117     Delta-E=       -0.000000000011 Rises=F Damp=F
 DIIS: error= 2.50D-07 at cycle   5 NSaved=   5.
 NSaved= 5 IEnMin= 5 EnMin= -111.271934390117     IErMin= 5 ErrMin= 2.50D-07
 ErrMax= 2.50D-07  0.00D+00 EMaxC= 1.00D-01 BMatC= 1.35D-11 BMatP= 3.89D-11
 IDIUse=1 WtCom= 1.00D+00 WtEn= 0.00D+00
 Coeff-Com: -0.533D-03-0.586D-01-0.358D-01 0.356D+00 0.739D+00
 Coeff:     -0.533D-03-0.586D-01-0.358D-01 0.356D+00 0.739D+00
 Gap=     0.205 Goal=   None    Shift=    0.000
 Gap=     0.236 Goal=   None    Shift=    0.000
 RMSDP=5.44D-08 MaxDP=8.12D-07 DE=-1.11D-11 OVMax= 1.44D-06

 Cycle  14  Pass 1  IDiag  1:
 E= -111.271934390121     Delta-E=       -0.000000000004 Rises=F Damp=F
 DIIS: error= 8.24D-08 at cycle   6 NSaved=   6.
 NSaved= 6 IEnMin= 6 EnMin= -111.271934390121     IErMin= 6 ErrMin= 8.24D-08
 ErrMax= 8.24D-08  0.00D+00 EMaxC= 1.00D-01 BMatC= 1.79D-12 BMatP= 1.35D-11
 IDIUse=1 WtCom= 1.00D+00 WtEn= 0.00D+00
 Coeff-Com:  0.424D-02-0.507D-01-0.438D-01 0.148D-01 0.318D+00 0.757D+00
 Coeff:      0.424D-02-0.507D-01-0.438D-01 0.148D-01 0.318D+00 0.757D+00
 Gap=     0.205 Goal=   None    Shift=    0.000
 Gap=     0.236 Goal=   None    Shift=    0.000
 RMSDP=2.18D-08 MaxDP=3.19D-07 DE=-3.87D-12 OVMax= 5.29D-07

 Cycle  15  Pass 1  IDiag  1:
 E= -111.271934390122     Delta-E=       -0.000000000001 Rises=F Damp=F
 DIIS: error= 1.46D-08 at cycle   7 NSaved=   7.
 NSaved= 7 IEnMin= 7 EnMin= -111.271934390122     IErMin= 7 ErrMin= 1.46D-08
 ErrMax= 1.46D-08  0.00D+00 EMaxC= 1.00D-01 BMatC= 3.47D-14 BMatP= 1.79D-12
 IDIUse=1 WtCom= 1.00D+00 WtEn= 0.00D+00
 Coeff-Com:  0.167D-03 0.781D-03 0.603D-03-0.199D-01-0.344D-01 0.876D-03
 Coeff-Com:  0.105D+01
 Coeff:      0.167D-03 0.781D-03 0.603D-03-0.199D-01-0.344D-01 0.876D-03
 Coeff:      0.105D+01
 Gap=     0.205 Goal=   None    Shift=    0.000
 Gap=     0.236 Goal=   None    Shift=    0.000
 RMSDP=8.28D-09 MaxDP=1.75D-07 DE=-5.12D-13 OVMax= 2.34D-07

 SCF Done:  E(UB3LYP) =  -111.271934390     A.U. after   15 cycles
            NFock= 15  Conv=0.83D-08     -V/T= 2.0033
 <Sx>= 0.0000 <Sy>= 0.0000 <Sz>= 0.5000 <S**2>= 0.7543 S= 0.5021
 <L.S>= 0.000000000000E+00
 KE= 1.109023735388D+02 PE=-3.336062464055D+02 EE= 7.481409142389D+01
 Annihilation of the first spin contaminant:
 S**2 before annihilation     0.7543,   after     0.7500
 Leave Link  502 at Tue Feb 19 10:36:52 2019, MaxMem=   196608000 cpu:        95.7
 (Enter /cm/shared/c3ddb/gaussian/09.d01/g09/l508.exe)
 QCSCF skips out because SCF is already converged.
 Leave Link  508 at Tue Feb 19 10:36:52 2019, MaxMem=   196608000 cpu:         0.0
 (Enter /cm/shared/c3ddb/gaussian/09.d01/g09/l801.exe)
 DoSCS=F DFT=T ScalE2(SS,OS)=  1.000000  1.000000
 Range of M.O.s used for correlation:     1    62
 NBasis=    62 NAE=     9 NBE=     8 NFC=     0 NFV=     0
 NROrb=     62 NOA=     9 NOB=     8 NVA=    53 NVB=    54

 **** Warning!!: The largest alpha MO coefficient is  0.25090805D+02


 **** Warning!!: The largest beta MO coefficient is  0.26327359D+02

 Leave Link  801 at Tue Feb 19 10:36:52 2019, MaxMem=   196608000 cpu:         0.2
 (Enter /cm/shared/c3ddb/gaussian/09.d01/g09/l1101.exe)
 Using compressed storage, NAtomX=     5.
 Will process      6 centers per pass.
 Leave Link 1101 at Tue Feb 19 10:36:54 2019, MaxMem=   196608000 cpu:         6.8
 (Enter /cm/shared/c3ddb/gaussian/09.d01/g09/l1102.exe)
 Symmetrizing basis deriv contribution to polar:
 IMax=3 JMax=2 DiffMx= 0.00D+00
 Leave Link 1102 at Tue Feb 19 10:36:55 2019, MaxMem=   196608000 cpu:         1.7
 (Enter /cm/shared/c3ddb/gaussian/09.d01/g09/l1110.exe)
 Forming Gx(P) for the SCF density, NAtomX=     5.
 Integral derivatives from FoFJK, PRISM(SPDF).
 Do as many integral derivatives as possible in FoFJK.
 G2DrvN: MDV=     196607856.
 G2DrvN: will do     6 centers at a time, making    1 passes.
 Calling FoFCou, ICntrl=  3107 FMM=F I1Cent=   0 AccDes= 0.00D+00.
 FoFJK:  IHMeth= 1 ICntrl=    3107 DoSepK=F KAlg= 0 I1Cent=   0 FoldK=F
 IRaf=         0 NMat=   1 IRICut=       1 DoRegI=T DoRafI=F ISym2E= 0.
 FoFCou: FMM=F IPFlag=           0 FMFlag=      100000 FMFlg1=           0
         NFxFlg=           0 DoJE=F BraDBF=F KetDBF=F FulRan=T
         wScrn=  0.000000 ICntrl=    3107 IOpCl=  1 I1Cent=           0 NGrid=           0
         NMat0=    1 NMatS0=      1 NMatT0=    0 NMatD0=    1 NMtDS0=    0 NMtDT0=    0
 Symmetry not used in FoFCou.
 End of G2Drv F.D. properties file   721 does not exist.
 End of G2Drv F.D. properties file   722 does not exist.
 End of G2Drv F.D. properties file   788 does not exist.
 Leave Link 1110 at Tue Feb 19 10:37:01 2019, MaxMem=   196608000 cpu:        25.1
 (Enter /cm/shared/c3ddb/gaussian/09.d01/g09/l1002.exe)
 Minotr:  UHF open shell wavefunction.
          IDoAtm=11111
          Direct CPHF calculation.
          Differentiating once with respect to nuclear coordinates.
          Requested convergence is 1.0D-08 RMS, and 1.0D-07 maximum.
          Secondary convergence is 1.0D-12 RMS, and 1.0D-12 maximum.
          NewPWx=T KeepS1=F KeepF1=F KeepIn=T MapXYZ=F SortEE=F KeepMc=T.
          MDV=     196607822 using IRadAn=       2.
 Generate precomputed XC quadrature information.
 Keep R1 and R2 ints in memory in canonical form, NReq=4701961.
 FoFCou: FMM=F IPFlag=           0 FMFlag=           0 FMFlg1=           0
         NFxFlg=           0 DoJE=F BraDBF=F KetDBF=F FulRan=T
         wScrn=  0.000000 ICntrl=     600 IOpCl=  0 I1Cent=           0 NGrid=           0
         NMat0=    1 NMatS0=   1953 NMatT0=    0 NMatD0=    1 NMtDS0=    0 NMtDT0=    0
 Symmetry not used in FoFCou.
          Solving linear equations simultaneously, MaxMat=       0.
          There are    18 degrees of freedom in the 1st order CPHF.  IDoFFX=6 NUNeed=     0.
     12 vectors produced by pass  0 Test12= 5.05D-15 5.56D-09 XBig12= 2.65D-01 1.89D-01.
 AX will form    12 AO Fock derivatives at one time.
     12 vectors produced by pass  1 Test12= 5.05D-15 5.56D-09 XBig12= 5.69D-02 9.79D-02.
     12 vectors produced by pass  2 Test12= 5.05D-15 5.56D-09 XBig12= 2.20D-03 1.75D-02.
     12 vectors produced by pass  3 Test12= 5.05D-15 5.56D-09 XBig12= 3.46D-05 1.81D-03.
     12 vectors produced by pass  4 Test12= 5.05D-15 5.56D-09 XBig12= 3.96D-07 1.32D-04.
     12 vectors produced by pass  5 Test12= 5.05D-15 5.56D-09 XBig12= 2.04D-09 7.73D-06.
      9 vectors produced by pass  6 Test12= 5.05D-15 5.56D-09 XBig12= 5.91D-12 4.67D-07.
      3 vectors produced by pass  7 Test12= 5.05D-15 5.56D-09 XBig12= 1.12D-14 1.89D-08.
 InvSVY:  IOpt=1 It=  1 EMax= 1.33D-15
 Solved reduced A of dimension    84 with    12 vectors.
 End of Minotr F.D. properties file   721 does not exist.
 End of Minotr F.D. properties file   722 does not exist.
 End of Minotr F.D. properties file   788 does not exist.
 Leave Link 1002 at Tue Feb 19 10:37:06 2019, MaxMem=   196608000 cpu:        30.0
 (Enter /cm/shared/c3ddb/gaussian/09.d01/g09/l601.exe)
 Copying SCF densities to generalized density rwf, IOpCl= 1 IROHF=0.

 **********************************************************************

            Population analysis using the SCF density.

 **********************************************************************

 Orbital symmetries:
 Alpha Orbitals:
       Occupied  (A) (A) (A) (A) (A) (A) (A) (A) (A)
       Virtual   (A) (A) (A) (A) (A) (A) (A) (A) (A) (A) (A) (A)
                 (A) (A) (A) (A) (A) (A) (A) (A) (A) (A) (A) (A)
                 (A) (A) (A) (A) (A) (A) (A) (A) (A) (A) (A) (A)
                 (A) (A) (A) (A) (A) (A) (A) (A) (A) (A) (A) (A)
                 (A) (A) (A) (A) (A)
 Beta  Orbitals:
       Occupied  (A) (A) (A) (A) (A) (A) (A) (A)
       Virtual   (A) (A) (A) (A) (A) (A) (A) (A) (A) (A) (A) (A)
                 (A) (A) (A) (A) (A) (A) (A) (A) (A) (A) (A) (A)
                 (A) (A) (A) (A) (A) (A) (A) (A) (A) (A) (A) (A)
                 (A) (A) (A) (A) (A) (A) (A) (A) (A) (A) (A) (A)
                 (A) (A) (A) (A) (A) (A)
 The electronic state is 2-A.
 Alpha  occ. eigenvalues --  -14.36766 -14.32756  -0.99535  -0.74804  -0.56373
 Alpha  occ. eigenvalues --   -0.48452  -0.39913  -0.30280  -0.19342
 Alpha virt. eigenvalues --    0.01150   0.04316   0.07040   0.09477   0.11705
 Alpha virt. eigenvalues --    0.13745   0.15339   0.15594   0.18797   0.20353
 Alpha virt. eigenvalues --    0.24574   0.28804   0.50220   0.53111   0.58806
 Alpha virt. eigenvalues --    0.67012   0.70205   0.74192   0.76427   0.79319
 Alpha virt. eigenvalues --    0.79624   0.91519   1.14569   1.16613   1.26162
 Alpha virt. eigenvalues --    1.37279   1.43511   1.61911   1.73879   1.79794
 Alpha virt. eigenvalues --    1.83860   1.94403   2.12192   2.18940   2.22304
 Alpha virt. eigenvalues --    2.34848   2.50956   2.55187   2.59302   2.67010
 Alpha virt. eigenvalues --    2.70438   2.82952   2.93001   3.06218   3.22634
 Alpha virt. eigenvalues --    3.70686   3.86641   3.98385   4.36953   4.71851
 Alpha virt. eigenvalues --    5.20508  35.41600  35.52148
  Beta  occ. eigenvalues --  -14.36098 -14.31193  -0.97444  -0.72032  -0.55708
  Beta  occ. eigenvalues --   -0.47373  -0.33865  -0.28297
  Beta virt. eigenvalues --   -0.04725   0.01412   0.04650   0.07231   0.10000
  Beta virt. eigenvalues --    0.11773   0.13898   0.15648   0.17003   0.18930
  Beta virt. eigenvalues --    0.20663   0.25225   0.30235   0.50471   0.53494
  Beta virt. eigenvalues --    0.59550   0.67541   0.70607   0.76241   0.77377
  Beta virt. eigenvalues --    0.80221   0.84310   0.92456   1.16382   1.17821
  Beta virt. eigenvalues --    1.27707   1.38766   1.43805   1.62106   1.74336
  Beta virt. eigenvalues --    1.81316   1.84886   1.96264   2.13964   2.21295
  Beta virt. eigenvalues --    2.24027   2.37698   2.52024   2.55849   2.60534
  Beta virt. eigenvalues --    2.68316   2.72853   2.84407   2.94895   3.07015
  Beta virt. eigenvalues --    3.23383   3.74980   3.91148   4.00544   4.38324
  Beta virt. eigenvalues --    4.72577   5.21862  35.43017  35.53055
          Condensed to atoms (all electrons):
               1          2          3          4          5
     1  N    6.578650   0.069412   0.391025   0.333401  -0.011366
     2  N    0.069412   7.092152  -0.086915   0.005411   0.244040
     3  H    0.391025  -0.086915   0.468219  -0.055820   0.015833
     4  H    0.333401   0.005411  -0.055820   0.514514  -0.028738
     5  H   -0.011366   0.244040   0.015833  -0.028738   0.593899
          Atomic-Atomic Spin Densities.
               1          2          3          4          5
     1  N    0.555159  -0.317217   0.011203   0.002639   0.010074
     2  N   -0.317217   1.125130  -0.013015  -0.005623  -0.015427
     3  H    0.011203  -0.013015  -0.008078   0.002711  -0.000170
     4  H    0.002639  -0.005623   0.002711  -0.002336   0.000386
     5  H    0.010074  -0.015427  -0.000170   0.000386  -0.020996
 Mulliken charges and spin densities:
               1          2
     1  N   -0.361122   0.261858
     2  N   -0.324100   0.773848
     3  H    0.267658  -0.007349
     4  H    0.231231  -0.002223
     5  H    0.186333  -0.026133
 Sum of Mulliken charges =   0.00000   1.00000
 Mulliken charges and spin densities with hydrogens summed into heavy atoms:
               1          2
     1  N    0.137767   0.252285
     2  N   -0.137767   0.747715
 APT charges:
               1
     1  N   -0.695015
     2  N   -0.634159
     3  H    0.490525
     4  H    0.431376
     5  H    0.407274
 Sum of APT charges =   0.00000
 APT charges with hydrogens summed into heavy atoms:
               1
     1  N    0.226885
     2  N   -0.226885
 Electronic spatial extent (au):  <R**2>=             71.8828
 Charge=              0.0000 electrons
 Dipole moment (field-independent basis, Debye):
    X=              2.0807    Y=              1.7467    Z=              0.6186  Tot=              2.7862
 Quadrupole moment (field-independent basis, Debye-Ang):
   XX=            -12.0616   YY=            -11.1388   ZZ=            -14.7267
   XY=             -2.4008   XZ=              0.9594   YZ=              0.1102
 Traceless Quadrupole moment (field-independent basis, Debye-Ang):
   XX=              0.5808   YY=              1.5036   ZZ=             -2.0844
   XY=             -2.4008   XZ=              0.9594   YZ=              0.1102
 Octapole moment (field-independent basis, Debye-Ang**2):
  XXX=              4.6174  YYY=              2.5617  ZZZ=              0.4688  XYY=              3.0178
  XXY=              2.5989  XXZ=              0.8342  XZZ=              0.3975  YZZ=              0.5645
  YYZ=              0.5115  XYZ=              0.1073
 Hexadecapole moment (field-independent basis, Debye-Ang**3):
 XXXX=            -54.8459 YYYY=            -18.7755 ZZZZ=            -16.7431 XXXY=             -5.1154
 XXXZ=              1.5637 YYYX=             -3.0650 YYYZ=              0.1628 ZZZX=              0.9346
 ZZZY=              0.1187 XXYY=            -10.7168 XXZZ=            -13.8504 YYZZ=             -6.3363
 XXYZ=              0.0303 YYXZ=              0.7217 ZZXY=             -0.8552
 N-N= 3.661784705267D+01 E-N=-3.336062461420D+02  KE= 1.109023735388D+02
  Exact polarizability:   0.000   0.000   0.000   0.000   0.000   0.000
 Approx polarizability:  32.366   0.472  21.988  -0.588  -0.106  17.822
                          Isotropic Fermi Contact Couplings
        Atom                 a.u.       MegaHertz       Gauss      10(-4) cm-1
     1  N(14)              0.06446      20.82856       7.43215       6.94766
     2  N(14)              0.06948      22.45087       8.01103       7.48881
     3  H(1)              -0.00259     -11.57703      -4.13097      -3.86168
     4  H(1)               0.00052       2.34639       0.83725       0.78267
     5  H(1)              -0.01023     -45.74165     -16.32176     -15.25777
 --------------------------------------------------------
       Center         ----  Spin Dipole Couplings  ----
                      3XX-RR        3YY-RR        3ZZ-RR
 --------------------------------------------------------
     1   Atom       -0.359633     -0.405854      0.765488
     2   Atom       -0.925779     -0.905294      1.831073
     3   Atom       -0.001722      0.013961     -0.012239
     4   Atom       -0.013832      0.024524     -0.010692
     5   Atom       -0.047990      0.065095     -0.017105
 --------------------------------------------------------
                        XY            XZ            YZ
 --------------------------------------------------------
     1   Atom        0.010175     -0.139915     -0.045642
     2   Atom       -0.017851      0.002763      0.109069
     3   Atom       -0.039442      0.005239     -0.009805
     4   Atom        0.036548      0.005162      0.009969
     5   Atom       -0.066791      0.002302     -0.001435
 --------------------------------------------------------


 ---------------------------------------------------------------------------------
              Anisotropic Spin Dipole Couplings in Principal Axis System
 ---------------------------------------------------------------------------------

       Atom             a.u.   MegaHertz   Gauss  10(-4) cm-1        Axes

              Baa    -0.4083   -15.748    -5.619    -5.253 -0.1463  0.9890  0.0210
     1 N(14)  Bbb    -0.3761   -14.506    -5.176    -4.839  0.9817  0.1425  0.1260
              Bcc     0.7844    30.254    10.795    10.092 -0.1216 -0.0391  0.9918
 
              Baa    -0.9374   -36.153   -12.900   -12.059  0.8397  0.5426 -0.0222
     2 N(14)  Bbb    -0.8980   -34.635   -12.359   -11.553 -0.5430  0.8391 -0.0330
              Bcc     1.8354    70.788    25.259    23.612  0.0007  0.0398  0.9992
 
              Baa    -0.0343   -18.313    -6.535    -6.109  0.7597  0.6418  0.1047
     3 H(1)   Bbb    -0.0140    -7.457    -2.661    -2.487 -0.1939  0.0698  0.9785
              Bcc     0.0483    25.770     9.195     8.596 -0.6207  0.7637 -0.1774
 
              Baa    -0.0360   -19.182    -6.845    -6.398  0.8532 -0.5207  0.0312
     4 H(1)   Bbb    -0.0128    -6.819    -2.433    -2.275 -0.1227 -0.1423  0.9822
              Bcc     0.0487    26.001     9.278     8.673  0.5070  0.8418  0.1853
 
              Baa    -0.0790   -42.147   -15.039   -14.059  0.9071  0.4202 -0.0240
     5 H(1)   Bbb    -0.0171    -9.132    -3.258    -3.046  0.0133  0.0283  0.9995
              Bcc     0.0961    51.279    18.298    17.105 -0.4207  0.9070 -0.0201
 

 ---------------------------------------------------------------------------------

 No NMR shielding tensors so no spin-rotation constants.
 Leave Link  601 at Tue Feb 19 10:37:08 2019, MaxMem=   196608000 cpu:         7.1
 (Enter /cm/shared/c3ddb/gaussian/09.d01/g09/l701.exe)
 Compute integral second derivatives.
 ... and contract with generalized density number  0.
 Leave Link  701 at Tue Feb 19 10:37:09 2019, MaxMem=   196608000 cpu:         4.5
 (Enter /cm/shared/c3ddb/gaussian/09.d01/g09/l702.exe)
 L702 exits ... SP integral derivatives will be done elsewhere.
 Leave Link  702 at Tue Feb 19 10:37:09 2019, MaxMem=   196608000 cpu:         0.2
 (Enter /cm/shared/c3ddb/gaussian/09.d01/g09/l703.exe)
 Compute integral second derivatives, UseDBF=F ICtDFT=           0.
 Integral derivatives from FoFJK, PRISM(SPDF).
 Calling FoFJK, ICntrl=    100147 FMM=F ISym2X=0 I1Cent= 0 IOpClX= 1 NMat=1 NMatS=1 NMatT=0.
 FoFJK:  IHMeth= 1 ICntrl=  100147 DoSepK=F KAlg= 0 I1Cent=   0 FoldK=F
 IRaf=         0 NMat=   1 IRICut=       1 DoRegI=T DoRafI=F ISym2E= 0.
 FoFCou: FMM=F IPFlag=           0 FMFlag=      100000 FMFlg1=         800
         NFxFlg=           0 DoJE=F BraDBF=F KetDBF=F FulRan=T
         wScrn=  0.000000 ICntrl=  100147 IOpCl=  1 I1Cent=           0 NGrid=           0
         NMat0=    1 NMatS0=      1 NMatT0=    0 NMatD0=    1 NMtDS0=    0 NMtDT0=    0
 Symmetry not used in FoFCou.
 Leave Link  703 at Tue Feb 19 10:37:13 2019, MaxMem=   196608000 cpu:        28.3
 (Enter /cm/shared/c3ddb/gaussian/09.d01/g09/l716.exe)
 Dipole        = 8.18592836D-01 6.87195311D-01 2.43367015D-01
 Polarizability= 0.00000000D+00 0.00000000D+00 0.00000000D+00
                 0.00000000D+00 0.00000000D+00 0.00000000D+00
 ***** Axes restored to original set *****
 -------------------------------------------------------------------
 Center     Atomic                   Forces (Hartrees/Bohr)
 Number     Number              X              Y              Z
 -------------------------------------------------------------------
      1        7          -0.003279855   -0.000413652   -0.000474054
      2        7           0.004892513    0.001987760   -0.000676894
      3        1          -0.001337339    0.001173046    0.000340136
      4        1          -0.001369441   -0.001492656    0.000866438
      5        1           0.001094123   -0.001254498   -0.000055625
 -------------------------------------------------------------------
 Cartesian Forces:  Max     0.004892513 RMS     0.001833169
 Force constants in Cartesian coordinates: 
                1             2             3             4             5 
      1  0.667105D+00
      2 -0.605375D-01  0.785766D+00
      3 -0.150577D+00 -0.113509D+00  0.112019D+00
      4 -0.379920D+00 -0.612317D-01  0.456449D-01  0.527460D+00
      5 -0.157866D-02 -0.115457D+00  0.165411D-01 -0.960850D-01  0.456210D+00
      6  0.202126D-01  0.141874D-01 -0.482276D-02 -0.436502D-01 -0.254155D-01
      7 -0.153746D+00  0.156904D+00  0.443107D-01 -0.295699D-01  0.343496D-01
      8  0.169164D+00 -0.346265D+00 -0.385041D-01 -0.413290D-02  0.136643D-01
      9  0.590455D-01 -0.624042D-01 -0.233414D-01 -0.841198D-03 -0.189252D-02
     10 -0.970517D-01 -0.854169D-01  0.605577D-01 -0.230746D-01 -0.333323D-01
     11 -0.847457D-01 -0.326087D+00  0.134640D+00 -0.795422D-02  0.327995D-02
     12  0.662121D-01  0.162997D+00 -0.808200D-01  0.365751D-02 -0.311051D-02
     13 -0.363874D-01  0.502825D-01  0.639509D-04 -0.948951D-01  0.966464D-01
     14 -0.223025D-01  0.204324D-02  0.831648D-03  0.169404D+00 -0.357697D+00
     15  0.510700D-02 -0.127127D-02 -0.303466D-02 -0.481110D-02  0.138774D-01
                6             7             8             9            10 
      6  0.209339D-01
      7  0.411363D-02  0.181625D+00
      8  0.674934D-03 -0.177452D+00  0.346583D+00
      9 -0.831968D-02 -0.483039D-01  0.482988D-01  0.247121D-01
     10  0.173970D-01  0.954450D-02  0.151957D-01 -0.107388D-01  0.108284D+00
     11  0.307925D-02 -0.123208D-01 -0.165786D-01  0.148649D-01  0.104057D+00
     12  0.381315D-02 -0.354020D-02 -0.100436D-01 -0.774350D-04 -0.663346D-01
     13  0.192696D-02 -0.785307D-02 -0.277494D-02  0.838365D-03  0.229734D-02
     14  0.747395D-02 -0.148019D-02  0.259613D-02  0.113295D-02 -0.503029D-03
     15 -0.116046D-01  0.341979D-02 -0.426020D-03  0.702640D-02 -0.881269D-03
               11            12            13            14            15 
     11  0.335017D+00
     12 -0.149108D+00  0.799905D-01
     13  0.964186D-03  0.515253D-05  0.136838D+00
     14  0.436866D-02 -0.734730D-03 -0.145118D+00  0.348689D+00
     15 -0.347633D-02 -0.290623D-02 -0.283443D-02 -0.870382D-02  0.105191D-01
 FormGI is forming the generalized inverse of G from B-inverse, IUseBI=4.
 Force constants in internal coordinates: 
                1             2             3             4             5 
      1  0.477759D+00
      2  0.138036D-01  0.469645D+00
      3  0.156079D-01 -0.885245D-03  0.447426D+00
      4 -0.609008D-02 -0.197023D-02  0.274599D-02  0.422279D+00
      5  0.273306D-01  0.367772D-02 -0.349314D-02  0.659922D-02  0.118408D+00
      6  0.996545D-02 -0.730419D-02 -0.516145D-02 -0.518271D-02 -0.614727D-01
      7 -0.283530D-01  0.831767D-02  0.129706D-01 -0.200908D-03 -0.432963D-01
      8  0.780896D-01  0.634641D-02 -0.626832D-02  0.182432D-01  0.205821D-01
      9  0.533617D-02  0.616029D-02  0.439553D-02  0.581980D-03  0.907394D-02
     10 -0.379379D-03 -0.490234D-02 -0.741309D-02 -0.169041D-02 -0.340839D-02
     11 -0.177197D-01 -0.483873D-02 -0.495292D-02 -0.138573D-03 -0.678929D-03
                6             7             8             9            10 
      6  0.880868D-01
      7 -0.353396D-01  0.775394D-01
      8 -0.100160D-01 -0.787846D-02  0.242041D+00
      9 -0.167064D-01  0.124612D-01  0.367591D-02  0.168926D-01
     10  0.139256D-01 -0.123018D-01  0.110995D-02  0.380000D-02  0.114923D-01
     11 -0.167289D-01  0.143760D-01 -0.850315D-03 -0.179824D-02 -0.204880D-02
               11 
     11  0.106257D-01
 Leave Link  716 at Tue Feb 19 10:37:14 2019, MaxMem=   196608000 cpu:         3.1
 (Enter /cm/shared/c3ddb/gaussian/09.d01/g09/l103.exe)

 GradGradGradGradGradGradGradGradGradGradGradGradGradGradGradGradGradGrad
 Berny optimization.
 Red2BG is reusing G-inverse.
 Internal  Forces:  Max     0.006066483 RMS     0.002099653
 Search for a local minimum.
 Step number   1 out of a maximum of   21 on scan point     1 out of    46
 All quantities printed in internal units (Hartrees-Bohrs-Radians)
 RMS Force = .22021D-02 SwitMx=.10000D-02 MixMth= 1
 Mixed Optimization -- RFO/linear search
 Second derivative matrix not updated -- analytic derivatives used.
 The second derivative matrix:
                          R1        R2        R3        R4        A1
           R1           0.47776
           R2           0.01380   0.46965
           R3           0.01561  -0.00089   0.44743
           R4          -0.00609  -0.00197   0.00275   0.42228
           A1           0.02733   0.00368  -0.00349   0.00660   0.11841
           A2           0.00997  -0.00730  -0.00516  -0.00518  -0.06147
           A3          -0.02835   0.00832   0.01297  -0.00020  -0.04330
           A4           0.07809   0.00635  -0.00627   0.01824   0.02058
           D1           0.00534   0.00616   0.00440   0.00058   0.00907
           D2          -0.00038  -0.00490  -0.00741  -0.00169  -0.00341
           D3          -0.01772  -0.00484  -0.00495  -0.00014  -0.00068
                          A2        A3        A4        D1        D2
           A2           0.08809
           A3          -0.03534   0.07754
           A4          -0.01002  -0.00788   0.24204
           D1          -0.01671   0.01246   0.00368   0.01689
           D2           0.01393  -0.01230   0.00111   0.00380   0.01149
           D3          -0.01673   0.01438  -0.00085  -0.00180  -0.00205
                          D3
           D3           0.01063
 ITU=  0
     Eigenvalues ---    0.00874   0.11538   0.16209   0.22100   0.42430
     Eigenvalues ---    0.44614   0.46607   0.514131000.000001000.00000
     Eigenvalues --- 1000.00000
 RFO step:  Lambda=-1.00556318D-04 EMin= 8.74005742D-03
 Linear search not attempted -- first point.
 Iteration  1 RMS(Cart)=  0.00561425 RMS(Int)=  0.00000787
 Iteration  2 RMS(Cart)=  0.00000570 RMS(Int)=  0.00000331
 Iteration  3 RMS(Cart)=  0.00000000 RMS(Int)=  0.00000331
 Iteration  1 RMS(Cart)=  0.00000090 RMS(Int)=  0.00000075
 ITry= 1 IFail=0 DXMaxC= 9.88D-03 DCOld= 1.00D+10 DXMaxT= 3.00D-01 DXLimC= 3.00D+00 Rises=F
 Variable       Old X    -DE/DX   Delta X   Delta X   Delta X     New X
                                 (Linear)    (Quad)   (Total)
    R1        2.53917   0.00607   0.00000   0.01245   0.01245   2.55162
    R2        1.90441   0.00175   0.00000   0.00359   0.00359   1.90799
    R3        1.91261   0.00210   0.00000   0.00449   0.00449   1.91710
    R4        1.93081   0.00160   0.00000   0.00405   0.00405   1.93487
    A1        1.99366   0.00026   0.00000  -0.00073  -0.00073   1.99293
    A2        2.11670   0.00051   0.00000   0.00260   0.00260   2.11929
    A3        2.01191  -0.00068   0.00000  -0.00415  -0.00415   2.00775
    A4        1.85018   0.00088   0.00000  -0.00065  -0.00065   1.84953
    D1        2.95481   0.00000   0.00000   0.00000   0.00000   2.95481
    D2        0.42055   0.00007   0.00000   0.00536   0.00537   0.42592
    D3       -2.57192  -0.00034   0.00000   0.00267   0.00267  -2.56925
         Item               Value     Threshold  Converged?
 Maximum Force            0.006066     0.000450     NO 
 RMS     Force            0.002202     0.000300     NO 
 Maximum Displacement     0.009882     0.001800     NO 
 RMS     Displacement     0.005614     0.001200     NO 
 Predicted change in Energy=-5.029140D-05
 Lowest energy point so far.  Saving SCF results.
 GradGradGradGradGradGradGradGradGradGradGradGradGradGradGradGradGradGrad

 Leave Link  103 at Tue Feb 19 10:37:17 2019, MaxMem=   196608000 cpu:        17.0
 (Enter /cm/shared/c3ddb/gaussian/09.d01/g09/l202.exe)
                          Input orientation:                          
 ---------------------------------------------------------------------
 Center     Atomic      Atomic             Coordinates (Angstroms)
 Number     Number       Type             X           Y           Z
 ---------------------------------------------------------------------
      1          7           0       -0.576007   -0.007950   -0.004758
      2          7           0        0.751874    0.208098   -0.119885
      3          1           0       -1.117889    0.827113    0.163946
      4          1           0       -0.939270   -0.850282    0.428484
      5          1           0        1.190247   -0.717059   -0.103841
 ---------------------------------------------------------------------
                    Distance matrix (angstroms):
                    1          2          3          4          5
     1  N    0.000000
     2  N    1.350259   0.000000
     3  H    1.009667   1.989913   0.000000
     4  H    1.014486   2.069020   1.707495   0.000000
     5  H    1.905862   1.023887   2.789923   2.199083   0.000000
 Stoichiometry    H3N2(2)
 Framework group  C1[X(H3N2)]
 Deg. of freedom     9
 Full point group                 C1      NOp   1
 RotChk:  IX=0 Diff= 1.95D-03
 Largest Abelian subgroup         C1      NOp   1
 Largest concise Abelian subgroup C1      NOp   1
                         Standard orientation:                         
 ---------------------------------------------------------------------
 Center     Atomic      Atomic             Coordinates (Angstroms)
 Number     Number       Type             X           Y           Z
 ---------------------------------------------------------------------
      1          7           0        0.595266    0.024479   -0.067006
      2          7           0       -0.740507   -0.150915    0.023253
      3          1           0        1.136117   -0.801811    0.143115
      4          1           0        1.032448    0.901756    0.194604
      5          1           0       -1.151873    0.785104   -0.031446
 ---------------------------------------------------------------------
 Rotational constants (GHZ):    205.7286998     30.6315143     26.9945133
 Leave Link  202 at Tue Feb 19 10:37:17 2019, MaxMem=   196608000 cpu:         0.6
 (Enter /cm/shared/c3ddb/gaussian/09.d01/g09/l301.exe)
 Standard basis: 6-311+G(d,p) (5D, 7F)
 Ernie: Thresh=  0.10000D-02 Tol=  0.10000D-05 Strict=F.
 There are    64 symmetry adapted cartesian basis functions of A   symmetry.
 There are    62 symmetry adapted basis functions of A   symmetry.
    62 basis functions,    96 primitive gaussians,    64 cartesian basis functions
     9 alpha electrons        8 beta electrons
       nuclear repulsion energy        36.4771077237 Hartrees.
 IExCor=  402 DFT=T Ex+Corr=B3LYP ExCW=0 ScaHFX=  0.200000
 ScaDFX=  0.800000  0.720000  1.000000  0.810000 ScalE2=  1.000000  1.000000
 IRadAn=      0 IRanWt=     -1 IRanGd=            0 ICorTp=0 IEmpDi=  4
 NAtoms=    5 NActive=    5 NUniq=    5 SFac= 1.00D+00 NAtFMM=   60 NAOKFM=F Big=F
 Integral buffers will be    131072 words long.
 Raffenetti 2 integral format.
 Two-electron integral symmetry is turned on.
 Leave Link  301 at Tue Feb 19 10:37:18 2019, MaxMem=   196608000 cpu:         0.3
 (Enter /cm/shared/c3ddb/gaussian/09.d01/g09/l302.exe)
 NPDir=0 NMtPBC=     1 NCelOv=     1 NCel=       1 NClECP=     1 NCelD=      1
         NCelK=      1 NCelE2=     1 NClLst=     1 CellRange=     0.0.
 One-electron integrals computed using PRISM.
 NBasis=    62 RedAO= T EigKep=  3.84D-04  NBF=    62
 NBsUse=    62 1.00D-06 EigRej= -1.00D+00 NBFU=    62
 Precomputing XC quadrature grid using
 IXCGrd= 4 IRadAn=           0 IRanWt=          -1 IRanGd=           0 AccXCQ= 0.00D+00.
 Generated NRdTot=       0 NPtTot=           0 NUsed=           0 NTot=          32
 NSgBfM=    64    64    64    64    64 MxSgAt=     5 MxSgA2=     5.
 Leave Link  302 at Tue Feb 19 10:37:18 2019, MaxMem=   196608000 cpu:         3.6
 (Enter /cm/shared/c3ddb/gaussian/09.d01/g09/l303.exe)
 DipDrv:  MaxL=1.
 Leave Link  303 at Tue Feb 19 10:37:19 2019, MaxMem=   196608000 cpu:         1.5
 (Enter /cm/shared/c3ddb/gaussian/09.d01/g09/l401.exe)
 Initial guess from the checkpoint file:  "check.chk"
 B after Tr=     0.000000    0.000000    0.000000
         Rot=    1.000000   -0.000184    0.000001    0.000507 Ang=  -0.06 deg.
 Guess basis will be translated and rotated to current coordinates.
 JPrj=2 DoOrth=T DoCkMO=T.
 Initial guess <Sx>= 0.0000 <Sy>= 0.0000 <Sz>= 0.5000 <S**2>= 0.7543 S= 0.5021
 Leave Link  401 at Tue Feb 19 10:37:21 2019, MaxMem=   196608000 cpu:         8.0
 (Enter /cm/shared/c3ddb/gaussian/09.d01/g09/l502.exe)
 UHF open shell SCF:
 Using DIIS extrapolation, IDIIS=  1040.
 Integral symmetry usage will be decided dynamically.
 Keep R1 and R2 ints in memory in canonical form, NReq=4720884.
 IVT=       19222 IEndB=       19222 NGot=   196608000 MDV=   192772617
 LenX=   192772617 LenY=   192768080
 Requested convergence on RMS density matrix=1.00D-08 within  64 cycles.
 Requested convergence on MAX density matrix=1.00D-06.
 Requested convergence on             energy=1.00D-06.
 No special actions if energy rises.
 FoFCou: FMM=F IPFlag=           0 FMFlag=           0 FMFlg1=           0
         NFxFlg=           0 DoJE=F BraDBF=F KetDBF=F FulRan=T
         wScrn=  0.000000 ICntrl=     600 IOpCl=  0 I1Cent=           0 NGrid=           0
         NMat0=    1 NMatS0=   1953 NMatT0=    0 NMatD0=    1 NMtDS0=    0 NMtDT0=    0
 Symmetry not used in FoFCou.

 Cycle   1  Pass 1  IDiag  1:
 E= -111.271959001529    
 DIIS: error= 5.57D-04 at cycle   1 NSaved=   1.
 NSaved= 1 IEnMin= 1 EnMin= -111.271959001529     IErMin= 1 ErrMin= 5.57D-04
 ErrMax= 5.57D-04  0.00D+00 EMaxC= 1.00D-01 BMatC= 8.92D-05 BMatP= 8.92D-05
 IDIUse=3 WtCom= 9.94D-01 WtEn= 5.57D-03
 Coeff-Com:  0.100D+01
 Coeff-En:   0.100D+01
 Coeff:      0.100D+01
 Gap=     0.385 Goal=   None    Shift=    0.000
 Gap=     0.479 Goal=   None    Shift=    0.000
 RMSDP=9.83D-05 MaxDP=1.17D-03              OVMax= 2.12D-03

 Cycle   2  Pass 1  IDiag  1:
 E= -111.271982191967     Delta-E=       -0.000023190438 Rises=F Damp=F
 DIIS: error= 2.46D-04 at cycle   2 NSaved=   2.
 NSaved= 2 IEnMin= 2 EnMin= -111.271982191967     IErMin= 2 ErrMin= 2.46D-04
 ErrMax= 2.46D-04  0.00D+00 EMaxC= 1.00D-01 BMatC= 1.39D-05 BMatP= 8.92D-05
 IDIUse=3 WtCom= 9.98D-01 WtEn= 2.46D-03
 Coeff-Com:  0.189D+00 0.811D+00
 Coeff-En:   0.000D+00 0.100D+01
 Coeff:      0.189D+00 0.811D+00
 Gap=     0.207 Goal=   None    Shift=    0.000
 Gap=     0.235 Goal=   None    Shift=    0.000
 RMSDP=4.82D-05 MaxDP=6.47D-04 DE=-2.32D-05 OVMax= 1.15D-03

 Cycle   3  Pass 1  IDiag  1:
 E= -111.271982894130     Delta-E=       -0.000000702163 Rises=F Damp=F
 DIIS: error= 2.03D-04 at cycle   3 NSaved=   3.
 NSaved= 3 IEnMin= 3 EnMin= -111.271982894130     IErMin= 3 ErrMin= 2.03D-04
 ErrMax= 2.03D-04  0.00D+00 EMaxC= 1.00D-01 BMatC= 1.15D-05 BMatP= 1.39D-05
 IDIUse=3 WtCom= 9.98D-01 WtEn= 2.03D-03
 Coeff-Com: -0.193D-01 0.477D+00 0.542D+00
 Coeff-En:   0.000D+00 0.439D+00 0.561D+00
 Coeff:     -0.193D-01 0.477D+00 0.542D+00
 Gap=     0.206 Goal=   None    Shift=    0.000
 Gap=     0.235 Goal=   None    Shift=    0.000
 RMSDP=2.04D-05 MaxDP=3.10D-04 DE=-7.02D-07 OVMax= 5.57D-04

 Cycle   4  Pass 1  IDiag  1:
 E= -111.271985207607     Delta-E=       -0.000002313477 Rises=F Damp=F
 DIIS: error= 5.63D-05 at cycle   4 NSaved=   4.
 NSaved= 4 IEnMin= 4 EnMin= -111.271985207607     IErMin= 4 ErrMin= 5.63D-05
 ErrMax= 5.63D-05  0.00D+00 EMaxC= 1.00D-01 BMatC= 2.54D-07 BMatP= 1.15D-05
 IDIUse=1 WtCom= 1.00D+00 WtEn= 0.00D+00
 Coeff-Com: -0.123D-01 0.192D+00 0.245D+00 0.575D+00
 Coeff:     -0.123D-01 0.192D+00 0.245D+00 0.575D+00
 Gap=     0.206 Goal=   None    Shift=    0.000
 Gap=     0.235 Goal=   None    Shift=    0.000
 RMSDP=4.65D-06 MaxDP=5.92D-05 DE=-2.31D-06 OVMax= 2.31D-04

 Cycle   5  Pass 1  IDiag  1:
 E= -111.271985249098     Delta-E=       -0.000000041491 Rises=F Damp=F
 DIIS: error= 2.43D-05 at cycle   5 NSaved=   5.
 NSaved= 5 IEnMin= 5 EnMin= -111.271985249098     IErMin= 5 ErrMin= 2.43D-05
 ErrMax= 2.43D-05  0.00D+00 EMaxC= 1.00D-01 BMatC= 8.85D-08 BMatP= 2.54D-07
 IDIUse=1 WtCom= 1.00D+00 WtEn= 0.00D+00
 Coeff-Com: -0.304D-02 0.128D-01 0.278D-01 0.376D+00 0.586D+00
 Coeff:     -0.304D-02 0.128D-01 0.278D-01 0.376D+00 0.586D+00
 Gap=     0.206 Goal=   None    Shift=    0.000
 Gap=     0.235 Goal=   None    Shift=    0.000
 RMSDP=2.44D-06 MaxDP=4.34D-05 DE=-4.15D-08 OVMax= 5.24D-05

 Cycle   6  Pass 1  IDiag  1:
 E= -111.271985267647     Delta-E=       -0.000000018550 Rises=F Damp=F
 DIIS: error= 2.31D-06 at cycle   6 NSaved=   6.
 NSaved= 6 IEnMin= 6 EnMin= -111.271985267647     IErMin= 6 ErrMin= 2.31D-06
 ErrMax= 2.31D-06  0.00D+00 EMaxC= 1.00D-01 BMatC= 1.74D-09 BMatP= 8.85D-08
 IDIUse=1 WtCom= 1.00D+00 WtEn= 0.00D+00
 Coeff-Com:  0.735D-03-0.209D-01-0.262D-01 0.371D-01 0.875D-01 0.922D+00
 Coeff:      0.735D-03-0.209D-01-0.262D-01 0.371D-01 0.875D-01 0.922D+00
 Gap=     0.206 Goal=   None    Shift=    0.000
 Gap=     0.235 Goal=   None    Shift=    0.000
 RMSDP=6.21D-07 MaxDP=7.43D-06 DE=-1.85D-08 OVMax= 1.96D-05

 Cycle   7  Pass 1  IDiag  1:
 E= -111.271985268433     Delta-E=       -0.000000000786 Rises=F Damp=F
 DIIS: error= 1.04D-06 at cycle   7 NSaved=   7.
 NSaved= 7 IEnMin= 7 EnMin= -111.271985268433     IErMin= 7 ErrMin= 1.04D-06
 ErrMax= 1.04D-06  0.00D+00 EMaxC= 1.00D-01 BMatC= 1.67D-10 BMatP= 1.74D-09
 IDIUse=1 WtCom= 1.00D+00 WtEn= 0.00D+00
 Coeff-Com:  0.258D-03-0.800D-03-0.301D-02-0.269D-01-0.667D-01 0.150D-02
 Coeff-Com:  0.110D+01
 Coeff:      0.258D-03-0.800D-03-0.301D-02-0.269D-01-0.667D-01 0.150D-02
 Coeff:      0.110D+01
 Gap=     0.206 Goal=   None    Shift=    0.000
 Gap=     0.235 Goal=   None    Shift=    0.000
 RMSDP=2.10D-07 MaxDP=3.10D-06 DE=-7.86D-10 OVMax= 7.96D-06

 Cycle   8  Pass 1  IDiag  1:
 E= -111.271985268528     Delta-E=       -0.000000000095 Rises=F Damp=F
 DIIS: error= 2.29D-07 at cycle   8 NSaved=   8.
 NSaved= 8 IEnMin= 8 EnMin= -111.271985268528     IErMin= 8 ErrMin= 2.29D-07
 ErrMax= 2.29D-07  0.00D+00 EMaxC= 1.00D-01 BMatC= 8.64D-12 BMatP= 1.67D-10
 IDIUse=1 WtCom= 1.00D+00 WtEn= 0.00D+00
 Coeff-Com: -0.429D-04 0.146D-02 0.181D-02-0.129D-02-0.941D-02-0.589D-01
 Coeff-Com: -0.424D-02 0.107D+01
 Coeff:     -0.429D-04 0.146D-02 0.181D-02-0.129D-02-0.941D-02-0.589D-01
 Coeff:     -0.424D-02 0.107D+01
 Gap=     0.206 Goal=   None    Shift=    0.000
 Gap=     0.235 Goal=   None    Shift=    0.000
 RMSDP=6.23D-08 MaxDP=8.52D-07 DE=-9.50D-11 OVMax= 2.25D-06

 Cycle   9  Pass 1  IDiag  1:
 E= -111.271985268534     Delta-E=       -0.000000000006 Rises=F Damp=F
 DIIS: error= 4.81D-08 at cycle   9 NSaved=   9.
 NSaved= 9 IEnMin= 9 EnMin= -111.271985268534     IErMin= 9 ErrMin= 4.81D-08
 ErrMax= 4.81D-08  0.00D+00 EMaxC= 1.00D-01 BMatC= 5.81D-13 BMatP= 8.64D-12
 IDIUse=1 WtCom= 1.00D+00 WtEn= 0.00D+00
 Coeff-Com: -0.179D-04-0.104D-03 0.951D-04 0.260D-02 0.649D-02 0.417D-02
 Coeff-Com: -0.104D+00-0.190D-01 0.111D+01
 Coeff:     -0.179D-04-0.104D-03 0.951D-04 0.260D-02 0.649D-02 0.417D-02
 Coeff:     -0.104D+00-0.190D-01 0.111D+01
 Gap=     0.206 Goal=   None    Shift=    0.000
 Gap=     0.235 Goal=   None    Shift=    0.000
 RMSDP=1.61D-08 MaxDP=1.70D-07 DE=-6.25D-12 OVMax= 6.20D-07

 Cycle  10  Pass 1  IDiag  1:
 E= -111.271985268535     Delta-E=        0.000000000000 Rises=F Damp=F
 DIIS: error= 8.25D-09 at cycle  10 NSaved=  10.
 NSaved=10 IEnMin=10 EnMin= -111.271985268535     IErMin=10 ErrMin= 8.25D-09
 ErrMax= 8.25D-09  0.00D+00 EMaxC= 1.00D-01 BMatC= 2.01D-14 BMatP= 5.81D-13
 IDIUse=1 WtCom= 1.00D+00 WtEn= 0.00D+00
 Coeff-Com:  0.144D-05-0.361D-04-0.617D-04 0.573D-04 0.361D-03 0.190D-02
 Coeff-Com:  0.319D-02-0.365D-01-0.494D-01 0.108D+01
 Coeff:      0.144D-05-0.361D-04-0.617D-04 0.573D-04 0.361D-03 0.190D-02
 Coeff:      0.319D-02-0.365D-01-0.494D-01 0.108D+01
 Gap=     0.206 Goal=   None    Shift=    0.000
 Gap=     0.235 Goal=   None    Shift=    0.000
 RMSDP=3.24D-09 MaxDP=4.45D-08 DE=-4.83D-13 OVMax= 1.23D-07

 SCF Done:  E(UB3LYP) =  -111.271985269     A.U. after   10 cycles
            NFock= 10  Conv=0.32D-08     -V/T= 2.0036
 <Sx>= 0.0000 <Sy>= 0.0000 <Sz>= 0.5000 <S**2>= 0.7543 S= 0.5022
 <L.S>= 0.000000000000E+00
 KE= 1.108782023199D+02 PE=-3.333131422586D+02 EE= 7.468584694646D+01
 Annihilation of the first spin contaminant:
 S**2 before annihilation     0.7543,   after     0.7500
 Leave Link  502 at Tue Feb 19 10:37:28 2019, MaxMem=   196608000 cpu:        47.0
 (Enter /cm/shared/c3ddb/gaussian/09.d01/g09/l508.exe)
 QCSCF skips out because SCF is already converged.
 Leave Link  508 at Tue Feb 19 10:37:28 2019, MaxMem=   196608000 cpu:         0.0
 (Enter /cm/shared/c3ddb/gaussian/09.d01/g09/l701.exe)
 Compute integral first derivatives.
 ... and contract with generalized density number  0.
 Leave Link  701 at Tue Feb 19 10:37:29 2019, MaxMem=   196608000 cpu:         4.1
 (Enter /cm/shared/c3ddb/gaussian/09.d01/g09/l702.exe)
 L702 exits ... SP integral derivatives will be done elsewhere.
 Leave Link  702 at Tue Feb 19 10:37:29 2019, MaxMem=   196608000 cpu:         0.1
 (Enter /cm/shared/c3ddb/gaussian/09.d01/g09/l703.exe)
 Compute integral first derivatives, UseDBF=F ICtDFT=           0.
 Integral derivatives from FoFJK, PRISM(SPDF).
 Calling FoFJK, ICntrl=      2127 FMM=F ISym2X=0 I1Cent= 0 IOpClX= 1 NMat=1 NMatS=1 NMatT=0.
 FoFJK:  IHMeth= 1 ICntrl=    2127 DoSepK=F KAlg= 0 I1Cent=   0 FoldK=F
 IRaf=         0 NMat=   1 IRICut=       1 DoRegI=T DoRafI=F ISym2E= 0.
 FoFCou: FMM=F IPFlag=           0 FMFlag=      100000 FMFlg1=         800
         NFxFlg=           0 DoJE=F BraDBF=F KetDBF=F FulRan=T
         wScrn=  0.000000 ICntrl=    2127 IOpCl=  1 I1Cent=           0 NGrid=           0
         NMat0=    1 NMatS0=      1 NMatT0=    0 NMatD0=    1 NMtDS0=    0 NMtDT0=    0
 Symmetry not used in FoFCou.
 Leave Link  703 at Tue Feb 19 10:37:30 2019, MaxMem=   196608000 cpu:         7.5
 (Enter /cm/shared/c3ddb/gaussian/09.d01/g09/l716.exe)
 Dipole        = 8.15494375D-01 6.84739920D-01 2.45916722D-01
 ***** Axes restored to original set *****
 -------------------------------------------------------------------
 Center     Atomic                   Forces (Hartrees/Bohr)
 Number     Number              X              Y              Z
 -------------------------------------------------------------------
      1        7          -0.000109769   -0.000014646   -0.000022460
      2        7           0.000117193    0.000029206   -0.000025134
      3        1          -0.000008812    0.000006019    0.000021720
      4        1          -0.000010335   -0.000013659    0.000009867
      5        1           0.000011723   -0.000006920    0.000016006
 -------------------------------------------------------------------
 Cartesian Forces:  Max     0.000117193 RMS     0.000044276
 Leave Link  716 at Tue Feb 19 10:37:30 2019, MaxMem=   196608000 cpu:         0.1
 (Enter /cm/shared/c3ddb/gaussian/09.d01/g09/l103.exe)

 GradGradGradGradGradGradGradGradGradGradGradGradGradGradGradGradGradGrad
 Berny optimization.
 Using GEDIIS/GDIIS optimizer.
 FormGI is forming the generalized inverse of G from B-inverse, IUseBI=4.
 Internal  Forces:  Max     0.000130101 RMS     0.000041025
 Search for a local minimum.
 Step number   2 out of a maximum of   21 on scan point     1 out of    46
 All quantities printed in internal units (Hartrees-Bohrs-Radians)
 RMS Force = .42152D-04 SwitMx=.10000D-02 MixMth= 2
 Mixed Optimization -- En-DIIS/RFO-DIIS
 Update second derivatives using D2CorX and points    1    2
 DE= -5.09D-05 DEPred=-5.03D-05 R= 1.01D+00
 TightC=F SS=  1.41D+00  RLast= 1.63D-02 DXNew= 5.0454D-01 4.8861D-02
 Trust test= 1.01D+00 RLast= 1.63D-02 DXMaxT set to 3.00D-01
 The second derivative matrix:
                          R1        R2        R3        R4        A1
           R1           0.46884
           R2           0.01265   0.46973
           R3           0.01411  -0.00082   0.44746
           R4          -0.00716  -0.00190   0.00280   0.42234
           A1           0.02729   0.00373  -0.00343   0.00665   0.11842
           A2           0.00958  -0.00729  -0.00516  -0.00517  -0.06146
           A3          -0.02791   0.00829   0.01295  -0.00023  -0.04332
           A4           0.07741   0.00636  -0.00627   0.01825   0.02060
           D1           0.00541   0.00619   0.00443   0.00061   0.00908
           D2          -0.00050  -0.00492  -0.00743  -0.00171  -0.00341
           D3          -0.01761  -0.00489  -0.00501  -0.00018  -0.00069
                          A2        A3        A4        D1        D2
           A2           0.08809
           A3          -0.03534   0.07755
           A4          -0.01002  -0.00788   0.24203
           D1          -0.01670   0.01245   0.00369   0.01689
           D2           0.01392  -0.01230   0.00110   0.00380   0.01149
           D3          -0.01674   0.01440  -0.00087  -0.00180  -0.00205
                          D3
           D3           0.01064
 ITU=  1  0
 Use linear search instead of GDIIS.
     Eigenvalues ---    0.00874   0.11543   0.16205   0.22050   0.42441
     Eigenvalues ---    0.44647   0.46575   0.505731000.000001000.00000
     Eigenvalues --- 1000.00000
 RFO step:  Lambda= 0.00000000D+00 EMin= 8.73732014D-03
 Quartic linear search produced a step of  0.01911.
 Iteration  1 RMS(Cart)=  0.00013416 RMS(Int)=  0.00000009
 Iteration  2 RMS(Cart)=  0.00000003 RMS(Int)=  0.00000008
 Iteration  1 RMS(Cart)=  0.00000030 RMS(Int)=  0.00000025
 ITry= 1 IFail=0 DXMaxC= 2.14D-04 DCOld= 1.00D+10 DXMaxT= 3.00D-01 DXLimC= 3.00D+00 Rises=F
 Variable       Old X    -DE/DX   Delta X   Delta X   Delta X     New X
                                 (Linear)    (Quad)   (Total)
    R1        2.55162   0.00013   0.00024   0.00008   0.00031   2.55193
    R2        1.90799   0.00001   0.00007  -0.00003   0.00004   1.90803
    R3        1.91710   0.00002   0.00009  -0.00004   0.00005   1.91715
    R4        1.93487   0.00001   0.00008  -0.00003   0.00004   1.93491
    A1        1.99293   0.00000  -0.00001  -0.00011  -0.00012   1.99281
    A2        2.11929   0.00001   0.00005  -0.00013  -0.00009   2.11921
    A3        2.00775  -0.00001  -0.00008  -0.00001  -0.00009   2.00766
    A4        1.84953   0.00001  -0.00001  -0.00005  -0.00007   1.84946
    D1        2.95481  -0.00002   0.00000   0.00000   0.00000   2.95481
    D2        0.42592  -0.00001   0.00010   0.00043   0.00053   0.42645
    D3       -2.56925   0.00001   0.00005   0.00044   0.00049  -2.56876
         Item               Value     Threshold  Converged?
 Maximum Force            0.000130     0.000450     YES
 RMS     Force            0.000042     0.000300     YES
 Maximum Displacement     0.000214     0.001800     YES
 RMS     Displacement     0.000134     0.001200     YES
 Predicted change in Energy=-2.094391D-08
 Optimization completed.
    -- Stationary point found.
                           ----------------------------
                           !   Optimized Parameters   !
                           ! (Angstroms and Degrees)  !
 --------------------------                            --------------------------
 ! Name  Definition              Value          Derivative Info.                !
 --------------------------------------------------------------------------------
 ! R1    R(1,2)                  1.3503         -DE/DX =    0.0001              !
 ! R2    R(1,3)                  1.0097         -DE/DX =    0.0                 !
 ! R3    R(1,4)                  1.0145         -DE/DX =    0.0                 !
 ! R4    R(2,5)                  1.0239         -DE/DX =    0.0                 !
 ! A1    A(2,1,3)              114.1866         -DE/DX =    0.0                 !
 ! A2    A(2,1,4)              121.4266         -DE/DX =    0.0                 !
 ! A3    A(3,1,4)              115.0358         -DE/DX =    0.0                 !
 ! A4    A(1,2,5)              105.9703         -DE/DX =    0.0                 !
 ! D1    D(3,1,2,5)            169.2983         -DE/DX =    0.0                 !
 ! D2    D(4,1,2,5)             24.4033         -DE/DX =    0.0                 !
 ! D3    D(2,1,3,4)           -147.2071         -DE/DX =    0.0                 !
 --------------------------------------------------------------------------------
 Lowest energy point so far.  Saving SCF results.
 Iteration  1 RMS(Cart)=  0.02782765 RMS(Int)=  0.02337790
 Iteration  2 RMS(Cart)=  0.00110085 RMS(Int)=  0.02335524
 Iteration  3 RMS(Cart)=  0.00001636 RMS(Int)=  0.02335524
 Iteration  4 RMS(Cart)=  0.00000052 RMS(Int)=  0.02335524
 Iteration  1 RMS(Cart)=  0.00848250 RMS(Int)=  0.00725520
 Iteration  2 RMS(Cart)=  0.00262559 RMS(Int)=  0.00799807
 Iteration  3 RMS(Cart)=  0.00081811 RMS(Int)=  0.00849151
 Iteration  4 RMS(Cart)=  0.00025544 RMS(Int)=  0.00866576
 Iteration  5 RMS(Cart)=  0.00007981 RMS(Int)=  0.00872200
 Iteration  6 RMS(Cart)=  0.00002494 RMS(Int)=  0.00873975
 Iteration  7 RMS(Cart)=  0.00000779 RMS(Int)=  0.00874531
 Iteration  8 RMS(Cart)=  0.00000244 RMS(Int)=  0.00874705
 Iteration  9 RMS(Cart)=  0.00000076 RMS(Int)=  0.00874759
 GradGradGradGradGradGradGradGradGradGradGradGradGradGradGradGradGradGrad

 Leave Link  103 at Tue Feb 19 10:37:38 2019, MaxMem=   196608000 cpu:        46.3
 (Enter /cm/shared/c3ddb/gaussian/09.d01/g09/l202.exe)
                          Input orientation:                          
 ---------------------------------------------------------------------
 Center     Atomic      Atomic             Coordinates (Angstroms)
 Number     Number       Type             X           Y           Z
 ---------------------------------------------------------------------
      1          7           0       -0.572143   -0.003806    0.019876
      2          7           0        0.757788    0.207320   -0.081944
      3          1           0       -1.128359    0.831716    0.130205
      4          1           0       -0.934879   -0.854541    0.436915
      5          1           0        1.186546   -0.720768   -0.141107
 ---------------------------------------------------------------------
                    Distance matrix (angstroms):
                    1          2          3          4          5
     1  N    0.000000
     2  N    1.350428   0.000000
     3  H    1.009775   1.998106   0.000000
     4  H    1.014519   2.064433   1.724810   0.000000
     5  H    1.906027   1.024051   2.800465   2.202827   0.000000
 Stoichiometry    H3N2(2)
 Framework group  C1[X(H3N2)]
 Deg. of freedom     9
 Full point group                 C1      NOp   1
 RotChk:  IX=0 Diff= 2.34D-02
 Largest Abelian subgroup         C1      NOp   1
 Largest concise Abelian subgroup C1      NOp   1
                         Standard orientation:                         
 ---------------------------------------------------------------------
 Center     Atomic      Atomic             Coordinates (Angstroms)
 Number     Number       Type             X           Y           Z
 ---------------------------------------------------------------------
      1          7           0        0.595479    0.026168   -0.059043
      2          7           0       -0.740177   -0.151488    0.031063
      3          1           0        1.146301   -0.807768    0.085147
      4          1           0        1.023059    0.908746    0.200726
      5          1           0       -1.156474    0.776261   -0.090015
 ---------------------------------------------------------------------
 Rotational constants (GHZ):    205.6384000     30.6265156     26.9592994
 Leave Link  202 at Tue Feb 19 10:37:38 2019, MaxMem=   196608000 cpu:         0.6
 (Enter /cm/shared/c3ddb/gaussian/09.d01/g09/l301.exe)
 Standard basis: 6-311+G(d,p) (5D, 7F)
 Ernie: Thresh=  0.10000D-02 Tol=  0.10000D-05 Strict=F.
 There are    64 symmetry adapted cartesian basis functions of A   symmetry.
 There are    62 symmetry adapted basis functions of A   symmetry.
    62 basis functions,    96 primitive gaussians,    64 cartesian basis functions
     9 alpha electrons        8 beta electrons
       nuclear repulsion energy        36.4655488809 Hartrees.
 IExCor=  402 DFT=T Ex+Corr=B3LYP ExCW=0 ScaHFX=  0.200000
 ScaDFX=  0.800000  0.720000  1.000000  0.810000 ScalE2=  1.000000  1.000000
 IRadAn=      0 IRanWt=     -1 IRanGd=            0 ICorTp=0 IEmpDi=  4
 NAtoms=    5 NActive=    5 NUniq=    5 SFac= 1.00D+00 NAtFMM=   60 NAOKFM=F Big=F
 Integral buffers will be    131072 words long.
 Raffenetti 2 integral format.
 Two-electron integral symmetry is turned on.
 Leave Link  301 at Tue Feb 19 10:37:39 2019, MaxMem=   196608000 cpu:         0.3
 (Enter /cm/shared/c3ddb/gaussian/09.d01/g09/l302.exe)
 NPDir=0 NMtPBC=     1 NCelOv=     1 NCel=       1 NClECP=     1 NCelD=      1
         NCelK=      1 NCelE2=     1 NClLst=     1 CellRange=     0.0.
 One-electron integrals computed using PRISM.
 NBasis=    62 RedAO= T EigKep=  3.95D-04  NBF=    62
 NBsUse=    62 1.00D-06 EigRej= -1.00D+00 NBFU=    62
 Precomputing XC quadrature grid using
 IXCGrd= 4 IRadAn=           0 IRanWt=          -1 IRanGd=           0 AccXCQ= 0.00D+00.
 Generated NRdTot=       0 NPtTot=           0 NUsed=           0 NTot=          32
 NSgBfM=    64    64    64    64    64 MxSgAt=     5 MxSgA2=     5.
 Leave Link  302 at Tue Feb 19 10:37:39 2019, MaxMem=   196608000 cpu:         5.1
 (Enter /cm/shared/c3ddb/gaussian/09.d01/g09/l303.exe)
 DipDrv:  MaxL=1.
 Leave Link  303 at Tue Feb 19 10:37:40 2019, MaxMem=   196608000 cpu:         1.5
 (Enter /cm/shared/c3ddb/gaussian/09.d01/g09/l401.exe)
 Initial guess from the checkpoint file:  "check.chk"
 B after Tr=     0.000000    0.000000    0.000000
         Rot=    0.999999    0.000165    0.000044   -0.001681 Ang=   0.19 deg.
 Guess basis will be translated and rotated to current coordinates.
 JPrj=2 DoOrth=T DoCkMO=T.
 Initial guess <Sx>= 0.0000 <Sy>= 0.0000 <Sz>= 0.5000 <S**2>= 0.7544 S= 0.5022
 Generating alternative initial guess.
 ExpMin= 6.39D-02 ExpMax= 6.29D+03 ExpMxC= 9.49D+02 IAcc=2 IRadAn=         4 AccDes= 0.00D+00
 Harris functional with IExCor=  402 and IRadAn=       4 diagonalized for initial guess.
 HarFok:  IExCor=  402 AccDes= 0.00D+00 IRadAn=         4 IDoV= 1 UseB2=F ITyADJ=14
 ICtDFT=  3500011 ScaDFX=  1.000000  1.000000  1.000000  1.000000
 FoFCou: FMM=F IPFlag=           0 FMFlag=      100000 FMFlg1=           0
         NFxFlg=           0 DoJE=T BraDBF=F KetDBF=T FulRan=T
         wScrn=  0.000000 ICntrl=     500 IOpCl=  0 I1Cent=   200000004 NGrid=           0
         NMat0=    1 NMatS0=      1 NMatT0=    0 NMatD0=    1 NMtDS0=    0 NMtDT0=    0
 Petite list used in FoFCou.
 Harris En= -111.248899968801    
 Leave Link  401 at Tue Feb 19 10:37:42 2019, MaxMem=   196608000 cpu:        15.0
 (Enter /cm/shared/c3ddb/gaussian/09.d01/g09/l502.exe)
 UHF open shell SCF:
 Using DIIS extrapolation, IDIIS=  1040.
 Integral symmetry usage will be decided dynamically.
 Keep R1 and R2 ints in memory in canonical form, NReq=4720884.
 IVT=       19222 IEndB=       19222 NGot=   196608000 MDV=   192772617
 LenX=   192772617 LenY=   192768080
 Requested convergence on RMS density matrix=1.00D-08 within  64 cycles.
 Requested convergence on MAX density matrix=1.00D-06.
 Requested convergence on             energy=1.00D-06.
 No special actions if energy rises.
 FoFCou: FMM=F IPFlag=           0 FMFlag=           0 FMFlg1=           0
         NFxFlg=           0 DoJE=F BraDBF=F KetDBF=F FulRan=T
         wScrn=  0.000000 ICntrl=     600 IOpCl=  0 I1Cent=           0 NGrid=           0
         NMat0=    1 NMatS0=   1953 NMatT0=    0 NMatD0=    1 NMtDS0=    0 NMtDT0=    0
 Symmetry not used in FoFCou.
 Integral accuracy reduced to 1.0D-05 until final iterations.

 Cycle   1  Pass 0  IDiag  1:
 E= -111.270685604668    
 DIIS: error= 5.22D-03 at cycle   1 NSaved=   1.
 NSaved= 1 IEnMin= 1 EnMin= -111.270685604668     IErMin= 1 ErrMin= 5.22D-03
 ErrMax= 5.22D-03  0.00D+00 EMaxC= 1.00D-01 BMatC= 2.58D-03 BMatP= 2.58D-03
 IDIUse=3 WtCom= 9.48D-01 WtEn= 5.22D-02
 Coeff-Com:  0.100D+01
 Coeff-En:   0.100D+01
 Coeff:      0.100D+01
 Gap=     0.385 Goal=   None    Shift=    0.000
 Gap=     0.478 Goal=   None    Shift=    0.000
 GapD=    0.385 DampG=1.000 DampE=1.000 DampFc=1.0000 IDamp=-1.
 RMSDP=9.49D-04 MaxDP=1.24D-02              OVMax= 2.04D-02

 Cycle   2  Pass 0  IDiag  1:
 E= -111.271628007163     Delta-E=       -0.000942402495 Rises=F Damp=F
 DIIS: error= 7.41D-04 at cycle   2 NSaved=   2.
 NSaved= 2 IEnMin= 2 EnMin= -111.271628007163     IErMin= 2 ErrMin= 7.41D-04
 ErrMax= 7.41D-04  0.00D+00 EMaxC= 1.00D-01 BMatC= 3.44D-05 BMatP= 2.58D-03
 IDIUse=3 WtCom= 9.93D-01 WtEn= 7.41D-03
 Coeff-Com: -0.662D-01 0.107D+01
 Coeff-En:   0.000D+00 0.100D+01
 Coeff:     -0.657D-01 0.107D+01
 Gap=     0.206 Goal=   None    Shift=    0.000
 Gap=     0.232 Goal=   None    Shift=    0.000
 RMSDP=1.41D-04 MaxDP=1.61D-03 DE=-9.42D-04 OVMax= 4.33D-03

 Cycle   3  Pass 0  IDiag  1:
 E= -111.271651109816     Delta-E=       -0.000023102653 Rises=F Damp=F
 DIIS: error= 1.53D-04 at cycle   3 NSaved=   3.
 NSaved= 3 IEnMin= 3 EnMin= -111.271651109816     IErMin= 3 ErrMin= 1.53D-04
 ErrMax= 1.53D-04  0.00D+00 EMaxC= 1.00D-01 BMatC= 6.46D-06 BMatP= 3.44D-05
 IDIUse=3 WtCom= 9.98D-01 WtEn= 1.53D-03
 Coeff-Com: -0.198D-01 0.225D+00 0.795D+00
 Coeff-En:   0.000D+00 0.000D+00 0.100D+01
 Coeff:     -0.197D-01 0.225D+00 0.795D+00
 Gap=     0.206 Goal=   None    Shift=    0.000
 Gap=     0.232 Goal=   None    Shift=    0.000
 RMSDP=3.75D-05 MaxDP=3.96D-04 DE=-2.31D-05 OVMax= 1.06D-03

 Cycle   4  Pass 0  IDiag  1:
 E= -111.271652649759     Delta-E=       -0.000001539943 Rises=F Damp=F
 DIIS: error= 1.10D-04 at cycle   4 NSaved=   4.
 NSaved= 4 IEnMin= 4 EnMin= -111.271652649759     IErMin= 4 ErrMin= 1.10D-04
 ErrMax= 1.10D-04  0.00D+00 EMaxC= 1.00D-01 BMatC= 3.98D-06 BMatP= 6.46D-06
 IDIUse=3 WtCom= 9.99D-01 WtEn= 1.10D-03
 Coeff-Com:  0.455D-02-0.129D+00 0.447D+00 0.677D+00
 Coeff-En:   0.000D+00 0.000D+00 0.514D-01 0.949D+00
 Coeff:      0.454D-02-0.128D+00 0.446D+00 0.678D+00
 Gap=     0.206 Goal=   None    Shift=    0.000
 Gap=     0.232 Goal=   None    Shift=    0.000
 RMSDP=2.37D-05 MaxDP=3.01D-04 DE=-1.54D-06 OVMax= 5.77D-04

 Cycle   5  Pass 0  IDiag  1:
 E= -111.271653625789     Delta-E=       -0.000000976029 Rises=F Damp=F
 DIIS: error= 5.33D-05 at cycle   5 NSaved=   5.
 NSaved= 5 IEnMin= 5 EnMin= -111.271653625789     IErMin= 5 ErrMin= 5.33D-05
 ErrMax= 5.33D-05  0.00D+00 EMaxC= 1.00D-01 BMatC= 3.66D-07 BMatP= 3.98D-06
 IDIUse=1 WtCom= 1.00D+00 WtEn= 0.00D+00
 Coeff-Com:  0.396D-02-0.868D-01 0.130D+00 0.324D+00 0.629D+00
 Coeff:      0.396D-02-0.868D-01 0.130D+00 0.324D+00 0.629D+00
 Gap=     0.206 Goal=   None    Shift=    0.000
 Gap=     0.232 Goal=   None    Shift=    0.000
 RMSDP=6.25D-06 MaxDP=8.28D-05 DE=-9.76D-07 OVMax= 1.98D-04

 Initial convergence to 1.0D-05 achieved.  Increase integral accuracy.
 Cycle   6  Pass 1  IDiag  1:
 E= -111.271652348565     Delta-E=        0.000001277223 Rises=F Damp=F
 DIIS: error= 2.56D-05 at cycle   1 NSaved=   1.
 NSaved= 1 IEnMin= 1 EnMin= -111.271652348565     IErMin= 1 ErrMin= 2.56D-05
 ErrMax= 2.56D-05  0.00D+00 EMaxC= 1.00D-01 BMatC= 1.02D-07 BMatP= 1.02D-07
 IDIUse=1 WtCom= 1.00D+00 WtEn= 0.00D+00
 Coeff-Com:  0.100D+01
 Coeff:      0.100D+01
 Gap=     0.206 Goal=   None    Shift=    0.000
 Gap=     0.232 Goal=   None    Shift=    0.000
[...]
           D3         115.08631 114.04613 117.98782-130.88750-135.05464
                          21        22        23        24        25
     Eigenvalues --  -111.27188-111.27198-111.27180-111.27152-111.27141
           R1           1.35208   1.34997   1.34777   1.34568   1.34507
           R2           1.01596   1.01413   1.01230   1.01061   1.00988
           R3           1.01077   1.00941   1.00804   1.00657   1.00593
           R4           1.02424   1.02383   1.02351   1.02329   1.02322
           A1         120.55404 121.65251 122.83522 124.08316 124.61086
           A2         113.28001 114.40869 115.47781 116.45528 116.80190
           A3         113.82940 115.31433 116.71863 118.01747 118.53108
           A4         105.88037 105.99337 106.08261 106.12236 106.10821
           D1         -30.70150 -22.70151 -14.70153  -6.70153   1.29849
           D2        -170.58409-168.94026-168.89141-172.67815 178.52417
           D3        -139.68006-145.95673-153.89397-165.77426 177.18139
                          26        27        28        29        30
     Eigenvalues --  -111.27161-111.27188-111.27198-111.27177-111.27113
           R1           1.34659   1.34855   1.35069   1.35283   1.35500
           R2           1.01119   1.01287   1.01471   1.01652   1.01835
           R3           1.00714   1.00851   1.00987   1.01110   1.01236
           R4           1.02340   1.02361   1.02395   1.02440   1.02495
           A1         123.69691 122.43929 121.29307 120.25296 119.31014
           A2         116.20826 115.14507 114.05644 113.00705 111.98070
           A3         117.65265 116.30418 114.87149 113.43673 111.95384
           A4         106.14017 106.05840 105.94014 105.83202 105.73627
           D1           9.29851  17.29854  25.29852  33.29846  41.29847
           D2         171.10366 168.74530 169.42863 171.70683 174.84616
           D3         161.56225 151.14092 143.86064 138.24427 133.55909
                          31        32        33        34        35
     Eigenvalues --  -111.26998-111.26827-111.26596-111.26305-111.25958
           R1           1.35743   1.36029   1.36388   1.36855   1.37474
           R2           1.01997   1.02152   1.02284   1.02394   1.02479
           R3           1.01345   1.01483   1.01594   1.01727   1.01868
           R4           1.02551   1.02609   1.02656   1.02701   1.02741
           A1         118.50254 117.63441 116.81076 115.97259 115.00069
           A2         111.04014 110.01086 109.07763 108.11055 107.09534
           A3         110.57734 109.10166 107.56111 106.01714 104.44875
           A4         105.67643 105.61240 105.64542 105.64429 105.60700
           D1          49.29841  57.29848  65.29848  73.29848  81.29852
           D2         178.89632-176.98426-172.52761-167.86957-163.14161
           D3         129.80974 126.16277 122.96007 119.97232 117.07150
                          36        37        38        39        40
     Eigenvalues --  -111.25566-111.25149-111.24741-111.24394-111.24166
           R1           1.38362   1.39543   1.41036   1.42718   1.44073
           R2           1.02532   1.02575   1.02625   1.02656   1.02588
           R3           1.02012   1.02161   1.02309   1.02434   1.02490
           R4           1.02777   1.02815   1.02863   1.02901   1.02943
           A1         113.92588 112.23234 110.08034 107.47744 105.28811
           A2         106.12612 105.00011 103.93738 103.27112 103.31288
           A3         102.95852 101.48827 100.29591  99.70075 100.32100
           A4         105.43215 105.09344 104.55402 103.89788 103.38466
           D1          89.29835  97.29838 105.29838 113.29837 121.29835
           D2        -158.14137-153.29448-148.03562-141.88251-133.89573
           D3         114.44989 111.61686 109.09004 107.33668 107.00296
                          41        42        43        44        45
     Eigenvalues --  -111.24135-111.26756-111.26949-111.27088-111.27171
           R1           1.43936   1.35779   1.35605   1.35430   1.35246
           R2           1.02126   1.01416   1.01272   1.01193   1.01087
           R3           1.02190   1.01702   1.01595   1.01588   1.01535
           R4           1.02979   1.02458   1.02413   1.02393   1.02391
           A1         104.79858 113.11910 113.27268 113.47137 113.72341
           A2         106.64921 118.29811 119.00721 119.75668 120.49407
           A3         105.09503 110.84206 111.86912 112.87871 113.88215
           A4         103.42857 106.84704 106.50507 106.24905 106.06000
           D1         129.29836 137.29848 145.29840 153.29840 161.29836
           D2        -119.59249   5.29085  10.70107  15.86664  20.76357
           D3         112.22158-135.56785-137.85368-140.40067-143.20330
                          46
     Eigenvalues --  -111.27198
           R1           1.35031
           R2           1.00979
           R3           1.01469
           R4           1.02396
           A1         114.14645
           A2         121.32352
           A3         114.98778
           A4         105.96473
           D1         169.29838
           D2          24.73705
           D3        -146.87490
 Largest change from initial coordinates is atom    4       0.005 Angstoms.
 Leave Link  103 at Tue Feb 19 11:32:13 2019, MaxMem=   196608000 cpu:        13.0
 (Enter /cm/shared/c3ddb/gaussian/09.d01/g09/l202.exe)
                          Input orientation:                          
 ---------------------------------------------------------------------
 Center     Atomic      Atomic             Coordinates (Angstroms)
 Number     Number       Type             X           Y           Z
 ---------------------------------------------------------------------
      1          7           0       -0.585996   -0.192936    0.093537
      2          7           0        0.601266   -0.116553   -0.545143
      3          1           0       -1.365138    0.167090   -0.438441
      4          1           0       -0.654551   -0.060477    1.097204
      5          1           0        1.313374   -0.337203    0.156789
 ---------------------------------------------------------------------
                    Distance matrix (angstroms):
                    1          2          3          4          5
     1  N    0.000000
     2  N    1.350310   0.000000
     3  H    1.009793   1.989619   0.000000
     4  H    1.014688   2.068217   1.707316   0.000000
     5  H    1.905891   1.023959   2.789809   2.198564   0.000000
 Stoichiometry    H3N2(2)
 Framework group  C1[X(H3N2)]
 Deg. of freedom     9
 Full point group                 C1      NOp   1
 RotChk:  IX=0 Diff= 5.13D-16
 Largest Abelian subgroup         C1      NOp   1
 Largest concise Abelian subgroup C1      NOp   1
                         Standard orientation:                         
 ---------------------------------------------------------------------
 Center     Atomic      Atomic             Coordinates (Angstroms)
 Number     Number       Type             X           Y           Z
 ---------------------------------------------------------------------
      1          7           0        0.595335    0.024560   -0.067687
      2          7           0       -0.740398   -0.150980    0.023639
      3          1           0        1.135968   -0.801636    0.143966
      4          1           0        1.031437    0.901647    0.197124
      5          1           0       -1.151959    0.784931   -0.032752
 ---------------------------------------------------------------------
 Rotational constants (GHZ):    205.5552374     30.6321915     26.9994502
 Leave Link  202 at Tue Feb 19 11:32:13 2019, MaxMem=   196608000 cpu:         0.3
 (Enter /cm/shared/c3ddb/gaussian/09.d01/g09/l601.exe)
 Copying SCF densities to generalized density rwf, IOpCl= 1 IROHF=0.

 **********************************************************************

            Population analysis using the SCF density.

 **********************************************************************

 Orbital symmetries:
 Alpha Orbitals:
       Occupied  (A) (A) (A) (A) (A) (A) (A) (A) (A)
       Virtual   (A) (A) (A) (A) (A) (A) (A) (A) (A) (A) (A) (A)
                 (A) (A) (A) (A) (A) (A) (A) (A) (A) (A) (A) (A)
                 (A) (A) (A) (A) (A) (A) (A) (A) (A) (A) (A) (A)
                 (A) (A) (A) (A) (A) (A) (A) (A) (A) (A) (A) (A)
                 (A) (A) (A) (A) (A)
 Beta  Orbitals:
       Occupied  (A) (A) (A) (A) (A) (A) (A) (A)
       Virtual   (A) (A) (A) (A) (A) (A) (A) (A) (A) (A) (A) (A)
                 (A) (A) (A) (A) (A) (A) (A) (A) (A) (A) (A) (A)
                 (A) (A) (A) (A) (A) (A) (A) (A) (A) (A) (A) (A)
                 (A) (A) (A) (A) (A) (A) (A) (A) (A) (A) (A) (A)
                 (A) (A) (A) (A) (A) (A)
 The electronic state is 2-A.
 Alpha  occ. eigenvalues --  -14.36797 -14.32904  -0.99235  -0.74795  -0.56159
 Alpha  occ. eigenvalues --   -0.48344  -0.39784  -0.30345  -0.19514
 Alpha virt. eigenvalues --    0.01126   0.04291   0.07031   0.09490   0.11706
 Alpha virt. eigenvalues --    0.13725   0.15325   0.15590   0.18685   0.20228
 Alpha virt. eigenvalues --    0.24472   0.28342   0.50143   0.53069   0.58553
 Alpha virt. eigenvalues --    0.67003   0.70152   0.74229   0.76301   0.79347
 Alpha virt. eigenvalues --    0.79603   0.91659   1.14537   1.16737   1.26021
 Alpha virt. eigenvalues --    1.37007   1.43329   1.61916   1.73772   1.79458
 Alpha virt. eigenvalues --    1.83659   1.93943   2.12095   2.18554   2.22003
 Alpha virt. eigenvalues --    2.34401   2.50632   2.55255   2.59101   2.66940
 Alpha virt. eigenvalues --    2.70036   2.82688   2.92559   3.05662   3.21480
 Alpha virt. eigenvalues --    3.70648   3.86088   3.97836   4.36318   4.70960
 Alpha virt. eigenvalues --    5.19197  35.41182  35.51129
  Beta  occ. eigenvalues --  -14.36132 -14.31334  -0.97139  -0.72009  -0.55496
  Beta  occ. eigenvalues --   -0.47274  -0.33747  -0.28352
  Beta virt. eigenvalues --   -0.04871   0.01390   0.04636   0.07221   0.10015
  Beta virt. eigenvalues --    0.11773   0.13882   0.15655   0.16973   0.18818
  Beta virt. eigenvalues --    0.20538   0.25156   0.29743   0.50391   0.53448
  Beta virt. eigenvalues --    0.59295   0.67526   0.70552   0.76279   0.77248
  Beta virt. eigenvalues --    0.80260   0.84290   0.92591   1.16388   1.17891
  Beta virt. eigenvalues --    1.27553   1.38484   1.43630   1.62109   1.74216
  Beta virt. eigenvalues --    1.81015   1.84668   1.95790   2.13902   2.20948
  Beta virt. eigenvalues --    2.23688   2.37345   2.51673   2.55890   2.60353
  Beta virt. eigenvalues --    2.68267   2.72369   2.84152   2.94448   3.06466
  Beta virt. eigenvalues --    3.22228   3.74892   3.90566   4.00077   4.37699
  Beta virt. eigenvalues --    4.71681   5.20544  35.42621  35.52017
          Condensed to atoms (all electrons):
               1          2          3          4          5
     1  N    6.579958   0.071419   0.390564   0.333098  -0.011057
     2  N    0.071419   7.087140  -0.085187   0.005049   0.243422
     3  H    0.390564  -0.085187   0.466738  -0.055210   0.015450
     4  H    0.333098   0.005049  -0.055210   0.513410  -0.027940
     5  H   -0.011057   0.243422   0.015450  -0.027940   0.593538
          Atomic-Atomic Spin Densities.
               1          2          3          4          5
     1  N    0.546475  -0.310533   0.010814   0.002738   0.009978
     2  N   -0.310533   1.120179  -0.012648  -0.005892  -0.015305
     3  H    0.010814  -0.012648  -0.007930   0.002679  -0.000169
     4  H    0.002738  -0.005892   0.002679  -0.001737   0.000394
     5  H    0.009978  -0.015305  -0.000169   0.000394  -0.021101
 Mulliken charges and spin densities:
               1          2
     1  N   -0.363982   0.259473
     2  N   -0.321843   0.775801
     3  H    0.267645  -0.007254
     4  H    0.231593  -0.001817
     5  H    0.186587  -0.026203
 Sum of Mulliken charges =   0.00000   1.00000
 Mulliken charges and spin densities with hydrogens summed into heavy atoms:
               1          2
     1  N    0.135256   0.250402
     2  N   -0.135256   0.749598
 Electronic spatial extent (au):  <R**2>=             72.2362
 Charge=              0.0000 electrons
 Dipole moment (field-independent basis, Debye):
    X=              2.0696    Y=              1.7397    Z=              0.6293  Tot=              2.7760
 Quadrupole moment (field-independent basis, Debye-Ang):
   XX=            -12.0399   YY=            -11.1477   ZZ=            -14.7408
   XY=             -2.4007   XZ=              0.9824   YZ=              0.1138
 Traceless Quadrupole moment (field-independent basis, Debye-Ang):
   XX=              0.6029   YY=              1.4951   ZZ=             -2.0980
   XY=             -2.4007   XZ=              0.9824   YZ=              0.1138
 Octapole moment (field-independent basis, Debye-Ang**2):
  XXX=              4.6149  YYY=              2.5437  ZZZ=              0.4782  XYY=              3.0177
  XXY=              2.6114  XXZ=              0.8530  XZZ=              0.3857  YZZ=              0.5599
  YYZ=              0.5203  XYZ=              0.1177
 Hexadecapole moment (field-independent basis, Debye-Ang**3):
 XXXX=            -55.1866 YYYY=            -18.8208 ZZZZ=            -16.7872 XXXY=             -5.1216
 XXXZ=              1.6088 YYYX=             -3.0679 YYYZ=              0.1672 ZZZX=              0.9512
 ZZZY=              0.1224 XXYY=            -10.7558 XXZZ=            -13.9186 YYZZ=             -6.3480
 XXYZ=              0.0357 YYXZ=              0.7421 ZZXY=             -0.8485
 N-N= 3.647597170346D+01 E-N=-3.333106390287D+02  KE= 1.108780630126D+02
                          Isotropic Fermi Contact Couplings
        Atom                 a.u.       MegaHertz       Gauss      10(-4) cm-1
     1  N(14)              0.06573      21.23662       7.57775       7.08377
     2  N(14)              0.06996      22.60337       8.06544       7.53967
     3  H(1)              -0.00253     -11.29211      -4.02931      -3.76664
     4  H(1)               0.00075       3.34351       1.19305       1.11527
     5  H(1)              -0.01025     -45.83714     -16.35583     -15.28963
 --------------------------------------------------------
       Center         ----  Spin Dipole Couplings  ----
                      3XX-RR        3YY-RR        3ZZ-RR
 --------------------------------------------------------
     1   Atom       -0.357150     -0.402753      0.759903
     2   Atom       -0.929144     -0.907927      1.837072
     3   Atom       -0.001531      0.013813     -0.012282
     4   Atom       -0.013237      0.023961     -0.010724
     5   Atom       -0.047972      0.065301     -0.017329
 --------------------------------------------------------
                        XY            XZ            YZ
 --------------------------------------------------------
     1   Atom        0.010269     -0.141173     -0.047177
     2   Atom       -0.018211      0.000387      0.113936
     3   Atom       -0.039011      0.005247     -0.009876
     4   Atom        0.036315      0.005278      0.010042
     5   Atom       -0.066649      0.002401     -0.001649
 --------------------------------------------------------


 ---------------------------------------------------------------------------------
              Anisotropic Spin Dipole Couplings in Principal Axis System
 ---------------------------------------------------------------------------------

       Atom             a.u.   MegaHertz   Gauss  10(-4) cm-1        Axes

              Baa    -0.4053   -15.633    -5.578    -5.214 -0.1449  0.9892  0.0225
     1 N(14)  Bbb    -0.3741   -14.428    -5.148    -4.813  0.9817  0.1409  0.1281
              Bcc     0.7794    30.061    10.726    10.027 -0.1235 -0.0406  0.9915
 
              Baa    -0.9409   -36.288   -12.948   -12.104  0.8404  0.5415 -0.0223
     2 N(14)  Bbb    -0.9009   -34.746   -12.398   -11.590 -0.5420  0.8397 -0.0349
              Bcc     1.8418    71.034    25.347    23.694 -0.0001  0.0414  0.9991
 
              Baa    -0.0339   -18.067    -6.447    -6.027  0.7580  0.6430  0.1100
     3 H(1)   Bbb    -0.0140    -7.488    -2.672    -2.498 -0.1992  0.0676  0.9776
              Bcc     0.0479    25.556     9.119     8.524 -0.6211  0.7629 -0.1794
 
              Baa    -0.0355   -18.921    -6.751    -6.311  0.8505 -0.5251  0.0317
     4 H(1)   Bbb    -0.0129    -6.867    -2.450    -2.291 -0.1254 -0.1439  0.9816
              Bcc     0.0483    25.788     9.202     8.602  0.5109  0.8388  0.1883
 
              Baa    -0.0788   -42.062   -15.009   -14.030  0.9075  0.4194 -0.0242
     5 H(1)   Bbb    -0.0173    -9.256    -3.303    -3.088  0.0127  0.0302  0.9995
              Bcc     0.0962    51.319    18.312    17.118 -0.4199  0.9073 -0.0221
 

 ---------------------------------------------------------------------------------

 No NMR shielding tensors so no spin-rotation constants.
 Leave Link  601 at Tue Feb 19 11:32:14 2019, MaxMem=   196608000 cpu:         5.9
 (Enter /cm/shared/c3ddb/gaussian/09.d01/g09/l9999.exe)
 1\1\GINC-NODE024\Scan\UB3LYP\6-311+G(d,p)\H3N2(2)\ALONGD\19-Feb-2019\0
 \\#P opt=(modredundant, calcfc, noeigentest) ub3lyp/6-311+g(d,p) scf=x
 qc\\name\\0,2\N,-0.5859964991,-0.1929359138,0.093537349\N,0.6012656025
 ,-0.1165533896,-0.5451428694\H,-1.3651381241,0.1670903052,-0.438441400
 2\H,-0.6545507769,-0.060477152,1.0972038343\H,1.3133737976,-0.33720284
 99,0.1567890862\\Version=AS64L-G09RevD.01\State=2-A\HF=-111.2719853,-1
 11.271722,-111.2718614,-111.271958,-111.2715038,-111.2704882,-111.2689
 22,-111.2668198,-111.2641964,-111.2610711,-111.2574761,-111.2534709,-1
 11.2491693,-111.2447687,-111.2405857,-111.2370374,-111.2345956,-111.23
 39663,-111.2704136,-111.2713879,-111.2718799,-111.2719785,-111.2718004
 ,-111.2715216,-111.2714119,-111.2716081,-111.2718795,-111.2719833,-111
 .2717684,-111.2711283,-111.2699817,-111.2682691,-111.2659575,-111.2630
 464,-111.2595793,-111.255661,-111.2514914,-111.2474138,-111.2439378,-1
 11.2416557,-111.2413548,-111.2675601,-111.2694895,-111.2708786,-111.27
 17129,-111.2719849\S2=0.75432,0.754315,0.754317,0.754322,0.754321,0.75
 4312,0.754292,0.754262,0.754222,0.754172,0.75411,0.754035,0.753946,0.7
 53836,0.753723,0.753646,0.753626,0.753605,0.754216,0.75426,0.754296,0.
 754326,0.754342,0.754342,0.754339,0.754346,0.754339,0.754318,0.754285,
 0.754245,0.754202,0.754157,0.754111,0.754064,0.75401,0.753944,0.753845
 ,0.75372,0.753606,0.753562,0.753537,0.754273,0.7543,0.754317,0.754323,
 0.754318\S2-1=0.,0.,0.,0.,0.,0.,0.,0.,0.,0.,0.,0.,0.,0.,0.,0.,0.,0.,0.
 ,0.,0.,0.,0.,0.,0.,0.,0.,0.,0.,0.,0.,0.,0.,0.,0.,0.,0.,0.,0.,0.,0.,0.,
 0.,0.,0.,0.\S2A=0.750012,0.750012,0.750012,0.750012,0.750012,0.750012,
 0.750012,0.750011,0.750011,0.750011,0.750011,0.750011,0.750011,0.75001
 1,0.75001,0.75001,0.750009,0.750009,0.750011,0.750011,0.750012,0.75001
 2,0.750012,0.750012,0.750012,0.750012,0.750012,0.750012,0.750012,0.750
 011,0.750011,0.750011,0.750011,0.750011,0.750011,0.750011,0.750011,0.7
 5001,0.75001,0.750009,0.750009,0.750012,0.750012,0.750012,0.750012,0.7
 50012\RMSD=3.243e-09,7.636e-09,4.626e-09,5.205e-09,5.712e-09,5.776e-09
 ,6.303e-09,6.239e-09,4.249e-09,9.010e-09,3.691e-09,8.630e-09,3.949e-09
 ,2.322e-09,9.952e-09,3.045e-09,1.884e-09,6.537e-09,8.346e-09,8.141e-09
 ,2.215e-09,3.319e-09,7.454e-09,4.675e-09,5.444e-09,8.539e-09,4.155e-09
 ,6.621e-09,2.798e-09,5.540e-09,8.065e-09,2.196e-09,2.662e-09,3.202e-09
 ,3.840e-09,5.193e-09,9.420e-09,4.880e-09,1.641e-09,8.557e-09,3.801e-09
 ,2.040e-09,2.246e-09,2.057e-09,1.812e-09,7.014e-09\PG=C01 [X(H3N2)]\\@


 HIGGLEDY-PIGGLEDY
 NIC'LAUS COPERNICUS
 LOOKED AT THE UNIVERSE,
 SPOKE TO THE THRONG;
 GIVE UP YOUR PTOLOMY,
 RISE UP AND FOLLOW ME,
 HELIOCENTRICALLY
 PTOLEMY'S WRONG.
   -- NANCY L. STARK
 Job cpu time:       0 days  5 hours 31 minutes 15.3 seconds.
 File lengths (MBytes):  RWF=     11 Int=      0 D2E=      0 Chk=      3 Scr=      1
 Normal termination of Gaussian 09 at Tue Feb 19 11:32:14 2019.
