 Entering Gaussian System, Link 0=g09
 Initial command:
 /cm/shared/c3ddb/gaussian/09.d01/g09/l1.exe "/scratch/users/alongd/g09/a16789-7359115/Gau-34381.inp" -scrdir="/scratch/users/alongd/g09/a16789-7359115/"
 Entering Link 1 = /cm/shared/c3ddb/gaussian/09.d01/g09/l1.exe PID=     34382.
  
 Copyright (c) 1988,1990,1992,1993,1995,1998,2003,2009,2013,
            Gaussian, Inc.  All Rights Reserved.
  
 This is part of the Gaussian(R) 09 program.  It is based on
 the Gaussian(R) 03 system (copyright 2003, Gaussian, Inc.),
 the Gaussian(R) 98 system (copyright 1998, Gaussian, Inc.),
 the Gaussian(R) 94 system (copyright 1995, Gaussian, Inc.),
 the Gaussian 92(TM) system (copyright 1992, Gaussian, Inc.),
 the Gaussian 90(TM) system (copyright 1990, Gaussian, Inc.),
 the Gaussian 88(TM) system (copyright 1988, Gaussian, Inc.),
 the Gaussian 86(TM) system (copyright 1986, Carnegie Mellon
 University), and the Gaussian 82(TM) system (copyright 1983,
 Carnegie Mellon University). Gaussian is a federally registered
 trademark of Gaussian, Inc.
  
 This software contains proprietary and confidential information,
 including trade secrets, belonging to Gaussian, Inc.
  
 This software is provided under written license and may be
 used, copied, transmitted, or stored only in accord with that
 written license.
  
 The following legend is applicable only to US Government
 contracts under FAR:
  
                    RESTRICTED RIGHTS LEGEND
  
 Use, reproduction and disclosure by the US Government is
 subject to restrictions as set forth in subparagraphs (a)
 and (c) of the Commercial Computer Software - Restricted
 Rights clause in FAR 52.227-19.
  
 Gaussian, Inc.
 340 Quinnipiac St., Bldg. 40, Wallingford CT 06492
  
  
 ---------------------------------------------------------------
 Warning -- This program may not be used in any manner that
 competes with the business of Gaussian, Inc. or will provide
 assistance to any competitor of Gaussian, Inc.  The licensee
 of this program is prohibited from giving any competitor of
 Gaussian, Inc. access to this program.  By using this program,
 the user acknowledges that Gaussian, Inc. is engaged in the
 business of creating and licensing software in the field of
 computational chemistry and represents and warrants to the
 licensee that it is not a competitor of Gaussian, Inc. and that
 it will not use this program in any manner prohibited above.
 ---------------------------------------------------------------
  

 Cite this work as:
 Gaussian 09, Revision D.01,
 M. J. Frisch, G. W. Trucks, H. B. Schlegel, G. E. Scuseria, 
 M. A. Robb, J. R. Cheeseman, G. Scalmani, V. Barone, B. Mennucci, 
 G. A. Petersson, H. Nakatsuji, M. Caricato, X. Li, H. P. Hratchian, 
 A. F. Izmaylov, J. Bloino, G. Zheng, J. L. Sonnenberg, M. Hada, 
 M. Ehara, K. Toyota, R. Fukuda, J. Hasegawa, M. Ishida, T. Nakajima, 
 Y. Honda, O. Kitao, H. Nakai, T. Vreven, J. A. Montgomery, Jr., 
 J. E. Peralta, F. Ogliaro, M. Bearpark, J. J. Heyd, E. Brothers, 
 K. N. Kudin, V. N. Staroverov, T. Keith, R. Kobayashi, J. Normand, 
 K. Raghavachari, A. Rendell, J. C. Burant, S. S. Iyengar, J. Tomasi, 
 M. Cossi, N. Rega, J. M. Millam, M. Klene, J. E. Knox, J. B. Cross, 
 V. Bakken, C. Adamo, J. Jaramillo, R. Gomperts, R. E. Stratmann, 
 O. Yazyev, A. J. Austin, R. Cammi, C. Pomelli, J. W. Ochterski, 
 R. L. Martin, K. Morokuma, V. G. Zakrzewski, G. A. Voth, 
 P. Salvador, J. J. Dannenberg, S. Dapprich, A. D. Daniels, 
 O. Farkas, J. B. Foresman, J. V. Ortiz, J. Cioslowski, 
 and D. J. Fox, Gaussian, Inc., Wallingford CT, 2013.
 
 ******************************************
 Gaussian 09:  AS64L-G09RevD.01 24-Apr-2013
                19-Feb-2019 
 ******************************************
 %chk=check.chk
 %mem=1500mb
 %nproc=8
 Will use up to    8 processors via shared memory.
 ----------------------------------------------------------------------
 #P opt=(modredundant, calcfc, noeigentest) ub3lyp/6-311+g(d,p) scf=xqc
 ----------------------------------------------------------------------
 1/10=4,11=1,14=-1,18=120,19=15,26=3,38=1/1,3;
 2/9=110,12=2,17=6,18=5,40=1/2;
 3/5=4,6=6,7=111,11=2,16=1,25=1,30=1,71=2,74=-5,116=2,140=1/1,2,3;
 4//1;
 5/5=2,8=3,13=1,38=5/2,8;
 8/6=4,10=90,11=11/1;
 11/6=1,8=1,9=11,15=111,16=1/1,2,10;
 10/6=1,13=1/2;
 6/7=2,8=2,9=2,10=2,28=1/1;
 7/10=1,18=20,25=1/1,2,3,16;
 1/10=4,11=1,14=-1,18=20,19=15,26=3/3(2);
 2/9=110/2;
 99//99;
 2/9=110/2;
 3/5=4,6=6,7=111,11=2,16=1,25=1,30=1,71=1,74=-5,116=2/1,2,3;
 4/5=5,16=3,69=1/1;
 5/5=2,8=3,13=1,38=5/2,8;
 7//1,2,3,16;
 1/11=1,14=-1,18=20,19=15,26=3/3(-5);
 2/9=110/2;
 6/7=2,8=2,9=2,10=2,19=2,28=1/1;
 99/9=1/99;
 Leave Link    1 at Tue Feb 19 10:58:07 2019, MaxMem=   196608000 cpu:         0.8
 (Enter /cm/shared/c3ddb/gaussian/09.d01/g09/l101.exe)
 ----
 name
 ----
 Symbolic Z-matrix:
 Charge =  0 Multiplicity = 2
 O                    -0.80317  -1.03768  -0.0531 
 O                    -0.81647   1.0222    0.05343 
 C                     1.38663   0.00653  -0.0018 
 C                    -0.10178  -0.0036    0.00839 
 H                     1.77041  -0.9121    0.44322 
 H                     1.72489   0.06231  -1.03953 
 H                     1.75885   0.8793    0.53574 
 
 The following ModRedundant input section has been read:
 D       5       3       4       1 S  45 8.0000                                
 
 NAtoms=      7 NQM=        7 NQMF=       0 NMMI=      0 NMMIF=      0
                NMic=       0 NMicF=      0.
                    Isotopes and Nuclear Properties:
 (Nuclear quadrupole moments (NQMom) in fm**2, nuclear magnetic moments (NMagM)
  in nuclear magnetons)

  Atom         1           2           3           4           5           6           7
 IAtWgt=          16          16          12          12           1           1           1
 AtmWgt=  15.9949146  15.9949146  12.0000000  12.0000000   1.0078250   1.0078250   1.0078250
 NucSpn=           0           0           0           0           1           1           1
 AtZEff=   0.0000000   0.0000000   0.0000000   0.0000000   0.0000000   0.0000000   0.0000000
 NQMom=    0.0000000   0.0000000   0.0000000   0.0000000   0.0000000   0.0000000   0.0000000
 NMagM=    0.0000000   0.0000000   0.0000000   0.0000000   2.7928460   2.7928460   2.7928460
 AtZNuc=   8.0000000   8.0000000   6.0000000   6.0000000   1.0000000   1.0000000   1.0000000
 Leave Link  101 at Tue Feb 19 10:58:08 2019, MaxMem=   196608000 cpu:         6.6
 (Enter /cm/shared/c3ddb/gaussian/09.d01/g09/l103.exe)

 GradGradGradGradGradGradGradGradGradGradGradGradGradGradGradGradGradGrad
 Berny optimization.
 Initialization pass.
                           ----------------------------
                           !    Initial Parameters    !
                           ! (Angstroms and Degrees)  !
 --------------------------                            --------------------------
 ! Name  Definition              Value          Derivative Info.                !
 --------------------------------------------------------------------------------
 ! R1    R(1,4)                  1.251          calculate D2E/DX2 analytically  !
 ! R2    R(2,4)                  1.251          calculate D2E/DX2 analytically  !
 ! R3    R(3,4)                  1.4885         calculate D2E/DX2 analytically  !
 ! R4    R(3,5)                  1.0905         calculate D2E/DX2 analytically  !
 ! R5    R(3,6)                  1.0929         calculate D2E/DX2 analytically  !
 ! R6    R(3,7)                  1.0905         calculate D2E/DX2 analytically  !
 ! A1    A(4,3,5)              110.0832         calculate D2E/DX2 analytically  !
 ! A2    A(4,3,6)              108.4413         calculate D2E/DX2 analytically  !
 ! A3    A(4,3,7)              110.0831         calculate D2E/DX2 analytically  !
 ! A4    A(5,3,6)              108.7572         calculate D2E/DX2 analytically  !
 ! A5    A(5,3,7)              110.6655         calculate D2E/DX2 analytically  !
 ! A6    A(6,3,7)              108.757          calculate D2E/DX2 analytically  !
 ! A7    A(1,4,2)              111.0543         calculate D2E/DX2 analytically  !
 ! A8    A(1,4,3)              124.4661         calculate D2E/DX2 analytically  !
 ! A9    A(2,4,3)              124.4662         calculate D2E/DX2 analytically  !
 ! D1    D(5,3,4,1)            -29.6007         Scan                            !
 ! D2    D(5,3,4,2)            151.8526         calculate D2E/DX2 analytically  !
 ! D3    D(6,3,4,1)             89.2695         calculate D2E/DX2 analytically  !
 ! D4    D(6,3,4,2)            -89.2772         calculate D2E/DX2 analytically  !
 ! D5    D(7,3,4,1)           -151.8606         calculate D2E/DX2 analytically  !
 ! D6    D(7,3,4,2)             29.5927         calculate D2E/DX2 analytically  !
 --------------------------------------------------------------------------------
 Trust Radius=3.00D-01 FncErr=1.00D-07 GrdErr=1.00D-06
 Number of optimizations in scan=  46
 Number of steps in this run=     31 maximum allowed number of steps=    100.
 GradGradGradGradGradGradGradGradGradGradGradGradGradGradGradGradGradGrad

 Leave Link  103 at Tue Feb 19 10:58:09 2019, MaxMem=   196608000 cpu:         0.9
 (Enter /cm/shared/c3ddb/gaussian/09.d01/g09/l202.exe)
                          Input orientation:                          
 ---------------------------------------------------------------------
 Center     Atomic      Atomic             Coordinates (Angstroms)
 Number     Number       Type             X           Y           Z
 ---------------------------------------------------------------------
      1          8           0       -0.803174   -1.037684   -0.053100
      2          8           0       -0.816466    1.022198    0.053431
      3          6           0        1.386630    0.006532   -0.001795
      4          6           0       -0.101780   -0.003598    0.008386
      5          1           0        1.770406   -0.912098    0.443223
      6          1           0        1.724888    0.062313   -1.039531
      7          1           0        1.758846    0.879295    0.535743
 ---------------------------------------------------------------------
                    Distance matrix (angstroms):
                    1          2          3          4          5
     1  O    0.000000
     2  O    2.062678   0.000000
     3  C    2.426574   2.426574   0.000000
     4  C    1.251027   1.251025   1.488479   0.000000
     5  H    2.624009   3.253513   1.090507   2.125920   0.000000
     6  H    2.928163   2.928212   1.092898   2.106939   1.774854
     7  H    3.253535   2.623981   1.090508   2.125920   1.793818
                    6          7
     6  H    0.000000
     7  H    1.774852   0.000000
 Stoichiometry    C2H3O2(2)
 Framework group  C1[X(C2H3O2)]
 Deg. of freedom    15
 Full point group                 C1      NOp   1
 Largest Abelian subgroup         C1      NOp   1
 Largest concise Abelian subgroup C1      NOp   1
                         Standard orientation:                         
 ---------------------------------------------------------------------
 Center     Atomic      Atomic             Coordinates (Angstroms)
 Number     Number       Type             X           Y           Z
 ---------------------------------------------------------------------
      1          8           0        0.810034   -1.031339    0.001650
      2          8           0        0.810033    1.031339    0.001649
      3          6           0       -1.386459   -0.000001   -0.002918
      4          6           0        0.102009    0.000001   -0.008687
      5          1           0       -1.762835   -0.896875   -0.496035
      6          1           0       -1.728158   -0.000071    1.035189
      7          1           0       -1.762835    0.896943   -0.495910
 ---------------------------------------------------------------------
 Rotational constants (GHZ):     13.5764669      9.2604418      5.7011638
 Leave Link  202 at Tue Feb 19 10:58:10 2019, MaxMem=   196608000 cpu:         0.9
 (Enter /cm/shared/c3ddb/gaussian/09.d01/g09/l301.exe)
 Standard basis: 6-311+G(d,p) (5D, 7F)
 Ernie: Thresh=  0.10000D-02 Tol=  0.10000D-05 Strict=F.
 There are   110 symmetry adapted cartesian basis functions of A   symmetry.
 There are   106 symmetry adapted basis functions of A   symmetry.
   106 basis functions,   168 primitive gaussians,   110 cartesian basis functions
    16 alpha electrons       15 beta electrons
       nuclear repulsion energy       113.5945232897 Hartrees.
 IExCor=  402 DFT=T Ex+Corr=B3LYP ExCW=0 ScaHFX=  0.200000
 ScaDFX=  0.800000  0.720000  1.000000  0.810000 ScalE2=  1.000000  1.000000
 IRadAn=      0 IRanWt=     -1 IRanGd=            0 ICorTp=0 IEmpDi=  4
 NAtoms=    7 NActive=    7 NUniq=    7 SFac= 1.00D+00 NAtFMM=   60 NAOKFM=F Big=F
 Integral buffers will be    131072 words long.
 Raffenetti 2 integral format.
 Two-electron integral symmetry is turned on.
 Leave Link  301 at Tue Feb 19 10:58:11 2019, MaxMem=   196608000 cpu:         4.5
 (Enter /cm/shared/c3ddb/gaussian/09.d01/g09/l302.exe)
 NPDir=0 NMtPBC=     1 NCelOv=     1 NCel=       1 NClECP=     1 NCelD=      1
         NCelK=      1 NCelE2=     1 NClLst=     1 CellRange=     0.0.
 One-electron integrals computed using PRISM.
 NBasis=   106 RedAO= T EigKep=  1.41D-04  NBF=   106
 NBsUse=   106 1.00D-06 EigRej= -1.00D+00 NBFU=   106
 Precomputing XC quadrature grid using
 IXCGrd= 4 IRadAn=           0 IRanWt=          -1 IRanGd=           0 AccXCQ= 0.00D+00.
 Generated NRdTot=       0 NPtTot=           0 NUsed=           0 NTot=          32
 NSgBfM=   110   110   110   110   110 MxSgAt=     7 MxSgA2=     7.
 Leave Link  302 at Tue Feb 19 10:58:13 2019, MaxMem=   196608000 cpu:         7.7
 (Enter /cm/shared/c3ddb/gaussian/09.d01/g09/l303.exe)
 DipDrv:  MaxL=1.
 Leave Link  303 at Tue Feb 19 10:58:14 2019, MaxMem=   196608000 cpu:         3.0
 (Enter /cm/shared/c3ddb/gaussian/09.d01/g09/l401.exe)
 ExpMin= 4.38D-02 ExpMax= 8.59D+03 ExpMxC= 1.30D+03 IAcc=2 IRadAn=         4 AccDes= 0.00D+00
 Harris functional with IExCor=  402 and IRadAn=       4 diagonalized for initial guess.
 HarFok:  IExCor=  402 AccDes= 0.00D+00 IRadAn=         4 IDoV= 1 UseB2=F ITyADJ=14
 ICtDFT=  3500011 ScaDFX=  1.000000  1.000000  1.000000  1.000000
 FoFCou: FMM=F IPFlag=           0 FMFlag=      100000 FMFlg1=           0
         NFxFlg=           0 DoJE=T BraDBF=F KetDBF=T FulRan=T
         wScrn=  0.000000 ICntrl=     500 IOpCl=  0 I1Cent=   200000004 NGrid=           0
         NMat0=    1 NMatS0=      1 NMatT0=    0 NMatD0=    1 NMtDS0=    0 NMtDT0=    0
 Petite list used in FoFCou.
 Harris En= -228.486001112624    
 JPrj=0 DoOrth=F DoCkMO=F.
 Initial guess <Sx>= 0.0000 <Sy>= 0.0000 <Sz>= 0.5000 <S**2>= 0.7500 S= 0.5000
 Leave Link  401 at Tue Feb 19 10:58:16 2019, MaxMem=   196608000 cpu:         9.2
 (Enter /cm/shared/c3ddb/gaussian/09.d01/g09/l502.exe)
 UHF open shell SCF:
 Using DIIS extrapolation, IDIIS=  1040.
 Integral symmetry usage will be decided dynamically.
 Keep R1 and R2 ints in memory in canonical form, NReq=33141150.
 IVT=       43938 IEndB=       43938 NGot=   196608000 MDV=   164398151
 LenX=   164398151 LenY=   164385610
 Requested convergence on RMS density matrix=1.00D-08 within  64 cycles.
 Requested convergence on MAX density matrix=1.00D-06.
 Requested convergence on             energy=1.00D-06.
 No special actions if energy rises.
 FoFCou: FMM=F IPFlag=           0 FMFlag=           0 FMFlg1=           0
         NFxFlg=           0 DoJE=F BraDBF=F KetDBF=F FulRan=T
         wScrn=  0.000000 ICntrl=     600 IOpCl=  0 I1Cent=           0 NGrid=           0
         NMat0=    1 NMatS0=   5671 NMatT0=    0 NMatD0=    1 NMtDS0=    0 NMtDT0=    0
 Symmetry not used in FoFCou.

 Cycle   1  Pass 1  IDiag  1:
 E= -228.388924642124    
 DIIS: error= 4.05D-02 at cycle   1 NSaved=   1.
 NSaved= 1 IEnMin= 1 EnMin= -228.388924642124     IErMin= 1 ErrMin= 4.05D-02
 ErrMax= 4.05D-02  0.00D+00 EMaxC= 1.00D-01 BMatC= 5.13D-01 BMatP= 5.13D-01
 IDIUse=3 WtCom= 5.95D-01 WtEn= 4.05D-01
 Coeff-Com:  0.100D+01
 Coeff-En:   0.100D+01
 Coeff:      0.100D+01
 Gap=     0.262 Goal=   None    Shift=    0.000
 Gap=     0.142 Goal=   None    Shift=    0.000
 GapD=    0.142 DampG=1.000 DampE=0.500 DampFc=0.5000 IDamp=-1.
 Damping current iteration by 5.00D-01
 RMSDP=5.14D-03 MaxDP=1.25D-01              OVMax= 1.49D-01

 Cycle   2  Pass 1  IDiag  1:
 E= -228.430682906264     Delta-E=       -0.041758264140 Rises=F Damp=T
 DIIS: error= 9.70D-03 at cycle   2 NSaved=   2.
 NSaved= 2 IEnMin= 2 EnMin= -228.430682906264     IErMin= 2 ErrMin= 9.70D-03
 ErrMax= 9.70D-03  0.00D+00 EMaxC= 1.00D-01 BMatC= 2.63D-02 BMatP= 5.13D-01
 IDIUse=3 WtCom= 9.03D-01 WtEn= 9.70D-02
 Coeff-Com:  0.804D-01 0.920D+00
 Coeff-En:   0.150D+00 0.850D+00
 Coeff:      0.871D-01 0.913D+00
 Gap=     0.329 Goal=   None    Shift=    0.000
 Gap=     0.115 Goal=   None    Shift=    0.000
 RMSDP=8.50D-04 MaxDP=2.41D-02 DE=-4.18D-02 OVMax= 9.67D-02

 Cycle   3  Pass 1  IDiag  1:
 E= -228.483055651150     Delta-E=       -0.052372744886 Rises=F Damp=F
 DIIS: error= 9.13D-03 at cycle   3 NSaved=   3.
 NSaved= 3 IEnMin= 3 EnMin= -228.483055651150     IErMin= 3 ErrMin= 9.13D-03
 ErrMax= 9.13D-03  0.00D+00 EMaxC= 1.00D-01 BMatC= 1.33D-02 BMatP= 2.63D-02
 IDIUse=3 WtCom= 9.09D-01 WtEn= 9.13D-02
 Coeff-Com: -0.717D-02 0.390D+00 0.617D+00
 Coeff-En:   0.000D+00 0.000D+00 0.100D+01
 Coeff:     -0.651D-02 0.354D+00 0.652D+00
 Gap=     0.313 Goal=   None    Shift=    0.000
 Gap=     0.123 Goal=   None    Shift=    0.000
 RMSDP=5.32D-04 MaxDP=1.27D-02 DE=-5.24D-02 OVMax= 2.27D-02

 Cycle   4  Pass 1  IDiag  1:
 E= -228.484711706587     Delta-E=       -0.001656055437 Rises=F Damp=F
 DIIS: error= 4.49D-03 at cycle   4 NSaved=   4.
 NSaved= 4 IEnMin= 4 EnMin= -228.484711706587     IErMin= 4 ErrMin= 4.49D-03
 ErrMax= 4.49D-03  0.00D+00 EMaxC= 1.00D-01 BMatC= 4.53D-03 BMatP= 1.33D-02
 IDIUse=3 WtCom= 9.55D-01 WtEn= 4.49D-02
 Coeff-Com: -0.149D-01 0.368D-01 0.386D+00 0.592D+00
 Coeff-En:   0.000D+00 0.000D+00 0.285D+00 0.715D+00
 Coeff:     -0.142D-01 0.351D-01 0.381D+00 0.598D+00
 Gap=     0.319 Goal=   None    Shift=    0.000
 Gap=     0.121 Goal=   None    Shift=    0.000
 RMSDP=2.35D-04 MaxDP=5.38D-03 DE=-1.66D-03 OVMax= 8.92D-03

 Cycle   5  Pass 1  IDiag  1:
 E= -228.485658003208     Delta-E=       -0.000946296621 Rises=F Damp=F
 DIIS: error= 3.77D-04 at cycle   5 NSaved=   5.
 NSaved= 5 IEnMin= 5 EnMin= -228.485658003208     IErMin= 5 ErrMin= 3.77D-04
 ErrMax= 3.77D-04  0.00D+00 EMaxC= 1.00D-01 BMatC= 4.89D-05 BMatP= 4.53D-03
 IDIUse=3 WtCom= 9.96D-01 WtEn= 3.77D-03
 Coeff-Com: -0.320D-02-0.787D-02 0.770D-01 0.165D+00 0.770D+00
 Coeff-En:   0.000D+00 0.000D+00 0.000D+00 0.000D+00 0.100D+01
 Coeff:     -0.319D-02-0.784D-02 0.767D-01 0.164D+00 0.770D+00
 Gap=     0.319 Goal=   None    Shift=    0.000
 Gap=     0.121 Goal=   None    Shift=    0.000
 RMSDP=3.47D-05 MaxDP=1.09D-03 DE=-9.46D-04 OVMax= 1.45D-03

 Cycle   6  Pass 1  IDiag  1:
 E= -228.485669486122     Delta-E=       -0.000011482914 Rises=F Damp=F
 DIIS: error= 1.76D-04 at cycle   6 NSaved=   6.
 NSaved= 6 IEnMin= 6 EnMin= -228.485669486122     IErMin= 6 ErrMin= 1.76D-04
 ErrMax= 1.76D-04  0.00D+00 EMaxC= 1.00D-01 BMatC= 8.88D-06 BMatP= 4.89D-05
 IDIUse=3 WtCom= 9.98D-01 WtEn= 1.76D-03
 Coeff-Com:  0.124D-02-0.723D-02-0.300D-01-0.299D-01 0.269D+00 0.796D+00
 Coeff-En:   0.000D+00 0.000D+00 0.000D+00 0.000D+00 0.000D+00 0.100D+01
 Coeff:      0.124D-02-0.722D-02-0.300D-01-0.298D-01 0.269D+00 0.797D+00
 Gap=     0.320 Goal=   None    Shift=    0.000
 Gap=     0.121 Goal=   None    Shift=    0.000
 RMSDP=1.58D-05 MaxDP=4.44D-04 DE=-1.15D-05 OVMax= 7.23D-04

 Cycle   7  Pass 1  IDiag  1:
 E= -228.485672215406     Delta-E=       -0.000002729284 Rises=F Damp=F
 DIIS: error= 4.50D-05 at cycle   7 NSaved=   7.
 NSaved= 7 IEnMin= 7 EnMin= -228.485672215406     IErMin= 7 ErrMin= 4.50D-05
 ErrMax= 4.50D-05  0.00D+00 EMaxC= 1.00D-01 BMatC= 5.27D-07 BMatP= 8.88D-06
 IDIUse=1 WtCom= 1.00D+00 WtEn= 0.00D+00
 Coeff-Com:  0.566D-03-0.224D-03-0.136D-01-0.246D-01-0.569D-01 0.129D+00
 Coeff-Com:  0.966D+00
 Coeff:      0.566D-03-0.224D-03-0.136D-01-0.246D-01-0.569D-01 0.129D+00
 Coeff:      0.966D+00
 Gap=     0.320 Goal=   None    Shift=    0.000
 Gap=     0.121 Goal=   None    Shift=    0.000
 RMSDP=5.41D-06 MaxDP=1.09D-04 DE=-2.73D-06 OVMax= 3.13D-04

 Cycle   8  Pass 1  IDiag  1:
 E= -228.485672474244     Delta-E=       -0.000000258838 Rises=F Damp=F
 DIIS: error= 2.76D-05 at cycle   8 NSaved=   8.
 NSaved= 8 IEnMin= 8 EnMin= -228.485672474244     IErMin= 8 ErrMin= 2.76D-05
 ErrMax= 2.76D-05  0.00D+00 EMaxC= 1.00D-01 BMatC= 1.98D-07 BMatP= 5.27D-07
 IDIUse=1 WtCom= 1.00D+00 WtEn= 0.00D+00
 Coeff-Com:  0.246D-03 0.198D-03-0.615D-02-0.123D-01-0.415D-01 0.406D-01
 Coeff-Com:  0.507D+00 0.511D+00
 Coeff:      0.246D-03 0.198D-03-0.615D-02-0.123D-01-0.415D-01 0.406D-01
 Coeff:      0.507D+00 0.511D+00
 Gap=     0.320 Goal=   None    Shift=    0.000
 Gap=     0.121 Goal=   None    Shift=    0.000
 RMSDP=2.76D-06 MaxDP=4.85D-05 DE=-2.59D-07 OVMax= 3.46D-04

 Cycle   9  Pass 1  IDiag  1:
 E= -228.485672455570     Delta-E=        0.000000018674 Rises=F Damp=F
 DIIS: error= 4.05D-05 at cycle   9 NSaved=   9.
 NSaved= 9 IEnMin= 8 EnMin= -228.485672474244     IErMin= 8 ErrMin= 2.76D-05
 ErrMax= 4.05D-05  0.00D+00 EMaxC= 1.00D-01 BMatC= 3.73D-07 BMatP= 1.98D-07
 IDIUse=1 WtCom= 1.00D+00 WtEn= 0.00D+00
 Coeff-Com: -0.126D-03 0.449D-03 0.257D-02 0.305D-02-0.998D-02-0.461D-01
 Coeff-Com: -0.997D-01 0.668D+00 0.482D+00
 Coeff:     -0.126D-03 0.449D-03 0.257D-02 0.305D-02-0.998D-02-0.461D-01
 Coeff:     -0.997D-01 0.668D+00 0.482D+00
 Gap=     0.320 Goal=   None    Shift=    0.000
 Gap=     0.121 Goal=   None    Shift=    0.000
 RMSDP=2.00D-06 MaxDP=3.17D-05 DE= 1.87D-08 OVMax= 2.15D-04

 Cycle  10  Pass 1  IDiag  1:
 E= -228.485672538863     Delta-E=       -0.000000083293 Rises=F Damp=F
 DIIS: error= 4.21D-06 at cycle  10 NSaved=  10.
 NSaved=10 IEnMin=10 EnMin= -228.485672538863     IErMin=10 ErrMin= 4.21D-06
 ErrMax= 4.21D-06  0.00D+00 EMaxC= 1.00D-01 BMatC= 3.23D-09 BMatP= 1.98D-07
 IDIUse=1 WtCom= 1.00D+00 WtEn= 0.00D+00
 Coeff-Com: -0.510D-04 0.726D-04 0.127D-02 0.211D-02 0.194D-02-0.152D-01
 Coeff-Com: -0.789D-01 0.820D-01 0.104D+00 0.902D+00
 Coeff:     -0.510D-04 0.726D-04 0.127D-02 0.211D-02 0.194D-02-0.152D-01
 Coeff:     -0.789D-01 0.820D-01 0.104D+00 0.902D+00
 Gap=     0.320 Goal=   None    Shift=    0.000
 Gap=     0.121 Goal=   None    Shift=    0.000
 RMSDP=6.80D-07 MaxDP=1.11D-05 DE=-8.33D-08 OVMax= 1.17D-04

 Cycle  11  Pass 1  IDiag  1:
 E= -228.485672543473     Delta-E=       -0.000000004610 Rises=F Damp=F
 DIIS: error= 3.27D-06 at cycle  11 NSaved=  11.
 NSaved=11 IEnMin=11 EnMin= -228.485672543473     IErMin=11 ErrMin= 3.27D-06
 ErrMax= 3.27D-06  0.00D+00 EMaxC= 1.00D-01 BMatC= 7.93D-10 BMatP= 3.23D-09
 IDIUse=1 WtCom= 1.00D+00 WtEn= 0.00D+00
 Coeff-Com:  0.302D-04-0.654D-04-0.625D-03-0.869D-03 0.426D-03 0.782D-02
 Coeff-Com:  0.354D-01-0.938D-01-0.823D-01-0.285D+00 0.142D+01
 Coeff:      0.302D-04-0.654D-04-0.625D-03-0.869D-03 0.426D-03 0.782D-02
 Coeff:      0.354D-01-0.938D-01-0.823D-01-0.285D+00 0.142D+01
 Gap=     0.320 Goal=   None    Shift=    0.000
 Gap=     0.121 Goal=   None    Shift=    0.000
 RMSDP=7.12D-07 MaxDP=1.30D-05 DE=-4.61D-09 OVMax= 1.36D-04

 Cycle  12  Pass 1  IDiag  1:
 E= -228.485672546736     Delta-E=       -0.000000003262 Rises=F Damp=F
 DIIS: error= 2.22D-06 at cycle  12 NSaved=  12.
 NSaved=12 IEnMin=12 EnMin= -228.485672546736     IErMin=12 ErrMin= 2.22D-06
 ErrMax= 2.22D-06  0.00D+00 EMaxC= 1.00D-01 BMatC= 3.53D-10 BMatP= 7.93D-10
 IDIUse=1 WtCom= 1.00D+00 WtEn= 0.00D+00
 Coeff-Com: -0.557D-05 0.217D-04-0.366D-04-0.261D-03-0.127D-02 0.106D-02
 Coeff-Com:  0.408D-02 0.470D-01 0.258D-01-0.173D+00-0.128D+01 0.238D+01
 Coeff:     -0.557D-05 0.217D-04-0.366D-04-0.261D-03-0.127D-02 0.106D-02
 Coeff:      0.408D-02 0.470D-01 0.258D-01-0.173D+00-0.128D+01 0.238D+01
 Gap=     0.320 Goal=   None    Shift=    0.000
 Gap=     0.121 Goal=   None    Shift=    0.000
 RMSDP=1.07D-06 MaxDP=1.97D-05 DE=-3.26D-09 OVMax= 2.05D-04

 Cycle  13  Pass 1  IDiag  1:
 E= -228.485672549292     Delta-E=       -0.000000002556 Rises=F Damp=F
 DIIS: error= 6.47D-07 at cycle  13 NSaved=  13.
 NSaved=13 IEnMin=13 EnMin= -228.485672549292     IErMin=13 ErrMin= 6.47D-07
 ErrMax= 6.47D-07  0.00D+00 EMaxC= 1.00D-01 BMatC= 4.04D-11 BMatP= 3.53D-10
 IDIUse=1 WtCom= 1.00D+00 WtEn= 0.00D+00
 Coeff-Com: -0.612D-05 0.170D-04 0.115D-03 0.147D-03-0.207D-03-0.133D-02
 Coeff-Com: -0.695D-02 0.235D-01 0.195D-01 0.494D-01-0.429D+00 0.166D+00
 Coeff-Com:  0.118D+01
 Coeff:     -0.612D-05 0.170D-04 0.115D-03 0.147D-03-0.207D-03-0.133D-02
 Coeff:     -0.695D-02 0.235D-01 0.195D-01 0.494D-01-0.429D+00 0.166D+00
 Coeff:      0.118D+01
 Gap=     0.320 Goal=   None    Shift=    0.000
 Gap=     0.121 Goal=   None    Shift=    0.000
 RMSDP=3.78D-07 MaxDP=6.94D-06 DE=-2.56D-09 OVMax= 7.25D-05

 Cycle  14  Pass 1  IDiag  1:
 E= -228.485672549529     Delta-E=       -0.000000000237 Rises=F Damp=F
 DIIS: error= 9.48D-08 at cycle  14 NSaved=  14.
 NSaved=14 IEnMin=14 EnMin= -228.485672549529     IErMin=14 ErrMin= 9.48D-08
 ErrMax= 9.48D-08  0.00D+00 EMaxC= 1.00D-01 BMatC= 2.43D-12 BMatP= 4.04D-11
 IDIUse=1 WtCom= 1.00D+00 WtEn= 0.00D+00
 Coeff-Com:  0.404D-06-0.124D-05 0.125D-04 0.410D-04 0.130D-03-0.298D-03
 Coeff-Com: -0.799D-03-0.324D-02-0.119D-02 0.250D-01 0.984D-01-0.230D+00
 Coeff-Com:  0.442D-01 0.107D+01
 Coeff:      0.404D-06-0.124D-05 0.125D-04 0.410D-04 0.130D-03-0.298D-03
 Coeff:     -0.799D-03-0.324D-02-0.119D-02 0.250D-01 0.984D-01-0.230D+00
 Coeff:      0.442D-01 0.107D+01
 Gap=     0.320 Goal=   None    Shift=    0.000
 Gap=     0.121 Goal=   None    Shift=    0.000
 RMSDP=5.81D-08 MaxDP=1.06D-06 DE=-2.37D-10 OVMax= 1.10D-05

 Cycle  15  Pass 1  IDiag  1:
 E= -228.485672549534     Delta-E=       -0.000000000006 Rises=F Damp=F
 DIIS: error= 2.86D-08 at cycle  15 NSaved=  15.
 NSaved=15 IEnMin=15 EnMin= -228.485672549534     IErMin=15 ErrMin= 2.86D-08
 ErrMax= 2.86D-08  0.00D+00 EMaxC= 1.00D-01 BMatC= 1.61D-13 BMatP= 2.43D-12
 IDIUse=1 WtCom= 1.00D+00 WtEn= 0.00D+00
 Coeff-Com:  0.314D-06-0.994D-06-0.343D-05-0.182D-05 0.213D-04 0.277D-04
 Coeff-Com:  0.282D-03-0.166D-02-0.119D-02 0.285D-03 0.333D-01-0.298D-01
 Coeff-Com: -0.715D-01 0.128D+00 0.942D+00
 Coeff:      0.314D-06-0.994D-06-0.343D-05-0.182D-05 0.213D-04 0.277D-04
 Coeff:      0.282D-03-0.166D-02-0.119D-02 0.285D-03 0.333D-01-0.298D-01
 Coeff:     -0.715D-01 0.128D+00 0.942D+00
 Gap=     0.320 Goal=   None    Shift=    0.000
 Gap=     0.121 Goal=   None    Shift=    0.000
 RMSDP=4.75D-09 MaxDP=6.29D-08 DE=-5.68D-12 OVMax= 6.42D-07

 SCF Done:  E(UB3LYP) =  -228.485672550     A.U. after   15 cycles
            NFock= 15  Conv=0.47D-08     -V/T= 2.0032
 <Sx>= 0.0000 <Sy>= 0.0000 <Sz>= 0.5000 <S**2>= 0.7568 S= 0.5034
 <L.S>= 0.000000000000E+00
 KE= 2.277603979439D+02 PE=-7.636266296090D+02 EE= 1.937860358259D+02
 Annihilation of the first spin contaminant:
 S**2 before annihilation     0.7568,   after     0.7500
 Leave Link  502 at Tue Feb 19 10:58:44 2019, MaxMem=   196608000 cpu:       154.8
 (Enter /cm/shared/c3ddb/gaussian/09.d01/g09/l508.exe)
 QCSCF skips out because SCF is already converged.
 Leave Link  508 at Tue Feb 19 10:58:44 2019, MaxMem=   196608000 cpu:         0.0
 (Enter /cm/shared/c3ddb/gaussian/09.d01/g09/l801.exe)
 DoSCS=F DFT=T ScalE2(SS,OS)=  1.000000  1.000000
 Range of M.O.s used for correlation:     1   106
 NBasis=   106 NAE=    16 NBE=    15 NFC=     0 NFV=     0
 NROrb=    106 NOA=    16 NOB=    15 NVA=    90 NVB=    91

 **** Warning!!: The largest alpha MO coefficient is  0.26723400D+02


 **** Warning!!: The largest beta MO coefficient is  0.26175546D+02

 Leave Link  801 at Tue Feb 19 10:58:46 2019, MaxMem=   196608000 cpu:        11.1
 (Enter /cm/shared/c3ddb/gaussian/09.d01/g09/l1101.exe)
 Using compressed storage, NAtomX=     7.
 Will process      8 centers per pass.
 Leave Link 1101 at Tue Feb 19 10:58:57 2019, MaxMem=   196608000 cpu:        59.4
 (Enter /cm/shared/c3ddb/gaussian/09.d01/g09/l1102.exe)
 Symmetrizing basis deriv contribution to polar:
 IMax=3 JMax=2 DiffMx= 0.00D+00
 Leave Link 1102 at Tue Feb 19 10:58:58 2019, MaxMem=   196608000 cpu:         3.0
 (Enter /cm/shared/c3ddb/gaussian/09.d01/g09/l1110.exe)
 Forming Gx(P) for the SCF density, NAtomX=     7.
 Integral derivatives from FoFJK, PRISM(SPDF).
 Do as many integral derivatives as possible in FoFJK.
 G2DrvN: MDV=     196607840.
 G2DrvN: will do     8 centers at a time, making    1 passes.
 Calling FoFCou, ICntrl=  3107 FMM=F I1Cent=   0 AccDes= 0.00D+00.
 FoFJK:  IHMeth= 1 ICntrl=    3107 DoSepK=F KAlg= 0 I1Cent=   0 FoldK=F
 IRaf=         0 NMat=   1 IRICut=       1 DoRegI=T DoRafI=F ISym2E= 0.
 FoFCou: FMM=F IPFlag=           0 FMFlag=      100000 FMFlg1=           0
         NFxFlg=           0 DoJE=F BraDBF=F KetDBF=F FulRan=T
         wScrn=  0.000000 ICntrl=    3107 IOpCl=  1 I1Cent=           0 NGrid=           0
         NMat0=    1 NMatS0=      1 NMatT0=    0 NMatD0=    1 NMtDS0=    0 NMtDT0=    0
 Symmetry not used in FoFCou.
 End of G2Drv F.D. properties file   721 does not exist.
 End of G2Drv F.D. properties file   722 does not exist.
 End of G2Drv F.D. properties file   788 does not exist.
 Leave Link 1110 at Tue Feb 19 10:59:09 2019, MaxMem=   196608000 cpu:        78.5
 (Enter /cm/shared/c3ddb/gaussian/09.d01/g09/l1002.exe)
 Minotr:  UHF open shell wavefunction.
          IDoAtm=1111111
          Direct CPHF calculation.
          Differentiating once with respect to nuclear coordinates.
          Requested convergence is 1.0D-08 RMS, and 1.0D-07 maximum.
          Secondary convergence is 1.0D-12 RMS, and 1.0D-12 maximum.
          NewPWx=T KeepS1=F KeepF1=F KeepIn=T MapXYZ=F SortEE=F KeepMc=T.
          MDV=     196607714 using IRadAn=       2.
 Generate precomputed XC quadrature information.
 Keep R1 and R2 ints in memory in canonical form, NReq=33098433.
 FoFCou: FMM=F IPFlag=           0 FMFlag=           0 FMFlg1=           0
         NFxFlg=           0 DoJE=F BraDBF=F KetDBF=F FulRan=T
         wScrn=  0.000000 ICntrl=     600 IOpCl=  0 I1Cent=           0 NGrid=           0
         NMat0=    1 NMatS0=   5671 NMatT0=    0 NMatD0=    1 NMtDS0=    0 NMtDT0=    0
 Symmetry not used in FoFCou.
          Solving linear equations simultaneously, MaxMat=       0.
          There are    24 degrees of freedom in the 1st order CPHF.  IDoFFX=6 NUNeed=     0.
     18 vectors produced by pass  0 Test12= 1.17D-14 4.17D-09 XBig12= 2.49D-01 2.92D-01.
 AX will form    18 AO Fock derivatives at one time.
     18 vectors produced by pass  1 Test12= 1.17D-14 4.17D-09 XBig12= 6.02D-02 1.01D-01.
     18 vectors produced by pass  2 Test12= 1.17D-14 4.17D-09 XBig12= 7.22D-03 2.75D-02.
     18 vectors produced by pass  3 Test12= 1.17D-14 4.17D-09 XBig12= 5.22D-05 2.00D-03.
     18 vectors produced by pass  4 Test12= 1.17D-14 4.17D-09 XBig12= 9.92D-07 2.13D-04.
     18 vectors produced by pass  5 Test12= 1.17D-14 4.17D-09 XBig12= 5.08D-09 1.60D-05.
     15 vectors produced by pass  6 Test12= 1.17D-14 4.17D-09 XBig12= 2.22D-11 9.70D-07.
      7 vectors produced by pass  7 Test12= 1.17D-14 4.17D-09 XBig12= 1.14D-13 7.82D-08.
      2 vectors produced by pass  8 Test12= 1.17D-14 4.17D-09 XBig12= 2.77D-15 1.79D-08.
 InvSVY:  IOpt=1 It=  1 EMax= 2.22D-15
 Solved reduced A of dimension   132 with    18 vectors.
 End of Minotr F.D. properties file   721 does not exist.
 End of Minotr F.D. properties file   722 does not exist.
 End of Minotr F.D. properties file   788 does not exist.
 Leave Link 1002 at Tue Feb 19 10:59:34 2019, MaxMem=   196608000 cpu:       141.4
 (Enter /cm/shared/c3ddb/gaussian/09.d01/g09/l601.exe)
 Copying SCF densities to generalized density rwf, IOpCl= 1 IROHF=0.

 **********************************************************************

            Population analysis using the SCF density.

 **********************************************************************

 Orbital symmetries:
 Alpha Orbitals:
       Occupied  (A) (A) (A) (A) (A) (A) (A) (A) (A) (A) (A) (A)
                 (A) (A) (A) (A)
       Virtual   (A) (A) (A) (A) (A) (A) (A) (A) (A) (A) (A) (A)
                 (A) (A) (A) (A) (A) (A) (A) (A) (A) (A) (A) (A)
                 (A) (A) (A) (A) (A) (A) (A) (A) (A) (A) (A) (A)
                 (A) (A) (A) (A) (A) (A) (A) (A) (A) (A) (A) (A)
                 (A) (A) (A) (A) (A) (A) (A) (A) (A) (A) (A) (A)
                 (A) (A) (A) (A) (A) (A) (A) (A) (A) (A) (A) (A)
                 (A) (A) (A) (A) (A) (A) (A) (A) (A) (A) (A) (A)
                 (A) (A) (A) (A) (A) (A)
 Beta  Orbitals:
       Occupied  (A) (A) (A) (A) (A) (A) (A) (A) (A) (A) (A) (A)
                 (A) (A) (A)
       Virtual   (A) (A) (A) (A) (A) (A) (A) (A) (A) (A) (A) (A)
                 (A) (A) (A) (A) (A) (A) (A) (A) (A) (A) (A) (A)
                 (A) (A) (A) (A) (A) (A) (A) (A) (A) (A) (A) (A)
                 (A) (A) (A) (A) (A) (A) (A) (A) (A) (A) (A) (A)
                 (A) (A) (A) (A) (A) (A) (A) (A) (A) (A) (A) (A)
                 (A) (A) (A) (A) (A) (A) (A) (A) (A) (A) (A) (A)
                 (A) (A) (A) (A) (A) (A) (A) (A) (A) (A) (A) (A)
                 (A) (A) (A) (A) (A) (A) (A)
 The electronic state is 2-A.
 Alpha  occ. eigenvalues --  -19.19224 -19.19221 -10.33431 -10.21279  -1.15876
 Alpha  occ. eigenvalues --   -1.03807  -0.78861  -0.57840  -0.53254  -0.50984
 Alpha  occ. eigenvalues --   -0.50796  -0.44323  -0.42960  -0.37106  -0.35194
 Alpha  occ. eigenvalues --   -0.34711
 Alpha virt. eigenvalues --   -0.02730  -0.00606   0.03667   0.04089   0.04143
 Alpha virt. eigenvalues --    0.07208   0.07559   0.08486   0.11392   0.11689
 Alpha virt. eigenvalues --    0.14185   0.19052   0.21035   0.21182   0.21879
 Alpha virt. eigenvalues --    0.21968   0.27201   0.27753   0.28749   0.28969
 Alpha virt. eigenvalues --    0.31496   0.36422   0.39816   0.41949   0.42611
 Alpha virt. eigenvalues --    0.51791   0.53644   0.56795   0.57657   0.63007
 Alpha virt. eigenvalues --    0.67726   0.69000   0.77947   0.84330   0.97094
 Alpha virt. eigenvalues --    1.02637   1.06415   1.06745   1.12447   1.12912
 Alpha virt. eigenvalues --    1.13531   1.22430   1.31377   1.38810   1.40536
 Alpha virt. eigenvalues --    1.44111   1.50503   1.51090   1.54160   1.54861
 Alpha virt. eigenvalues --    1.67705   1.72148   1.79858   1.83855   1.99735
 Alpha virt. eigenvalues --    2.02669   2.17920   2.33500   2.40483   2.45526
 Alpha virt. eigenvalues --    2.45532   2.51839   2.52446   2.63114   2.74202
 Alpha virt. eigenvalues --    2.76105   2.78605   2.82563   2.83743   3.03215
 Alpha virt. eigenvalues --    3.05146   3.19177   3.23915   3.30870   3.54727
 Alpha virt. eigenvalues --    3.59483   3.76331   3.80706   3.99616   4.12574
 Alpha virt. eigenvalues --    4.91721   4.94830   4.99184   5.14178   5.48868
 Alpha virt. eigenvalues --    5.74811  23.79494  23.91543  49.78805  49.92370
  Beta  occ. eigenvalues --  -19.17729 -19.17728 -10.33547 -10.21284  -1.13083
  Beta  occ. eigenvalues --   -1.00186  -0.78577  -0.56525  -0.50401  -0.49677
  Beta  occ. eigenvalues --   -0.49427  -0.43643  -0.42491  -0.32974  -0.31432
  Beta virt. eigenvalues --   -0.19327  -0.02406  -0.00552   0.03761   0.04187
  Beta virt. eigenvalues --    0.04198   0.07351   0.07809   0.08499   0.11440
  Beta virt. eigenvalues --    0.11782   0.14307   0.19135   0.21295   0.21334
  Beta virt. eigenvalues --    0.22067   0.22134   0.27383   0.28424   0.29101
  Beta virt. eigenvalues --    0.29420   0.31922   0.36810   0.40029   0.42692
  Beta virt. eigenvalues --    0.42788   0.52592   0.53525   0.56973   0.57874
  Beta virt. eigenvalues --    0.63078   0.68101   0.69142   0.78043   0.84649
  Beta virt. eigenvalues --    0.97204   1.03397   1.07395   1.07648   1.13911
  Beta virt. eigenvalues --    1.15699   1.15702   1.22857   1.31425   1.38875
  Beta virt. eigenvalues --    1.40621   1.45264   1.50602   1.51437   1.54900
  Beta virt. eigenvalues --    1.55294   1.68422   1.72411   1.79994   1.83870
  Beta virt. eigenvalues --    2.00325   2.02898   2.18021   2.34448   2.40549
  Beta virt. eigenvalues --    2.45592   2.45787   2.51941   2.52767   2.63574
  Beta virt. eigenvalues --    2.78933   2.79308   2.81165   2.85846   2.86756
  Beta virt. eigenvalues --    3.03871   3.06865   3.20518   3.24973   3.32081
  Beta virt. eigenvalues --    3.56257   3.63041   3.76407   3.80879   4.01236
  Beta virt. eigenvalues --    4.13005   4.93074   5.00495   5.00746   5.19627
  Beta virt. eigenvalues --    5.50519   5.76286  23.79372  23.91536  49.80304
  Beta virt. eigenvalues --   49.93867
          Condensed to atoms (all electrons):
               1          2          3          4          5          6
     1  O    8.037278  -0.087388  -0.111663   0.310126   0.000872  -0.003700
     2  O   -0.087388   8.037271  -0.111661   0.310132   0.008881  -0.003699
     3  C   -0.111663  -0.111661   5.243996   0.161807   0.414022   0.384904
     4  C    0.310126   0.310132   0.161807   5.161316  -0.050603  -0.015230
     5  H    0.000872   0.008881   0.414022  -0.050603   0.496982  -0.019248
     6  H   -0.003700  -0.003699   0.384904  -0.015230  -0.019248   0.490962
     7  H    0.008882   0.000873   0.414024  -0.050606  -0.023870  -0.019248
               7
     1  O    0.008882
     2  O    0.000873
     3  C    0.414024
     4  C   -0.050606
     5  H   -0.023870
     6  H   -0.019248
     7  H    0.496982
          Atomic-Atomic Spin Densities.
               1          2          3          4          5          6
     1  O    0.588911  -0.067973   0.019723  -0.002742  -0.003166   0.000483
     2  O   -0.067973   0.588907   0.019723  -0.002744  -0.000591   0.000483
     3  C    0.019723   0.019723  -0.043693  -0.003037   0.005332  -0.001734
     4  C   -0.002742  -0.002744  -0.003037  -0.065801  -0.001955   0.000837
     5  H   -0.003166  -0.000591   0.005332  -0.001955   0.005248   0.000318
     6  H    0.000483   0.000483  -0.001734   0.000837   0.000318  -0.001639
     7  H   -0.000591  -0.003166   0.005334  -0.001956  -0.001486   0.000317
               7
     1  O   -0.000591
     2  O   -0.003166
     3  C    0.005334
     4  C   -0.001956
     5  H   -0.001486
     6  H    0.000317
     7  H    0.005249
 Mulliken charges and spin densities:
               1          2
     1  O   -0.154407   0.534645
     2  O   -0.154409   0.534639
     3  C   -0.395429   0.001648
     4  C    0.173058  -0.077397
     5  H    0.172964   0.003700
     6  H    0.185260  -0.000935
     7  H    0.172963   0.003700
 Sum of Mulliken charges =   0.00000   1.00000
 Mulliken charges and spin densities with hydrogens summed into heavy atoms:
               1          2
     1  O   -0.154407   0.534645
     2  O   -0.154409   0.534639
     3  C    0.135758   0.008113
     4  C    0.173058  -0.077397
 APT charges:
               1
     1  O   -0.116422
     2  O   -0.116424
     3  C   -1.063098
     4  C    0.115747
     5  H    0.391720
     6  H    0.396758
     7  H    0.391718
 Sum of APT charges =   0.00000
 APT charges with hydrogens summed into heavy atoms:
               1
     1  O   -0.116422
     2  O   -0.116424
     3  C    0.117098
     4  C    0.115747
 Electronic spatial extent (au):  <R**2>=            236.9813
 Charge=              0.0000 electrons
 Dipole moment (field-independent basis, Debye):
    X=             -3.4741    Y=              0.0000    Z=              0.0197  Tot=              3.4742
 Quadrupole moment (field-independent basis, Debye-Ang):
   XX=            -23.3911   YY=            -25.7687   ZZ=            -22.2817
   XY=              0.0000   XZ=             -0.0762   YZ=              0.0000
 Traceless Quadrupole moment (field-independent basis, Debye-Ang):
   XX=              0.4227   YY=             -1.9548   ZZ=              1.5321
   XY=              0.0000   XZ=             -0.0762   YZ=              0.0000
 Octapole moment (field-independent basis, Debye-Ang**2):
  XXX=             -0.8023  YYY=              0.0001  ZZZ=              0.8790  XYY=             -3.0058
  XXY=              0.0000  XXZ=              0.0751  XZZ=              0.1225  YZZ=             -0.0002
  YYZ=             -0.8260  XYZ=              0.0000
 Hexadecapole moment (field-independent basis, Debye-Ang**3):
 XXXX=           -165.8329 YYYY=           -101.0507 ZZZZ=            -26.7990 XXXY=              0.0000
 XXXZ=             -0.0589 YYYX=             -0.0003 YYYZ=              0.0000 ZZZX=             -1.6712
 ZZZY=              0.0000 XXYY=            -44.6936 XXZZ=            -30.5129 YYZZ=            -21.4555
 XXYZ=              0.0000 YYXZ=              1.5325 ZZXY=              0.0003
 N-N= 1.135945232897D+02 E-N=-7.636266296364D+02  KE= 2.277603979439D+02
  Exact polarizability:   0.000   0.000   0.000   0.000   0.000   0.000
 Approx polarizability:  40.669   0.000  91.380  -0.442   0.000  29.674
                          Isotropic Fermi Contact Couplings
        Atom                 a.u.       MegaHertz       Gauss      10(-4) cm-1
     1  O(17)              0.03823     -23.17471      -8.26931      -7.73025
     2  O(17)              0.03823     -23.17452      -8.26924      -7.73019
     3  C(13)             -0.01101     -12.37920      -4.41721      -4.12926
     4  C(13)             -0.03417     -38.41254     -13.70655     -12.81304
     5  H(1)               0.00316      14.12659       5.04072       4.71212
     6  H(1)              -0.00077      -3.43639      -1.22619      -1.14626
     7  H(1)               0.00316      14.12927       5.04167       4.71302
 --------------------------------------------------------
       Center         ----  Spin Dipole Couplings  ----
                      3XX-RR        3YY-RR        3ZZ-RR
 --------------------------------------------------------
     1   Atom        0.195971      0.912111     -1.108082
     2   Atom        0.195964      0.912106     -1.108070
     3   Atom        0.001814      0.012856     -0.014669
     4   Atom        0.022622      0.066806     -0.089429
     5   Atom        0.008309     -0.003176     -0.005133
     6   Atom        0.005447     -0.002461     -0.002986
     7   Atom        0.008309     -0.003175     -0.005134
 --------------------------------------------------------
                        XY            XZ            YZ
 --------------------------------------------------------
     1   Atom        1.702804      0.043332      0.054717
     2   Atom       -1.702785      0.043334     -0.054719
     3   Atom        0.000000      0.001477      0.000000
     4   Atom        0.000000      0.001297      0.000000
     5   Atom        0.001494      0.003454      0.001431
     6   Atom        0.000000     -0.004602      0.000000
     7   Atom       -0.001494      0.003454     -0.001431
 --------------------------------------------------------


 ---------------------------------------------------------------------------------
              Anisotropic Spin Dipole Couplings in Principal Axis System
 ---------------------------------------------------------------------------------

       Atom             a.u.   MegaHertz   Gauss  10(-4) cm-1        Axes

              Baa    -1.1860    85.819    30.622    28.626  0.7763 -0.6303  0.0109
     1 O(17)  Bbb    -1.1095    80.283    28.647    26.780 -0.0214 -0.0090  0.9997
              Bcc     2.2955  -166.102   -59.269   -55.406  0.6300  0.7763  0.0205
 
              Baa    -1.1860    85.818    30.622    28.626  0.7763  0.6303  0.0109
     2 O(17)  Bbb    -1.1095    80.282    28.647    26.779 -0.0214  0.0090  0.9997
              Bcc     2.2955  -166.100   -59.269   -55.405 -0.6300  0.7763 -0.0205
 
              Baa    -0.0148    -1.986    -0.709    -0.663 -0.0886  0.0000  0.9961
     3 C(13)  Bbb     0.0019     0.261     0.093     0.087  0.9961  0.0000  0.0886
              Bcc     0.0129     1.725     0.616     0.575  0.0000  1.0000  0.0000
 
              Baa    -0.0894   -12.002    -4.283    -4.004 -0.0116  0.0000  0.9999
     4 C(13)  Bbb     0.0226     3.038     1.084     1.013  0.9999  0.0000  0.0116
              Bcc     0.0668     8.965     3.199     2.990  0.0000  1.0000  0.0000
 
              Baa    -0.0063    -3.380    -1.206    -1.127 -0.1844 -0.3318  0.9251
     5 H(1)   Bbb    -0.0031    -1.636    -0.584    -0.546 -0.2113  0.9327  0.2924
              Bcc     0.0094     5.015     1.790     1.673  0.9599  0.1416  0.2421
 
              Baa    -0.0050    -2.673    -0.954    -0.892  0.4028  0.0000  0.9153
     6 H(1)   Bbb    -0.0025    -1.313    -0.469    -0.438  0.0000  1.0000  0.0000
              Bcc     0.0075     3.987     1.423     1.330  0.9153  0.0000 -0.4028
 
              Baa    -0.0063    -3.380    -1.206    -1.127 -0.1843  0.3318  0.9252
     7 H(1)   Bbb    -0.0031    -1.636    -0.584    -0.546  0.2113  0.9327 -0.2924
              Bcc     0.0094     5.016     1.790     1.673  0.9599 -0.1416  0.2420
 

 ---------------------------------------------------------------------------------

 No NMR shielding tensors so no spin-rotation constants.
 Leave Link  601 at Tue Feb 19 10:59:35 2019, MaxMem=   196608000 cpu:         8.9
 (Enter /cm/shared/c3ddb/gaussian/09.d01/g09/l701.exe)
 Compute integral second derivatives.
 ... and contract with generalized density number  0.
 Leave Link  701 at Tue Feb 19 10:59:36 2019, MaxMem=   196608000 cpu:         5.1
 (Enter /cm/shared/c3ddb/gaussian/09.d01/g09/l702.exe)
 L702 exits ... SP integral derivatives will be done elsewhere.
 Leave Link  702 at Tue Feb 19 10:59:37 2019, MaxMem=   196608000 cpu:         1.6
 (Enter /cm/shared/c3ddb/gaussian/09.d01/g09/l703.exe)
 Compute integral second derivatives, UseDBF=F ICtDFT=           0.
 Integral derivatives from FoFJK, PRISM(SPDF).
 Calling FoFJK, ICntrl=    100147 FMM=F ISym2X=0 I1Cent= 0 IOpClX= 1 NMat=1 NMatS=1 NMatT=0.
 FoFJK:  IHMeth= 1 ICntrl=  100147 DoSepK=F KAlg= 0 I1Cent=   0 FoldK=F
 IRaf=         0 NMat=   1 IRICut=       1 DoRegI=T DoRafI=F ISym2E= 0.
 FoFCou: FMM=F IPFlag=           0 FMFlag=      100000 FMFlg1=         800
         NFxFlg=           0 DoJE=F BraDBF=F KetDBF=F FulRan=T
         wScrn=  0.000000 ICntrl=  100147 IOpCl=  1 I1Cent=           0 NGrid=           0
         NMat0=    1 NMatS0=      1 NMatT0=    0 NMatD0=    1 NMtDS0=    0 NMtDT0=    0
 Symmetry not used in FoFCou.
 Leave Link  703 at Tue Feb 19 10:59:51 2019, MaxMem=   196608000 cpu:        87.5
 (Enter /cm/shared/c3ddb/gaussian/09.d01/g09/l716.exe)
 Dipole        =-1.36683425D+00-3.24483012D-06 7.75922456D-03
 Polarizability= 0.00000000D+00 0.00000000D+00 0.00000000D+00
                 0.00000000D+00 0.00000000D+00 0.00000000D+00
 ***** Axes restored to original set *****
 -------------------------------------------------------------------
 Center     Atomic                   Forces (Hartrees/Bohr)
 Number     Number              X              Y              Z
 -------------------------------------------------------------------
      1        8          -0.003917139   -0.009877709   -0.000541948
      2        8          -0.004044963    0.009830552    0.000477250
      3        6           0.001023321    0.000013562   -0.000117280
      4        6           0.005490947    0.000022815    0.000226020
      5        1           0.000419692   -0.000183870    0.000129843
      6        1           0.000610952    0.000020190   -0.000322533
      7        1           0.000417190    0.000174461    0.000148648
 -------------------------------------------------------------------
 Cartesian Forces:  Max     0.009877709 RMS     0.003509378
 Force constants in Cartesian coordinates: 
                1             2             3             4             5 
      1  0.226391D+00
      2  0.219221D+00  0.413511D+00
      3  0.133313D-01  0.225145D-01  0.159798D-01
      4  0.657008D-01  0.585159D-01  0.422284D-02  0.232086D+00
      5 -0.551938D-01 -0.201314D+00 -0.121979D-01 -0.221784D+00  0.408228D+00
      6 -0.166806D-02 -0.106246D-01  0.188925D-01 -0.945181D-02  0.184869D-01
      7 -0.185128D-01 -0.117998D-01 -0.817784D-03 -0.192151D-01  0.117523D-01
      8 -0.428150D-01 -0.140056D-01 -0.149861D-03  0.424676D-01 -0.130009D-01
      9  0.503778D-03 -0.556239D-03  0.215545D-01  0.493046D-02 -0.302875D-02
     10 -0.266750D+00 -0.264069D+00 -0.161883D-01 -0.271675D+00  0.263372D+00
     11 -0.117936D+00 -0.196306D+00 -0.855610D-02  0.117319D+00 -0.191817D+00
     12 -0.938613D-02 -0.994096D-02 -0.570130D-01  0.274583D-02 -0.433725D-02
     13  0.427090D-02  0.235880D-02  0.238730D-02 -0.960419D-02  0.367548D-02
     14 -0.331899D-03 -0.121163D-02 -0.667487D-05  0.122227D-02  0.175503D-03
     15 -0.155525D-02 -0.230922D-03  0.471523D-04 -0.445279D-03  0.354136D-04
     16 -0.156076D-02 -0.208336D-03 -0.483611D-02 -0.158931D-02  0.699027D-03
     17 -0.164797D-02 -0.860725D-03 -0.898187D-03  0.169854D-02 -0.102322D-02
     18 -0.651072D-03 -0.105169D-02 -0.259688D-03 -0.491072D-03  0.963500D-03
     19 -0.953893D-02 -0.401857D-02  0.190072D-02  0.429713D-02 -0.252165D-02
     20 -0.129568D-02  0.187999D-03 -0.705739D-03  0.561041D-03 -0.124865D-02
     21 -0.574588D-03 -0.110023D-03  0.798764D-03 -0.151097D-02  0.780919D-04
                6             7             8             9            10 
      6  0.155766D-01
      7  0.421986D-03  0.489684D+00
      8 -0.347286D-02 -0.123912D-02  0.583720D+00
      9  0.212529D-01  0.122306D-01  0.270778D-02  0.532994D+00
     10  0.110726D-01 -0.223320D+00 -0.484888D-03 -0.117183D-01  0.789509D+00
     11 -0.571231D-02 -0.110222D-02 -0.548063D-01  0.186138D-02  0.200735D-02
     12 -0.565875D-01  0.271023D-03  0.193881D-02 -0.921546D-01  0.471311D-02
     13  0.229036D-02 -0.801011D-01  0.781787D-01 -0.405429D-01 -0.903459D-02
     14  0.664825D-03  0.792650D-01 -0.239516D+00  0.939049D-01 -0.711011D-03
     15  0.876667D-03 -0.415954D-01  0.934684D-01 -0.889868D-01  0.480624D-02
     16 -0.479997D-02 -0.703803D-01 -0.440230D-02  0.815704D-01 -0.997535D-02
     17  0.755255D-03 -0.419878D-02 -0.417913D-01  0.131142D-01 -0.187263D-03
     18 -0.697469D-04  0.776282D-01  0.130889D-01 -0.284811D+00  0.249753D-02
     19  0.213494D-02 -0.781544D-01 -0.717050D-01 -0.469740D-01 -0.875430D-02
     20 -0.971873D-04 -0.726774D-01 -0.220600D+00 -0.108003D+00  0.719019D-04
     21  0.585245D-04 -0.481386D-01 -0.107581D+00 -0.109849D+00  0.481714D-02
               11            12            13            14            15 
     11  0.439425D+00
     12  0.120346D-01  0.207918D+00
     13  0.229931D-01 -0.174403D-01  0.854648D-01
     14  0.255980D-02 -0.222613D-02 -0.879801D-01  0.255856D+00
     15 -0.202609D-02 -0.185098D-02  0.431723D-01 -0.103086D+00  0.936943D-01
     16 -0.206619D-02  0.388484D-01  0.393689D-02 -0.491713D-03 -0.119939D-01
     17 -0.861878D-03  0.151559D-03 -0.976167D-02 -0.372116D-03  0.253643D-01
     18 -0.829040D-04  0.106671D-02  0.363562D-02 -0.291324D-03 -0.111594D-01
     19 -0.212143D-01 -0.197520D-01  0.506730D-02  0.902753D-02  0.761122D-02
     20  0.180681D-02  0.237935D-02 -0.946426D-02 -0.174910D-01 -0.135249D-01
     21  0.248140D-02 -0.137867D-02  0.649760D-02  0.110406D-01  0.737904D-02
               16            17            18            19            20 
     16  0.757698D-01
     17  0.472390D-02  0.426839D-01
     18 -0.872309D-01 -0.143498D-01  0.308852D+00
     19  0.379896D-02  0.937324D-02  0.461173D-02  0.832842D-01
     20  0.174562D-02  0.222540D-02  0.172335D-02  0.810587D-01  0.235120D+00
     21 -0.115580D-01 -0.241374D-01 -0.136190D-01  0.504674D-01  0.118228D+00
               21 
     21  0.116611D+00
 FormGI is forming the generalized inverse of G from B-inverse, IUseBI=4.
 Force constants in internal coordinates: 
                1             2             3             4             5 
      1  0.559506D+00
      2  0.211398D+00  0.559517D+00
      3  0.258252D-01  0.258251D-01  0.302543D+00
      4 -0.215006D-02  0.360843D-02  0.398492D-02  0.343193D+00
      5 -0.701378D-03 -0.700829D-03  0.541315D-02  0.228346D-02  0.338654D+00
      6  0.360889D-02 -0.215005D-02  0.398480D-02  0.180604D-02  0.228352D-02
      7 -0.854671D-02  0.123285D-01  0.145208D-01  0.586481D-02 -0.658228D-02
      8  0.179273D-02  0.179429D-02  0.114207D-01 -0.665519D-02  0.703794D-02
      9  0.123295D-01 -0.854749D-02  0.145212D-01 -0.592374D-02 -0.658213D-02
     10  0.195028D-02 -0.496856D-02 -0.140413D-01  0.431308D-02  0.386720D-02
     11 -0.255483D-02 -0.255415D-02 -0.126174D-01  0.350991D-02 -0.115991D-02
     12 -0.496848D-02  0.194987D-02 -0.140409D-01 -0.128495D-02  0.386723D-02
     13  0.378425D-01  0.378430D-01 -0.212367D-01 -0.248749D-02 -0.644112D-03
     14  0.261668D-01 -0.640117D-01  0.106133D-01 -0.234657D-02  0.305777D-03
     15 -0.640116D-01  0.261664D-01  0.106135D-01  0.485065D-02  0.306438D-03
     16  0.596201D-03 -0.902454D-03  0.130421D-02  0.412477D-03 -0.595982D-02
     17  0.206036D-03 -0.129259D-02  0.212782D-02 -0.451637D-03 -0.422483D-02
     18 -0.936168D-03  0.132641D-02 -0.411973D-03  0.506014D-02 -0.867559D-03
     19 -0.132633D-02  0.936274D-03  0.411641D-03  0.419603D-02  0.867432D-03
     20  0.129238D-02 -0.205947D-03 -0.212759D-02 -0.395112D-02  0.422480D-02
     21  0.902216D-03 -0.596085D-03 -0.130398D-02 -0.481524D-02  0.595979D-02
                6             7             8             9            10 
      6  0.343192D+00
      7 -0.592382D-02  0.100204D+00
      8 -0.665511D-02 -0.156471D-01  0.985091D-01
      9  0.586481D-02 -0.191268D-01 -0.156470D-01  0.100204D+00
     10 -0.128490D-02 -0.360643D-01 -0.369979D-01  0.768476D-02  0.519108D-01
     11  0.350986D-02 -0.380437D-01  0.821130D-02 -0.380440D-01  0.693462D-02
     12  0.431313D-02  0.768476D-02 -0.369979D-01 -0.360645D-01  0.671290D-02
     13 -0.248781D-02 -0.219335D-02 -0.139735D-02 -0.219300D-02  0.161348D-02
     14  0.485100D-02 -0.140720D-01  0.600270D-03  0.163564D-01  0.412849D-02
     15 -0.234661D-02  0.163555D-01  0.602597D-03 -0.140733D-01 -0.570799D-02
     16  0.481514D-02  0.263498D-02 -0.104983D-01  0.825605D-02 -0.935275D-02
     17  0.395123D-02 -0.221273D-02  0.462514D-04  0.340959D-02 -0.112135D-01
     18 -0.419613D-02  0.781292D-02 -0.527210D-02 -0.296592D-02  0.103947D-01
     19 -0.506004D-02  0.296522D-02  0.527240D-02 -0.781238D-02  0.853391D-02
     20  0.451651D-03 -0.340896D-02 -0.461778D-04  0.221200D-02  0.768019D-03
     21 -0.412265D-03 -0.825667D-02  0.104983D-01 -0.263446D-02 -0.109277D-02
               11            12            13            14            15 
     11  0.542580D-01
     12  0.693465D-02  0.519109D-01
     13  0.257297D-02  0.161356D-02  0.176706D+00
     14 -0.131602D-02 -0.570758D-02 -0.883667D-01  0.127152D+00
     15 -0.131518D-02  0.412800D-02 -0.883672D-01 -0.387656D-01  0.127152D+00
     16  0.724332D-02  0.109299D-02  0.606541D-03  0.677599D-03 -0.966133D-03
     17  0.103596D-01 -0.768154D-03 -0.287739D-03  0.829931D-03 -0.813724D-03
     18 -0.155818D-02 -0.853380D-02  0.447024D-03 -0.214613D-02  0.199388D-02
     19  0.155812D-02 -0.103949D-01 -0.447255D-03 -0.199380D-02  0.214629D-02
     20 -0.103597D-01  0.112139D-01  0.287823D-03  0.813484D-03 -0.829773D-03
     21 -0.724344D-02  0.935273D-02 -0.606456D-03  0.965815D-03 -0.677364D-03
               16            17            18            19            20 
     16  0.196128D-01
     17  0.239404D-02  0.170932D-01
     18  0.348364D-02 -0.124755D-01  0.174782D-01
     19 -0.137351D-01  0.222364D-02  0.151906D-02  0.174778D-01
     20  0.330494D-02 -0.113943D-01  0.222398D-02 -0.124753D-01  0.170935D-01
     21 -0.139138D-01  0.330483D-02 -0.137352D-01  0.348349D-02  0.239426D-02
               21 
     21  0.196129D-01
 Leave Link  716 at Tue Feb 19 11:00:01 2019, MaxMem=   196608000 cpu:         9.0
 (Enter /cm/shared/c3ddb/gaussian/09.d01/g09/l103.exe)

 GradGradGradGradGradGradGradGradGradGradGradGradGradGradGradGradGradGrad
 Berny optimization.
 Red2BG is reusing G-inverse.
 Internal  Forces:  Max     0.010388720 RMS     0.003402796
 Search for a local minimum.
 Step number   1 out of a maximum of   31 on scan point     1 out of    46
 All quantities printed in internal units (Hartrees-Bohrs-Radians)
 RMS Force = .34868D-02 SwitMx=.10000D-02 MixMth= 1
 Mixed Optimization -- RFO/linear search
 Second derivative matrix not updated -- analytic derivatives used.
 ITU=  0
     Eigenvalues ---    0.01634   0.04509   0.05396   0.11110   0.12574
     Eigenvalues ---    0.13810   0.15295   0.24178   0.31955   0.33845
     Eigenvalues ---    0.34069   0.34860   0.39129   0.781641000.00000
     Eigenvalues --- 1000.000001000.000001000.000001000.000001000.00000
     Eigenvalues --- 1000.00000
 RFO step:  Lambda=-3.40491920D-04 EMin= 1.63412522D-02
 Linear search not attempted -- first point.
 Iteration  1 RMS(Cart)=  0.00603457 RMS(Int)=  0.00001928
 Iteration  2 RMS(Cart)=  0.00002095 RMS(Int)=  0.00000194
 Iteration  3 RMS(Cart)=  0.00000000 RMS(Int)=  0.00000194
 Iteration  1 RMS(Cart)=  0.00000019 RMS(Int)=  0.00000026
 ITry= 1 IFail=0 DXMaxC= 1.76D-02 DCOld= 1.00D+10 DXMaxT= 3.00D-01 DXLimC= 3.00D+00 Rises=F
 Variable       Old X    -DE/DX   Delta X   Delta X   Delta X     New X
                                 (Linear)    (Quad)   (Total)
    R1        2.36410   0.01039   0.00000   0.01242   0.01242   2.37651
    R2        2.36409   0.01039   0.00000   0.01242   0.01242   2.37652
    R3        2.81282   0.00247   0.00000   0.00660   0.00660   2.81942
    R4        2.06076   0.00036   0.00000   0.00116   0.00116   2.06192
    R5        2.06528   0.00050   0.00000   0.00134   0.00134   2.06662
    R6        2.06076   0.00036   0.00000   0.00116   0.00116   2.06193
    A1        1.92131   0.00027   0.00000   0.00103   0.00102   1.92234
    A2        1.89266   0.00061   0.00000   0.00446   0.00445   1.89711
    A3        1.92131   0.00027   0.00000   0.00102   0.00102   1.92233
    A4        1.89817  -0.00039   0.00000  -0.00178  -0.00178   1.89639
    A5        1.93148  -0.00037   0.00000  -0.00285  -0.00285   1.92862
    A6        1.89817  -0.00039   0.00000  -0.00179  -0.00180   1.89637
    A7        1.93826   0.00363   0.00000   0.01078   0.01078   1.94904
    A8        2.17234  -0.00181   0.00000  -0.00537  -0.00537   2.16697
    A9        2.17234  -0.00181   0.00000  -0.00538  -0.00538   2.16696
    D1       -0.51663  -0.00003   0.00000   0.00000   0.00000  -0.51663
    D2        2.65033  -0.00007   0.00000  -0.00131  -0.00131   2.64901
    D3        1.55805   0.00002   0.00000   0.00112   0.00113   1.55917
    D4       -1.55818  -0.00002   0.00000  -0.00019  -0.00019  -1.55837
    D5       -2.65047   0.00007   0.00000   0.00222   0.00223  -2.64824
    D6        0.51649   0.00003   0.00000   0.00091   0.00091   0.51740
         Item               Value     Threshold  Converged?
 Maximum Force            0.010389     0.000450     NO 
 RMS     Force            0.003487     0.000300     NO 
 Maximum Displacement     0.017556     0.001800     NO 
 RMS     Displacement     0.006033     0.001200     NO 
 Predicted change in Energy=-1.703441D-04
 Lowest energy point so far.  Saving SCF results.
 GradGradGradGradGradGradGradGradGradGradGradGradGradGradGradGradGradGrad

 Leave Link  103 at Tue Feb 19 11:00:05 2019, MaxMem=   196608000 cpu:        19.6
 (Enter /cm/shared/c3ddb/gaussian/09.d01/g09/l202.exe)
                          Input orientation:                          
 ---------------------------------------------------------------------
 Center     Atomic      Atomic             Coordinates (Angstroms)
 Number     Number       Type             X           Y           Z
 ---------------------------------------------------------------------
      1          8           0       -0.804827   -1.046974   -0.052564
      2          8           0       -0.818232    1.031390    0.054350
      3          6           0        1.386541    0.006575   -0.002731
      4          6           0       -0.105357   -0.003615    0.008212
      5          1           0        1.771825   -0.911793    0.443033
      6          1           0        1.729133    0.062550   -1.039784
      7          1           0        1.760267    0.878825    0.535841
 ---------------------------------------------------------------------
                    Distance matrix (angstroms):
                    1          2          3          4          5
     1  O    0.000000
     2  O    2.081155   0.000000
     3  C    2.431984   2.431981   0.000000
     4  C    1.257597   1.257599   1.491973   0.000000
     5  H    2.627361   3.261200   1.091123   2.130180   0.000000
     6  H    2.937107   2.936809   1.093609   2.113771   1.774799
     7  H    3.261078   2.627503   1.091124   2.130175   1.793058
                    6          7
     6  H    0.000000
     7  H    1.774787   0.000000
 Stoichiometry    C2H3O2(2)
 Framework group  C1[X(C2H3O2)]
 Deg. of freedom    15
 Full point group                 C1      NOp   1
 RotChk:  IX=3 Diff= 1.06D-03
 Largest Abelian subgroup         C1      NOp   1
 Largest concise Abelian subgroup C1      NOp   1
                         Standard orientation:                         
 ---------------------------------------------------------------------
 Center     Atomic      Atomic             Coordinates (Angstroms)
 Number     Number       Type             X           Y           Z
 ---------------------------------------------------------------------
      1          8           0        0.810388   -1.040574    0.001636
      2          8           0        0.810373    1.040582    0.001636
      3          6           0       -1.387736   -0.000009   -0.002802
      4          6           0        0.104227   -0.000002   -0.008284
      5          1           0       -1.765271   -0.896730   -0.496673
      6          1           0       -1.734490    0.000405    1.034378
      7          1           0       -1.765274    0.896329   -0.497367
 ---------------------------------------------------------------------
 Rotational constants (GHZ):     13.3571195      9.2428663      5.6555828
 Leave Link  202 at Tue Feb 19 11:00:06 2019, MaxMem=   196608000 cpu:         0.4
 (Enter /cm/shared/c3ddb/gaussian/09.d01/g09/l301.exe)
 Standard basis: 6-311+G(d,p) (5D, 7F)
 Ernie: Thresh=  0.10000D-02 Tol=  0.10000D-05 Strict=F.
 There are   110 symmetry adapted cartesian basis functions of A   symmetry.
 There are   106 symmetry adapted basis functions of A   symmetry.
   106 basis functions,   168 primitive gaussians,   110 cartesian basis functions
    16 alpha electrons       15 beta electrons
       nuclear repulsion energy       113.1251985148 Hartrees.
 IExCor=  402 DFT=T Ex+Corr=B3LYP ExCW=0 ScaHFX=  0.200000
 ScaDFX=  0.800000  0.720000  1.000000  0.810000 ScalE2=  1.000000  1.000000
 IRadAn=      0 IRanWt=     -1 IRanGd=            0 ICorTp=0 IEmpDi=  4
 NAtoms=    7 NActive=    7 NUniq=    7 SFac= 1.00D+00 NAtFMM=   60 NAOKFM=F Big=F
 Integral buffers will be    131072 words long.
 Raffenetti 2 integral format.
 Two-electron integral symmetry is turned on.
 Leave Link  301 at Tue Feb 19 11:00:06 2019, MaxMem=   196608000 cpu:         1.1
 (Enter /cm/shared/c3ddb/gaussian/09.d01/g09/l302.exe)
 NPDir=0 NMtPBC=     1 NCelOv=     1 NCel=       1 NClECP=     1 NCelD=      1
         NCelK=      1 NCelE2=     1 NClLst=     1 CellRange=     0.0.
 One-electron integrals computed using PRISM.
 NBasis=   106 RedAO= T EigKep=  1.44D-04  NBF=   106
 NBsUse=   106 1.00D-06 EigRej= -1.00D+00 NBFU=   106
 Precomputing XC quadrature grid using
 IXCGrd= 4 IRadAn=           0 IRanWt=          -1 IRanGd=           0 AccXCQ= 0.00D+00.
 Generated NRdTot=       0 NPtTot=           0 NUsed=           0 NTot=          32
 NSgBfM=   110   110   110   110   110 MxSgAt=     7 MxSgA2=     7.
 Leave Link  302 at Tue Feb 19 11:00:07 2019, MaxMem=   196608000 cpu:         5.0
 (Enter /cm/shared/c3ddb/gaussian/09.d01/g09/l303.exe)
 DipDrv:  MaxL=1.
 Leave Link  303 at Tue Feb 19 11:00:07 2019, MaxMem=   196608000 cpu:         0.9
 (Enter /cm/shared/c3ddb/gaussian/09.d01/g09/l401.exe)
 Initial guess from the checkpoint file:  "check.chk"
 B after Tr=     0.000000    0.000000    0.000000
         Rot=    1.000000    0.000036    0.000128   -0.000003 Ang=   0.02 deg.
 Guess basis will be translated and rotated to current coordinates.
 JPrj=2 DoOrth=T DoCkMO=T.
 Initial guess <Sx>= 0.0000 <Sy>= 0.0000 <Sz>= 0.5000 <S**2>= 0.7568 S= 0.5034
 Leave Link  401 at Tue Feb 19 11:00:08 2019, MaxMem=   196608000 cpu:         7.2
 (Enter /cm/shared/c3ddb/gaussian/09.d01/g09/l502.exe)
 UHF open shell SCF:
 Using DIIS extrapolation, IDIIS=  1040.
 Integral symmetry usage will be decided dynamically.
 Keep R1 and R2 ints in memory in canonical form, NReq=33141150.
 IVT=       43938 IEndB=       43938 NGot=   196608000 MDV=   164398151
 LenX=   164398151 LenY=   164385610
 Requested convergence on RMS density matrix=1.00D-08 within  64 cycles.
 Requested convergence on MAX density matrix=1.00D-06.
 Requested convergence on             energy=1.00D-06.
 No special actions if energy rises.
 FoFCou: FMM=F IPFlag=           0 FMFlag=           0 FMFlg1=           0
         NFxFlg=           0 DoJE=F BraDBF=F KetDBF=F FulRan=T
         wScrn=  0.000000 ICntrl=     600 IOpCl=  0 I1Cent=           0 NGrid=           0
         NMat0=    1 NMatS0=   5671 NMatT0=    0 NMatD0=    1 NMtDS0=    0 NMtDT0=    0
 Symmetry not used in FoFCou.

 Cycle   1  Pass 1  IDiag  1:
 E= -228.485766698445    
 DIIS: error= 9.59D-04 at cycle   1 NSaved=   1.
 NSaved= 1 IEnMin= 1 EnMin= -228.485766698445     IErMin= 1 ErrMin= 9.59D-04
 ErrMax= 9.59D-04  0.00D+00 EMaxC= 1.00D-01 BMatC= 3.16D-04 BMatP= 3.16D-04
 IDIUse=3 WtCom= 9.90D-01 WtEn= 9.59D-03
 Coeff-Com:  0.100D+01
 Coeff-En:   0.100D+01
 Coeff:      0.100D+01
 Gap=     0.528 Goal=   None    Shift=    0.000
 Gap=     0.496 Goal=   None    Shift=    0.000
 RMSDP=1.12D-04 MaxDP=1.35D-03              OVMax= 3.10D-03

 Cycle   2  Pass 1  IDiag  1:
 E= -228.485835623933     Delta-E=       -0.000068925488 Rises=F Damp=F
 DIIS: error= 4.76D-04 at cycle   2 NSaved=   2.
 NSaved= 2 IEnMin= 2 EnMin= -228.485835623933     IErMin= 2 ErrMin= 4.76D-04
 ErrMax= 4.76D-04  0.00D+00 EMaxC= 1.00D-01 BMatC= 4.57D-05 BMatP= 3.16D-04
 IDIUse=3 WtCom= 9.95D-01 WtEn= 4.76D-03
 Coeff-Com:  0.187D+00 0.813D+00
 Coeff-En:   0.000D+00 0.100D+01
 Coeff:      0.186D+00 0.814D+00
 Gap=     0.317 Goal=   None    Shift=    0.000
 Gap=     0.118 Goal=   None    Shift=    0.000
 RMSDP=4.11D-05 MaxDP=1.53D-03 DE=-6.89D-05 OVMax= 1.68D-03

 Cycle   3  Pass 1  IDiag  1:
 E= -228.485838573659     Delta-E=       -0.000002949726 Rises=F Damp=F
 DIIS: error= 4.97D-04 at cycle   3 NSaved=   3.
 NSaved= 3 IEnMin= 3 EnMin= -228.485838573659     IErMin= 2 ErrMin= 4.76D-04
 ErrMax= 4.97D-04  0.00D+00 EMaxC= 1.00D-01 BMatC= 3.45D-05 BMatP= 4.57D-05
 IDIUse=3 WtCom= 9.95D-01 WtEn= 4.97D-03
 Coeff-Com:  0.673D-03 0.463D+00 0.537D+00
 Coeff-En:   0.000D+00 0.413D+00 0.587D+00
 Coeff:      0.669D-03 0.463D+00 0.537D+00
 Gap=     0.318 Goal=   None    Shift=    0.000
 Gap=     0.118 Goal=   None    Shift=    0.000
 RMSDP=2.23D-05 MaxDP=6.14D-04 DE=-2.95D-06 OVMax= 9.99D-04

 Cycle   4  Pass 1  IDiag  1:
 E= -228.485845111034     Delta-E=       -0.000006537375 Rises=F Damp=F
 DIIS: error= 9.75D-05 at cycle   4 NSaved=   4.
 NSaved= 4 IEnMin= 4 EnMin= -228.485845111034     IErMin= 4 ErrMin= 9.75D-05
 ErrMax= 9.75D-05  0.00D+00 EMaxC= 1.00D-01 BMatC= 2.52D-06 BMatP= 3.45D-05
 IDIUse=1 WtCom= 1.00D+00 WtEn= 0.00D+00
 Coeff-Com: -0.137D-01 0.191D+00 0.293D+00 0.529D+00
 Coeff:     -0.137D-01 0.191D+00 0.293D+00 0.529D+00
 Gap=     0.318 Goal=   None    Shift=    0.000
 Gap=     0.118 Goal=   None    Shift=    0.000
 RMSDP=5.47D-06 MaxDP=1.05D-04 DE=-6.54D-06 OVMax= 2.07D-04

 Cycle   5  Pass 1  IDiag  1:
 E= -228.485845556135     Delta-E=       -0.000000445101 Rises=F Damp=F
 DIIS: error= 1.79D-05 at cycle   5 NSaved=   5.
 NSaved= 5 IEnMin= 5 EnMin= -228.485845556135     IErMin= 5 ErrMin= 1.79D-05
 ErrMax= 1.79D-05  0.00D+00 EMaxC= 1.00D-01 BMatC= 6.85D-08 BMatP= 2.52D-06
 IDIUse=1 WtCom= 1.00D+00 WtEn= 0.00D+00
 Coeff-Com: -0.204D-02-0.459D-02 0.174D-01 0.129D+00 0.861D+00
 Coeff:     -0.204D-02-0.459D-02 0.174D-01 0.129D+00 0.861D+00
 Gap=     0.318 Goal=   None    Shift=    0.000
 Gap=     0.118 Goal=   None    Shift=    0.000
 RMSDP=1.75D-06 MaxDP=2.36D-05 DE=-4.45D-07 OVMax= 1.53D-04

 Cycle   6  Pass 1  IDiag  1:
 E= -228.485845583400     Delta-E=       -0.000000027266 Rises=F Damp=F
 DIIS: error= 5.72D-06 at cycle   6 NSaved=   6.
 NSaved= 6 IEnMin= 6 EnMin= -228.485845583400     IErMin= 6 ErrMin= 5.72D-06
 ErrMax= 5.72D-06  0.00D+00 EMaxC= 1.00D-01 BMatC= 9.73D-09 BMatP= 6.85D-08
 IDIUse=1 WtCom= 1.00D+00 WtEn= 0.00D+00
 Coeff-Com:  0.114D-02-0.308D-01-0.406D-01-0.462D-01 0.217D+00 0.899D+00
 Coeff:      0.114D-02-0.308D-01-0.406D-01-0.462D-01 0.217D+00 0.899D+00
 Gap=     0.318 Goal=   None    Shift=    0.000
 Gap=     0.118 Goal=   None    Shift=    0.000
 RMSDP=9.90D-07 MaxDP=1.37D-05 DE=-2.73D-08 OVMax= 6.47D-05

 Cycle   7  Pass 1  IDiag  1:
 E= -228.485845587627     Delta-E=       -0.000000004227 Rises=F Damp=F
 DIIS: error= 1.85D-06 at cycle   7 NSaved=   7.
 NSaved= 7 IEnMin= 7 EnMin= -228.485845587627     IErMin= 7 ErrMin= 1.85D-06
 ErrMax= 1.85D-06  0.00D+00 EMaxC= 1.00D-01 BMatC= 2.08D-09 BMatP= 9.73D-09
 IDIUse=1 WtCom= 1.00D+00 WtEn= 0.00D+00
 Coeff-Com:  0.675D-03-0.129D-01-0.195D-01-0.303D-01 0.212D-01 0.390D+00
 Coeff-Com:  0.651D+00
 Coeff:      0.675D-03-0.129D-01-0.195D-01-0.303D-01 0.212D-01 0.390D+00
 Coeff:      0.651D+00
 Gap=     0.318 Goal=   None    Shift=    0.000
 Gap=     0.118 Goal=   None    Shift=    0.000
 RMSDP=3.23D-07 MaxDP=6.58D-06 DE=-4.23D-09 OVMax= 3.06D-05

 Cycle   8  Pass 1  IDiag  1:
 E= -228.485845587545     Delta-E=        0.000000000082 Rises=F Damp=F
 DIIS: error= 3.97D-06 at cycle   8 NSaved=   8.
 NSaved= 8 IEnMin= 7 EnMin= -228.485845587627     IErMin= 7 ErrMin= 1.85D-06
 ErrMax= 3.97D-06  0.00D+00 EMaxC= 1.00D-01 BMatC= 3.54D-09 BMatP= 2.08D-09
 IDIUse=1 WtCom= 1.00D+00 WtEn= 0.00D+00
 Coeff-Com:  0.350D-03-0.494D-02-0.857D-02-0.162D-01-0.222D-01 0.156D+00
 Coeff-Com:  0.564D+00 0.331D+00
 Coeff:      0.350D-03-0.494D-02-0.857D-02-0.162D-01-0.222D-01 0.156D+00
 Coeff:      0.564D+00 0.331D+00
 Gap=     0.318 Goal=   None    Shift=    0.000
 Gap=     0.118 Goal=   None    Shift=    0.000
 RMSDP=2.13D-07 MaxDP=4.44D-06 DE= 8.24D-11 OVMax= 2.75D-05

 Cycle   9  Pass 1  IDiag  1:
 E= -228.485845588133     Delta-E=       -0.000000000589 Rises=F Damp=F
 DIIS: error= 1.41D-06 at cycle   9 NSaved=   9.
 NSaved= 9 IEnMin= 9 EnMin= -228.485845588133     IErMin= 9 ErrMin= 1.41D-06
 ErrMax= 1.41D-06  0.00D+00 EMaxC= 1.00D-01 BMatC= 5.55D-10 BMatP= 2.08D-09
 IDIUse=1 WtCom= 1.00D+00 WtEn= 0.00D+00
 Coeff-Com:  0.405D-05 0.146D-02 0.131D-02-0.169D-03-0.269D-01-0.369D-01
 Coeff-Com:  0.206D+00 0.298D+00 0.557D+00
 Coeff:      0.405D-05 0.146D-02 0.131D-02-0.169D-03-0.269D-01-0.369D-01
 Coeff:      0.206D+00 0.298D+00 0.557D+00
 Gap=     0.318 Goal=   None    Shift=    0.000
 Gap=     0.118 Goal=   None    Shift=    0.000
 RMSDP=7.23D-08 MaxDP=1.43D-06 DE=-5.89D-10 OVMax= 7.67D-06

 Cycle  10  Pass 1  IDiag  1:
 E= -228.485845588250     Delta-E=       -0.000000000116 Rises=F Damp=F
 DIIS: error= 9.15D-08 at cycle  10 NSaved=  10.
 NSaved=10 IEnMin=10 EnMin= -228.485845588250     IErMin=10 ErrMin= 9.15D-08
 ErrMax= 9.15D-08  0.00D+00 EMaxC= 1.00D-01 BMatC= 1.61D-12 BMatP= 5.55D-10
 IDIUse=1 WtCom= 1.00D+00 WtEn= 0.00D+00
 Coeff-Com: -0.161D-04 0.164D-03 0.360D-03 0.838D-03 0.564D-04-0.100D-01
 Coeff-Com: -0.214D-01-0.113D-01 0.132D-01 0.103D+01
 Coeff:     -0.161D-04 0.164D-03 0.360D-03 0.838D-03 0.564D-04-0.100D-01
 Coeff:     -0.214D-01-0.113D-01 0.132D-01 0.103D+01
 Gap=     0.318 Goal=   None    Shift=    0.000
 Gap=     0.118 Goal=   None    Shift=    0.000
 RMSDP=1.75D-08 MaxDP=3.23D-07 DE=-1.16D-10 OVMax= 6.66D-07

 Cycle  11  Pass 1  IDiag  1:
 E= -228.485845588251     Delta-E=       -0.000000000001 Rises=F Damp=F
 DIIS: error= 1.87D-08 at cycle  11 NSaved=  11.
 NSaved=11 IEnMin=11 EnMin= -228.485845588251     IErMin=11 ErrMin= 1.87D-08
 ErrMax= 1.87D-08  0.00D+00 EMaxC= 1.00D-01 BMatC= 1.12D-13 BMatP= 1.61D-12
 IDIUse=1 WtCom= 1.00D+00 WtEn= 0.00D+00
 Coeff-Com: -0.280D-05-0.198D-04 0.289D-04 0.197D-03 0.141D-02-0.535D-03
 Coeff-Com: -0.109D-01-0.144D-01-0.170D-01 0.138D+00 0.903D+00
 Coeff:     -0.280D-05-0.198D-04 0.289D-04 0.197D-03 0.141D-02-0.535D-03
 Coeff:     -0.109D-01-0.144D-01-0.170D-01 0.138D+00 0.903D+00
 Gap=     0.318 Goal=   None    Shift=    0.000
 Gap=     0.118 Goal=   None    Shift=    0.000
 RMSDP=3.09D-09 MaxDP=4.59D-08 DE=-1.25D-12 OVMax= 4.67D-07

 SCF Done:  E(UB3LYP) =  -228.485845588     A.U. after   11 cycles
            NFock= 11  Conv=0.31D-08     -V/T= 2.0034
 <Sx>= 0.0000 <Sy>= 0.0000 <Sz>= 0.5000 <S**2>= 0.7569 S= 0.5035
 <L.S>= 0.000000000000E+00
 KE= 2.277052690851D+02 PE=-7.626463033233D+02 EE= 1.933299901351D+02
 Annihilation of the first spin contaminant:
 S**2 before annihilation     0.7569,   after     0.7500
 Leave Link  502 at Tue Feb 19 11:00:27 2019, MaxMem=   196608000 cpu:       101.2
 (Enter /cm/shared/c3ddb/gaussian/09.d01/g09/l508.exe)
 QCSCF skips out because SCF is already converged.
 Leave Link  508 at Tue Feb 19 11:00:27 2019, MaxMem=   196608000 cpu:         0.0
 (Enter /cm/shared/c3ddb/gaussian/09.d01/g09/l701.exe)
 Compute integral first derivatives.
 ... and contract with generalized density number  0.
 Leave Link  701 at Tue Feb 19 11:00:28 2019, MaxMem=   196608000 cpu:         4.3
 (Enter /cm/shared/c3ddb/gaussian/09.d01/g09/l702.exe)
 L702 exits ... SP integral derivatives will be done elsewhere.
 Leave Link  702 at Tue Feb 19 11:00:28 2019, MaxMem=   196608000 cpu:         1.6
 (Enter /cm/shared/c3ddb/gaussian/09.d01/g09/l703.exe)
 Compute integral first derivatives, UseDBF=F ICtDFT=           0.
 Integral derivatives from FoFJK, PRISM(SPDF).
 Calling FoFJK, ICntrl=      2127 FMM=F ISym2X=0 I1Cent= 0 IOpClX= 1 NMat=1 NMatS=1 NMatT=0.
 FoFJK:  IHMeth= 1 ICntrl=    2127 DoSepK=F KAlg= 0 I1Cent=   0 FoldK=F
 IRaf=         0 NMat=   1 IRICut=       1 DoRegI=T DoRafI=F ISym2E= 0.
 FoFCou: FMM=F IPFlag=           0 FMFlag=      100000 FMFlg1=         800
         NFxFlg=           0 DoJE=F BraDBF=F KetDBF=F FulRan=T
         wScrn=  0.000000 ICntrl=    2127 IOpCl=  1 I1Cent=           0 NGrid=           0
         NMat0=    1 NMatS0=      1 NMatT0=    0 NMatD0=    1 NMtDS0=    0 NMtDT0=    0
 Symmetry not used in FoFCou.
 Leave Link  703 at Tue Feb 19 11:00:30 2019, MaxMem=   196608000 cpu:        13.6
 (Enter /cm/shared/c3ddb/gaussian/09.d01/g09/l716.exe)
 Dipole        =-1.36780078D+00 4.72331909D-06 7.67317381D-03
 ***** Axes restored to original set *****
 -------------------------------------------------------------------
 Center     Atomic                   Forces (Hartrees/Bohr)
 Number     Number              X              Y              Z
 -------------------------------------------------------------------
      1        8          -0.000086470   -0.000250572   -0.000011562
      2        8          -0.000089808    0.000249383    0.000014326
      3        6           0.000017025   -0.000000215   -0.000003376
      4        6           0.000152171    0.000000803    0.000004187
      5        1           0.000002514    0.000000015   -0.000000428
      6        1           0.000002037    0.000000347   -0.000002368
      7        1           0.000002532    0.000000238   -0.000000781
 -------------------------------------------------------------------
 Cartesian Forces:  Max     0.000250572 RMS     0.000088468
 Leave Link  716 at Tue Feb 19 11:00:31 2019, MaxMem=   196608000 cpu:         1.1
 (Enter /cm/shared/c3ddb/gaussian/09.d01/g09/l103.exe)

 GradGradGradGradGradGradGradGradGradGradGradGradGradGradGradGradGradGrad
 Berny optimization.
 Using GEDIIS/GDIIS optimizer.
 FormGI is forming the generalized inverse of G from B-inverse, IUseBI=4.
 Internal  Forces:  Max     0.000256694 RMS     0.000084390
 Search for a local minimum.
 Step number   2 out of a maximum of   31 on scan point     1 out of    46
 All quantities printed in internal units (Hartrees-Bohrs-Radians)
 RMS Force = .86474D-04 SwitMx=.10000D-02 MixMth= 2
 Mixed Optimization -- En-DIIS/RFO-DIIS
 Update second derivatives using D2CorX and points    1    2
 DE= -1.73D-04 DEPred=-1.70D-04 R= 1.02D+00
 TightC=F SS=  1.41D+00  RLast= 2.40D-02 DXNew= 5.0454D-01 7.1992D-02
 Trust test= 1.02D+00 RLast= 2.40D-02 DXMaxT set to 3.00D-01
 ITU=  1  0
 Use linear search instead of GDIIS.
     Eigenvalues ---    0.01633   0.04508   0.05396   0.11110   0.12576
     Eigenvalues ---    0.13811   0.15295   0.24112   0.31957   0.33846
     Eigenvalues ---    0.34069   0.34866   0.39129   0.764771000.00000
     Eigenvalues --- 1000.000001000.000001000.000001000.000001000.00000
     Eigenvalues --- 1000.00000
 RFO step:  Lambda= 0.00000000D+00 EMin= 1.63298073D-02
 Quartic linear search produced a step of  0.02566.
 Iteration  1 RMS(Cart)=  0.00015642 RMS(Int)=  0.00000005
 Iteration  2 RMS(Cart)=  0.00000002 RMS(Int)=  0.00000005
 Iteration  1 RMS(Cart)=  0.00000010 RMS(Int)=  0.00000014
 ITry= 1 IFail=0 DXMaxC= 4.95D-04 DCOld= 1.00D+10 DXMaxT= 3.00D-01 DXLimC= 3.00D+00 Rises=F
 Variable       Old X    -DE/DX   Delta X   Delta X   Delta X     New X
                                 (Linear)    (Quad)   (Total)
    R1        2.37651   0.00026   0.00032   0.00000   0.00032   2.37683
    R2        2.37652   0.00026   0.00032   0.00000   0.00032   2.37684
    R3        2.81942   0.00002   0.00017  -0.00010   0.00007   2.81949
    R4        2.06192   0.00000   0.00003  -0.00002   0.00001   2.06193
    R5        2.06662   0.00000   0.00003  -0.00003   0.00001   2.06663
    R6        2.06193   0.00000   0.00003  -0.00002   0.00001   2.06193
    A1        1.92234   0.00000   0.00003  -0.00003   0.00000   1.92234
    A2        1.89711   0.00000   0.00011  -0.00007   0.00005   1.89716
    A3        1.92233   0.00000   0.00003  -0.00003   0.00000   1.92232
    A4        1.89639   0.00000  -0.00005   0.00005   0.00000   1.89639
    A5        1.92862   0.00000  -0.00007   0.00004  -0.00003   1.92859
    A6        1.89637   0.00000  -0.00005   0.00004  -0.00001   1.89636
    A7        1.94904   0.00011   0.00028   0.00007   0.00034   1.94939
    A8        2.16697  -0.00005  -0.00014  -0.00003  -0.00017   2.16680
    A9        2.16696  -0.00005  -0.00014  -0.00003  -0.00017   2.16679
    D1       -0.51663   0.00000   0.00000   0.00000   0.00000  -0.51663
    D2        2.64901   0.00000  -0.00003   0.00001  -0.00002   2.64899
    D3        1.55917   0.00000   0.00003   0.00000   0.00003   1.55920
    D4       -1.55837   0.00000   0.00000   0.00001   0.00001  -1.55836
    D5       -2.64824   0.00000   0.00006  -0.00001   0.00005  -2.64820
    D6        0.51740   0.00000   0.00002   0.00000   0.00002   0.51743
         Item               Value     Threshold  Converged?
 Maximum Force            0.000257     0.000450     YES
 RMS     Force            0.000086     0.000300     YES
 Maximum Displacement     0.000495     0.001800     YES
 RMS     Displacement     0.000156     0.001200     YES
 Predicted change in Energy=-1.080523D-07
 Optimization completed.
    -- Stationary point found.
                           ----------------------------
                           !   Optimized Parameters   !
                           ! (Angstroms and Degrees)  !
 --------------------------                            --------------------------
 ! Name  Definition              Value          Derivative Info.                !
 --------------------------------------------------------------------------------
[...]
           D4        -132.08836-123.63535-114.91774-106.28451 -97.69980
           D5         170.21752 177.70175-174.88298-167.27168-159.60529
           D6         -10.52715  -2.55842   5.57857  13.64313  21.69368
                          46
     Eigenvalues --  -228.48585
           R1           1.25778
           R2           1.25776
           R3           1.49195
           R4           1.09114
           R5           1.09362
           R6           1.09112
           A1         110.10953
           A2         108.72025
           A3         110.15094
           A4         108.68018
           A5         110.47415
           A6         108.65756
           A7         111.69187
           A8         124.17683
           A9         124.11997
           D1         -29.60079
           D2         151.72611
           D3          89.35962
           D4         -89.31348
           D5        -151.68308
           D6          29.64382
 Largest change from initial coordinates is atom    2       0.004 Angstoms.
 Leave Link  103 at Tue Feb 19 12:29:02 2019, MaxMem=   196608000 cpu:        11.8
 (Enter /cm/shared/c3ddb/gaussian/09.d01/g09/l202.exe)
                          Input orientation:                          
 ---------------------------------------------------------------------
 Center     Atomic      Atomic             Coordinates (Angstroms)
 Number     Number       Type             X           Y           Z
 ---------------------------------------------------------------------
      1          8           0       -0.823438    0.880023   -0.534867
      2          8           0       -0.799414   -0.906351    0.533639
      3          6           0        1.386445    0.004988   -0.018213
      4          6           0       -0.105408   -0.011332   -0.013408
      5          1           0        1.753085    0.524118   -0.905156
      6          1           0        1.734467    0.540115    0.869772
      7          1           0        1.773613   -1.014603    0.014590
 ---------------------------------------------------------------------
                    Distance matrix (angstroms):
                    1          2          3          4          5
     1  O    0.000000
     2  O    2.081685   0.000000
     3  C    2.432324   2.431677   0.000000
     4  C    1.257776   1.257761   1.491949   0.000000
     5  H    2.627215   3.260616   1.091141   2.129769   0.000000
     6  H    2.937929   2.936971   1.093616   2.114058   1.775098
     7  H    3.261317   2.627089   1.091120   2.130272   1.792767
                    6          7
     6  H    0.000000
     7  H    1.774829   0.000000
 Stoichiometry    C2H3O2(2)
 Framework group  C1[X(C2H3O2)]
 Deg. of freedom    15
 Full point group                 C1      NOp   1
 RotChk:  IX=0 Diff= 8.46D-16
 Largest Abelian subgroup         C1      NOp   1
 Largest concise Abelian subgroup C1      NOp   1
                         Standard orientation:                         
 ---------------------------------------------------------------------
 Center     Atomic      Atomic             Coordinates (Angstroms)
 Number     Number       Type             X           Y           Z
 ---------------------------------------------------------------------
      1          8           0        0.811232   -1.040376    0.001594
      2          8           0        0.809439    1.041308    0.001561
      3          6           0       -1.387676   -0.000672   -0.002758
      4          6           0        0.104264   -0.000133   -0.007996
      5          1           0       -1.764242   -0.897516   -0.497185
      6          1           0       -1.735031   -0.000358    1.034228
      7          1           0       -1.765624    0.895251   -0.497753
 ---------------------------------------------------------------------
 Rotational constants (GHZ):     13.3509027      9.2435728      5.6547990
 Leave Link  202 at Tue Feb 19 12:29:02 2019, MaxMem=   196608000 cpu:         0.5
 (Enter /cm/shared/c3ddb/gaussian/09.d01/g09/l601.exe)
 Copying SCF densities to generalized density rwf, IOpCl= 1 IROHF=0.

 **********************************************************************

            Population analysis using the SCF density.

 **********************************************************************

 Orbital symmetries:
 Alpha Orbitals:
       Occupied  (A) (A) (A) (A) (A) (A) (A) (A) (A) (A) (A) (A)
                 (A) (A) (A) (A)
       Virtual   (A) (A) (A) (A) (A) (A) (A) (A) (A) (A) (A) (A)
                 (A) (A) (A) (A) (A) (A) (A) (A) (A) (A) (A) (A)
                 (A) (A) (A) (A) (A) (A) (A) (A) (A) (A) (A) (A)
                 (A) (A) (A) (A) (A) (A) (A) (A) (A) (A) (A) (A)
                 (A) (A) (A) (A) (A) (A) (A) (A) (A) (A) (A) (A)
                 (A) (A) (A) (A) (A) (A) (A) (A) (A) (A) (A) (A)
                 (A) (A) (A) (A) (A) (A) (A) (A) (A) (A) (A) (A)
                 (A) (A) (A) (A) (A) (A)
 Beta  Orbitals:
       Occupied  (A) (A) (A) (A) (A) (A) (A) (A) (A) (A) (A) (A)
                 (A) (A) (A)
       Virtual   (A) (A) (A) (A) (A) (A) (A) (A) (A) (A) (A) (A)
                 (A) (A) (A) (A) (A) (A) (A) (A) (A) (A) (A) (A)
                 (A) (A) (A) (A) (A) (A) (A) (A) (A) (A) (A) (A)
                 (A) (A) (A) (A) (A) (A) (A) (A) (A) (A) (A) (A)
                 (A) (A) (A) (A) (A) (A) (A) (A) (A) (A) (A) (A)
                 (A) (A) (A) (A) (A) (A) (A) (A) (A) (A) (A) (A)
                 (A) (A) (A) (A) (A) (A) (A) (A) (A) (A) (A) (A)
                 (A) (A) (A) (A) (A) (A) (A)
 The electronic state is 2-A.
 Alpha  occ. eigenvalues --  -19.19369 -19.19363 -10.33642 -10.21344  -1.15426
 Alpha  occ. eigenvalues --   -1.03737  -0.78774  -0.57922  -0.53124  -0.50954
 Alpha  occ. eigenvalues --   -0.50608  -0.44303  -0.42888  -0.37052  -0.35391
 Alpha  occ. eigenvalues --   -0.34767
 Alpha virt. eigenvalues --   -0.02994  -0.00623   0.03650   0.04092   0.04141
 Alpha virt. eigenvalues --    0.07203   0.07538   0.08492   0.11362   0.11664
 Alpha virt. eigenvalues --    0.14171   0.19030   0.21011   0.21046   0.21841
 Alpha virt. eigenvalues --    0.21845   0.27174   0.27697   0.28679   0.28873
 Alpha virt. eigenvalues --    0.31433   0.36279   0.39577   0.41494   0.42609
 Alpha virt. eigenvalues --    0.51312   0.53672   0.56744   0.57415   0.62901
 Alpha virt. eigenvalues --    0.67558   0.68993   0.77770   0.84183   0.96927
 Alpha virt. eigenvalues --    1.02515   1.06365   1.06769   1.12492   1.12940
 Alpha virt. eigenvalues --    1.13517   1.22342   1.31252   1.38547   1.40582
 Alpha virt. eigenvalues --    1.44188   1.50515   1.51139   1.53936   1.54750
 Alpha virt. eigenvalues --    1.67310   1.72112   1.79727   1.83648   1.99007
 Alpha virt. eigenvalues --    2.02745   2.17816   2.32818   2.40244   2.45474
 Alpha virt. eigenvalues --    2.45485   2.51636   2.52136   2.62932   2.74126
 Alpha virt. eigenvalues --    2.75722   2.78157   2.82387   2.83460   3.02362
 Alpha virt. eigenvalues --    3.04611   3.17921   3.23212   3.29636   3.53819
 Alpha virt. eigenvalues --    3.57987   3.75973   3.80408   3.99786   4.12270
 Alpha virt. eigenvalues --    4.91654   4.94917   4.98897   5.12929   5.47296
 Alpha virt. eigenvalues --    5.74770  23.77435  23.91144  49.78504  49.91444
  Beta  occ. eigenvalues --  -19.17876 -19.17872 -10.33761 -10.21349  -1.12636
  Beta  occ. eigenvalues --   -1.00108  -0.78489  -0.56604  -0.50225  -0.49653
  Beta  occ. eigenvalues --   -0.49329  -0.43618  -0.42408  -0.33028  -0.31338
  Beta virt. eigenvalues --   -0.19564  -0.02669  -0.00569   0.03747   0.04183
  Beta virt. eigenvalues --    0.04200   0.07351   0.07786   0.08505   0.11411
  Beta virt. eigenvalues --    0.11757   0.14293   0.19114   0.21217   0.21271
  Beta virt. eigenvalues --    0.21922   0.22103   0.27357   0.28362   0.29041
  Beta virt. eigenvalues --    0.29333   0.31852   0.36668   0.39922   0.42295
  Beta virt. eigenvalues --    0.42690   0.52093   0.53530   0.56903   0.57631
  Beta virt. eigenvalues --    0.62979   0.67921   0.69139   0.77841   0.84487
  Beta virt. eigenvalues --    0.97034   1.03274   1.07435   1.07568   1.13921
  Beta virt. eigenvalues --    1.15724   1.15745   1.22764   1.31295   1.38600
  Beta virt. eigenvalues --    1.40669   1.45324   1.50612   1.51496   1.54683
  Beta virt. eigenvalues --    1.55171   1.68044   1.72367   1.79855   1.83661
  Beta virt. eigenvalues --    1.99606   2.02965   2.17914   2.33750   2.40310
  Beta virt. eigenvalues --    2.45540   2.45735   2.51735   2.52450   2.63379
  Beta virt. eigenvalues --    2.78861   2.78921   2.80814   2.85663   2.86467
  Beta virt. eigenvalues --    3.03046   3.06241   3.19389   3.24236   3.30837
  Beta virt. eigenvalues --    3.55309   3.61563   3.76039   3.80577   4.01405
  Beta virt. eigenvalues --    4.12702   4.93008   5.00210   5.00813   5.18452
  Beta virt. eigenvalues --    5.48886   5.76252  23.77310  23.91138  49.80001
  Beta virt. eigenvalues --   49.92939
          Condensed to atoms (all electrons):
               1          2          3          4          5          6
     1  O    8.032221  -0.083248  -0.112770   0.311489   0.000964  -0.003647
     2  O   -0.083248   8.032257  -0.113016   0.311344   0.008754  -0.003657
     3  C   -0.112770  -0.113016   5.247714   0.163275   0.413354   0.384381
     4  C    0.311489   0.311344   0.163275   5.157657  -0.050117  -0.014838
     5  H    0.000964   0.008754   0.413354  -0.050117   0.497054  -0.019264
     6  H   -0.003647  -0.003657   0.384381  -0.014838  -0.019264   0.490679
     7  H    0.008722   0.000941   0.413351  -0.050012  -0.023995  -0.019295
               7
     1  O    0.008722
     2  O    0.000941
     3  C    0.413351
     4  C   -0.050012
     5  H   -0.023995
     6  H   -0.019295
     7  H    0.496984
          Atomic-Atomic Spin Densities.
               1          2          3          4          5          6
     1  O    0.586016  -0.065298   0.019938  -0.002220  -0.003184   0.000486
     2  O   -0.065298   0.586719   0.019950  -0.002305  -0.000577   0.000486
     3  C    0.019938   0.019950  -0.044145  -0.002907   0.005364  -0.001752
     4  C   -0.002220  -0.002305  -0.002907  -0.068875  -0.001953   0.000853
     5  H   -0.003184  -0.000577   0.005364  -0.001953   0.005308   0.000317
     6  H    0.000486   0.000486  -0.001752   0.000853   0.000317  -0.001669
     7  H   -0.000574  -0.003181   0.005321  -0.001922  -0.001494   0.000320
               7
     1  O   -0.000574
     2  O   -0.003181
     3  C    0.005321
     4  C   -0.001922
     5  H   -0.001494
     6  H    0.000320
     7  H    0.005309
 Mulliken charges and spin densities:
               1          2
     1  O   -0.153731   0.535164
     2  O   -0.153376   0.535794
     3  C   -0.396289   0.001769
     4  C    0.171201  -0.079328
     5  H    0.173250   0.003782
     6  H    0.185641  -0.000960
     7  H    0.173304   0.003779
 Sum of Mulliken charges =   0.00000   1.00000
 Mulliken charges and spin densities with hydrogens summed into heavy atoms:
               1          2
     1  O   -0.153731   0.535164
     2  O   -0.153376   0.535794
     3  C    0.135905   0.008371
     4  C    0.171201  -0.079328
 Electronic spatial extent (au):  <R**2>=            238.4133
 Charge=              0.0000 electrons
 Dipole moment (field-independent basis, Debye):
    X=             -3.4765    Y=             -0.0011    Z=              0.0198  Tot=              3.4766
 Quadrupole moment (field-independent basis, Debye-Ang):
   XX=            -23.3790   YY=            -25.8265   ZZ=            -22.3195
   XY=              0.0011   XZ=             -0.0767   YZ=              0.0004
 Traceless Quadrupole moment (field-independent basis, Debye-Ang):
   XX=              0.4627   YY=             -1.9848   ZZ=              1.5222
   XY=              0.0011   XZ=             -0.0767   YZ=              0.0004
 Octapole moment (field-independent basis, Debye-Ang**2):
  XXX=             -0.9172  YYY=             -0.0037  ZZZ=              0.8742  XYY=             -3.0356
  XXY=              0.0087  XXZ=              0.0858  XZZ=              0.0999  YZZ=              0.0014
  YYZ=             -0.8275  XYZ=              0.0002
 Hexadecapole moment (field-independent basis, Debye-Ang**3):
 XXXX=           -166.0648 YYYY=           -102.4200 ZZZZ=            -26.8890 XXXY=             -0.0088
 XXXZ=             -0.0929 YYYX=             -0.0031 YYYZ=              0.0026 ZZZX=             -1.6729
 ZZZY=             -0.0003 XXYY=            -45.0229 XXZZ=            -30.5709 YYZZ=            -21.6994
 XXYZ=             -0.0016 YYXZ=              1.5357 ZZXY=             -0.0024
 N-N= 1.131155693504D+02 E-N=-7.626261638037D+02  KE= 2.277041098480D+02
                          Isotropic Fermi Contact Couplings
        Atom                 a.u.       MegaHertz       Gauss      10(-4) cm-1
     1  O(17)              0.03617     -21.92324      -7.82276      -7.31281
     2  O(17)              0.03619     -21.94091      -7.82906      -7.31870
     3  C(13)             -0.01100     -12.36919      -4.41363      -4.12592
     4  C(13)             -0.03481     -39.13487     -13.96429     -13.05399
     5  H(1)               0.00320      14.31100       5.10652       4.77363
     6  H(1)              -0.00078      -3.48487      -1.24349      -1.16243
     7  H(1)               0.00320      14.28606       5.09762       4.76532
 --------------------------------------------------------
       Center         ----  Spin Dipole Couplings  ----
                      3XX-RR        3YY-RR        3ZZ-RR
 --------------------------------------------------------
     1   Atom        0.218563      0.885963     -1.104526
     2   Atom        0.226065      0.879514     -1.105579
     3   Atom        0.001602      0.013136     -0.014738
     4   Atom        0.021311      0.067427     -0.088738
     5   Atom        0.008231     -0.003136     -0.005095
     6   Atom        0.005358     -0.002411     -0.002947
     7   Atom        0.008246     -0.003151     -0.005095
 --------------------------------------------------------
                        XY            XZ            YZ
 --------------------------------------------------------
     1   Atom        1.704876      0.043630      0.054208
     2   Atom       -1.708013      0.043843     -0.054230
     3   Atom        0.000034      0.001455     -0.000004
     4   Atom       -0.000030      0.001141     -0.000001
     5   Atom        0.001462      0.003450      0.001445
     6   Atom        0.000010     -0.004546     -0.000005
     7   Atom       -0.001442      0.003459     -0.001437
 --------------------------------------------------------


 ---------------------------------------------------------------------------------
              Anisotropic Spin Dipole Couplings in Principal Axis System
 ---------------------------------------------------------------------------------

       Atom             a.u.   MegaHertz   Gauss  10(-4) cm-1        Axes

              Baa    -1.1850    85.744    30.595    28.601  0.7719 -0.6357  0.0097
     1 O(17)  Bbb    -1.1059    80.025    28.555    26.694 -0.0205 -0.0096  0.9997
              Bcc     2.2909  -165.769   -59.151   -55.295  0.6354  0.7719  0.0205
 
              Baa    -1.1862    85.833    30.627    28.631  0.7705  0.6373  0.0097
     2 O(17)  Bbb    -1.1070    80.102    28.582    26.719 -0.0205  0.0096  0.9997
              Bcc     2.2932  -165.934   -59.210   -55.350 -0.6371  0.7705 -0.0205
 
              Baa    -0.0149    -1.995    -0.712    -0.665 -0.0880  0.0002  0.9961
     3 C(13)  Bbb     0.0017     0.232     0.083     0.077  0.9961 -0.0029  0.0880
              Bcc     0.0131     1.763     0.629     0.588  0.0029  1.0000  0.0000
 
              Baa    -0.0887   -11.909    -4.250    -3.973 -0.0104  0.0000  0.9999
     4 C(13)  Bbb     0.0213     2.861     1.021     0.954  0.9999  0.0006  0.0104
              Bcc     0.0674     9.048     3.229     3.018 -0.0006  1.0000  0.0000
 
              Baa    -0.0063    -3.367    -1.202    -1.123 -0.1855 -0.3349  0.9238
     5 H(1)   Bbb    -0.0030    -1.606    -0.573    -0.536 -0.2117  0.9317  0.2953
              Bcc     0.0093     4.974     1.775     1.659  0.9596  0.1408  0.2437
 
              Baa    -0.0050    -2.642    -0.943    -0.881  0.4035  0.0002  0.9150
     6 H(1)   Bbb    -0.0024    -1.286    -0.459    -0.429 -0.0011  1.0000  0.0003
              Bcc     0.0074     3.928     1.402     1.310  0.9150  0.0011 -0.4035
 
              Baa    -0.0063    -3.369    -1.202    -1.124 -0.1863  0.3347  0.9237
     7 H(1)   Bbb    -0.0030    -1.612    -0.575    -0.538  0.2100  0.9320 -0.2953
              Bcc     0.0093     4.980     1.777     1.661  0.9598 -0.1390  0.2440
 

 ---------------------------------------------------------------------------------

 No NMR shielding tensors so no spin-rotation constants.
 Leave Link  601 at Tue Feb 19 12:29:03 2019, MaxMem=   196608000 cpu:         6.0
 (Enter /cm/shared/c3ddb/gaussian/09.d01/g09/l9999.exe)
 1\1\GINC-NODE020\Scan\UB3LYP\6-311+G(d,p)\C2H3O2(2)\ALONGD\19-Feb-2019
 \0\\#P opt=(modredundant, calcfc, noeigentest) ub3lyp/6-311+g(d,p) scf
 =xqc\\name\\0,2\O,-0.8234384645,0.88002296,-0.5348669182\O,-0.79941365
 28,-0.9063505676,0.5336386693\C,1.3864446383,0.0049882471,-0.018212561
 2\C,-0.1054078057,-0.0113320463,-0.0134081497\H,1.7530851771,0.5241175
 449,-0.9051557989\H,1.7344667198,0.5401148211,0.8697722093\H,1.7736133
 878,-1.0146029591,0.0145895494\\Version=AS64L-G09RevD.01\State=2-A\HF=
 -228.4858456,-228.485838,-228.4858228,-228.4858108,-228.4858089,-228.4
 858166,-228.4858323,-228.4858443,-228.4858428,-228.4858293,-228.485814
 1,-228.4858085,-228.4858123,-228.4858259,-228.4858402,-228.4858455,-22
 8.485837,-228.4858226,-228.4858112,-228.4858086,-228.4858144,-228.4858
 288,-228.4858421,-228.4858447,-228.4858329,-228.4858165,-228.4858086,-
 228.4858119,-228.4858264,-228.4858413,-228.4858451,-228.4858346,-228.4
 858195,-228.4858099,-228.4858091,-228.4858168,-228.4858316,-228.485843
 5,-228.4858441,-228.4858322,-228.4858167,-228.4858089,-228.4858107,-22
 8.4858227,-228.485838,-228.4858456\S2=0.756942,0.756947,0.756946,0.756
 945,0.756945,0.756946,0.756947,0.756948,0.756948,0.756947,0.756946,0.7
 56945,0.756945,0.756946,0.756947,0.756948,0.756947,0.756946,0.756945,0
 .756945,0.756946,0.756947,0.756947,0.756948,0.756947,0.756946,0.756945
 ,0.756945,0.756946,0.756947,0.756948,0.756947,0.756946,0.756945,0.7569
 45,0.756946,0.756947,0.756948,0.756947,0.756947,0.756945,0.756945,0.75
 6945,0.756946,0.756947,0.756948\S2-1=0.,0.,0.,0.,0.,0.,0.,0.,0.,0.,0.,
 0.,0.,0.,0.,0.,0.,0.,0.,0.,0.,0.,0.,0.,0.,0.,0.,0.,0.,0.,0.,0.,0.,0.,0
 .,0.,0.,0.,0.,0.,0.,0.,0.,0.,0.,0.\S2A=0.750024,0.750024,0.750024,0.75
 0024,0.750024,0.750024,0.750024,0.750024,0.750024,0.750024,0.750024,0.
 750024,0.750024,0.750024,0.750024,0.750024,0.750024,0.750024,0.750024,
 0.750024,0.750024,0.750024,0.750024,0.750024,0.750024,0.750024,0.75002
 4,0.750024,0.750024,0.750024,0.750024,0.750024,0.750024,0.750024,0.750
 024,0.750024,0.750024,0.750024,0.750024,0.750024,0.750024,0.750024,0.7
 50024,0.750024,0.750024,0.750024\RMSD=3.095e-09,9.118e-09,7.409e-09,4.
 523e-09,3.701e-09,3.073e-09,3.085e-09,2.799e-09,9.512e-09,9.582e-09,5.
 512e-09,4.725e-09,2.519e-09,5.401e-09,1.300e-09,2.359e-09,3.087e-09,2.
 624e-09,7.699e-09,3.838e-09,7.109e-09,4.233e-09,8.346e-09,4.077e-09,2.
 791e-09,2.494e-09,5.472e-09,4.567e-09,3.000e-09,8.020e-09,3.720e-09,6.
 871e-09,3.061e-09,5.950e-09,5.473e-09,2.239e-09,5.395e-09,5.162e-09,4.
 681e-09,2.537e-09,3.791e-09,5.640e-09,3.431e-09,7.863e-09,4.717e-09,4.
 553e-09\PG=C01 [X(C2H3O2)]\\@


 NATURE WILL TELL YOU A DIRECT LIE IF SHE CAN.

                                -- CHARLES DARWIN
 Job cpu time:       0 days  8 hours 36 minutes 33.1 seconds.
 File lengths (MBytes):  RWF=     21 Int=      0 D2E=      0 Chk=      4 Scr=      1
 Normal termination of Gaussian 09 at Tue Feb 19 12:29:03 2019.
