 Entering Gaussian System, Link 0=g09
 Initial command:
 /cm/shared/c3ddb/gaussian/09.d01/g09/l1.exe "/scratch/users/alongd/g09/a16774-7359099/Gau-21443.inp" -scrdir="/scratch/users/alongd/g09/a16774-7359099/"
 Entering Link 1 = /cm/shared/c3ddb/gaussian/09.d01/g09/l1.exe PID=     21444.
  
 Copyright (c) 1988,1990,1992,1993,1995,1998,2003,2009,2013,
            Gaussian, Inc.  All Rights Reserved.
  
 This is part of the Gaussian(R) 09 program.  It is based on
 the Gaussian(R) 03 system (copyright 2003, Gaussian, Inc.),
 the Gaussian(R) 98 system (copyright 1998, Gaussian, Inc.),
 the Gaussian(R) 94 system (copyright 1995, Gaussian, Inc.),
 the Gaussian 92(TM) system (copyright 1992, Gaussian, Inc.),
 the Gaussian 90(TM) system (copyright 1990, Gaussian, Inc.),
 the Gaussian 88(TM) system (copyright 1988, Gaussian, Inc.),
 the Gaussian 86(TM) system (copyright 1986, Carnegie Mellon
 University), and the Gaussian 82(TM) system (copyright 1983,
 Carnegie Mellon University). Gaussian is a federally registered
 trademark of Gaussian, Inc.
  
 This software contains proprietary and confidential information,
 including trade secrets, belonging to Gaussian, Inc.
  
 This software is provided under written license and may be
 used, copied, transmitted, or stored only in accord with that
 written license.
  
 The following legend is applicable only to US Government
 contracts under FAR:
  
                    RESTRICTED RIGHTS LEGEND
  
 Use, reproduction and disclosure by the US Government is
 subject to restrictions as set forth in subparagraphs (a)
 and (c) of the Commercial Computer Software - Restricted
 Rights clause in FAR 52.227-19.
  
 Gaussian, Inc.
 340 Quinnipiac St., Bldg. 40, Wallingford CT 06492
  
  
 ---------------------------------------------------------------
 Warning -- This program may not be used in any manner that
 competes with the business of Gaussian, Inc. or will provide
 assistance to any competitor of Gaussian, Inc.  The licensee
 of this program is prohibited from giving any competitor of
 Gaussian, Inc. access to this program.  By using this program,
 the user acknowledges that Gaussian, Inc. is engaged in the
 business of creating and licensing software in the field of
 computational chemistry and represents and warrants to the
 licensee that it is not a competitor of Gaussian, Inc. and that
 it will not use this program in any manner prohibited above.
 ---------------------------------------------------------------
  

 Cite this work as:
 Gaussian 09, Revision D.01,
 M. J. Frisch, G. W. Trucks, H. B. Schlegel, G. E. Scuseria, 
 M. A. Robb, J. R. Cheeseman, G. Scalmani, V. Barone, B. Mennucci, 
 G. A. Petersson, H. Nakatsuji, M. Caricato, X. Li, H. P. Hratchian, 
 A. F. Izmaylov, J. Bloino, G. Zheng, J. L. Sonnenberg, M. Hada, 
 M. Ehara, K. Toyota, R. Fukuda, J. Hasegawa, M. Ishida, T. Nakajima, 
 Y. Honda, O. Kitao, H. Nakai, T. Vreven, J. A. Montgomery, Jr., 
 J. E. Peralta, F. Ogliaro, M. Bearpark, J. J. Heyd, E. Brothers, 
 K. N. Kudin, V. N. Staroverov, T. Keith, R. Kobayashi, J. Normand, 
 K. Raghavachari, A. Rendell, J. C. Burant, S. S. Iyengar, J. Tomasi, 
 M. Cossi, N. Rega, J. M. Millam, M. Klene, J. E. Knox, J. B. Cross, 
 V. Bakken, C. Adamo, J. Jaramillo, R. Gomperts, R. E. Stratmann, 
 O. Yazyev, A. J. Austin, R. Cammi, C. Pomelli, J. W. Ochterski, 
 R. L. Martin, K. Morokuma, V. G. Zakrzewski, G. A. Voth, 
 P. Salvador, J. J. Dannenberg, S. Dapprich, A. D. Daniels, 
 O. Farkas, J. B. Foresman, J. V. Ortiz, J. Cioslowski, 
 and D. J. Fox, Gaussian, Inc., Wallingford CT, 2013.
 
 ******************************************
 Gaussian 09:  AS64L-G09RevD.01 24-Apr-2013
                19-Feb-2019 
 ******************************************
 %chk=check.chk
 %mem=1500mb
 %nproc=8
 Will use up to    8 processors via shared memory.
 ---------------------------------------------------------------------
 #P opt=(modredundant, calcfc, noeigentest) b3lyp/6-311+g(d,p) scf=xqc
 ---------------------------------------------------------------------
 1/10=4,11=1,14=-1,18=120,19=15,26=3,38=1/1,3;
 2/9=110,12=2,17=6,18=5,40=1/2;
 3/5=4,6=6,7=111,11=2,16=1,25=1,30=1,71=2,74=-5,140=1/1,2,3;
 4//1;
 5/5=2,8=3,13=1,38=5/2,8;
 8/6=4,10=90,11=11/1;
 11/6=1,8=1,9=11,15=111,16=1/1,2,10;
 10/6=1,13=1/2;
 6/7=2,8=2,9=2,10=2,28=1/1;
 7/10=1,18=20,25=1/1,2,3,16;
 1/10=4,11=1,14=-1,18=20,19=15,26=3/3(2);
 2/9=110/2;
 99//99;
 2/9=110/2;
 3/5=4,6=6,7=111,11=2,16=1,25=1,30=1,71=1,74=-5/1,2,3;
 4/5=5,16=3,69=1/1;
 5/5=2,8=3,13=1,38=5/2,8;
 7//1,2,3,16;
 1/11=1,14=-1,18=20,19=15,26=3/3(-5);
 2/9=110/2;
 6/7=2,8=2,9=2,10=2,19=2,28=1/1;
 99/9=1/99;
 Leave Link    1 at Tue Feb 19 10:32:54 2019, MaxMem=   196608000 cpu:         3.2
 (Enter /cm/shared/c3ddb/gaussian/09.d01/g09/l101.exe)
 ----
 name
 ----
 Symbolic Z-matrix:
 Charge =  0 Multiplicity = 1
 O                    -0.7086   -0.08438  -0.07743 
 O                     0.7086    0.08438  -0.07743 
 H                    -0.9897    0.70278   0.3998 
 H                     0.9897   -0.70278   0.3998 
 
 The following ModRedundant input section has been read:
 D       3       1       2       4 S  45 8.0000                                
 
 NAtoms=      4 NQM=        4 NQMF=       0 NMMI=      0 NMMIF=      0
                NMic=       0 NMicF=      0.
                    Isotopes and Nuclear Properties:
 (Nuclear quadrupole moments (NQMom) in fm**2, nuclear magnetic moments (NMagM)
  in nuclear magnetons)

  Atom         1           2           3           4
 IAtWgt=          16          16           1           1
 AtmWgt=  15.9949146  15.9949146   1.0078250   1.0078250
 NucSpn=           0           0           1           1
 AtZEff=   0.0000000   0.0000000   0.0000000   0.0000000
 NQMom=    0.0000000   0.0000000   0.0000000   0.0000000
 NMagM=    0.0000000   0.0000000   2.7928460   2.7928460
 AtZNuc=   8.0000000   8.0000000   1.0000000   1.0000000
 Leave Link  101 at Tue Feb 19 10:32:57 2019, MaxMem=   196608000 cpu:        13.2
 (Enter /cm/shared/c3ddb/gaussian/09.d01/g09/l103.exe)

 GradGradGradGradGradGradGradGradGradGradGradGradGradGradGradGradGradGrad
 Berny optimization.
 Initialization pass.
                           ----------------------------
                           !    Initial Parameters    !
                           ! (Angstroms and Degrees)  !
 --------------------------                            --------------------------
 ! Name  Definition              Value          Derivative Info.                !
 --------------------------------------------------------------------------------
 ! R1    R(1,2)                  1.4272         calculate D2E/DX2 analytically  !
 ! R2    R(1,3)                  0.9625         calculate D2E/DX2 analytically  !
 ! R3    R(2,4)                  0.9625         calculate D2E/DX2 analytically  !
 ! A1    A(2,1,3)              101.145          calculate D2E/DX2 analytically  !
 ! A2    A(1,2,4)              101.145          calculate D2E/DX2 analytically  !
 ! D1    D(3,1,2,4)            119.2899         Scan                            !
 --------------------------------------------------------------------------------
 Trust Radius=3.00D-01 FncErr=1.00D-07 GrdErr=1.00D-06
 Number of optimizations in scan=  46
 Number of steps in this run=     20 maximum allowed number of steps=    100.
 GradGradGradGradGradGradGradGradGradGradGradGradGradGradGradGradGradGrad

 Leave Link  103 at Tue Feb 19 10:32:58 2019, MaxMem=   196608000 cpu:         4.1
 (Enter /cm/shared/c3ddb/gaussian/09.d01/g09/l202.exe)
                          Input orientation:                          
 ---------------------------------------------------------------------
 Center     Atomic      Atomic             Coordinates (Angstroms)
 Number     Number       Type             X           Y           Z
 ---------------------------------------------------------------------
      1          8           0       -0.708604   -0.084380   -0.077430
      2          8           0        0.708604    0.084380   -0.077430
      3          1           0       -0.989695    0.702782    0.399797
      4          1           0        0.989695   -0.702782    0.399797
 ---------------------------------------------------------------------
                    Distance matrix (angstroms):
                    1          2          3          4
     1  O    0.000000
     2  O    1.427221   0.000000
     3  H    0.962487   1.869328   0.000000
     4  H    1.869328   0.962487   2.427673   0.000000
 Stoichiometry    H2O2
 Framework group  C2[X(H2O2)]
 Deg. of freedom     4
 Full point group                 C2      NOp   2
 Largest Abelian subgroup         C2      NOp   2
 Largest concise Abelian subgroup C2      NOp   2
                         Standard orientation:                         
 ---------------------------------------------------------------------
 Center     Atomic      Atomic             Coordinates (Angstroms)
 Number     Number       Type             X           Y           Z
 ---------------------------------------------------------------------
      1          8           0        0.000000    0.713610   -0.053025
      2          8           0        0.000000   -0.713610   -0.053025
      3          1           0        0.814877    0.899652    0.424202
      4          1           0       -0.814877   -0.899652    0.424202
 ---------------------------------------------------------------------
 Rotational constants (GHZ):    308.2246420     27.3408537     26.2393543
 Leave Link  202 at Tue Feb 19 10:33:00 2019, MaxMem=   196608000 cpu:         0.5
 (Enter /cm/shared/c3ddb/gaussian/09.d01/g09/l301.exe)
 Standard basis: 6-311+G(d,p) (5D, 7F)
 Ernie: Thresh=  0.10000D-02 Tol=  0.10000D-05 Strict=F.
 There are    29 symmetry adapted cartesian basis functions of A   symmetry.
 There are    29 symmetry adapted cartesian basis functions of B   symmetry.
 There are    28 symmetry adapted basis functions of A   symmetry.
 There are    28 symmetry adapted basis functions of B   symmetry.
    56 basis functions,    88 primitive gaussians,    58 cartesian basis functions
     9 alpha electrons        9 beta electrons
       nuclear repulsion energy        37.2737314226 Hartrees.
 IExCor=  402 DFT=T Ex+Corr=B3LYP ExCW=0 ScaHFX=  0.200000
 ScaDFX=  0.800000  0.720000  1.000000  0.810000 ScalE2=  1.000000  1.000000
 IRadAn=      0 IRanWt=     -1 IRanGd=            0 ICorTp=0 IEmpDi=  4
 NAtoms=    4 NActive=    4 NUniq=    2 SFac= 4.00D+00 NAtFMM=   60 NAOKFM=F Big=F
 Integral buffers will be    131072 words long.
 Raffenetti 2 integral format.
 Two-electron integral symmetry is turned on.
 Leave Link  301 at Tue Feb 19 10:33:00 2019, MaxMem=   196608000 cpu:         1.3
 (Enter /cm/shared/c3ddb/gaussian/09.d01/g09/l302.exe)
 NPDir=0 NMtPBC=     1 NCelOv=     1 NCel=       1 NClECP=     1 NCelD=      1
         NCelK=      1 NCelE2=     1 NClLst=     1 CellRange=     0.0.
 One-electron integrals computed using PRISM.
 One-electron integral symmetry used in STVInt
 NBasis=    56 RedAO= T EigKep=  9.81D-04  NBF=    28    28
 NBsUse=    56 1.00D-06 EigRej= -1.00D+00 NBFU=    28    28
 Precomputing XC quadrature grid using
 IXCGrd= 4 IRadAn=           0 IRanWt=          -1 IRanGd=           0 AccXCQ= 0.00D+00.
 Generated NRdTot=       0 NPtTot=           0 NUsed=           0 NTot=          32
 NSgBfM=    58    58    58    58    58 MxSgAt=     4 MxSgA2=     4.
 Leave Link  302 at Tue Feb 19 10:33:03 2019, MaxMem=   196608000 cpu:        19.3
 (Enter /cm/shared/c3ddb/gaussian/09.d01/g09/l303.exe)
 DipDrv:  MaxL=1.
 Leave Link  303 at Tue Feb 19 10:33:06 2019, MaxMem=   196608000 cpu:         7.3
 (Enter /cm/shared/c3ddb/gaussian/09.d01/g09/l401.exe)
 ExpMin= 8.45D-02 ExpMax= 8.59D+03 ExpMxC= 1.30D+03 IAcc=2 IRadAn=         4 AccDes= 0.00D+00
 Harris functional with IExCor=  402 and IRadAn=       4 diagonalized for initial guess.
 HarFok:  IExCor=  402 AccDes= 0.00D+00 IRadAn=         4 IDoV= 1 UseB2=F ITyADJ=14
 ICtDFT=  3500011 ScaDFX=  1.000000  1.000000  1.000000  1.000000
 FoFCou: FMM=F IPFlag=           0 FMFlag=      100000 FMFlg1=           0
         NFxFlg=           0 DoJE=T BraDBF=F KetDBF=T FulRan=T
         wScrn=  0.000000 ICntrl=     500 IOpCl=  0 I1Cent=   200000004 NGrid=           0
         NMat0=    1 NMatS0=      1 NMatT0=    0 NMatD0=    1 NMtDS0=    0 NMtDT0=    0
 Petite list used in FoFCou.
 Harris En= -151.622503150255    
 JPrj=0 DoOrth=F DoCkMO=F.
 Initial guess orbital symmetries:
       Occupied  (B) (A) (A) (B) (A) (B) (A) (A) (B)
       Virtual   (B) (A) (B) (A) (B) (A) (B) (A) (B) (A) (B) (A)
                 (B) (B) (A) (B) (A) (B) (A) (A) (B) (A) (B) (B)
                 (A) (A) (B) (B) (A) (A) (A) (B) (A) (B) (B) (A)
                 (B) (A) (B) (A) (A) (B) (B) (A) (B) (A) (B)
 The electronic state of the initial guess is 1-A.
 Leave Link  401 at Tue Feb 19 10:33:09 2019, MaxMem=   196608000 cpu:         7.3
 (Enter /cm/shared/c3ddb/gaussian/09.d01/g09/l502.exe)
 Closed shell SCF:
 Using DIIS extrapolation, IDIIS=  1040.
 Integral symmetry usage will be decided dynamically.
 Keep R1 ints in memory in symmetry-blocked form, NReq=2172270.
 IVT=       17010 IEndB=       17010 NGot=   196608000 MDV=   195949609
 LenX=   195949609 LenY=   195945804
 Requested convergence on RMS density matrix=1.00D-08 within  64 cycles.
 Requested convergence on MAX density matrix=1.00D-06.
 Requested convergence on             energy=1.00D-06.
 No special actions if energy rises.
 FoFCou: FMM=F IPFlag=           0 FMFlag=           0 FMFlg1=           0
         NFxFlg=           0 DoJE=F BraDBF=F KetDBF=F FulRan=T
         wScrn=  0.000000 ICntrl=     600 IOpCl=  0 I1Cent=           0 NGrid=           0
         NMat0=    1 NMatS0=   1596 NMatT0=    0 NMatD0=    1 NMtDS0=    0 NMtDT0=    0
 Petite list used in FoFCou.
 Integral accuracy reduced to 1.0D-05 until final iterations.

 Cycle   1  Pass 0  IDiag  1:
 E= -151.561932636604    
 DIIS: error= 2.82D-02 at cycle   1 NSaved=   1.
 NSaved= 1 IEnMin= 1 EnMin= -151.561932636604     IErMin= 1 ErrMin= 2.82D-02
 ErrMax= 2.82D-02  0.00D+00 EMaxC= 1.00D-01 BMatC= 6.48D-02 BMatP= 6.48D-02
 IDIUse=3 WtCom= 7.18D-01 WtEn= 2.82D-01
 Coeff-Com:  0.100D+01
 Coeff-En:   0.100D+01
 Coeff:      0.100D+01
 Gap=     0.242 Goal=   None    Shift=    0.000
 GapD=    0.242 DampG=1.000 DampE=0.500 DampFc=0.5000 IDamp=-1.
 Damping current iteration by 5.00D-01
 RMSDP=6.71D-03 MaxDP=5.20D-02              OVMax= 9.98D-02

 Cycle   2  Pass 0  IDiag  1:
 E= -151.578170839629     Delta-E=       -0.016238203025 Rises=F Damp=T
 DIIS: error= 8.21D-03 at cycle   2 NSaved=   2.
 NSaved= 2 IEnMin= 2 EnMin= -151.578170839629     IErMin= 2 ErrMin= 8.21D-03
 ErrMax= 8.21D-03  0.00D+00 EMaxC= 1.00D-01 BMatC= 4.05D-03 BMatP= 6.48D-02
 IDIUse=3 WtCom= 9.18D-01 WtEn= 8.21D-02
 Coeff-Com:  0.623D-01 0.938D+00
 Coeff-En:   0.176D+00 0.824D+00
 Coeff:      0.716D-01 0.928D+00
 Gap=     0.303 Goal=   None    Shift=    0.000
 RMSDP=1.13D-03 MaxDP=1.32D-02 DE=-1.62D-02 OVMax= 6.40D-02

 Cycle   3  Pass 0  IDiag  1:
 E= -151.600687410935     Delta-E=       -0.022516571306 Rises=F Damp=F
 DIIS: error= 5.37D-03 at cycle   3 NSaved=   3.
 NSaved= 3 IEnMin= 3 EnMin= -151.600687410935     IErMin= 3 ErrMin= 5.37D-03
 ErrMax= 5.37D-03  0.00D+00 EMaxC= 1.00D-01 BMatC= 1.49D-03 BMatP= 4.05D-03
 IDIUse=3 WtCom= 9.46D-01 WtEn= 5.37D-02
 Coeff-Com: -0.371D-01 0.363D+00 0.674D+00
 Coeff-En:   0.000D+00 0.000D+00 0.100D+01
 Coeff:     -0.351D-01 0.343D+00 0.692D+00
 Gap=     0.288 Goal=   None    Shift=    0.000
 RMSDP=4.27D-04 MaxDP=3.86D-03 DE=-2.25D-02 OVMax= 7.74D-03

 Cycle   4  Pass 0  IDiag  1:
 E= -151.601684413250     Delta-E=       -0.000997002315 Rises=F Damp=F
 DIIS: error= 5.93D-04 at cycle   4 NSaved=   4.
 NSaved= 4 IEnMin= 4 EnMin= -151.601684413250     IErMin= 4 ErrMin= 5.93D-04
 ErrMax= 5.93D-04  0.00D+00 EMaxC= 1.00D-01 BMatC= 1.54D-05 BMatP= 1.49D-03
 IDIUse=3 WtCom= 9.94D-01 WtEn= 5.93D-03
 Coeff-Com: -0.625D-02 0.137D-01 0.116D+00 0.877D+00
 Coeff-En:   0.000D+00 0.000D+00 0.000D+00 0.100D+01
 Coeff:     -0.622D-02 0.136D-01 0.115D+00 0.878D+00
 Gap=     0.288 Goal=   None    Shift=    0.000
 RMSDP=3.93D-05 MaxDP=3.04D-04 DE=-9.97D-04 OVMax= 8.61D-04

 Cycle   5  Pass 0  IDiag  1:
 E= -151.601693509215     Delta-E=       -0.000009095965 Rises=F Damp=F
 DIIS: error= 3.86D-05 at cycle   5 NSaved=   5.
 NSaved= 5 IEnMin= 5 EnMin= -151.601693509215     IErMin= 5 ErrMin= 3.86D-05
 ErrMax= 3.86D-05  0.00D+00 EMaxC= 1.00D-01 BMatC= 9.82D-08 BMatP= 1.54D-05
 IDIUse=1 WtCom= 1.00D+00 WtEn= 0.00D+00
 Coeff-Com: -0.742D-03 0.239D-03 0.214D-01 0.184D+00 0.795D+00
 Coeff:     -0.742D-03 0.239D-03 0.214D-01 0.184D+00 0.795D+00
 Gap=     0.288 Goal=   None    Shift=    0.000
 RMSDP=3.96D-06 MaxDP=3.27D-05 DE=-9.10D-06 OVMax= 6.01D-05

 Initial convergence to 1.0D-05 achieved.  Increase integral accuracy.
 Cycle   6  Pass 1  IDiag  1:
 E= -151.601672462953     Delta-E=        0.000021046262 Rises=F Damp=F
 DIIS: error= 8.67D-06 at cycle   1 NSaved=   1.
 NSaved= 1 IEnMin= 1 EnMin= -151.601672462953     IErMin= 1 ErrMin= 8.67D-06
 ErrMax= 8.67D-06  0.00D+00 EMaxC= 1.00D-01 BMatC= 3.78D-09 BMatP= 3.78D-09
 IDIUse=1 WtCom= 1.00D+00 WtEn= 0.00D+00
 Coeff-Com:  0.100D+01
 Coeff:      0.100D+01
 Gap=     0.288 Goal=   None    Shift=    0.000
 RMSDP=3.96D-06 MaxDP=3.27D-05 DE= 2.10D-05 OVMax= 3.75D-05

 Cycle   7  Pass 1  IDiag  1:
 E= -151.601672464495     Delta-E=       -0.000000001542 Rises=F Damp=F
 DIIS: error= 7.75D-06 at cycle   2 NSaved=   2.
 NSaved= 2 IEnMin= 2 EnMin= -151.601672464495     IErMin= 2 ErrMin= 7.75D-06
 ErrMax= 7.75D-06  0.00D+00 EMaxC= 1.00D-01 BMatC= 3.88D-09 BMatP= 3.78D-09
 IDIUse=1 WtCom= 1.00D+00 WtEn= 0.00D+00
 Coeff-Com:  0.504D+00 0.496D+00
 Coeff:      0.504D+00 0.496D+00
 Gap=     0.288 Goal=   None    Shift=    0.000
 RMSDP=9.20D-07 MaxDP=8.59D-06 DE=-1.54D-09 OVMax= 1.43D-05

 Cycle   8  Pass 1  IDiag  1:
 E= -151.601672467144     Delta-E=       -0.000000002649 Rises=F Damp=F
 DIIS: error= 1.11D-06 at cycle   3 NSaved=   3.
 NSaved= 3 IEnMin= 3 EnMin= -151.601672467144     IErMin= 3 ErrMin= 1.11D-06
 ErrMax= 1.11D-06  0.00D+00 EMaxC= 1.00D-01 BMatC= 1.24D-10 BMatP= 3.78D-09
 IDIUse=1 WtCom= 1.00D+00 WtEn= 0.00D+00
 Coeff-Com:  0.323D-01 0.155D+00 0.813D+00
 Coeff:      0.323D-01 0.155D+00 0.813D+00
 Gap=     0.288 Goal=   None    Shift=    0.000
 RMSDP=3.36D-07 MaxDP=3.73D-06 DE=-2.65D-09 OVMax= 2.75D-06

 Cycle   9  Pass 1  IDiag  1:
 E= -151.601672467228     Delta-E=       -0.000000000083 Rises=F Damp=F
 DIIS: error= 2.07D-07 at cycle   4 NSaved=   4.
 NSaved= 4 IEnMin= 4 EnMin= -151.601672467228     IErMin= 4 ErrMin= 2.07D-07
 ErrMax= 2.07D-07  0.00D+00 EMaxC= 1.00D-01 BMatC= 2.30D-12 BMatP= 1.24D-10
 IDIUse=1 WtCom= 1.00D+00 WtEn= 0.00D+00
 Coeff-Com: -0.110D-01 0.198D-01 0.184D+00 0.807D+00
 Coeff:     -0.110D-01 0.198D-01 0.184D+00 0.807D+00
 Gap=     0.288 Goal=   None    Shift=    0.000
 RMSDP=8.47D-08 MaxDP=1.03D-06 DE=-8.32D-11 OVMax= 5.40D-07

 Cycle  10  Pass 1  IDiag  1:
 E= -151.601672467229     Delta-E=       -0.000000000002 Rises=F Damp=F
 DIIS: error= 1.63D-08 at cycle   5 NSaved=   5.
 NSaved= 5 IEnMin= 5 EnMin= -151.601672467229     IErMin= 5 ErrMin= 1.63D-08
 ErrMax= 1.63D-08  0.00D+00 EMaxC= 1.00D-01 BMatC= 2.17D-14 BMatP= 2.30D-12
 IDIUse=1 WtCom= 1.00D+00 WtEn= 0.00D+00
 Coeff-Com: -0.102D-02 0.104D-02 0.157D-02 0.623D-01 0.936D+00
 Coeff:     -0.102D-02 0.104D-02 0.157D-02 0.623D-01 0.936D+00
 Gap=     0.288 Goal=   None    Shift=    0.000
 RMSDP=5.18D-09 MaxDP=5.37D-08 DE=-1.82D-12 OVMax= 6.39D-08

 SCF Done:  E(RB3LYP) =  -151.601672467     A.U. after   10 cycles
            NFock= 10  Conv=0.52D-08     -V/T= 2.0023
 KE= 1.512561836007D+02 PE=-4.334571287186D+02 EE= 9.332554122812D+01
 Leave Link  502 at Tue Feb 19 10:33:10 2019, MaxMem=   196608000 cpu:         8.5
 (Enter /cm/shared/c3ddb/gaussian/09.d01/g09/l508.exe)
 QCSCF skips out because SCF is already converged.
 Leave Link  508 at Tue Feb 19 10:33:11 2019, MaxMem=   196608000 cpu:         0.0
 (Enter /cm/shared/c3ddb/gaussian/09.d01/g09/l801.exe)
 DoSCS=F DFT=T ScalE2(SS,OS)=  1.000000  1.000000
 Range of M.O.s used for correlation:     1    56
 NBasis=    56 NAE=     9 NBE=     9 NFC=     0 NFV=     0
 NROrb=     56 NOA=     9 NOB=     9 NVA=    47 NVB=    47

 **** Warning!!: The largest alpha MO coefficient is  0.14029864D+02

 Leave Link  801 at Tue Feb 19 10:33:12 2019, MaxMem=   196608000 cpu:         0.9
 (Enter /cm/shared/c3ddb/gaussian/09.d01/g09/l1101.exe)
 Using compressed storage, NAtomX=     4.
 Will process      5 centers per pass.
 Leave Link 1101 at Tue Feb 19 10:33:14 2019, MaxMem=   196608000 cpu:         3.2
 (Enter /cm/shared/c3ddb/gaussian/09.d01/g09/l1102.exe)
 Symmetrizing basis deriv contribution to polar:
 IMax=3 JMax=2 DiffMx= 0.00D+00
 Leave Link 1102 at Tue Feb 19 10:33:16 2019, MaxMem=   196608000 cpu:         5.3
 (Enter /cm/shared/c3ddb/gaussian/09.d01/g09/l1110.exe)
 Forming Gx(P) for the SCF density, NAtomX=     4.
 Integral derivatives from FoFJK, PRISM(SPDF).
 Do as many integral derivatives as possible in FoFJK.
 G2DrvN: MDV=     196607864.
 G2DrvN: will do     5 centers at a time, making    1 passes.
 Calling FoFCou, ICntrl=  3107 FMM=F I1Cent=   0 AccDes= 0.00D+00.
 FoFJK:  IHMeth= 1 ICntrl=    3107 DoSepK=F KAlg= 0 I1Cent=   0 FoldK=F
 IRaf=         0 NMat=   1 IRICut=       1 DoRegI=T DoRafI=F ISym2E= 1.
 FoFCou: FMM=F IPFlag=           0 FMFlag=      100000 FMFlg1=           0
         NFxFlg=           0 DoJE=F BraDBF=F KetDBF=F FulRan=T
         wScrn=  0.000000 ICntrl=    3107 IOpCl=  0 I1Cent=           0 NGrid=           0
         NMat0=    1 NMatS0=      1 NMatT0=    0 NMatD0=    1 NMtDS0=    0 NMtDT0=    0
 Petite list used in FoFCou.
 End of G2Drv F.D. properties file   721 does not exist.
 End of G2Drv F.D. properties file   722 does not exist.
 End of G2Drv F.D. properties file   788 does not exist.
 Leave Link 1110 at Tue Feb 19 10:33:22 2019, MaxMem=   196608000 cpu:        30.7
 (Enter /cm/shared/c3ddb/gaussian/09.d01/g09/l1002.exe)
 Minotr:  Closed shell wavefunction.
          IDoAtm=1111
          Direct CPHF calculation.
          Differentiating once with respect to nuclear coordinates.
          Using symmetry in CPHF.
          Requested convergence is 1.0D-08 RMS, and 1.0D-07 maximum.
          Secondary convergence is 1.0D-12 RMS, and 1.0D-12 maximum.
          NewPWx=T KeepS1=F KeepF1=F KeepIn=T MapXYZ=F SortEE=F KeepMc=T.
          MDV=     196607900 using IRadAn=       2.
 Generate precomputed XC quadrature information.
 Keep R1 ints in memory in symmetry-blocked form, NReq=2155214.
 FoFCou: FMM=F IPFlag=           0 FMFlag=           0 FMFlg1=           0
         NFxFlg=           0 DoJE=F BraDBF=F KetDBF=F FulRan=T
         wScrn=  0.000000 ICntrl=     600 IOpCl=  0 I1Cent=           0 NGrid=           0
         NMat0=    1 NMatS0=   1596 NMatT0=    0 NMatD0=    1 NMtDS0=    0 NMtDT0=    0
 Petite list used in FoFCou.
          Solving linear equations simultaneously, MaxMat=       0.
          There are     9 degrees of freedom in the 1st order CPHF.  IDoFFX=4 NUNeed=     9.
      6 vectors produced by pass  0 Test12= 4.70D-15 1.11D-08 XBig12= 7.33D-02 1.57D-01.
 AX will form     6 AO Fock derivatives at one time.
      6 vectors produced by pass  1 Test12= 4.70D-15 1.11D-08 XBig12= 1.40D-02 5.48D-02.
      6 vectors produced by pass  2 Test12= 4.70D-15 1.11D-08 XBig12= 1.13D-03 7.95D-03.
      6 vectors produced by pass  3 Test12= 4.70D-15 1.11D-08 XBig12= 3.05D-05 1.56D-03.
      6 vectors produced by pass  4 Test12= 4.70D-15 1.11D-08 XBig12= 3.14D-07 1.44D-04.
      6 vectors produced by pass  5 Test12= 4.70D-15 1.11D-08 XBig12= 2.01D-09 1.04D-05.
      4 vectors produced by pass  6 Test12= 4.70D-15 1.11D-08 XBig12= 1.23D-11 7.68D-07.
      1 vectors produced by pass  7 Test12= 4.70D-15 1.11D-08 XBig12= 2.40D-14 4.85D-08.
 InvSVY:  IOpt=1 It=  1 EMax= 6.66D-16
 Solved reduced A of dimension    41 with     6 vectors.
 FullF1:  Do perturbations    4 to     9.
 End of Minotr F.D. properties file   721 does not exist.
 End of Minotr F.D. properties file   722 does not exist.
 End of Minotr F.D. properties file   788 does not exist.
 Leave Link 1002 at Tue Feb 19 10:33:24 2019, MaxMem=   196608000 cpu:        12.9
 (Enter /cm/shared/c3ddb/gaussian/09.d01/g09/l601.exe)
 Copying SCF densities to generalized density rwf, IOpCl= 0 IROHF=0.

 **********************************************************************

            Population analysis using the SCF density.

 **********************************************************************

 Orbital symmetries:
       Occupied  (A) (B) (A) (B) (A) (B) (A) (A) (B)
       Virtual   (B) (A) (B) (A) (B) (A) (A) (B) (B) (A) (B) (A)
                 (B) (B) (A) (B) (A) (B) (A) (B) (A) (A) (B) (B)
                 (A) (A) (B) (B) (A) (A) (A) (B) (A) (B) (B) (A)
                 (B) (A) (B) (A) (A) (B) (B) (A) (B) (A) (B)
 The electronic state is 1-A.
 Alpha  occ. eigenvalues --  -19.19227 -19.19221  -1.14707  -0.91395  -0.55520
 Alpha  occ. eigenvalues --   -0.51260  -0.43820  -0.34088  -0.29168
 Alpha virt. eigenvalues --   -0.00365   0.02282   0.07625   0.14026   0.14718
 Alpha virt. eigenvalues --    0.17162   0.18700   0.18841   0.20281   0.25692
 Alpha virt. eigenvalues --    0.31396   0.46585   0.47911   0.92728   0.95103
 Alpha virt. eigenvalues --    0.95139   0.95663   1.02318   1.05479   1.26621
 Alpha virt. eigenvalues --    1.26994   1.38314   1.41755   1.49936   1.60029
 Alpha virt. eigenvalues --    1.96597   2.00210   2.40232   2.49015   2.55924
 Alpha virt. eigenvalues --    2.60502   2.73437   3.07369   3.10325   3.22398
 Alpha virt. eigenvalues --    3.33421   3.62585   3.72505   3.86397   4.73074
 Alpha virt. eigenvalues --    4.87255   4.92491   5.30911   5.45998   5.67819
 Alpha virt. eigenvalues --   49.77169  49.80419
          Condensed to atoms (all electrons):
               1          2          3          4
     1  O    7.987280   0.069773   0.240599  -0.037323
     2  O    0.069773   7.987280  -0.037323   0.240599
     3  H    0.240599  -0.037323   0.531850   0.004546
     4  H   -0.037323   0.240599   0.004546   0.531850
 Mulliken charges:
               1
     1  O   -0.260328
     2  O   -0.260328
     3  H    0.260328
     4  H    0.260328
 Sum of Mulliken charges =   0.00000
 Mulliken charges with hydrogens summed into heavy atoms:
               1
     1  O    0.000000
     2  O    0.000000
 APT charges:
               1
     1  O   -0.487252
     2  O   -0.487252
     3  H    0.487252
     4  H    0.487252
 Sum of APT charges =   0.00000
 APT charges with hydrogens summed into heavy atoms:
               1
     1  O    0.000000
     2  O    0.000000
 Electronic spatial extent (au):  <R**2>=             66.0834
 Charge=              0.0000 electrons
 Dipole moment (field-independent basis, Debye):
    X=              0.0000    Y=              0.0000    Z=              1.7810  Tot=              1.7810
 Quadrupole moment (field-independent basis, Debye-Ang):
   XX=             -9.6428   YY=            -11.7912   ZZ=            -12.2160
   XY=              3.2325   XZ=              0.0000   YZ=              0.0000
 Traceless Quadrupole moment (field-independent basis, Debye-Ang):
   XX=              1.5739   YY=             -0.5746   ZZ=             -0.9993
   XY=              3.2325   XZ=              0.0000   YZ=              0.0000
 Octapole moment (field-independent basis, Debye-Ang**2):
  XXX=              0.0000  YYY=              0.0000  ZZZ=              1.1185  XYY=              0.0000
  XXY=              0.0000  XXZ=              1.3576  XZZ=              0.0000  YZZ=              0.0000
  YYZ=              1.9492  XYZ=              1.6440
 Hexadecapole moment (field-independent basis, Debye-Ang**3):
 XXXX=            -10.9355 YYYY=            -45.8013 ZZZZ=            -11.9362 XXXY=              0.5925
 XXXZ=              0.0000 YYYX=              1.6122 YYYZ=              0.0000 ZZZX=              0.0000
 ZZZY=              0.0000 XXYY=             -8.6284 XXZZ=             -3.5851 YYZZ=            -10.5378
 XXYZ=              0.0000 YYXZ=              0.0000 ZZXY=              0.0334
 N-N= 3.727373142255D+01 E-N=-4.334571298357D+02  KE= 1.512561836007D+02
 Symmetry A    KE= 7.747075664718D+01
 Symmetry B    KE= 7.378542695356D+01
  Exact polarizability:   0.000   0.000   0.000   0.000   0.000   0.000
 Approx polarizability:  13.961   1.936  20.778   0.000   0.000  11.747
 No NMR shielding tensors so no spin-rotation constants.
 Leave Link  601 at Tue Feb 19 10:33:26 2019, MaxMem=   196608000 cpu:         2.0
 (Enter /cm/shared/c3ddb/gaussian/09.d01/g09/l701.exe)
 Compute integral second derivatives.
 ... and contract with generalized density number  0.
 Leave Link  701 at Tue Feb 19 10:33:28 2019, MaxMem=   196608000 cpu:         9.8
 (Enter /cm/shared/c3ddb/gaussian/09.d01/g09/l702.exe)
 L702 exits ... SP integral derivatives will be done elsewhere.
 Leave Link  702 at Tue Feb 19 10:33:29 2019, MaxMem=   196608000 cpu:         2.9
 (Enter /cm/shared/c3ddb/gaussian/09.d01/g09/l703.exe)
 Compute integral second derivatives, UseDBF=F ICtDFT=           0.
 Integral derivatives from FoFJK, PRISM(SPDF).
 Calling FoFJK, ICntrl=    100147 FMM=F ISym2X=1 I1Cent= 0 IOpClX= 0 NMat=1 NMatS=1 NMatT=0.
 FoFJK:  IHMeth= 1 ICntrl=  100147 DoSepK=F KAlg= 0 I1Cent=   0 FoldK=F
 IRaf=         0 NMat=   1 IRICut=       1 DoRegI=T DoRafI=F ISym2E= 1.
 FoFCou: FMM=F IPFlag=           0 FMFlag=      100000 FMFlg1=         800
         NFxFlg=           0 DoJE=F BraDBF=F KetDBF=F FulRan=T
         wScrn=  0.000000 ICntrl=  100147 IOpCl=  0 I1Cent=           0 NGrid=           0
         NMat0=    1 NMatS0=      1 NMatT0=    0 NMatD0=    1 NMtDS0=    0 NMtDT0=    0
 Petite list used in FoFCou.
 Leave Link  703 at Tue Feb 19 10:33:33 2019, MaxMem=   196608000 cpu:        18.6
 (Enter /cm/shared/c3ddb/gaussian/09.d01/g09/l716.exe)
 Dipole        =-2.82236573D-16 1.11022303D-16 7.00705375D-01
 Polarizability= 0.00000000D+00 0.00000000D+00 0.00000000D+00
                 0.00000000D+00 0.00000000D+00 0.00000000D+00
 ***** Axes restored to original set *****
 -------------------------------------------------------------------
 Center     Atomic                   Forces (Hartrees/Bohr)
 Number     Number              X              Y              Z
 -------------------------------------------------------------------
      1        8          -0.012806829   -0.004775212   -0.002222037
      2        8           0.012806829    0.004775212   -0.002222037
      3        1          -0.001807874    0.003603939    0.002222037
      4        1           0.001807874   -0.003603939    0.002222037
 -------------------------------------------------------------------
 Cartesian Forces:  Max     0.012806829 RMS     0.005957477
 Force constants in Cartesian coordinates: 
                1             2             3             4             5 
      1  0.376230D+00
      2 -0.971865D-01  0.419039D+00
      3 -0.523171D-01  0.229418D+00  0.144496D+00
      4 -0.279093D+00 -0.105456D-01  0.222112D-01  0.376230D+00
      5 -0.105456D-01 -0.607592D-01  0.136052D-02 -0.971865D-01  0.419039D+00
      6 -0.222112D-01 -0.136052D-02 -0.130110D-01  0.523171D-01 -0.229418D+00
      7 -0.626306D-01  0.705839D-01  0.465774D-01 -0.345062D-01  0.371481D-01
      8  0.124138D+00 -0.369973D+00 -0.222578D+00 -0.164060D-01  0.116931D-01
      9  0.720794D-01 -0.222640D+00 -0.132852D+00 -0.244884D-02  0.541664D-02
     10 -0.345062D-01  0.371481D-01 -0.164716D-01 -0.626306D-01  0.705839D-01
     11 -0.164060D-01  0.116931D-01 -0.820007D-02  0.124138D+00 -0.369973D+00
     12  0.244884D-02 -0.541664D-02  0.136698D-02 -0.720794D-01  0.222640D+00
                6             7             8             9            10 
      6  0.144496D+00
      7  0.164716D-01  0.104227D+00
      8  0.820007D-02 -0.107535D+00  0.359421D+00
      9  0.136698D-02 -0.663398D-01  0.215801D+00  0.130087D+00
     10 -0.465774D-01 -0.708983D-02 -0.197233D-03 -0.329078D-02  0.104227D+00
     11  0.222578D+00 -0.197233D-03 -0.114141D-02  0.142291D-02 -0.107535D+00
     12 -0.132852D+00  0.329078D-02 -0.142291D-02  0.139840D-02  0.663398D-01
               11            12 
     11  0.359421D+00
     12 -0.215801D+00  0.130087D+00
 FormGI is forming the generalized inverse of G from B-inverse, IUseBI=4.
 Force constants in internal coordinates: 
                1             2             3             4             5 
      1  0.348381D+00
      2 -0.407637D-02  0.526844D+00
      3 -0.407637D-02 -0.490968D-03  0.526844D+00
      4  0.727557D-01 -0.554798D-02  0.664394D-03  0.227937D+00
      5  0.727557D-01  0.664394D-03 -0.554798D-02  0.238624D-01  0.227937D+00
      6 -0.213303D-02  0.234901D-02  0.234901D-02  0.877693D-02  0.877693D-02
                6 
      6  0.924752D-02
 Leave Link  716 at Tue Feb 19 10:33:34 2019, MaxMem=   196608000 cpu:         8.1
 (Enter /cm/shared/c3ddb/gaussian/09.d01/g09/l103.exe)

 GradGradGradGradGradGradGradGradGradGradGradGradGradGradGradGradGradGrad
 Berny optimization.
 Red2BG is reusing G-inverse.
 Internal  Forces:  Max     0.014647861 RMS     0.006558581
 Search for a local minimum.
 Step number   1 out of a maximum of   20 on scan point     1 out of    46
 All quantities printed in internal units (Hartrees-Bohrs-Radians)
 RMS Force = .71846D-02 SwitMx=.10000D-02 MixMth= 1
 Mixed Optimization -- RFO/linear search
 Second derivative matrix not updated -- analytic derivatives used.
 The second derivative matrix:
                          R1        R2        R3        A1        A2
           R1           0.34838
           R2          -0.00408   0.52684
           R3          -0.00408  -0.00049   0.52684
           A1           0.07276  -0.00555   0.00066   0.22794
           A2           0.07276   0.00066  -0.00555   0.02386   0.22794
           D1          -0.00213   0.00235   0.00235   0.00878   0.00878
                          D1
           D1           0.00925
 ITU=  0
     Eigenvalues ---    0.18643   0.20396   0.41326   0.52685   0.52745
     Eigenvalues --- 1000.00000
 RFO step:  Lambda=-7.41114030D-04 EMin= 1.86426238D-01
 Linear search not attempted -- first point.
 Iteration  1 RMS(Cart)=  0.01544557 RMS(Int)=  0.00005235
 Iteration  2 RMS(Cart)=  0.00006631 RMS(Int)=  0.00000000
 Iteration  3 RMS(Cart)=  0.00000000 RMS(Int)=  0.00000000
 Iteration  1 RMS(Cart)=  0.00000000 RMS(Int)=  0.00000000
 ITry= 1 IFail=0 DXMaxC= 2.28D-02 DCOld= 1.00D+10 DXMaxT= 3.00D-01 DXLimC= 3.00D+00 Rises=F
 ClnCor:  largest displacement from symmetrization is 2.31D-13 for atom     2.
 Variable       Old X    -DE/DX   Delta X   Delta X   Delta X     New X
                                 (Linear)    (Quad)   (Total)
    R1        2.69706   0.01465   0.00000   0.04616   0.04616   2.74322
    R2        1.81884   0.00458   0.00000   0.00896   0.00896   1.82779
    R3        1.81884   0.00458   0.00000   0.00896   0.00896   1.82779
    A1        1.76531   0.00089   0.00000  -0.00960  -0.00960   1.75572
    A2        1.76531   0.00089   0.00000  -0.00960  -0.00960   1.75572
    D1        2.08200   0.00000   0.00000   0.00000   0.00000   2.08200
         Item               Value     Threshold  Converged?
 Maximum Force            0.014648     0.000450     NO 
 RMS     Force            0.007185     0.000300     NO 
 Maximum Displacement     0.022782     0.001800     NO 
 RMS     Displacement     0.015415     0.001200     NO 
 Predicted change in Energy=-3.714767D-04
 Lowest energy point so far.  Saving SCF results.
 GradGradGradGradGradGradGradGradGradGradGradGradGradGradGradGradGradGrad

 Leave Link  103 at Tue Feb 19 10:33:37 2019, MaxMem=   196608000 cpu:         5.6
 (Enter /cm/shared/c3ddb/gaussian/09.d01/g09/l202.exe)
                          Input orientation:                          
 ---------------------------------------------------------------------
 Center     Atomic      Atomic             Coordinates (Angstroms)
 Number     Number       Type             X           Y           Z
 ---------------------------------------------------------------------
      1          8           0       -0.720660   -0.086435   -0.079047
      2          8           0        0.720660    0.086435   -0.079047
      3          1           0       -0.994936    0.706948    0.401414
      4          1           0        0.994936   -0.706948    0.401414
 ---------------------------------------------------------------------
                    Distance matrix (angstroms):
                    1          2          3          4
     1  O    0.000000
     2  O    1.451650   0.000000
     3  H    0.967227   1.886571   0.000000
     4  H    1.886571   0.967227   2.441043   0.000000
 Stoichiometry    H2O2
 Framework group  C2[X(H2O2)]
 Deg. of freedom     4
 Full point group                 C2      NOp   2
 RotChk:  IX=0 Diff= 1.20D-03
 Largest Abelian subgroup         C2      NOp   2
 Largest concise Abelian subgroup C2      NOp   2
                         Standard orientation:                         
 ---------------------------------------------------------------------
 Center     Atomic      Atomic             Coordinates (Angstroms)
 Number     Number       Type             X           Y           Z
 ---------------------------------------------------------------------
      1          8           0        0.000000    0.725825   -0.053385
      2          8           0        0.000000   -0.725825   -0.053385
      3          1           0        0.820400    0.903669    0.427077
      4          1           0       -0.820400   -0.903669    0.427077
 ---------------------------------------------------------------------
 Rotational constants (GHZ):    303.5177340     26.5068720     25.4527228
 Leave Link  202 at Tue Feb 19 10:33:38 2019, MaxMem=   196608000 cpu:         2.6
 (Enter /cm/shared/c3ddb/gaussian/09.d01/g09/l301.exe)
 Standard basis: 6-311+G(d,p) (5D, 7F)
 Ernie: Thresh=  0.10000D-02 Tol=  0.10000D-05 Strict=F.
 There are    29 symmetry adapted cartesian basis functions of A   symmetry.
 There are    29 symmetry adapted cartesian basis functions of B   symmetry.
 There are    28 symmetry adapted basis functions of A   symmetry.
 There are    28 symmetry adapted basis functions of B   symmetry.
    56 basis functions,    88 primitive gaussians,    58 cartesian basis functions
     9 alpha electrons        9 beta electrons
       nuclear repulsion energy        36.7887023290 Hartrees.
 IExCor=  402 DFT=T Ex+Corr=B3LYP ExCW=0 ScaHFX=  0.200000
 ScaDFX=  0.800000  0.720000  1.000000  0.810000 ScalE2=  1.000000  1.000000
 IRadAn=      0 IRanWt=     -1 IRanGd=            0 ICorTp=0 IEmpDi=  4
 NAtoms=    4 NActive=    4 NUniq=    2 SFac= 4.00D+00 NAtFMM=   60 NAOKFM=F Big=F
 Integral buffers will be    131072 words long.
 Raffenetti 2 integral format.
 Two-electron integral symmetry is turned on.
 Leave Link  301 at Tue Feb 19 10:33:38 2019, MaxMem=   196608000 cpu:         0.4
 (Enter /cm/shared/c3ddb/gaussian/09.d01/g09/l302.exe)
 NPDir=0 NMtPBC=     1 NCelOv=     1 NCel=       1 NClECP=     1 NCelD=      1
         NCelK=      1 NCelE2=     1 NClLst=     1 CellRange=     0.0.
 One-electron integrals computed using PRISM.
 One-electron integral symmetry used in STVInt
 NBasis=    56 RedAO= T EigKep=  1.06D-03  NBF=    28    28
 NBsUse=    56 1.00D-06 EigRej= -1.00D+00 NBFU=    28    28
 Precomputing XC quadrature grid using
 IXCGrd= 4 IRadAn=           0 IRanWt=          -1 IRanGd=           0 AccXCQ= 0.00D+00.
 Generated NRdTot=       0 NPtTot=           0 NUsed=           0 NTot=          32
 NSgBfM=    58    58    58    58    58 MxSgAt=     4 MxSgA2=     4.
 Leave Link  302 at Tue Feb 19 10:33:41 2019, MaxMem=   196608000 cpu:        15.2
 (Enter /cm/shared/c3ddb/gaussian/09.d01/g09/l303.exe)
 DipDrv:  MaxL=1.
 Leave Link  303 at Tue Feb 19 10:33:44 2019, MaxMem=   196608000 cpu:         6.6
 (Enter /cm/shared/c3ddb/gaussian/09.d01/g09/l401.exe)
 Initial guess from the checkpoint file:  "check.chk"
 B after Tr=     0.000000    0.000000    0.000000
         Rot=    1.000000    0.000000    0.000000    0.000151 Ang=   0.02 deg.
 Guess basis will be translated and rotated to current coordinates.
 JPrj=2 DoOrth=T DoCkMO=T.
 Initial guess orbital symmetries:
       Occupied  (A) (B) (A) (B) (A) (B) (A) (A) (B)
       Virtual   (A) (A) (A) (A) (A) (A) (A) (A) (A) (A) (A) (A)
                 (A) (A) (A) (A) (A) (A) (A) (A) (A) (A) (A) (B)
                 (B) (B) (B) (B) (B) (B) (B) (B) (B) (B) (B) (B)
                 (B) (B) (B) (B) (B) (B) (B) (B) (B) (B) (B)
 The electronic state of the initial guess is 1-A.
 Generating alternative initial guess.
 ExpMin= 8.45D-02 ExpMax= 8.59D+03 ExpMxC= 1.30D+03 IAcc=2 IRadAn=         4 AccDes= 0.00D+00
 Harris functional with IExCor=  402 and IRadAn=       4 diagonalized for initial guess.
 HarFok:  IExCor=  402 AccDes= 0.00D+00 IRadAn=         4 IDoV= 1 UseB2=F ITyADJ=14
 ICtDFT=  3500011 ScaDFX=  1.000000  1.000000  1.000000  1.000000
 FoFCou: FMM=F IPFlag=           0 FMFlag=      100000 FMFlg1=           0
         NFxFlg=           0 DoJE=T BraDBF=F KetDBF=T FulRan=T
         wScrn=  0.000000 ICntrl=     500 IOpCl=  0 I1Cent=   200000004 NGrid=           0
         NMat0=    1 NMatS0=      1 NMatT0=    0 NMatD0=    1 NMtDS0=    0 NMtDT0=    0
 Petite list used in FoFCou.
 Harris En= -151.622766210237    
 Leave Link  401 at Tue Feb 19 10:33:47 2019, MaxMem=   196608000 cpu:        14.5
 (Enter /cm/shared/c3ddb/gaussian/09.d01/g09/l502.exe)
 Closed shell SCF:
 Using DIIS extrapolation, IDIIS=  1040.
 Integral symmetry usage will be decided dynamically.
 Keep R1 ints in memory in symmetry-blocked form, NReq=2172270.
 IVT=       17010 IEndB=       17010 NGot=   196608000 MDV=   195949609
 LenX=   195949609 LenY=   195945804
 Requested convergence on RMS density matrix=1.00D-08 within  64 cycles.
 Requested convergence on MAX density matrix=1.00D-06.
 Requested convergence on             energy=1.00D-06.
 No special actions if energy rises.
 FoFCou: FMM=F IPFlag=           0 FMFlag=           0 FMFlg1=           0
         NFxFlg=           0 DoJE=F BraDBF=F KetDBF=F FulRan=T
         wScrn=  0.000000 ICntrl=     600 IOpCl=  0 I1Cent=           0 NGrid=           0
         NMat0=    1 NMatS0=   1596 NMatT0=    0 NMatD0=    1 NMtDS0=    0 NMtDT0=    0
 Petite list used in FoFCou.
 Integral accuracy reduced to 1.0D-05 until final iterations.

 Cycle   1  Pass 0  IDiag  1:
 E= -151.601775300077    
 DIIS: error= 1.99D-03 at cycle   1 NSaved=   1.
 NSaved= 1 IEnMin= 1 EnMin= -151.601775300077     IErMin= 1 ErrMin= 1.99D-03
 ErrMax= 1.99D-03  0.00D+00 EMaxC= 1.00D-01 BMatC= 2.64D-04 BMatP= 2.64D-04
 IDIUse=3 WtCom= 9.80D-01 WtEn= 1.99D-02
 Coeff-Com:  0.100D+01
 Coeff-En:   0.100D+01
 Coeff:      0.100D+01
 Gap=     0.491 Goal=   None    Shift=    0.000
 GapD=    0.491 DampG=2.000 DampE=1.000 DampFc=2.0000 IDamp=-1.
 RMSDP=2.87D-04 MaxDP=3.23D-03              OVMax= 5.18D-03

 Cycle   2  Pass 0  IDiag  1:
 E= -151.602072823926     Delta-E=       -0.000297523848 Rises=F Damp=F
 DIIS: error= 3.75D-04 at cycle   2 NSaved=   2.
 NSaved= 2 IEnMin= 2 EnMin= -151.602072823926     IErMin= 2 ErrMin= 3.75D-04
 ErrMax= 3.75D-04  0.00D+00 EMaxC= 1.00D-01 BMatC= 1.12D-05 BMatP= 2.64D-04
 IDIUse=3 WtCom= 9.96D-01 WtEn= 3.75D-03
 Coeff-Com:  0.382D-01 0.962D+00
 Coeff-En:   0.000D+00 0.100D+01
 Coeff:      0.380D-01 0.962D+00
 Gap=     0.280 Goal=   None    Shift=    0.000
 RMSDP=9.15D-05 MaxDP=1.18D-03 DE=-2.98D-04 OVMax= 1.64D-03

 Cycle   3  Pass 0  IDiag  1:
 E= -151.602071273240     Delta-E=        0.000001550685 Rises=F Damp=F
 DIIS: error= 4.72D-04 at cycle   3 NSaved=   3.
 NSaved= 3 IEnMin= 2 EnMin= -151.602072823926     IErMin= 2 ErrMin= 3.75D-04
 ErrMax= 4.72D-04  0.00D+00 EMaxC= 1.00D-01 BMatC= 1.56D-05 BMatP= 1.12D-05
 IDIUse=3 WtCom= 3.15D-01 WtEn= 6.85D-01
 Coeff-Com: -0.288D-01 0.550D+00 0.479D+00
 Coeff-En:   0.000D+00 0.540D+00 0.460D+00
 Coeff:     -0.908D-02 0.543D+00 0.466D+00
 Gap=     0.280 Goal=   None    Shift=    0.000
 RMSDP=4.34D-05 MaxDP=5.01D-04 DE= 1.55D-06 OVMax= 7.68D-04

 Cycle   4  Pass 0  IDiag  1:
 E= -151.602081926414     Delta-E=       -0.000010653173 Rises=F Damp=F
 DIIS: error= 2.94D-05 at cycle   4 NSaved=   4.
 NSaved= 4 IEnMin= 4 EnMin= -151.602081926414     IErMin= 4 ErrMin= 2.94D-05
 ErrMax= 2.94D-05  0.00D+00 EMaxC= 1.00D-01 BMatC= 3.42D-08 BMatP= 1.12D-05
 IDIUse=1 WtCom= 1.00D+00 WtEn= 0.00D+00
 Coeff-Com: -0.485D-02 0.487D-01 0.740D-01 0.882D+00
 Coeff:     -0.485D-02 0.487D-01 0.740D-01 0.882D+00
 Gap=     0.280 Goal=   None    Shift=    0.000
 RMSDP=4.25D-06 MaxDP=2.88D-05 DE=-1.07D-05 OVMax= 6.76D-05

 Initial convergence to 1.0D-05 achieved.  Increase integral accuracy.
 Cycle   5  Pass 1  IDiag  1:
 E= -151.602059339885     Delta-E=        0.000022586528 Rises=F Damp=F
 DIIS: error= 6.13D-06 at cycle   1 NSaved=   1.
 NSaved= 1 IEnMin= 1 EnMin= -151.602059339885     IErMin= 1 ErrMin= 6.13D-06
 ErrMax= 6.13D-06  0.00D+00 EMaxC= 1.00D-01 BMatC= 2.79D-09 BMatP= 2.79D-09
 IDIUse=1 WtCom= 1.00D+00 WtEn= 0.00D+00
 Coeff-Com:  0.100D+01
 Coeff:      0.100D+01
 Gap=     0.280 Goal=   None    Shift=    0.000
 RMSDP=4.25D-06 MaxDP=2.88D-05 DE= 2.26D-05 OVMax= 2.65D-05

 Cycle   6  Pass 1  IDiag  1:
 E= -151.602059342765     Delta-E=       -0.000000002879 Rises=F Damp=F
 DIIS: error= 3.93D-06 at cycle   2 NSaved=   2.
 NSaved= 2 IEnMin= 2 EnMin= -151.602059342765     IErMin= 2 ErrMin= 3.93D-06
 ErrMax= 3.93D-06  0.00D+00 EMaxC= 1.00D-01 BMatC= 5.85D-10 BMatP= 2.79D-09
 IDIUse=1 WtCom= 1.00D+00 WtEn= 0.00D+00
 Coeff-Com:  0.267D+00 0.733D+00
 Coeff:      0.267D+00 0.733D+00
 Gap=     0.280 Goal=   None    Shift=    0.000
 RMSDP=7.54D-07 MaxDP=7.85D-06 DE=-2.88D-09 OVMax= 8.10D-06

 Cycle   7  Pass 1  IDiag  1:
 E= -151.602059343038     Delta-E=       -0.000000000273 Rises=F Damp=F
 DIIS: error= 1.87D-06 at cycle   3 NSaved=   3.
 NSaved= 3 IEnMin= 3 EnMin= -151.602059343038     IErMin= 3 ErrMin= 1.87D-06
 ErrMax= 1.87D-06  0.00D+00 EMaxC= 1.00D-01 BMatC= 2.18D-10 BMatP= 5.85D-10
 IDIUse=1 WtCom= 1.00D+00 WtEn= 0.00D+00
 Coeff-Com:  0.397D-01 0.382D+00 0.578D+00
 Coeff:      0.397D-01 0.382D+00 0.578D+00
 Gap=     0.280 Goal=   None    Shift=    0.000
 RMSDP=2.69D-07 MaxDP=2.34D-06 DE=-2.73D-10 OVMax= 3.49D-06

 Cycle   8  Pass 1  IDiag  1:
 E= -151.602059343187     Delta-E=       -0.000000000149 Rises=F Damp=F
 DIIS: error= 3.02D-07 at cycle   4 NSaved=   4.
 NSaved= 4 IEnMin= 4 EnMin= -151.602059343187     IErMin= 4 ErrMin= 3.02D-07
 ErrMax= 3.02D-07  0.00D+00 EMaxC= 1.00D-01 BMatC= 6.39D-12 BMatP= 2.18D-10
 IDIUse=1 WtCom= 1.00D+00 WtEn= 0.00D+00
 Coeff-Com: -0.148D-01 0.697D-01 0.202D+00 0.743D+00
 Coeff:     -0.148D-01 0.697D-01 0.202D+00 0.743D+00
 Gap=     0.280 Goal=   None    Shift=    0.000
 RMSDP=5.91D-08 MaxDP=6.07D-07 DE=-1.49D-10 OVMax= 5.19D-07

 Cycle   9  Pass 1  IDiag  1:
 E= -151.602059343191     Delta-E=       -0.000000000004 Rises=F Damp=F
 DIIS: error= 1.43D-08 at cycle   5 NSaved=   5.
 NSaved= 5 IEnMin= 5 EnMin= -151.602059343191     IErMin= 5 ErrMin= 1.43D-08
 ErrMax= 1.43D-08  0.00D+00 EMaxC= 1.00D-01 BMatC= 1.79D-14 BMatP= 6.39D-12
 IDIUse=1 WtCom= 1.00D+00 WtEn= 0.00D+00
 Coeff-Com: -0.173D-02 0.486D-02 0.148D-01 0.439D-01 0.938D+00
 Coeff:     -0.173D-02 0.486D-02 0.148D-01 0.439D-01 0.938D+00
 Gap=     0.280 Goal=   None    Shift=    0.000
 RMSDP=5.36D-09 MaxDP=4.41D-08 DE=-4.46D-12 OVMax= 1.29D-07

 SCF Done:  E(RB3LYP) =  -151.602059343     A.U. after    9 cycles
            NFock=  9  Conv=0.54D-08     -V/T= 2.0026
 KE= 1.512024685912D+02 PE=-4.324652699500D+02 EE= 9.287203968666D+01
 Leave Link  502 at Tue Feb 19 10:33:49 2019, MaxMem=   196608000 cpu:         7.0
 (Enter /cm/shared/c3ddb/gaussian/09.d01/g09/l508.exe)
 QCSCF skips out because SCF is already converged.
 Leave Link  508 at Tue Feb 19 10:33:49 2019, MaxMem=   196608000 cpu:         0.0
 (Enter /cm/shared/c3ddb/gaussian/09.d01/g09/l701.exe)
 Compute integral first derivatives.
 ... and contract with generalized density number  0.
 Leave Link  701 at Tue Feb 19 10:33:52 2019, MaxMem=   196608000 cpu:        13.4
 (Enter /cm/shared/c3ddb/gaussian/09.d01/g09/l702.exe)
 L702 exits ... SP integral derivatives will be done elsewhere.
 Leave Link  702 at Tue Feb 19 10:33:54 2019, MaxMem=   196608000 cpu:        10.7
 (Enter /cm/shared/c3ddb/gaussian/09.d01/g09/l703.exe)
 Compute integral first derivatives, UseDBF=F ICtDFT=           0.
 Integral derivatives from FoFJK, PRISM(SPDF).
 Calling FoFJK, ICntrl=      2127 FMM=F ISym2X=1 I1Cent= 0 IOpClX= 0 NMat=1 NMatS=1 NMatT=0.
 FoFJK:  IHMeth= 1 ICntrl=    2127 DoSepK=F KAlg= 0 I1Cent=   0 FoldK=F
 IRaf=         0 NMat=   1 IRICut=       1 DoRegI=T DoRafI=F ISym2E= 1.
 FoFCou: FMM=F IPFlag=           0 FMFlag=      100000 FMFlg1=         800
         NFxFlg=           0 DoJE=F BraDBF=F KetDBF=F FulRan=T
         wScrn=  0.000000 ICntrl=    2127 IOpCl=  0 I1Cent=           0 NGrid=           0
         NMat0=    1 NMatS0=      1 NMatT0=    0 NMatD0=    1 NMtDS0=    0 NMtDT0=    0
 Petite list used in FoFCou.
 Leave Link  703 at Tue Feb 19 10:33:56 2019, MaxMem=   196608000 cpu:         5.4
 (Enter /cm/shared/c3ddb/gaussian/09.d01/g09/l716.exe)
 Dipole        = 0.00000000D+00 0.00000000D+00 7.02613113D-01
 ***** Axes restored to original set *****
 -------------------------------------------------------------------
 Center     Atomic                   Forces (Hartrees/Bohr)
 Number     Number              X              Y              Z
 -------------------------------------------------------------------
      1        8          -0.000950504   -0.000224733    0.000060527
      2        8           0.000950504    0.000224733    0.000060527
      3        1          -0.000069151    0.000124296   -0.000060527
      4        1           0.000069151   -0.000124296   -0.000060527
 -------------------------------------------------------------------
 Cartesian Forces:  Max     0.000950504 RMS     0.000404459
 Leave Link  716 at Tue Feb 19 10:33:56 2019, MaxMem=   196608000 cpu:         0.2
 (Enter /cm/shared/c3ddb/gaussian/09.d01/g09/l103.exe)

 GradGradGradGradGradGradGradGradGradGradGradGradGradGradGradGradGradGrad
 Berny optimization.
 Using GEDIIS/GDIIS optimizer.
 FormGI is forming the generalized inverse of G from B-inverse, IUseBI=4.
 Internal  Forces:  Max     0.001022318 RMS     0.000431504
 Search for a local minimum.
 Step number   2 out of a maximum of   20 on scan point     1 out of    46
 All quantities printed in internal units (Hartrees-Bohrs-Radians)
 RMS Force = .46277D-03 SwitMx=.10000D-02 MixMth= 2
 Mixed Optimization -- En-DIIS/RFO-DIIS
 Update second derivatives using D2CorX and points    1    2
 DE= -3.87D-04 DEPred=-3.71D-04 R= 1.04D+00
 TightC=F SS=  1.41D+00  RLast= 4.98D-02 DXNew= 5.0454D-01 1.4927D-01
 Trust test= 1.04D+00 RLast= 4.98D-02 DXMaxT set to 3.00D-01
 The second derivative matrix:
                          R1        R2        R3        A1        A2
           R1           0.32722
           R2          -0.00632   0.52758
           R3          -0.00632   0.00025   0.52758
           A1           0.07124  -0.00576   0.00046   0.22783
           A2           0.07124   0.00046  -0.00576   0.02376   0.22783
           D1          -0.00190   0.00235   0.00235   0.00879   0.00879
                          D1
           D1           0.00925
 ITU=  1  0
 Use linear search instead of GDIIS.
     Eigenvalues ---    0.18179   0.20396   0.39620   0.52745   0.52865
     Eigenvalues --- 1000.00000
 RFO step:  Lambda=-2.18182582D-07 EMin= 1.81788881D-01
 Quartic linear search produced a step of  0.07374.
 Iteration  1 RMS(Cart)=  0.00112491 RMS(Int)=  0.00000036
 Iteration  2 RMS(Cart)=  0.00000036 RMS(Int)=  0.00000000
 Iteration  1 RMS(Cart)=  0.00000000 RMS(Int)=  0.00000000
 ITry= 1 IFail=0 DXMaxC= 1.83D-03 DCOld= 1.00D+10 DXMaxT= 3.00D-01 DXLimC= 3.00D+00 Rises=F
 ClnCor:  largest displacement from symmetrization is 1.38D-13 for atom     2.
 Variable       Old X    -DE/DX   Delta X   Delta X   Delta X     New X
                                 (Linear)    (Quad)   (Total)
    R1        2.74322   0.00102   0.00340   0.00030   0.00370   2.74692
    R2        1.82779   0.00009   0.00066  -0.00042   0.00024   1.82803
    R3        1.82779   0.00009   0.00066  -0.00042   0.00024   1.82803
    A1        1.75572   0.00006  -0.00071  -0.00013  -0.00084   1.75488
    A2        1.75572   0.00006  -0.00071  -0.00013  -0.00084   1.75488
    D1        2.08200   0.00022   0.00000   0.00000   0.00000   2.08200
         Item               Value     Threshold  Converged?
 Maximum Force            0.001022     0.000450     NO 
 RMS     Force            0.000463     0.000300     NO 
 Maximum Displacement     0.001833     0.001800     NO 
 RMS     Displacement     0.001125     0.001200     YES
 Predicted change in Energy=-1.723105D-06
 Lowest energy point so far.  Saving SCF results.
 GradGradGradGradGradGradGradGradGradGradGradGradGradGradGradGradGradGrad

 Leave Link  103 at Tue Feb 19 10:33:58 2019, MaxMem=   196608000 cpu:         8.1
 (Enter /cm/shared/c3ddb/gaussian/09.d01/g09/l202.exe)
                          Input orientation:                          
 ---------------------------------------------------------------------
 Center     Atomic      Atomic             Coordinates (Angstroms)
 Number     Number       Type             X           Y           Z
 ---------------------------------------------------------------------
      1          8           0       -0.721630   -0.086568   -0.079116
      2          8           0        0.721630    0.086568   -0.079116
      3          1           0       -0.995182    0.707134    0.401483
      4          1           0        0.995182   -0.707134    0.401483
 ---------------------------------------------------------------------
                    Distance matrix (angstroms):
                    1          2          3          4
     1  O    0.000000
     2  O    1.453607   0.000000
     3  H    0.967352   1.887728   0.000000
     4  H    1.887728   0.967352   2.441659   0.000000
 Stoichiometry    H2O2
 Framework group  C2[X(H2O2)]
 Deg. of freedom     4
 Full point group                 C2      NOp   2
 RotChk:  IX=0 Diff= 3.20D-05
 Largest Abelian subgroup         C2      NOp   2
 Largest concise Abelian subgroup C2      NOp   2
                         Standard orientation:                         
 ---------------------------------------------------------------------
 Center     Atomic      Atomic             Coordinates (Angstroms)
 Number     Number       Type             X           Y           Z
 ---------------------------------------------------------------------
      1          8           0        0.000000    0.726804   -0.053400
      2          8           0        0.000000   -0.726804   -0.053400
      3          1           0        0.820634    0.903872    0.427199
      4          1           0       -0.820634   -0.903872    0.427199
 ---------------------------------------------------------------------
 Rotational constants (GHZ):    303.2931618     26.4426977     25.3926118
 Leave Link  202 at Tue Feb 19 10:33:58 2019, MaxMem=   196608000 cpu:         0.5
 (Enter /cm/shared/c3ddb/gaussian/09.d01/g09/l301.exe)
 Standard basis: 6-311+G(d,p) (5D, 7F)
 Ernie: Thresh=  0.10000D-02 Tol=  0.10000D-05 Strict=F.
 There are    29 symmetry adapted cartesian basis functions of A   symmetry.
 There are    29 symmetry adapted cartesian basis functions of B   symmetry.
 There are    28 symmetry adapted basis functions of A   symmetry.
 There are    28 symmetry adapted basis functions of B   symmetry.
    56 basis functions,    88 primitive gaussians,    58 cartesian basis functions
     9 alpha electrons        9 beta electrons
       nuclear repulsion energy        36.7533419167 Hartrees.
 IExCor=  402 DFT=T Ex+Corr=B3LYP ExCW=0 ScaHFX=  0.200000
 ScaDFX=  0.800000  0.720000  1.000000  0.810000 ScalE2=  1.000000  1.000000
 IRadAn=      0 IRanWt=     -1 IRanGd=            0 ICorTp=0 IEmpDi=  4
 NAtoms=    4 NActive=    4 NUniq=    2 SFac= 4.00D+00 NAtFMM=   60 NAOKFM=F Big=F
 Integral buffers will be    131072 words long.
 Raffenetti 2 integral format.
 Two-electron integral symmetry is turned on.
 Leave Link  301 at Tue Feb 19 10:33:58 2019, MaxMem=   196608000 cpu:         0.4
 (Enter /cm/shared/c3ddb/gaussian/09.d01/g09/l302.exe)
 NPDir=0 NMtPBC=     1 NCelOv=     1 NCel=       1 NClECP=     1 NCelD=      1
         NCelK=      1 NCelE2=     1 NClLst=     1 CellRange=     0.0.
 One-electron integrals computed using PRISM.
 One-electron integral symmetry used in STVInt
 NBasis=    56 RedAO= T EigKep=  1.07D-03  NBF=    28    28
 NBsUse=    56 1.00D-06 EigRej= -1.00D+00 NBFU=    28    28
 Precomputing XC quadrature grid using
 IXCGrd= 4 IRadAn=           0 IRanWt=          -1 IRanGd=           0 AccXCQ= 0.00D+00.
 Generated NRdTot=       0 NPtTot=           0 NUsed=           0 NTot=          32
 NSgBfM=    58    58    58    58    58 MxSgAt=     4 MxSgA2=     4.
 Leave Link  302 at Tue Feb 19 10:34:01 2019, MaxMem=   196608000 cpu:        14.9
 (Enter /cm/shared/c3ddb/gaussian/09.d01/g09/l303.exe)
 DipDrv:  MaxL=1.
 Leave Link  303 at Tue Feb 19 10:34:04 2019, MaxMem=   196608000 cpu:        11.4
 (Enter /cm/shared/c3ddb/gaussian/09.d01/g09/l401.exe)
 Initial guess from the checkpoint file:  "check.chk"
 B after Tr=     0.000000    0.000000    0.000000
         Rot=    1.000000    0.000000    0.000000    0.000004 Ang=   0.00 deg.
 Guess basis will be translated and rotated to current coordinates.
 JPrj=2 DoOrth=T DoCkMO=T.
 Initial guess orbital symmetries:
       Occupied  (A) (B) (A) (B) (A) (B) (A) (A) (B)
       Virtual   (A) (A) (A) (A) (A) (A) (A) (A) (A) (A) (A) (A)
                 (A) (A) (A) (A) (A) (A) (A) (A) (A) (A) (A) (B)
                 (B) (B) (B) (B) (B) (B) (B) (B) (B) (B) (B) (B)
                 (B) (B) (B) (B) (B) (B) (B) (B) (B) (B) (B)
 The electronic state of the initial guess is 1-A.
 Leave Link  401 at Tue Feb 19 10:34:04 2019, MaxMem=   196608000 cpu:         0.9
 (Enter /cm/shared/c3ddb/gaussian/09.d01/g09/l502.exe)
 Closed shell SCF:
 Using DIIS extrapolation, IDIIS=  1040.
 Integral symmetry usage will be decided dynamically.
 Keep R1 ints in memory in symmetry-blocked form, NReq=2172270.
 IVT=       17010 IEndB=       17010 NGot=   196608000 MDV=   195949609
 LenX=   195949609 LenY=   195945804
 Requested convergence on RMS density matrix=1.00D-08 within  64 cycles.
 Requested convergence on MAX density matrix=1.00D-06.
 Requested convergence on             energy=1.00D-06.
 No special actions if energy rises.
 FoFCou: FMM=F IPFlag=           0 FMFlag=           0 FMFlg1=           0
         NFxFlg=           0 DoJE=F BraDBF=F KetDBF=F FulRan=T
         wScrn=  0.000000 ICntrl=     600 IOpCl=  0 I1Cent=           0 NGrid=           0
         NMat0=    1 NMatS0=   1596 NMatT0=    0 NMatD0=    1 NMtDS0=    0 NMtDT0=    0
 Petite list used in FoFCou.

 Cycle   1  Pass 1  IDiag  1:
 E= -151.602059359698    
 DIIS: error= 1.56D-04 at cycle   1 NSaved=   1.
 NSaved= 1 IEnMin= 1 EnMin= -151.602059359698     IErMin= 1 ErrMin= 1.56D-04
 ErrMax= 1.56D-04  0.00D+00 EMaxC= 1.00D-01 BMatC= 1.56D-06 BMatP= 1.56D-06
 IDIUse=3 WtCom= 9.98D-01 WtEn= 1.56D-03
 Coeff-Com:  0.100D+01
 Coeff-En:   0.100D+01
 Coeff:      0.100D+01
 Gap=     0.491 Goal=   None    Shift=    0.000
 RMSDP=2.25D-05 MaxDP=2.49D-04              OVMax= 4.12D-04

 Cycle   2  Pass 1  IDiag  1:
 E= -151.602061174116     Delta-E=       -0.000001814418 Rises=F Damp=F
 DIIS: error= 2.10D-05 at cycle   2 NSaved=   2.
 NSaved= 2 IEnMin= 2 EnMin= -151.602061174116     IErMin= 2 ErrMin= 2.10D-05
 ErrMax= 2.10D-05  0.00D+00 EMaxC= 1.00D-01 BMatC= 3.93D-08 BMatP= 1.56D-06
 IDIUse=1 WtCom= 1.00D+00 WtEn= 0.00D+00
 Coeff-Com:  0.359D-02 0.996D+00
 Coeff:      0.359D-02 0.996D+00
 Gap=     0.279 Goal=   None    Shift=    0.000
 RMSDP=5.97D-06 MaxDP=7.25D-05 DE=-1.81D-06 OVMax= 1.05D-04

 Cycle   3  Pass 1  IDiag  1:
 E= -151.602061168874     Delta-E=        0.000000005242 Rises=F Damp=F
 DIIS: error= 2.99D-05 at cycle   3 NSaved=   3.
 NSaved= 3 IEnMin= 2 EnMin= -151.602061174116     IErMin= 2 ErrMin= 2.10D-05
 ErrMax= 2.99D-05  0.00D+00 EMaxC= 1.00D-01 BMatC= 6.07D-08 BMatP= 3.93D-08
 IDIUse=1 WtCom= 1.00D+00 WtEn= 0.00D+00
 Coeff-Com: -0.309D-01 0.569D+00 0.462D+00
 Coeff:     -0.309D-01 0.569D+00 0.462D+00
 Gap=     0.279 Goal=   None    Shift=    0.000
 RMSDP=2.68D-06 MaxDP=3.07D-05 DE= 5.24D-09 OVMax= 4.74D-05

 Cycle   4  Pass 1  IDiag  1:
 E= -151.602061210331     Delta-E=       -0.000000041457 Rises=F Damp=F
 DIIS: error= 1.12D-06 at cycle   4 NSaved=   4.
 NSaved= 4 IEnMin= 4 EnMin= -151.602061210331     IErMin= 4 ErrMin= 1.12D-06
 ErrMax= 1.12D-06  0.00D+00 EMaxC= 1.00D-01 BMatC= 6.16D-11 BMatP= 3.93D-08
 IDIUse=1 WtCom= 1.00D+00 WtEn= 0.00D+00
 Coeff-Com: -0.143D-02 0.305D-02 0.274D-01 0.971D+00
 Coeff:     -0.143D-02 0.305D-02 0.274D-01 0.971D+00
 Gap=     0.279 Goal=   None    Shift=    0.000
 RMSDP=2.02D-07 MaxDP=1.58D-06 DE=-4.15D-08 OVMax= 3.31D-06

 Cycle   5  Pass 1  IDiag  1:
 E= -151.602061210390     Delta-E=       -0.000000000058 Rises=F Damp=F
 DIIS: error= 2.62D-07 at cycle   5 NSaved=   5.
 NSaved= 5 IEnMin= 5 EnMin= -151.602061210390     IErMin= 5 ErrMin= 2.62D-07
 ErrMax= 2.62D-07  0.00D+00 EMaxC= 1.00D-01 BMatC= 3.14D-12 BMatP= 6.16D-11
 IDIUse=1 WtCom= 1.00D+00 WtEn= 0.00D+00
 Coeff-Com:  0.269D-03-0.974D-02-0.408D-02 0.219D+00 0.794D+00
 Coeff:      0.269D-03-0.974D-02-0.408D-02 0.219D+00 0.794D+00
 Gap=     0.279 Goal=   None    Shift=    0.000
 RMSDP=3.81D-08 MaxDP=2.96D-07 DE=-5.84D-11 OVMax= 4.73D-07

 Cycle   6  Pass 1  IDiag  1:
 E= -151.602061210392     Delta-E=       -0.000000000002 Rises=F Damp=F
 DIIS: error= 1.79D-08 at cycle   6 NSaved=   6.
 NSaved= 6 IEnMin= 6 EnMin= -151.602061210392     IErMin= 6 ErrMin= 1.79D-08
 ErrMax= 1.79D-08  0.00D+00 EMaxC= 1.00D-01 BMatC= 2.06D-14 BMatP= 3.14D-12
 IDIUse=1 WtCom= 1.00D+00 WtEn= 0.00D+00
 Coeff-Com:  0.243D-04-0.995D-04-0.846D-03-0.142D-01 0.731D-02 0.101D+01
 Coeff:      0.243D-04-0.995D-04-0.846D-03-0.142D-01 0.731D-02 0.101D+01
 Gap=     0.279 Goal=   None    Shift=    0.000
 RMSDP=4.01D-09 MaxDP=2.38D-08 DE=-2.07D-12 OVMax= 1.22D-07

 SCF Done:  E(RB3LYP) =  -151.602061210     A.U. after    6 cycles
            NFock=  6  Conv=0.40D-08     -V/T= 2.0027
 KE= 1.511991960746D+02 PE=-4.323930051373D+02 EE= 9.283840593564D+01
 Leave Link  502 at Tue Feb 19 10:34:05 2019, MaxMem=   196608000 cpu:         5.0
 (Enter /cm/shared/c3ddb/gaussian/09.d01/g09/l508.exe)
 QCSCF skips out because SCF is already converged.
 Leave Link  508 at Tue Feb 19 10:34:05 2019, MaxMem=   196608000 cpu:         0.0
 (Enter /cm/shared/c3ddb/gaussian/09.d01/g09/l701.exe)
 Compute integral first derivatives.
 ... and contract with generalized density number  0.
 Leave Link  701 at Tue Feb 19 10:34:06 2019, MaxMem=   196608000 cpu:         2.0
 (Enter /cm/shared/c3ddb/gaussian/09.d01/g09/l702.exe)
 L702 exits ... SP integral derivatives will be done elsewhere.
 Leave Link  702 at Tue Feb 19 10:34:07 2019, MaxMem=   196608000 cpu:         0.2
 (Enter /cm/shared/c3ddb/gaussian/09.d01/g09/l703.exe)
 Compute integral first derivatives, UseDBF=F ICtDFT=           0.
 Integral derivatives from FoFJK, PRISM(SPDF).
 Calling FoFJK, ICntrl=      2127 FMM=F ISym2X=1 I1Cent= 0 IOpClX= 0 NMat=1 NMatS=1 NMatT=0.
 FoFJK:  IHMeth= 1 ICntrl=    2127 DoSepK=F KAlg= 0 I1Cent=   0 FoldK=F
 IRaf=         0 NMat=   1 IRICut=       1 DoRegI=T DoRafI=F ISym2E= 1.
 FoFCou: FMM=F IPFlag=           0 FMFlag=      100000 FMFlg1=         800
         NFxFlg=           0 DoJE=F BraDBF=F KetDBF=F FulRan=T
         wScrn=  0.000000 ICntrl=    2127 IOpCl=  0 I1Cent=           0 NGrid=           0
         NMat0=    1 NMatS0=      1 NMatT0=    0 NMatD0=    1 NMtDS0=    0 NMtDT0=    0
 Petite list used in FoFCou.
 Leave Link  703 at Tue Feb 19 10:34:08 2019, MaxMem=   196608000 cpu:         5.8
 (Enter /cm/shared/c3ddb/gaussian/09.d01/g09/l716.exe)
 Dipole        =-6.66133815D-16-4.44089210D-16 7.02675092D-01
 ***** Axes restored to original set *****
 -------------------------------------------------------------------
 Center     Atomic                   Forces (Hartrees/Bohr)
 Number     Number              X              Y              Z
 -------------------------------------------------------------------
      1        8          -0.000002322   -0.000059089    0.000120680
      2        8           0.000002322    0.000059089    0.000120680
      3        1          -0.000015629    0.000048907   -0.000120680
      4        1           0.000015629   -0.000048907   -0.000120680
 -------------------------------------------------------------------
 Cartesian Forces:  Max     0.000120680 RMS     0.000076660
 Leave Link  716 at Tue Feb 19 10:34:09 2019, MaxMem=   196608000 cpu:         4.9
 (Enter /cm/shared/c3ddb/gaussian/09.d01/g09/l103.exe)

 GradGradGradGradGradGradGradGradGradGradGradGradGradGradGradGradGradGrad
 Berny optimization.
 Using GEDIIS/GDIIS optimizer.
 FormGI is forming the generalized inverse of G from B-inverse, IUseBI=4.
 Internal  Forces:  Max     0.000234899 RMS     0.000097116
 Search for a local minimum.
 Step number   3 out of a maximum of   20 on scan point     1 out of    46
 All quantities printed in internal units (Hartrees-Bohrs-Radians)
 RMS Force = .16801D-04 SwitMx=.10000D-02 MixMth= 2
 Mixed Optimization -- En-DIIS/RFO-DIIS
 Swapping is turned off.
 Update second derivatives using D2CorX and points    1    2    3
 DE= -1.87D-06 DEPred=-1.72D-06 R= 1.08D+00
 TightC=F SS=  1.41D+00  RLast= 3.90D-03 DXNew= 5.0454D-01 1.1700D-02
 Trust test= 1.08D+00 RLast= 3.90D-03 DXMaxT set to 3.00D-01
 The second derivative matrix:
                          R1        R2        R3        A1        A2
           R1           0.30416
           R2          -0.00606   0.52801
           R3          -0.00606   0.00068   0.52801
           A1           0.06972  -0.00579   0.00042   0.22774
           A2           0.06972   0.00042  -0.00579   0.02366   0.22774
           D1          -0.00156   0.00234   0.00234   0.00882   0.00882
                          D1
           D1           0.00924
 ITU=  1  1  0
     Eigenvalues ---    0.17571   0.20396   0.37916   0.52745   0.52937
     Eigenvalues --- 1000.00000
 En-DIIS/RFO-DIIS IScMMF=        0 using points:     3    2
 RFO step:  Lambda= 0.00000000D+00.
 NNeg= 0 NP= 2 Switch=  2.50D-03 Rises=F DC=  1.87D-06 SmlDif=  1.00D-05
 RMS Error=  0.2517632184D-04 NUsed= 2 EDIIS=F
 DidBck=F Rises=F RFO-DIIS coefs:    1.00662   -0.00662
 Iteration  1 RMS(Cart)=  0.00005452 RMS(Int)=  0.00000000
 Iteration  2 RMS(Cart)=  0.00000000 RMS(Int)=  0.00000000
 Iteration  1 RMS(Cart)=  0.00000000 RMS(Int)=  0.00000000
 ITry= 1 IFail=0 DXMaxC= 7.44D-05 DCOld= 1.00D+10 DXMaxT= 3.00D-01 DXLimC= 3.00D+00 Rises=F
 ClnCor:  largest displacement from symmetrization is 7.55D-14 for atom     2.
 Variable       Old X    -DE/DX   Delta X   Delta X   Delta X     New X
                                 (Linear)    (Quad)   (Total)
    R1        2.74692   0.00002   0.00002   0.00000   0.00002   2.74694
    R2        1.82803  -0.00001   0.00000  -0.00003  -0.00003   1.82800
    R3        1.82803  -0.00001   0.00000  -0.00003  -0.00003   1.82800
    A1        1.75488   0.00002  -0.00001   0.00007   0.00007   1.75495
    A2        1.75488   0.00002  -0.00001   0.00007   0.00007   1.75495
    D1        2.08200   0.00023   0.00000   0.00000   0.00000   2.08200
         Item               Value     Threshold  Converged?
 Maximum Force            0.000019     0.000450     YES
 RMS     Force            0.000017     0.000300     YES
 Maximum Displacement     0.000074     0.001800     YES
 RMS     Displacement     0.000055     0.001200     YES
 Predicted change in Energy=-1.873953D-09
 Optimization completed.
    -- Stationary point found.
                           ----------------------------
                           !   Optimized Parameters   !
                           ! (Angstroms and Degrees)  !
 --------------------------                            --------------------------
 ! Name  Definition              Value          Derivative Info.                !
 --------------------------------------------------------------------------------
 ! R1    R(1,2)                  1.4536         -DE/DX =    0.0                 !
 ! R2    R(1,3)                  0.9674         -DE/DX =    0.0                 !
 ! R3    R(2,4)                  0.9674         -DE/DX =    0.0                 !
 ! A1    A(2,1,3)              100.5471         -DE/DX =    0.0                 !
 ! A2    A(1,2,4)              100.5471         -DE/DX =    0.0                 !
 ! D1    D(3,1,2,4)            119.2899         -DE/DX =    0.0002              !
 --------------------------------------------------------------------------------
 Lowest energy point so far.  Saving SCF results.
 Iteration  1 RMS(Cart)=  0.05240044 RMS(Int)=  0.00253191
 Iteration  2 RMS(Cart)=  0.00182978 RMS(Int)=  0.00000070
 Iteration  3 RMS(Cart)=  0.00000076 RMS(Int)=  0.00000000
 Iteration  1 RMS(Cart)=  0.00000000 RMS(Int)=  0.00000000
 GradGradGradGradGradGradGradGradGradGradGradGradGradGradGradGradGradGrad

 Leave Link  103 at Tue Feb 19 10:34:10 2019, MaxMem=   196608000 cpu:         6.5
 (Enter /cm/shared/c3ddb/gaussian/09.d01/g09/l202.exe)
                          Input orientation:                          
 ---------------------------------------------------------------------
 Center     Atomic      Atomic             Coordinates (Angstroms)
 Number     Number       Type             X           Y           Z
 ---------------------------------------------------------------------
      1          8           0       -0.720363   -0.096589   -0.049903
      2          8           0        0.720363    0.096589   -0.049903
      3          1           0       -1.009167    0.724451    0.372270
      4          1           0        1.009167   -0.724451    0.372270
 ---------------------------------------------------------------------
                    Distance matrix (angstroms):
                    1          2          3          4
     1  O    0.000000
     2  O    1.453620   0.000000
     3  H    0.967338   1.887781   0.000000
     4  H    1.887781   0.967338   2.484550   0.000000
 Stoichiometry    H2O2
 Framework group  C2[X(H2O2)]
 Deg. of freedom     4
 Full point group                 C2      NOp   2
 RotChk:  IX=0 Diff= 1.97D-02
 Largest Abelian subgroup         C2      NOp   2
 Largest concise Abelian subgroup C2      NOp   2
                         Standard orientation:                         
 ---------------------------------------------------------------------
 Center     Atomic      Atomic             Coordinates (Angstroms)
 Number     Number       Type             X           Y           Z
 ---------------------------------------------------------------------
      1          8           0        0.000000    0.726810   -0.046908
      2          8           0        0.000000   -0.726810   -0.046908
      3          1           0        0.852137    0.903941    0.375264
      4          1           0       -0.852137   -0.903941    0.375264
 ---------------------------------------------------------------------
 Rotational constants (GHZ):    304.1481587     26.5658297     25.2571275
 Leave Link  202 at Tue Feb 19 10:34:11 2019, MaxMem=   196608000 cpu:         1.2
 (Enter /cm/shared/c3ddb/gaussian/09.d01/g09/l301.exe)
 Standard basis: 6-311+G(d,p) (5D, 7F)
 Ernie: Thresh=  0.10000D-02 Tol=  0.10000D-05 Strict=F.
 There are    29 symmetry adapted cartesian basis functions of A   symmetry.
 There are    29 symmetry adapted cartesian basis functions of B   symmetry.
 There are    28 symmetry adapted basis functions of A   symmetry.
 There are    28 symmetry adapted basis functions of B   symmetry.
    56 basis functions,    88 primitive gaussians,    58 cartesian basis functions
     9 alpha electrons        9 beta electrons
       nuclear repulsion energy        36.7493980548 Hartrees.
 IExCor=  402 DFT=T Ex+Corr=B3LYP ExCW=0 ScaHFX=  0.200000
 ScaDFX=  0.800000  0.720000  1.000000  0.810000 ScalE2=  1.000000  1.000000
 IRadAn=      0 IRanWt=     -1 IRanGd=            0 ICorTp=0 IEmpDi=  4
 NAtoms=    4 NActive=    4 NUniq=    2 SFac= 4.00D+00 NAtFMM=   60 NAOKFM=F Big=F
 Integral buffers will be    131072 words long.
 Raffenetti 2 integral format.
 Two-electron integral symmetry is turned on.
 Leave Link  301 at Tue Feb 19 10:34:11 2019, MaxMem=   196608000 cpu:         0.4
 (Enter /cm/shared/c3ddb/gaussian/09.d01/g09/l302.exe)
 NPDir=0 NMtPBC=     1 NCelOv=     1 NCel=       1 NClECP=     1 NCelD=      1
         NCelK=      1 NCelE2=     1 NClLst=     1 CellRange=     0.0.
 One-electron integrals computed using PRISM.
 One-electron integral symmetry used in STVInt
 NBasis=    56 RedAO= T EigKep=  1.03D-03  NBF=    28    28
 NBsUse=    56 1.00D-06 EigRej= -1.00D+00 NBFU=    28    28
 Precomputing XC quadrature grid using
 IXCGrd= 4 IRadAn=           0 IRanWt=          -1 IRanGd=           0 AccXCQ= 0.00D+00.
 Generated NRdTot=       0 NPtTot=           0 NUsed=           0 NTot=          32
 NSgBfM=    58    58    58    58    58 MxSgAt=     4 MxSgA2=     4.
 Leave Link  302 at Tue Feb 19 10:34:13 2019, MaxMem=   196608000 cpu:        10.3
 (Enter /cm/shared/c3ddb/gaussian/09.d01/g09/l303.exe)
 DipDrv:  MaxL=1.
 Leave Link  303 at Tue Feb 19 10:34:21 2019, MaxMem=   196608000 cpu:         7.6
 (Enter /cm/shared/c3ddb/gaussian/09.d01/g09/l401.exe)
 Initial guess from the checkpoint file:  "check.chk"
 B after Tr=     0.000000    0.000000    0.000000
         Rot=    0.999997    0.000000    0.000000    0.002474 Ang=   0.28 deg.
 Guess basis will be translated and rotated to current coordinates.
 JPrj=2 DoOrth=T DoCkMO=T.
 Initial guess orbital symmetries:
       Occupied  (A) (B) (A) (B) (A) (B) (A) (A) (B)
       Virtual   (A) (A) (A) (A) (A) (A) (A) (A) (A) (A) (A) (A)
                 (A) (A) (A) (A) (A) (A) (A) (A) (A) (A) (A) (B)
                 (B) (B) (B) (B) (B) (B) (B) (B) (B) (B) (B) (B)
                 (B) (B) (B) (B) (B) (B) (B) (B) (B) (B) (B)
 The electronic state of the initial guess is 1-A.
 Generating alternative initial guess.
 ExpMin= 8.45D-02 ExpMax= 8.59D+03 ExpMxC= 1.30D+03 IAcc=2 IRadAn=         4 AccDes= 0.00D+00
 Harris functional with IExCor=  402 and IRadAn=       4 diagonalized for initial guess.
 HarFok:  IExCor=  402 AccDes= 0.00D+00 IRadAn=         4 IDoV= 1 UseB2=F ITyADJ=14
 ICtDFT=  3500011 ScaDFX=  1.000000  1.000000  1.000000  1.000000
 FoFCou: FMM=F IPFlag=           0 FMFlag=      100000 FMFlg1=           0
         NFxFlg=           0 DoJE=T BraDBF=F KetDBF=T FulRan=T
         wScrn=  0.000000 ICntrl=     500 IOpCl=  0 I1Cent=   200000004 NGrid=           0
         NMat0=    1 NMatS0=      1 NMatT0=    0 NMatD0=    1 NMtDS0=    0 NMtDT0=    0
 Petite list used in FoFCou.
 Harris En= -151.622630938374    
 Leave Link  401 at Tue Feb 19 10:34:23 2019, MaxMem=   196608000 cpu:        14.2
 (Enter /cm/shared/c3ddb/gaussian/09.d01/g09/l502.exe)
 Closed shell SCF:
 Using DIIS extrapolation, IDIIS=  1040.
 Integral symmetry usage will be decided dynamically.
 Keep R1 ints in memory in symmetry-blocked form, NReq=2172270.
 IVT=       17010 IEndB=       17010 NGot=   196608000 MDV=   195949609
 LenX=   195949609 LenY=   195945804
 Requested convergence on RMS density matrix=1.00D-08 within  64 cycles.
 Requested convergence on MAX density matrix=1.00D-06.
 Requested convergence on             energy=1.00D-06.
 No special actions if energy rises.
 FoFCou: FMM=F IPFlag=           0 FMFlag=           0 FMFlg1=           0
         NFxFlg=           0 DoJE=F BraDBF=F KetDBF=F FulRan=T
         wScrn=  0.000000 ICntrl=     600 IOpCl=  0 I1Cent=           0 NGrid=           0
         NMat0=    1 NMatS0=   1596 NMatT0=    0 NMatD0=    1 NMtDS0=    0 NMtDT0=    0
 Petite list used in FoFCou.
 Integral accuracy reduced to 1.0D-05 until final iterations.

 Cycle   1  Pass 0  IDiag  1:
 E= -151.600667620557    
 DIIS: error= 4.39D-03 at cycle   1 NSaved=   1.
 NSaved= 1 IEnMin= 1 EnMin= -151.600667620557     IErMin= 1 ErrMin= 4.39D-03
 ErrMax= 4.39D-03  0.00D+00 EMaxC= 1.00D-01 BMatC= 1.08D-03 BMatP= 1.08D-03
 IDIUse=3 WtCom= 9.56D-01 WtEn= 4.39D-02
 Coeff-Com:  0.100D+01
 Coeff-En:   0.100D+01
 Coeff:      0.100D+01
 Gap=     0.482 Goal=   None    Shift=    0.000
 GapD=    0.482 DampG=2.000 DampE=1.000 DampFc=2.0000 IDamp=-1.
 RMSDP=7.79D-04 MaxDP=6.88D-03              OVMax= 1.69D-02

 Cycle   2  Pass 0  IDiag  1:
 E= -151.602010568597     Delta-E=       -0.001342948040 Rises=F Damp=F
 DIIS: error= 6.26D-04 at cycle   2 NSaved=   2.
 NSaved= 2 IEnMin= 2 EnMin= -151.602010568597     IErMin= 2 ErrMin= 6.26D-04
 ErrMax= 6.26D-04  0.00D+00 EMaxC= 1.00D-01 BMatC= 1.98D-05 BMatP= 1.08D-03
 IDIUse=3 WtCom= 9.94D-01 WtEn= 6.26D-03
 Coeff-Com: -0.439D-01 0.104D+01
 Coeff-En:   0.000D+00 0.100D+01
 Coeff:     -0.436D-01 0.104D+01
 Gap=     0.274 Goal=   None    Shift=    0.000
 RMSDP=1.25D-04 MaxDP=1.04D-03 DE=-1.34D-03 OVMax= 2.08D-03

 Cycle   3  Pass 0  IDiag  1:
 E= -151.602021988146     Delta-E=       -0.000011419550 Rises=F Damp=F
 DIIS: error= 3.64D-04 at cycle   3 NSaved=   3.
 NSaved= 3 IEnMin= 3 EnMin= -151.602021988146     IErMin= 3 ErrMin= 3.64D-04
 ErrMax= 3.64D-04  0.00D+00 EMaxC= 1.00D-01 BMatC= 9.16D-06 BMatP= 1.98D-05
 IDIUse=3 WtCom= 9.96D-01 WtEn= 3.64D-03
 Coeff-Com: -0.245D-01 0.426D+00 0.599D+00
 Coeff-En:   0.000D+00 0.000D+00 0.100D+01
 Coeff:     -0.244D-01 0.424D+00 0.600D+00
 Gap=     0.274 Goal=   None    Shift=    0.000
 RMSDP=5.05D-05 MaxDP=5.19D-04 DE=-1.14D-05 OVMax= 8.86D-04

 Cycle   4  Pass 0  IDiag  1:
 E= -151.602027430964     Delta-E=       -0.000005442818 Rises=F Damp=F
 DIIS: error= 1.53D-04 at cycle   4 NSaved=   4.
 NSaved= 4 IEnMin= 4 EnMin= -151.602027430964     IErMin= 4 ErrMin= 1.53D-04
 ErrMax= 1.53D-04  0.00D+00 EMaxC= 1.00D-01 BMatC= 1.31D-06 BMatP= 9.16D-06
 IDIUse=3 WtCom= 9.98D-01 WtEn= 1.53D-03
 Coeff-Com: -0.603D-02 0.950D-01 0.299D+00 0.612D+00
 Coeff-En:   0.000D+00 0.000D+00 0.707D-01 0.929D+00
 Coeff:     -0.602D-02 0.949D-01 0.299D+00 0.612D+00
 Gap=     0.274 Goal=   None    Shift=    0.000
 RMSDP=1.63D-05 MaxDP=1.47D-04 DE=-5.44D-06 OVMax= 2.62D-04

 Cycle   5  Pass 0  IDiag  1:
 E= -151.602028346621     Delta-E=       -0.000000915657 Rises=F Damp=F
 DIIS: error= 1.25D-05 at cycle   5 NSaved=   5.
 NSaved= 5 IEnMin= 5 EnMin= -151.602028346621     IErMin= 5 ErrMin= 1.25D-05
 ErrMax= 1.25D-05  0.00D+00 EMaxC= 1.00D-01 BMatC= 1.00D-08 BMatP= 1.31D-06
 IDIUse=1 WtCom= 1.00D+00 WtEn= 0.00D+00
 Coeff-Com:  0.493D-03-0.163D-01 0.728D-02 0.854D-01 0.923D+00
 Coeff:      0.493D-03-0.163D-01 0.728D-02 0.854D-01 0.923D+00
 Gap=     0.274 Goal=   None    Shift=    0.000
 RMSDP=2.49D-06 MaxDP=2.27D-05 DE=-9.16D-07 OVMax= 5.96D-05

 Initial convergence to 1.0D-05 achieved.  Increase integral accuracy.
 Cycle   6  Pass 1  IDiag  1:
 E= -151.602014001356     Delta-E=        0.000014345265 Rises=F Damp=F
 DIIS: error= 5.55D-06 at cycle   1 NSaved=   1.
 NSaved= 1 IEnMin= 1 EnMin= -151.602014001356     IErMin= 1 ErrMin= 5.55D-06
 ErrMax= 5.55D-06  0.00D+00 EMaxC= 1.00D-01 BMatC= 1.19D-09 BMatP= 1.19D-09
 IDIUse=1 WtCom= 1.00D+00 WtEn= 0.00D+00
 Coeff-Com:  0.100D+01
 Coeff:      0.100D+01
 Gap=     0.274 Goal=   None    Shift=    0.000
 RMSDP=2.49D-06 MaxDP=2.27D-05 DE= 1.43D-05 OVMax= 2.47D-05

 Cycle   7  Pass 1  IDiag  1:
 E= -151.602014003899     Delta-E=       -0.000000002543 Rises=F Damp=F
 DIIS: error= 1.20D-06 at cycle   2 NSaved=   2.
 NSaved= 2 IEnMin= 2 EnMin= -151.602014003899     IErMin= 2 ErrMin= 1.20D-06
 ErrMax= 1.20D-06  0.00D+00 EMaxC= 1.00D-01 BMatC= 5.11D-11 BMatP= 1.19D-09
[...]
 KE= 1.511992399160D+02 PE=-4.323923887812D+02 EE= 9.283805092300D+01
 Leave Link  502 at Tue Feb 19 10:46:04 2019, MaxMem=   196608000 cpu:        10.3
 (Enter /cm/shared/c3ddb/gaussian/09.d01/g09/l508.exe)
 QCSCF skips out because SCF is already converged.
 Leave Link  508 at Tue Feb 19 10:46:04 2019, MaxMem=   196608000 cpu:         0.0
 (Enter /cm/shared/c3ddb/gaussian/09.d01/g09/l701.exe)
 Compute integral first derivatives.
 ... and contract with generalized density number  0.
 Leave Link  701 at Tue Feb 19 10:46:05 2019, MaxMem=   196608000 cpu:         4.3
 (Enter /cm/shared/c3ddb/gaussian/09.d01/g09/l702.exe)
 L702 exits ... SP integral derivatives will be done elsewhere.
 Leave Link  702 at Tue Feb 19 10:46:05 2019, MaxMem=   196608000 cpu:         0.2
 (Enter /cm/shared/c3ddb/gaussian/09.d01/g09/l703.exe)
 Compute integral first derivatives, UseDBF=F ICtDFT=           0.
 Integral derivatives from FoFJK, PRISM(SPDF).
 Calling FoFJK, ICntrl=      2127 FMM=F ISym2X=1 I1Cent= 0 IOpClX= 0 NMat=1 NMatS=1 NMatT=0.
 FoFJK:  IHMeth= 1 ICntrl=    2127 DoSepK=F KAlg= 0 I1Cent=   0 FoldK=F
 IRaf=         0 NMat=   1 IRICut=       1 DoRegI=T DoRafI=F ISym2E= 1.
 FoFCou: FMM=F IPFlag=           0 FMFlag=      100000 FMFlg1=         800
         NFxFlg=           0 DoJE=F BraDBF=F KetDBF=F FulRan=T
         wScrn=  0.000000 ICntrl=    2127 IOpCl=  0 I1Cent=           0 NGrid=           0
         NMat0=    1 NMatS0=      1 NMatT0=    0 NMatD0=    1 NMtDS0=    0 NMtDT0=    0
 Petite list used in FoFCou.
 Leave Link  703 at Tue Feb 19 10:46:06 2019, MaxMem=   196608000 cpu:         5.5
 (Enter /cm/shared/c3ddb/gaussian/09.d01/g09/l716.exe)
 Dipole        =-1.11022302D-15-2.22044605D-16-7.02666199D-01
 ***** Axes restored to original set *****
 -------------------------------------------------------------------
 Center     Atomic                   Forces (Hartrees/Bohr)
 Number     Number              X              Y              Z
 -------------------------------------------------------------------
      1        8           0.000068204    0.000039184   -0.000108676
      2        8          -0.000068204   -0.000039184   -0.000108676
      3        1          -0.000065837   -0.000033380    0.000108676
      4        1           0.000065837    0.000033380    0.000108676
 -------------------------------------------------------------------
 Cartesian Forces:  Max     0.000108676 RMS     0.000076656
 Leave Link  716 at Tue Feb 19 10:46:06 2019, MaxMem=   196608000 cpu:         0.2
 (Enter /cm/shared/c3ddb/gaussian/09.d01/g09/l103.exe)

 GradGradGradGradGradGradGradGradGradGradGradGradGradGradGradGradGradGrad
 Berny optimization.
 Using GEDIIS/GDIIS optimizer.
 FormGI is forming the generalized inverse of G from B-inverse, IUseBI=4.
 Internal  Forces:  Max     0.000235831 RMS     0.000097425
 Search for a local minimum.
 Step number   2 out of a maximum of   20 on scan point    46 out of    46
 All quantities printed in internal units (Hartrees-Bohrs-Radians)
 RMS Force = .16332D-04 SwitMx=.10000D-02 MixMth= 2
 Mixed Optimization -- En-DIIS/RFO-DIIS
 Update second derivatives using D2CorX and points    1    2
 DE= -7.77D-06 DEPred=-7.97D-06 R= 9.76D-01
 TightC=F SS=  1.41D+00  RLast= 9.23D-03 DXNew= 5.0454D-01 2.7685D-02
 Trust test= 9.76D-01 RLast= 9.23D-03 DXMaxT set to 3.00D-01
 The second derivative matrix:
                          R1        R2        R3        A1        A2
           R1           0.30102
           R2          -0.00552   0.52752
           R3          -0.00552   0.00018   0.52752
           A1           0.06727  -0.00689  -0.00068   0.22387
           A2           0.06727  -0.00068  -0.00689   0.01979   0.22387
           D1           0.03400  -0.00454  -0.00454   0.01864   0.01864
                          D1
           D1           0.01348
 ITU=  1  0
 Use linear search instead of GDIIS.
     Eigenvalues ---    0.17297   0.20396   0.37096   0.52745   0.52845
     Eigenvalues --- 1000.00000
 RFO step:  Lambda= 0.00000000D+00 EMin= 1.72969158D-01
 Quartic linear search produced a step of -0.01834.
 Iteration  1 RMS(Cart)=  0.00008215 RMS(Int)=  0.00000000
 Iteration  2 RMS(Cart)=  0.00000000 RMS(Int)=  0.00000000
 Iteration  1 RMS(Cart)=  0.00000000 RMS(Int)=  0.00000000
 ITry= 1 IFail=0 DXMaxC= 1.18D-04 DCOld= 1.00D+10 DXMaxT= 3.00D-01 DXLimC= 3.00D+00 Rises=F
 ClnCor:  largest displacement from symmetrization is 9.77D-15 for atom     4.
 Variable       Old X    -DE/DX   Delta X   Delta X   Delta X     New X
                                 (Linear)    (Quad)   (Total)
    R1        2.74699   0.00000  -0.00006   0.00001  -0.00005   2.74694
    R2        1.82798   0.00001   0.00001   0.00001   0.00002   1.82800
    R3        1.82798   0.00001   0.00001   0.00001   0.00002   1.82800
    A1        1.75484   0.00002   0.00011   0.00000   0.00011   1.75495
    A2        1.75484   0.00002   0.00011   0.00000   0.00011   1.75495
    D1        2.08200   0.00024   0.00000   0.00000   0.00000   2.08200
         Item               Value     Threshold  Converged?
 Maximum Force            0.000023     0.000450     YES
 RMS     Force            0.000016     0.000300     YES
 Maximum Displacement     0.000118     0.001800     YES
 RMS     Displacement     0.000082     0.001200     YES
 Predicted change in Energy=-2.727748D-09
 Optimization completed.
    -- Stationary point found.
                           ----------------------------
                           !   Optimized Parameters   !
                           ! (Angstroms and Degrees)  !
 --------------------------                            --------------------------
 ! Name  Definition              Value          Derivative Info.                !
 --------------------------------------------------------------------------------
 ! R1    R(1,2)                  1.4536         -DE/DX =    0.0                 !
 ! R2    R(1,3)                  0.9673         -DE/DX =    0.0                 !
 ! R3    R(2,4)                  0.9673         -DE/DX =    0.0                 !
 ! A1    A(2,1,3)              100.545          -DE/DX =    0.0                 !
 ! A2    A(1,2,4)              100.545          -DE/DX =    0.0                 !
 ! D1    D(3,1,2,4)            119.2899         -DE/DX =    0.0002              !
 --------------------------------------------------------------------------------
 Lowest energy point so far.  Saving SCF results.
 GradGradGradGradGradGradGradGradGradGradGradGradGradGradGradGradGradGrad

 Summary of Optimized Potential Surface Scan
                           1         2         3         4         5
     Eigenvalues --  -151.60206-151.60202-151.60187-151.60165-151.60140
           R1           1.45361   1.45548   1.45736   1.45913   1.46069
           R2           0.96735   0.96705   0.96678   0.96658   0.96643
           R3           0.96735   0.96705   0.96678   0.96658   0.96643
           A1         100.54712 100.23823  99.94373  99.69353  99.48647
           A2         100.54712 100.23823  99.94373  99.69353  99.48647
           D1         119.28985 127.28985 135.28985 143.28985 151.28985
                           6         7         8         9        10
     Eigenvalues --  -151.60117-151.60098-151.60088-151.60087-151.60096
           R1           1.46195   1.46194   1.46283   1.46331   1.46335
           R2           0.96634   0.96634   0.96628   0.96625   0.96625
           R3           0.96634   0.96634   0.96628   0.96625   0.96625
           A1          99.32856  99.33049  99.22212  99.16567  99.16168
           A2          99.32856  99.33049  99.22212  99.16567  99.16168
           D1         159.28985 167.28985 175.28985-176.71015-168.71015
                          11        12        13        14        15
     Eigenvalues --  -151.60113-151.60135-151.60160-151.60183-151.60200
           R1           1.46295   1.46095   1.45942   1.45768   1.45582
           R2           0.96627   0.96642   0.96655   0.96674   0.96699
           R3           0.96627   0.96642   0.96655   0.96674   0.96699
           A1          99.20974  99.45583  99.65460  99.89733 100.17712
           A2          99.20974  99.45583  99.65460  99.89733 100.17712
           D1        -160.71015-152.71015-144.71015-136.71015-128.71015
                          16        17        18        19        20
     Eigenvalues --  -151.60206-151.60198-151.60170-151.60121-151.60050
           R1           1.45396   1.45223   1.45076   1.44966   1.44905
           R2           0.96727   0.96759   0.96794   0.96828   0.96857
           R3           0.96727   0.96759   0.96794   0.96828   0.96857
           A1         100.48748 100.82463 101.18635 101.56650 101.95386
           A2         100.48748 100.82463 101.18635 101.56650 101.95386
           D1        -120.71015-112.71015-104.71015 -96.71015 -88.71015
                          21        22        23        24        25
     Eigenvalues --  -151.59958-151.59847-151.59720-151.59581-151.59435
           R1           1.44900   1.44953   1.45059   1.45211   1.45397
           R2           0.96877   0.96888   0.96887   0.96874   0.96854
           R3           0.96877   0.96888   0.96887   0.96874   0.96854
           A1         102.33858 102.71770 103.09395 103.47006 103.84076
           A2         102.33858 102.71770 103.09395 103.47006 103.84076
           D1         -80.71015 -72.71015 -64.71015 -56.71015 -48.71015
                          26        27        28        29        30
     Eigenvalues --  -151.59290-151.59155-151.59036-151.58943-151.58881
           R1           1.45603   1.45807   1.45992   1.46141   1.46240
           R2           0.96829   0.96803   0.96779   0.96759   0.96747
           R3           0.96829   0.96803   0.96779   0.96759   0.96747
           A1         104.19903 104.53712 104.83769 105.07737 105.23723
           A2         104.19903 104.53712 104.83769 105.07737 105.23723
           D1         -40.71015 -32.71015 -24.71015 -16.71015  -8.71015
                          31        32        33        34        35
     Eigenvalues --  -151.58858-151.58874-151.58929-151.59017-151.59132
           R1           1.46278   1.46279   1.46164   1.46022   1.45843
           R2           0.96743   0.96743   0.96756   0.96775   0.96799
           R3           0.96743   0.96743   0.96756   0.96775   0.96799
           A1         105.30020 105.30026 105.11225 104.88586 104.59500
           A2         105.30020 105.30026 105.11225 104.88586 104.59500
           D1          -0.71015   7.28985  15.28985  23.28985  31.28985
                          36        37        38        39        40
     Eigenvalues --  -151.59266-151.59409-151.59555-151.59696-151.59825
           R1           1.45641   1.45433   1.45241   1.45082   1.44967
           R2           0.96824   0.96849   0.96870   0.96885   0.96888
           R3           0.96824   0.96849   0.96870   0.96885   0.96888
           A1         104.26164 103.90618 103.53750 103.16196 102.78545
           A2         104.26164 103.90618 103.53750 103.16196 102.78545
           D1          39.28985  47.28985  55.28985  63.28985  71.28985
                          41        42        43        44        45
     Eigenvalues --  -151.59940-151.60035-151.60110-151.60163-151.60194
           R1           1.44905   1.44899   1.44950   1.45053   1.45195
           R2           0.96880   0.96862   0.96834   0.96801   0.96766
           R3           0.96880   0.96862   0.96834   0.96801   0.96766
           A1         102.40654 102.02232 101.63493 101.25261 100.88682
           A2         102.40654 102.02232 101.63493 101.25261 100.88682
           D1          79.28985  87.28985  95.28985 103.28985 111.28985
                          46
     Eigenvalues --  -151.60206
           R1           1.45364
           R2           0.96733
           R3           0.96733
           A1         100.54504
           A2         100.54504
           D1         119.28985
 Largest change from initial coordinates is atom    3       1.844 Angstoms.
 Leave Link  103 at Tue Feb 19 10:46:06 2019, MaxMem=   196608000 cpu:         1.4
 (Enter /cm/shared/c3ddb/gaussian/09.d01/g09/l202.exe)
                          Input orientation:                          
 ---------------------------------------------------------------------
 Center     Atomic      Atomic             Coordinates (Angstroms)
 Number     Number       Type             X           Y           Z
 ---------------------------------------------------------------------
      1          8           0       -0.465169    0.558469    0.401478
      2          8           0        0.465169   -0.558469    0.401478
      3          1           0       -1.209007    0.169294   -0.079111
      4          1           0        1.209007   -0.169294   -0.079111
 ---------------------------------------------------------------------
                    Distance matrix (angstroms):
                    1          2          3          4
     1  O    0.000000
     2  O    1.453644   0.000000
     3  H    0.967325   1.887716   0.000000
     4  H    1.887716   0.967325   2.441605   0.000000
 Stoichiometry    H2O2
 Framework group  C2[X(H2O2)]
 Deg. of freedom     4
 Full point group                 C2      NOp   2
 RotChk:  IX=2 Diff= 3.24D-16
 Largest Abelian subgroup         C2      NOp   2
 Largest concise Abelian subgroup C2      NOp   2
                         Standard orientation:                         
 ---------------------------------------------------------------------
 Center     Atomic      Atomic             Coordinates (Angstroms)
 Number     Number       Type             X           Y           Z
 ---------------------------------------------------------------------
      1          8           0        0.000000    0.726822    0.053399
      2          8           0        0.000000   -0.726822    0.053399
      3          1           0       -0.820618    0.903850   -0.427190
      4          1           0        0.820618   -0.903850   -0.427190
 ---------------------------------------------------------------------
 Rotational constants (GHZ):    303.3033260     26.4416949     25.3917128
 Leave Link  202 at Tue Feb 19 10:46:06 2019, MaxMem=   196608000 cpu:         0.5
 (Enter /cm/shared/c3ddb/gaussian/09.d01/g09/l601.exe)
 Copying SCF densities to generalized density rwf, IOpCl= 0 IROHF=0.

 **********************************************************************

            Population analysis using the SCF density.

 **********************************************************************

 Orbital symmetries:
       Occupied  (A) (B) (A) (B) (A) (B) (A) (A) (B)
       Virtual   (B) (A) (B) (A) (B) (A) (A) (B) (B) (A) (B) (A)
                 (B) (B) (A) (B) (A) (B) (A) (B) (A) (A) (B) (B)
                 (A) (A) (B) (B) (A) (A) (A) (B) (A) (B) (B) (A)
                 (B) (A) (B) (A) (A) (B) (B) (A) (B) (A) (B)
 The electronic state is 1-A.
 Alpha  occ. eigenvalues --  -19.19418 -19.19413  -1.13574  -0.91668  -0.54813
 Alpha  occ. eigenvalues --   -0.50994  -0.43497  -0.34327  -0.29518
 Alpha virt. eigenvalues --   -0.01614   0.02148   0.07187   0.14057   0.14401
 Alpha virt. eigenvalues --    0.17138   0.18656   0.18733   0.20251   0.25761
 Alpha virt. eigenvalues --    0.31284   0.46137   0.47663   0.92488   0.95096
 Alpha virt. eigenvalues --    0.95187   0.95901   1.02419   1.05783   1.26627
 Alpha virt. eigenvalues --    1.27058   1.38399   1.41443   1.50056   1.59332
 Alpha virt. eigenvalues --    1.95731   1.99563   2.40249   2.49150   2.54654
 Alpha virt. eigenvalues --    2.61623   2.74895   3.07187   3.09630   3.19235
 Alpha virt. eigenvalues --    3.30343   3.61084   3.72378   3.85402   4.73411
 Alpha virt. eigenvalues --    4.87549   4.92181   5.29590   5.44697   5.59618
 Alpha virt. eigenvalues --   49.76676  49.80180
          Condensed to atoms (all electrons):
               1          2          3          4
     1  O    7.977142   0.074336   0.241908  -0.033201
     2  O    0.074336   7.977142  -0.033201   0.241908
     3  H    0.241908  -0.033201   0.526991   0.004115
     4  H   -0.033201   0.241908   0.004115   0.526991
 Mulliken charges:
               1
     1  O   -0.260186
     2  O   -0.260186
     3  H    0.260186
     4  H    0.260186
 Sum of Mulliken charges =   0.00000
 Mulliken charges with hydrogens summed into heavy atoms:
               1
     1  O    0.000000
     2  O    0.000000
 Electronic spatial extent (au):  <R**2>=             67.3225
 Charge=              0.0000 electrons
 Dipole moment (field-independent basis, Debye):
    X=              0.0000    Y=              0.0000    Z=             -1.7860  Tot=              1.7860
 Quadrupole moment (field-independent basis, Debye-Ang):
   XX=             -9.6387   YY=            -11.7789   ZZ=            -12.2460
   XY=             -3.2521   XZ=              0.0000   YZ=              0.0000
 Traceless Quadrupole moment (field-independent basis, Debye-Ang):
   XX=              1.5825   YY=             -0.5577   ZZ=             -1.0248
   XY=             -3.2521   XZ=              0.0000   YZ=              0.0000
 Octapole moment (field-independent basis, Debye-Ang**2):
  XXX=              0.0000  YYY=              0.0000  ZZZ=             -1.1213  XYY=              0.0000
  XXY=              0.0000  XXZ=             -1.3827  XZZ=              0.0000  YZZ=              0.0000
  YYZ=             -1.9637  XYZ=              1.6836
 Hexadecapole moment (field-independent basis, Debye-Ang**3):
 XXXX=            -10.9915 YYYY=            -47.0214 ZZZZ=            -12.0154 XXXY=             -0.6054
 XXXZ=              0.0000 YYYX=             -1.6099 YYYZ=              0.0000 ZZZX=              0.0000
 ZZZY=              0.0000 XXYY=             -8.8117 XXZZ=             -3.6001 YYZZ=            -10.7610
 XXYZ=              0.0000 YYXZ=              0.0000 ZZXY=             -0.0355
 N-N= 3.675303673257D+01 E-N=-4.323923887307D+02  KE= 1.511992399160D+02
 Symmetry A    KE= 7.742268402229D+01
 Symmetry B    KE= 7.377655589374D+01
 No NMR shielding tensors so no spin-rotation constants.
 Leave Link  601 at Tue Feb 19 10:46:08 2019, MaxMem=   196608000 cpu:         9.2
 (Enter /cm/shared/c3ddb/gaussian/09.d01/g09/l9999.exe)
 1\1\GINC-NODE093\Scan\RB3LYP\6-311+G(d,p)\H2O2\ALONGD\19-Feb-2019\0\\#
 P opt=(modredundant, calcfc, noeigentest) b3lyp/6-311+g(d,p) scf=xqc\\
 name\\0,1\O,-0.465168888,0.5584691384,0.4014779797\O,0.465168888,-0.55
 84691384,0.4014779797\H,-1.2090071676,0.1692942827,-0.0791109797\H,1.2
 090071676,-0.1692942827,-0.0791109797\\Version=AS64L-G09RevD.01\State=
 1-A\HF=-151.6020612,-151.6020208,-151.6018668,-151.6016453,-151.601398
 ,-151.6011662,-151.6009841,-151.600881,-151.6008725,-151.6009601,-151.
 6011287,-151.6013546,-151.6016021,-151.6018311,-151.6020004,-151.60206
 45,-151.601977,-151.6017007,-151.6012108,-151.6005008,-151.5995809,-15
 1.5984695,-151.5971969,-151.5958053,-151.5943506,-151.592905,-151.5915
 478,-151.5903613,-151.5894269,-151.5888147,-151.5885789,-151.588744,-1
 51.5892929,-151.5901748,-151.5913223,-151.5926553,-151.594091,-151.595
 5497,-151.5969572,-151.5982542,-151.5993969,-151.6003524,-151.6011006,
 -151.6016298,-151.6019426,-151.6020612\RMSD=4.013e-09,4.193e-09,4.342e
 -09,4.154e-09,3.778e-09,3.122e-09,1.669e-09,2.161e-09,4.688e-09,4.274e
 -09,3.143e-09,2.645e-09,3.147e-09,3.494e-09,3.650e-09,3.622e-09,3.643e
 -09,3.740e-09,3.912e-09,3.944e-09,3.890e-09,3.927e-09,4.093e-09,4.296e
 -09,4.372e-09,4.233e-09,3.873e-09,3.252e-09,2.430e-09,9.493e-09,4.546e
 -09,3.965e-09,8.955e-09,2.442e-09,3.333e-09,3.993e-09,4.348e-09,4.454e
 -09,4.346e-09,4.127e-09,3.957e-09,3.894e-09,3.928e-09,4.009e-09,4.061e
 -09,4.217e-09\PG=C02 [X(H2O2)]\\@


 THE CAUTIOUS SELDOM ERR...CONFUCIUS                   
 Job cpu time:       0 days  1 hours 17 minutes 39.8 seconds.
 File lengths (MBytes):  RWF=      5 Int=      0 D2E=      0 Chk=      3 Scr=      1
 Normal termination of Gaussian 09 at Tue Feb 19 10:46:08 2019.
