
 Primary working directories    : /scratch/alongd/3300
 Secondary working directories  : /scratch/alongd/3300
 Wavefunction directory         : /home/alongd/wfu/
 Main file repository           : /scratch/alongd/3300/

 SHA1      : 5e3d8ac6839c721e2824de82269b4736200146bd
 NAME      : 2015.1.37
 ARCHNAME  : linux/x86_64
 FC        : /opt/intel/composer_xe_2015.1.133/bin/intel64/ifort
 BLASLIB   : -Wl,-_start-group /opt/intel/mkl/lib/intel64/libmkl_intel_ilp64.a /opt/intel/mkl/lib/intel64/libmkl_intel_thread.a /opt/intel/mkl/lib/intel64/libmkl_core.a -Wl,-_end-group
 id        : phalgunlolur

 Nodes     nprocs
 node08       1

 Using customized tuning parameters: mindgm=1; mindgv=20; mindgc=4; mindgr=1; noblas=0; minvec=7
 default implementation of scratch files=df  

 ***,name
 memory,750.0,m;
 geometry={angstrom;
 O      -0.70860400   -0.08438000   -0.07743000
 O       0.70860400    0.08438000   -0.07743000
 H      -0.98969500    0.70278200    0.39979700
 H       0.98969500   -0.70278200    0.39979700
 }
 
 basis=cc-pvtz-f12
 
 int;
 
 {hf;
 maxit,1000;
 wf,spin=0,charge=0;}
 
 ccsd(t)-f12;
 
 

 Variables initialized (889), CPU time= 0.01 sec
 Commands  initialized (702), CPU time= 0.01 sec, 572 directives.
 Default parameters read. Elapsed time= 0.08 sec

 Checking input...
 Passed
1


                                         ***  PROGRAM SYSTEM MOLPRO  ***
                                       Copyright, TTI GmbH Stuttgart, 2015
                                    Version 2015.1 linked Aug 10 2018 15:00:15


 **********************************************************************************************************************************
 LABEL *   name                                                                          
  64 bit serial version                                                                  DATE: 19-Feb-19          TIME: 10:33:01  
 **********************************************************************************************************************************

 SHA1:             5e3d8ac6839c721e2824de82269b4736200146bd
 **********************************************************************************************************************************

Geometry recognized as XYZ


 Variable memory set to  750000000 words,  buffer space   230000 words

 SETTING BASIS          =    CC-PVTZ-F12


 Using spherical harmonics

 Library entry O      S cc-pVTZ-F12          selected for orbital group  1
 Library entry O      P cc-pVTZ-F12          selected for orbital group  1
 Library entry O      D cc-pVTZ-F12          selected for orbital group  1
 Library entry O      F cc-pVTZ-F12          selected for orbital group  1
 Library entry H      S cc-pVTZ-F12          selected for orbital group  2
 Library entry H      P cc-pVTZ-F12          selected for orbital group  2
 Library entry H      D cc-pVTZ-F12          selected for orbital group  2


 PROGRAM * SEWARD (Integral evaluation for generally contracted gaussian basis sets)     Author: Roland Lindh, 1990

 Geometry written to block  1 of record 700


 Point group  C2  



 ATOMIC COORDINATES

 NR  ATOM    CHARGE       X              Y              Z

   1  O       8.00   -1.339067491   -0.159455090   -0.146321494
   2  O       8.00    1.339067491    0.159455090   -0.146321494
   3  H       1.00   -1.870252497    1.328065505    0.755506835
   4  H       1.00    1.870252497   -1.328065505    0.755506835

 Bond lengths in Bohr (Angstrom)

 1-2  2.697055929  1-3  1.818837367  2-4  1.818837367
     ( 1.427220534)     ( 0.962487285)     ( 0.962487285)

 Bond angles

  1-2-4  101.14501897   2-1-3  101.14501897

 NUCLEAR CHARGE:                   18
 NUMBER OF PRIMITIVE AOS:         186
 NUMBER OF SYMMETRY AOS:          166
 NUMBER OF CONTRACTIONS:          142   (  71A   +  71B   )
 NUMBER OF CORE ORBITALS:           2   (   1A   +   1B   )
 NUMBER OF VALENCE ORBITALS:       10   (   5A   +   5B   )


 NUCLEAR REPULSION ENERGY   37.27373159

 Eigenvalues of metric

         1 0.249E-03 0.547E-03 0.694E-03 0.698E-03 0.730E-03 0.153E-02 0.195E-02 0.434E-02
         2 0.267E-03 0.547E-03 0.630E-03 0.694E-03 0.750E-03 0.131E-02 0.143E-02 0.242E-02


 Contracted 2-electron integrals neglected if value below      1.0D-11
 AO integral compression algorithm  1   Integral accuracy      1.0D-11

     150.209 MB (compressed) written to integral file ( 45.0%)


 NUMBER OF SORTED TWO-ELECTRON INTEGRALS:   26135100.     BUFFER LENGTH:  32768
 NUMBER OF SEGMENTS:   2  SEGMENT LENGTH:   15998004      RECORD LENGTH: 524288

 Memory used in sort:      16.56 MW

 SORT1 READ    41777352. AND WROTE    22042940. INTEGRALS IN     64 RECORDS. CPU TIME:     0.41 SEC, REAL TIME:     0.66 SEC
 SORT2 READ    22042940. AND WROTE    26135100. INTEGRALS IN    573 RECORDS. CPU TIME:     0.59 SEC, REAL TIME:     0.76 SEC

 FILE SIZES:   FILE 1:   170.7 MBYTE,  FILE 4:   268.5 MBYTE,   TOTAL:    439.1 MBYTE

 OPERATOR DM      FOR CENTER  0  COORDINATES:    0.000000    0.000000    0.000000


 **********************************************************************************************************************************
 DATASETS  * FILE   NREC   LENGTH (MB)   RECORD NAMES
              1      19      121.15       500      610      700      900      950      970     1000      129      960     1100   
                                          VAR    BASINP    GEOM    SYMINP    ZMAT    AOBASIS   BASIS     P2S    ABASIS      S 
                                         1400     1410     1200     1210     1080     1600     1650     1300     1700   
                                           T        V       H0       H01     AOSYM     SMH    MOLCAS    ERIS     OPER   

 PROGRAMS   *        TOTAL       INT
 CPU TIMES  *         3.03      2.91
 REAL TIME  *        25.06 SEC
 DISK USED  *       439.48 MB      
 **********************************************************************************************************************************


 PROGRAM * RHF-SCF (CLOSED SHELL)       Authors: W. Meyer, H.-J. Werner


 NUMBER OF ELECTRONS:       9+    9-
 CONVERGENCE THRESHOLDS:    1.00E-05 (Density)    1.00E-07 (Energy)
 MAX. NUMBER OF ITERATIONS:     1000
 INTERPOLATION TYPE:            DIIS
 INTERPOLATION STEPS:              2 (START)      1 (STEP)
 LEVEL SHIFTS:                  0.00 (CLOSED)  0.00 (OPEN) 



 Orbital guess generated from atomic densities. Full valence occupancy:    6   6

 Molecular orbital dump at record        2100.2

 Initial occupancy:   5   4

 ITERATION    DDIFF          GRAD             ENERGY        2-EL.EN.            DIPOLE MOMENTS         DIIS   ORB.
    1      0.000D+00      0.000D+00      -150.82204201    188.481050    0.00000    0.00000    0.90883    0    start
    2      0.000D+00      0.794D-02      -150.84874248    187.963776    0.00000    0.00000    0.64987    1    diag
    3      0.678D-02      0.175D-02      -150.84988783    188.308395    0.00000    0.00000    0.68206    2    diag
    4      0.995D-03      0.426D-03      -150.85001856    188.161952    0.00000    0.00000    0.67289    3    diag
    5      0.491D-03      0.160D-03      -150.85003450    188.221529    0.00000    0.00000    0.67397    4    diag
    6      0.139D-03      0.387D-04      -150.85003600    188.212158    0.00000    0.00000    0.67349    5    diag
    7      0.483D-04      0.755D-05      -150.85003609    188.212758    0.00000    0.00000    0.67341    6    diag
    8      0.101D-04      0.192D-05      -150.85003610    188.212743    0.00000    0.00000    0.67337    7    diag
    9      0.329D-05      0.620D-06      -150.85003610    188.212742    0.00000    0.00000    0.67336    0    orth

 Final occupancy:   5   4

 !RHF STATE 1.1 Energy               -150.850036098564
 Nuclear energy                        37.27373159
 One-electron energy                 -282.23013867
 Two-electron energy                   94.10637099
 Virial quotient                       -1.00108147
 !RHF STATE 1.1 Dipole moment           0.00000000     0.00000000     0.67336413
 Dipole moment /Debye                   0.00000000     0.00000000     1.71140881

 Orbital energies:

         1.1          2.1          3.1          4.1          5.1          6.1          7.1
    -20.628458    -1.486286    -0.717339    -0.618304    -0.521282     0.109559     0.135718

         1.2          2.2          3.2          4.2          5.2          6.2
    -20.628148    -1.212001    -0.717586    -0.479294     0.084383     0.120324

 HOMO      4.2    -0.479294 =     -13.0422eV
 LUMO      5.2     0.084383 =       2.2962eV
 LUMO-HOMO         0.563677 =      15.3384eV


 **********************************************************************************************************************************
 DATASETS  * FILE   NREC   LENGTH (MB)   RECORD NAMES
              1      19      121.15       500      610      700      900      950      970     1000      129      960     1100   
                                          VAR    BASINP    GEOM    SYMINP    ZMAT    AOBASIS   BASIS     P2S    ABASIS      S 
                                         1400     1410     1200     1210     1080     1600     1650     1300     1700   
                                           T        V       H0       H01     AOSYM     SMH    MOLCAS    ERIS     OPER   

              2       4        3.02       700     1000      520     2100   
                                         GEOM     BASIS   MCVARS     RHF  

 PROGRAMS   *        TOTAL        HF       INT
 CPU TIMES  *         4.59      1.55      2.91
 REAL TIME  *        37.16 SEC
 DISK USED  *       439.48 MB      
 **********************************************************************************************************************************


 PROGRAM * CCSD (Closed-shell coupled cluster)     Authors: C. Hampel, H.-J. Werner, 1991, M. Deegan, P.J. Knowles, 1992

                                  CCSD-F12 implementation by  H.-J. Werner, 2007

                   Density fitting integral evaluation by F.R. Manby, 2003,2007, G. Knizia, 2010

 Basis set AUG-CC-PVTZ/JKFIT generated.  Number of basis functions:   300 
 Basis set CC-PVTZ-F12/OPTRI generated.  Number of basis functions:   232 
 Basis set AUG-CC-PVTZ/MP2FIT generated. Number of basis functions:   304 

 Convergence thresholds:  THRVAR = 1.00D-08  THRDEN = 1.00D-06

 CCSD(T)     terms to be evaluated (factor= 1.000)


 Number of core orbitals:           2 (   1   1 )
 Number of closed-shell orbitals:   7 (   4   3 )
 Number of external orbitals:     133 (  66  67 )

 Molecular orbitals read from record     2100.2  Type=RHF/CANONICAL (state 1.1)

 MP2-F12 correlation treatment (H.-J. Werner, 2006)
 ==================================================

 Using MP2-F12 with ansatz 3C(FIX)

 Using projected zeroth-order Hamiltonian (+Z)

 FOCKRIB=T FOCKRIC=T FOCKRIP=T CABSP=T CABSA=T CABSK=T CABSF=T GBC=F EBC=F DMAT=T NOFIK=T NOPAO=1 SOLVE=-1  USEPAO=0
 EXCH_A= T EXCH_B= F EXCH_C= F EXCH_P= F
 
 Geminal basis:    OPTFULL  GEM_TYPE=SLATER  BETA=1.0  NGEM=6

 Optimizing Gaussian exponents for each gem_beta

 Geminal optimization for beta= 1.0000
 Weight function:   m=0, omega= 1.4646

 Augmented Hessian optimization of geminal fit. Trust ratio= 0.40000
 Convergence reached after   2 iterations. Final gradient= 8.41D-16, Step= 4.29D-06, Delta= 1.28D-09
 
 Alpha:                 0.19532     0.81920     2.85917     9.50073    35.69989   197.79328
 Coeff:                 0.27070     0.30552     0.18297     0.10986     0.06810     0.04224
 

 Symmetry turned off. Reference energy:       -150.850036098564

 All pairs explicitly correlated. Number of r12-pairs:           28

 Excluding core orbitals from MO domains
 
 AO(A)-basis ORBITAL           loaded. Number of functions:     142
 RI(R)-basis CC-PVTZ-F12/OPTRI loaded. Number of functions:     232
 DF-basis AUG-CC-PVTZ/JKFIT    loaded. Number of functions:     300

 Screening thresholds:   THRAO=  1.00D-10  THRMO=  1.00D-09  THRPROD=  1.00D-09
                         THRSW=  1.00D-05  THROV=  1.00D-12  THRAOF12=   1.00D-08

 CPU time for Fock operators                      2.82 sec
 
 Construction of ABS:
 Smallest eigenvalue of S          6.29E-04  (threshold= 1.00E-08)
 Ratio eigmin/eigmax               9.99E-05  (threshold= 1.00E-09)
 Smallest eigenvalue of S kept     6.29E-04  (threshold= 6.29E-04, 0 functions deleted, 232 kept)
 
 Construction of CABS:
 Smallest eigenvalue of S          2.23E-06  (threshold= 1.00E-08)
 Ratio eigmin/eigmax               2.23E-06  (threshold= 1.00E-09)
 Smallest eigenvalue of S kept     2.23E-06  (threshold= 2.23E-06, 0 functions deleted, 232 kept)
 
 CPU time for CABS singles                        0.02 sec

 CABS-singles contribution of  -0.00166847 patched into reference energy.
 New reference energy        -150.85170457
 
 AO(A)-basis ORBITAL           loaded. Number of functions:     142
 RI(R)-basis CC-PVTZ-F12/OPTRI loaded. Number of functions:     232
 DF-basis AUG-CC-PVTZ/MP2FIT   loaded. Number of functions:     304

 Screening thresholds:   THRAO=  1.00D-10  THRMO=  1.00D-09  THRPROD=  1.00D-09
                         THRSW=  1.00D-05  THROV=  1.00D-12  THRAOF12=   1.00D-08

 CPU time for 3-index integral evaluation         1.65 sec
 CPU time for first  half transformation          0.11 sec (10559.7 MFLOP/sec)
 CPU time for second half transformation          0.01 sec ( 3807.4 MFLOP/sec)
 CPU time for sorting                             0.01 sec
 CPU time for fitting                             0.02 sec (25941.2 MFLOP/sec)
 CPU time for tilde quantities                    0.01 sec (69090.2 MFLOP/sec)
 CPU time for assembly                            0.15 sec (37261.8 MFLOP/sec)
 CPU time for tranop_f12                          0.21 sec (34370.7 MFLOP/sec)
 CPU time for f12 integrals (total)               3.98 sec, Elapsed time:      4.27 sec
 CPU time for f12 matrices (total)                0.09 sec, Elapsed time:      0.96 sec

 Diagonal F12 approximation with fixed coefficients:  TSING= 0.500,  TTRIP= 0.250 (scaled by -1/beta)

 DF-MP2-F12 energy corrections:
 ==============================
 Approx.                                    Singlet             Triplet             Total
 DF-MP2-F12/3*C(DX,FIX)                -0.046479343408     -0.006057063144     -0.052536406552
 DF-MP2-F12/3*C(FIX)                   -0.042794334647     -0.005496943922     -0.048291278568
 DF-MP2-F12/3C(FIX)                    -0.042711698754     -0.005731117326     -0.048442816080

 DF-MP2-F12 correlation energies:
 ================================
 Approx.                                    Singlet             Triplet             Ecorr            Total Energy
 DF-MP2                                -0.325280899544     -0.191560122410     -0.516841021954   -151.368545589833
 DF-MP2-F12/3*C(DX,FIX)                -0.371760242952     -0.197617185554     -0.569377428506   -151.421081996385
 DF-MP2-F12/3*C(FIX)                   -0.368075234191     -0.197057066331     -0.565132300522   -151.416836868401
 DF-MP2-F12/3C(FIX)                    -0.367992598298     -0.197291239736     -0.565283838034   -151.416988405913

 SCS-DF-MP2 energies (F_SING= 1.20000  F_TRIP= 0.62222  F_PARALLEL= 0.33333):
 ============================================================================
 SCS-DF-MP2                            -0.509530044508   -151.361234612387
 SCS-DF-MP2-F12/3*C(DX,FIX)            -0.569074095887   -151.420778663766
 SCS-DF-MP2-F12/3*C(FIX)               -0.564303566746   -151.416008134625
 SCS-DF-MP2-F12/3C(FIX)                -0.564350111571   -151.416054679450

 Symmetry restored.
 Symmetry transformation completed.

 Number of N-1 electron functions:               7
 Number of N-2 electron functions:              28
 Number of singly external CSFs:               465
 Number of doubly external CSFs:            217156
 Total number of CSFs:                      217622

 Length of J-op  integral file:              61.95 MB
 Length of K-op  integral file:              77.09 MB
 Length of 3-ext integral record:             0.00 MB

 Memory could be reduced to 12.04 Mwords without degradation in triples

 Integral transformation finished. Total CPU:   0.59 sec, npass=  1  Memory used:   4.58 MW

 Reference energy:                   -150.85170457

 Adding F12 terms to K(Cij), methodcc=6,  factor= 1.0

 ITER.      SQ.NORM     CORR.ENERGY   TOTAL ENERGY   ENERGY CHANGE        DEN1      VAR(S)    VAR(P)  DIIS     TIME  TIME/IT
   1      1.11774703    -0.51529869  -151.36700326     0.00161602     0.01557921  0.19D-02  0.23D-02  1  1     8.42     0.57
   2      1.12595197    -0.51468826  -151.36639283     0.00061044    -0.01084571  0.45D-04  0.30D-03  2  2     9.03     6.17
   3      1.12898968    -0.51490429  -151.36660886    -0.00021603    -0.00167686  0.27D-04  0.25D-04  3  3     9.57     4.34
   4      1.13070783    -0.51496948  -151.36667405    -0.00006519    -0.00100432  0.22D-05  0.22D-05  4  4    10.11     5.37
   5      1.13108231    -0.51497162  -151.36667619    -0.00000214    -0.00009719  0.51D-06  0.17D-06  5  5    10.64     4.71
   6      1.13116364    -0.51496848  -151.36667305     0.00000314    -0.00000340  0.85D-07  0.26D-07  6  6    11.16     4.02
   7      1.13118963    -0.51496798  -151.36667254     0.00000051    -0.00000627  0.16D-07  0.41D-08  6  1    11.71     3.53
   8      1.13119389    -0.51496813  -151.36667270    -0.00000015     0.00000057  0.42D-08  0.95D-09  6  2    12.29     4.72

 Norm of t1 vector:      0.05905102      S-energy:    -0.00000014      T1 diagnostic:  0.01115959
                                                                       D1 diagnostic:  0.02178541

 Adding energy correction from Wij-K(Fij), methodcc=6  factor= 1.0
 
  CCSD correlation energy              -0.514968129602
  MP2-F12 correction (uncoupled)       -0.045865574763
  C*T doubles correction               -0.001864634528
  f12b correction                       0.007844257307


 Total CPU time for triples:      5.83 sec


 RESULTS
 =======

  Reference energy                   -150.850036098564
  F12 singles correction               -0.001668469315

 F12 singles corrections added to reference energy

  New reference energy               -150.851704567879

  F12a singlet correction              -0.042262585439
  F12a triplet correction              -0.005467623851
  F12a total correction                -0.047730209291

 F12a corrections for ansatz F12/3C(FIX) added to CCSD energy
 
  CCSD-F12a singlet pair energy        -0.389500360451
  CCSD-F12a triplet pair energy        -0.173197838271
  CCSD-F12a correlation energy         -0.562698338893

  Triples (T) contribution             -0.019930807196
  Total correlation energy             -0.582629146089

  CCSD-F12a total energy             -151.414402906772
  CCSD[T]-F12a energy                -151.435026443900
  CCSD-T-F12a energy                 -151.434018593856
 !CCSD(T)-F12a total energy          -151.434333713968

 F12b corrections for ansatz F12/3C(FIX) added to CCSD(T)-F12a energy

  CCSD-F12b singlet pair energy        -0.382252587899
  CCSD-F12b triplet pair energy        -0.172601353515
  CCSD-F12b correlation energy         -0.554854081585

  Triples (T) contribution             -0.019930807196
  Total correlation energy             -0.574784888782

  CCSD-F12b total energy             -151.406558649464
  CCSD[T]-F12b energy                -151.427182186593
  CCSD-T-F12b energy                 -151.426174336549
 !CCSD(T)-F12b total energy          -151.426489456661

 Timing summary (sec):

 STEP                 CPU(USER)    SYS     CPU(TOT)    WALL
 Transformation          0.60      0.11      0.71      0.71
 CCSD iterations         4.46      0.42      4.88     37.83
 Triples                 5.83      0.30      6.13      6.13
 MP2-F12                 7.24      0.47      7.71     30.44
 F12b energy             0.42      0.03      0.45      0.45

 Program statistics:

 Available memory in ccsd:               749999564
 Min. memory needed in ccsd:                697891
 Max. memory used in ccsd:                  875430
 Max. memory used in cckext:               1013493 ( 9 integral passes)



 **********************************************************************************************************************************
 DATASETS  * FILE   NREC   LENGTH (MB)   RECORD NAMES
              1      20      157.90       500      610      700      900      950      970     1000      129      960     1100   
                                          VAR    BASINP    GEOM    SYMINP    ZMAT    AOBASIS   BASIS     P2S    ABASIS      S 
                                         1400     1410     1200     1210     1080     1600     1650     1300     1700     1380   
                                           T        V       H0       H01     AOSYM     SMH    MOLCAS    ERIS     OPER     JKOP   

              2       6        3.23       700     1000      520     2100     7360     7350   
                                         GEOM     BASIS   MCVARS     RHF    F12ABS    EF12   

 PROGRAMS   *        TOTAL   CCSD(T)        HF       INT
 CPU TIMES  *        23.17     18.59      1.55      2.91
 REAL TIME  *       117.85 SEC
 DISK USED  *       439.48 MB      
 **********************************************************************************************************************************

 CCSD(T)-F12/cc-pVTZ-F12 energy=   -151.426489456661

     CCSD(T)-F12        HF-SCF  
   -151.42648946   -150.85003610
 **********************************************************************************************************************************
 Molpro calculation terminated
 Variable memory released
