
 Primary working directories    : /scratch/alongd/3301
 Secondary working directories  : /scratch/alongd/3301
 Wavefunction directory         : /home/alongd/wfu/
 Main file repository           : /scratch/alongd/3301/

 SHA1      : 5e3d8ac6839c721e2824de82269b4736200146bd
 NAME      : 2015.1.37
 ARCHNAME  : linux/x86_64
 FC        : /opt/intel/composer_xe_2015.1.133/bin/intel64/ifort
 BLASLIB   : -Wl,-_start-group /opt/intel/mkl/lib/intel64/libmkl_intel_ilp64.a /opt/intel/mkl/lib/intel64/libmkl_intel_thread.a /opt/intel/mkl/lib/intel64/libmkl_core.a -Wl,-_end-group
 id        : phalgunlolur

 Nodes     nprocs
 node08       1

 Using customized tuning parameters: mindgm=1; mindgv=20; mindgc=4; mindgr=1; noblas=0; minvec=7
 default implementation of scratch files=df  

 ***,name
 memory,750.0,m;
 geometry={angstrom;
 N      -0.57411500   -0.00739300   -0.00383200
 N       0.74727200    0.20696200   -0.11977500
 H      -1.11520800    0.82619200    0.16335700
 H      -0.93404100   -0.84975900    0.42656500
 H       1.18504600   -0.71608100   -0.10236900
 }
 
 basis=cc-pvtz-f12
 
 int;
 
 {hf;
 maxit,1000;
 wf,spin=1,charge=0;}
 
 uccsd(t)-f12;
 
 

 Variables initialized (889), CPU time= 0.00 sec
 Commands  initialized (702), CPU time= 0.01 sec, 572 directives.
 Default parameters read. Elapsed time= 7.42 sec

 Checking input...
 Passed
1


                                         ***  PROGRAM SYSTEM MOLPRO  ***
                                       Copyright, TTI GmbH Stuttgart, 2015
                                    Version 2015.1 linked Aug 10 2018 15:00:15


 **********************************************************************************************************************************
 LABEL *   name                                                                          
  64 bit serial version                                                                  DATE: 19-Feb-19          TIME: 10:36:26  
 **********************************************************************************************************************************

 SHA1:             5e3d8ac6839c721e2824de82269b4736200146bd
 **********************************************************************************************************************************

Geometry recognized as XYZ


 Variable memory set to  750000000 words,  buffer space   230000 words

 SETTING BASIS          =    CC-PVTZ-F12


 Using spherical harmonics

 Library entry N      S cc-pVTZ-F12          selected for orbital group  1
 Library entry N      P cc-pVTZ-F12          selected for orbital group  1
 Library entry N      D cc-pVTZ-F12          selected for orbital group  1
 Library entry N      F cc-pVTZ-F12          selected for orbital group  1
 Library entry H      S cc-pVTZ-F12          selected for orbital group  2
 Library entry H      P cc-pVTZ-F12          selected for orbital group  2
 Library entry H      D cc-pVTZ-F12          selected for orbital group  2


 PROGRAM * SEWARD (Integral evaluation for generally contracted gaussian basis sets)     Author: Roland Lindh, 1990

 Geometry written to block  1 of record 700


 Point group  C1  



 ATOMIC COORDINATES

 NR  ATOM    CHARGE       X              Y              Z

   1  N       7.00   -1.084920114   -0.013970745   -0.007241431
   2  N       7.00    1.412139421    0.391101498   -0.226341947
   3  H       1.00   -2.107437692    1.561276606    0.308699991
   4  H       1.00   -1.765081679   -1.605811782    0.806091024
   5  H       1.00    2.239412385   -1.353196973   -0.193449374

 Bond lengths in Bohr (Angstrom)

 1-2  2.539172085  1-3  1.904406836  1-4  1.912612695  2-5  1.930813206
     ( 1.343672002)     ( 1.007768698)     ( 1.012111052)     ( 1.021742347)

 Bond angles

  1-2-5  106.00751358   2-1-3  114.22845916   2-1-4  121.27785653   3-1-4  115.27382844

 NUCLEAR CHARGE:                   17
 NUMBER OF PRIMITIVE AOS:         207
 NUMBER OF SYMMETRY AOS:          186
 NUMBER OF CONTRACTIONS:          160   ( 160A   )
 NUMBER OF CORE ORBITALS:           2   (   2A   )
 NUMBER OF VALENCE ORBITALS:       11   (  11A   )


 NUCLEAR REPULSION ENERGY   36.61784721

 Eigenvalues of metric

         1 0.132E-03 0.245E-03 0.282E-03 0.374E-03 0.402E-03 0.535E-03 0.557E-03 0.569E-03


 Contracted 2-electron integrals neglected if value below      1.0D-11
 AO integral compression algorithm  1   Integral accuracy      1.0D-11

     421.790 MB (compressed) written to integral file ( 52.9%)


 NUMBER OF SORTED TWO-ELECTRON INTEGRALS:   82953640.     BUFFER LENGTH:  32768
 NUMBER OF SEGMENTS:   6  SEGMENT LENGTH:   15999503      RECORD LENGTH: 524288

 Memory used in sort:      16.56 MW

 SORT1 READ    99704137. AND WROTE    81048784. INTEGRALS IN    234 RECORDS. CPU TIME:     1.01 SEC, REAL TIME:     1.74 SEC
 SORT2 READ    81048784. AND WROTE    82953640. INTEGRALS IN   1609 RECORDS. CPU TIME:     1.28 SEC, REAL TIME:     1.75 SEC

 FILE SIZES:   FILE 1:   442.7 MBYTE,  FILE 4:   981.5 MBYTE,   TOTAL:   1424.2 MBYTE

 OPERATOR DM      FOR CENTER  0  COORDINATES:    0.000000    0.000000    0.000000


 **********************************************************************************************************************************
 DATASETS  * FILE   NREC   LENGTH (MB)   RECORD NAMES
              1      19      378.66       500      610      700      900      950      970     1000      129      960     1100   
                                          VAR    BASINP    GEOM    SYMINP    ZMAT    AOBASIS   BASIS     P2S    ABASIS      S 
                                         1400     1410     1200     1210     1080     1600     1650     1300     1700   
                                           T        V       H0       H01     AOSYM     SMH    MOLCAS    ERIS     OPER   

 PROGRAMS   *        TOTAL       INT
 CPU TIMES  *         6.02      5.90
 REAL TIME  *        36.03 SEC
 DISK USED  *         1.42 GB      
 **********************************************************************************************************************************


 PROGRAM * RHF-SCF (OPEN SHELL)       Authors: W. Meyer, H.-J. Werner


 NUMBER OF ELECTRONS:       9+    8-    SPACE SYMMETRY=1    SPIN SYMMETRY: Doublet 
 CONVERGENCE THRESHOLDS:    1.00E-05 (Density)    1.00E-07 (Energy)
 MAX. NUMBER OF ITERATIONS:     1000
 INTERPOLATION TYPE:            DIIS
 INTERPOLATION STEPS:              2 (START)      1 (STEP)
 LEVEL SHIFTS:                 -0.60 (CLOSED) -0.30 (OPEN) 



 Orbital guess generated from atomic densities. Full valence occupancy:   13

 Molecular orbital dump at record        2100.2

 Initial alpha occupancy:   9
 Initial beta  occupancy:   8
 Wave function symmetry:    1

 ITERATION    DDIFF          GRAD             ENERGY        2-EL.EN.            DIPOLE MOMENTS         DIIS   ORB.
    1      0.000D+00      0.000D+00      -110.58335069    150.548146   -1.25732   -0.86442    0.55201    0    start
    2      0.000D+00      0.431D-02      -110.61125026    150.576313   -0.87097   -0.65377    0.45670    1    diag,B
    3      0.343D-02      0.162D-02      -110.61631832    150.608747   -0.81664   -0.63974    0.43649    2    diag,B
    4      0.117D-02      0.676D-03      -110.61928890    150.650850   -0.72121   -0.62049    0.42882    3    diag,B
    5      0.718D-03      0.419D-03      -110.62111706    150.668052   -0.65940   -0.61614    0.42837    4    diag,B
    6      0.482D-03      0.294D-03      -110.62275565    150.684741   -0.58102   -0.61200    0.43013    5    diag,B
    7      0.688D-03      0.142D-03      -110.62311598    150.697872   -0.53750   -0.60779    0.42990    6    fixocc
    8      0.451D-03      0.426D-04      -110.62313191    150.700958   -0.52999   -0.60636    0.42869    7    diag,B
    9      0.109D-03      0.146D-04      -110.62313383    150.701663   -0.52997   -0.60603    0.42792    8    diag,B
   10      0.416D-04      0.740D-05      -110.62313468    150.701665   -0.53001   -0.60592    0.42739    9    orth
   11      0.210D-04      0.450D-05      -110.62313515    150.701914   -0.53009   -0.60594    0.42698    9    diag,B
   12      0.122D-04      0.262D-05      -110.62313533    150.701824   -0.53000   -0.60600    0.42670    9    diag,B
   13      0.794D-05      0.142D-05      -110.62313538    150.701884   -0.53006   -0.60605    0.42657    9    diag,B
   14      0.496D-05      0.615D-06      -110.62313538    150.701845   -0.53004   -0.60606    0.42654    0    orth

 Final alpha occupancy:   9
 Final beta  occupancy:   8

 !RHF STATE 1.1 Energy               -110.623135384462
 Nuclear energy                        36.61784721
 One-electron energy                 -222.59190499
 Two-electron energy                   75.35092239
 Virial quotient                       -1.00100034
 !RHF STATE 1.1 Dipole moment          -0.53004340    -0.60606049     0.42654380
 Dipole moment /Debye                  -1.34714770    -1.54035122     1.08409518

 Orbital energies:

         1.1          2.1          3.1          4.1          5.1          6.1          7.1          8.1          9.1         10.1
    -15.591424   -15.579599    -1.284471    -0.972737    -0.728137    -0.635447    -0.504503    -0.457303    -0.382797     0.066788

        11.1
      0.082774

 HOMO      9.1    -0.382797 =     -10.4164eV
 LUMO     10.1     0.066788 =       1.8174eV
 LUMO-HOMO         0.449585 =      12.2338eV


 **********************************************************************************************************************************
 DATASETS  * FILE   NREC   LENGTH (MB)   RECORD NAMES
              1      19      378.66       500      610      700      900      950      970     1000      129      960     1100   
                                          VAR    BASINP    GEOM    SYMINP    ZMAT    AOBASIS   BASIS     P2S    ABASIS      S 
                                         1400     1410     1200     1210     1080     1600     1650     1300     1700   
                                           T        V       H0       H01     AOSYM     SMH    MOLCAS    ERIS     OPER   

              2       4        3.56       700     1000      520     2100   
                                         GEOM     BASIS   MCVARS     RHF  

 PROGRAMS   *        TOTAL        HF       INT
 CPU TIMES  *        18.38     12.36      5.90
 REAL TIME  *       108.82 SEC
 DISK USED  *         1.42 GB      
 **********************************************************************************************************************************


 PROGRAM * CCSD (Unrestricted open-shell coupled cluster)     Authors: C. Hampel, H.-J. Werner, 1991, M. Deegan, P.J. Knowles, 1992

                           UCCSD-F12 implementation by G. Knizia and H.-J. Werner, 2008

                   Density fitting integral evaluation by F.R. Manby, 2003,2007, G. Knizia, 2010

 Basis set AUG-CC-PVTZ/JKFIT generated.  Number of basis functions:   346 
 Basis set CC-PVTZ-F12/OPTRI generated.  Number of basis functions:   273 
 Basis set AUG-CC-PVTZ/MP2FIT generated. Number of basis functions:   350 

 Convergence thresholds:  THRVAR = 1.00D-08  THRDEN = 1.00D-06

 CCSD(T)     terms to be evaluated (factor= 1.000)


 Number of core orbitals:           2 (   2 )
 Number of closed-shell orbitals:   6 (   6 )
 Number of active  orbitals:        1 (   1 )
 Number of external orbitals:     151 ( 151 )

 Memory could be reduced to 51.57 Mwords without degradation in triples

 Number of N-1 electron functions:              13
 Number of N-2 electron functions:              78
 Number of singly external CSFs:              1976
 Number of doubly external CSFs:           1383504
 Total number of CSFs:                     1385480

 Molecular orbitals read from record     2100.2  Type=RHF/CANONICAL (state 1.1)

 Integral transformation finished. Total CPU:   2.75 sec, npass=  1  Memory used:  18.25 MW
 
 Geminal basis:    OPTFULL  GEM_TYPE=SLATER  BETA=1.0  NGEM=6

 Optimizing Gaussian exponents for each gem_beta

 Geminal optimization for beta= 1.0000
 Weight function:   m=0, omega= 1.4646

 Augmented Hessian optimization of geminal fit. Trust ratio= 0.40000
 Convergence reached after   2 iterations. Final gradient= 8.41D-16, Step= 4.29D-06, Delta= 1.28D-09
 
 Alpha:                 0.19532     0.81920     2.85917     9.50073    35.69989   197.79328
 Coeff:                 0.27070     0.30552     0.18297     0.10986     0.06810     0.04224
 
 
 WFN_F12=FIX,EG    DECOUPLE_EXPL=F   HYBRID=0    NOX=F   SEMIINT_F12=T   CORE_SINGLES=F
 
 AO(A)-basis ORBITAL           loaded. Number of functions:     160
 RI(R)-basis CC-PVTZ-F12/OPTRI loaded. Number of functions:     273
 DF-basis AUG-CC-PVTZ/JKFIT    loaded. Number of functions:     346

 Screening thresholds:   THRAO=  1.00D-10  THRMO=  1.00D-09  THRPROD=  1.00D-09
                         THRSW=  1.00D-05  THROV=  1.00D-12  THRAOF12=   1.00D-08

 CPU time for one-electron matrices               2.01 sec
 
 Construction of ABS:
 Pseudo-inverse stability          4.79E-12
 Smallest eigenvalue of S          2.31E-04  (threshold= 1.00E-08)
 Ratio eigmin/eigmax               3.17E-05  (threshold= 1.00E-09)
 Smallest eigenvalue of S kept     2.31E-04  (threshold= 2.31E-04, 0 functions deleted, 273 kept)
 
 Construction of CABS:
 Pseudo-inverse stability          1.08E-10
 Smallest eigenvalue of S          8.34E-07  (threshold= 1.00E-08)
 Ratio eigmin/eigmax               8.34E-07  (threshold= 1.00E-09)
 Smallest eigenvalue of S kept     8.34E-07  (threshold= 8.34E-07, 0 functions deleted, 273 kept)
 
 CPU time for basis constructions                 0.04 sec
 Fock operators(MO) rebuilt from dump record.
 CPU time for fock operators                      0.05 sec
 
                                      TOTAL          ALPHA          BETA    
  Singles Contributions MO        -0.004265228   -0.002125843   -0.002139385
  Singles Contributions CABS      -0.001249795   -0.000680900   -0.000568895
  Pure DF-RHF relaxation          -0.001232870
 
 CPU time for singles                             0.15 sec
 
 AO(A)-basis ORBITAL           loaded. Number of functions:     160
 RI(R)-basis CC-PVTZ-F12/OPTRI loaded. Number of functions:     273
 DF-basis AUG-CC-PVTZ/MP2FIT   loaded. Number of functions:     350

 Screening thresholds:   THRAO=  1.00D-10  THRMO=  1.00D-09  THRPROD=  1.00D-09
                         THRSW=  1.00D-05  THROV=  1.00D-12  THRAOF12=   1.00D-08

 CPU time for transformed integrals               4.71 sec
 CPU time for F12 matrices                        0.37 sec

 Diagonal F12 ansatz with fixed amplitudes:   TS= 0.5000  TT= 0.2500  TN= 0.3750
 
 ITER.     SQ.NORM      CORR.ENERGY   TOTAL ENERGY  ENERGY CHANGE      VAR         CPU   MICRO    DIIS
   1      1.11835617    -0.46147234  -111.08584060    -4.6271E-01   1.16E-01      0.02  1  1  1   0  0
   2      1.11727186    -0.45984959  -111.08421784     1.6228E-03   1.26E-04      0.09  0  0  0   1  1
   3      1.11753488    -0.46015034  -111.08451859    -3.0075E-04   7.90E-07      0.16  0  0  0   2  2
   4      1.11753634    -0.46015182  -111.08452008    -1.4862E-06   5.96E-09      0.23  0  0  0   3  3
   5      1.11753699    -0.46015183  -111.08452009    -1.0472E-08   5.71E-11      0.32  0  0  0   4  4
 
 - - Continuing with F12/conv. amplitude coupling turned on.
 
   6      1.11751187    -0.46041677  -111.08478502    -2.6495E-04   4.10E-05      0.39  1  1  1   1  1
   7      1.11751122    -0.46041697  -111.08478522    -2.0256E-07   2.89E-09      0.49  1  1  1   2  2
 
 CPU time for iterative RMP2-F12                  0.49 sec
 
 
 DF-RMP2-F12 doubles corrections:
 - - - - - - - - - - - - - - - - 
  Approx.                             TOTAL           A-B            A-A            B-B    
  RMP2-F12/3C(FIX)                -0.035769091   -0.033308920   -0.001483634   -0.000976537
  RMP2-F12/3*C(FIX)               -0.035503954   -0.033131749   -0.001434145   -0.000938059
  RMP2-F12/3*C(DX)                -0.035567877   -0.033192582   -0.001436094   -0.000939201
  RMP2-F12/3*C(FIX,DX)            -0.037050796   -0.034601961   -0.001481518   -0.000967318
 
 DF-RMP2-F12 doubles energies:
 - - - - - - - - - - - - - - -
  Approx.                             TOTAL           A-B            A-A            B-B    
  RMP2                            -0.420382651   -0.319702422   -0.055754421   -0.044925808
  RMP2-F12/3C(FIX)                -0.456151743   -0.353011342   -0.057238056   -0.045902345
  RMP2-F12/3*C(FIX)               -0.455886605   -0.352834171   -0.057188567   -0.045863867
  RMP2-F12/3*C(DX)                -0.455950528   -0.352895004   -0.057190516   -0.045865009
  RMP2-F12/3*C(FIX,DX)            -0.457433447   -0.354304383   -0.057235939   -0.045893125
 
 
  Reference energy                   -110.623135384463
  CABS relaxation correction to RHF    -0.001232870010
  New reference energy               -110.624368254473
 
  RMP2-F12 singles (MO) energy         -0.004265227694
  RMP2-F12 pair energy                 -0.456151742517
  RMP2-F12 correlation energy          -0.460416970211
 
 !RMP2-F12/3C(FIX) energy            -111.084785224684

 Starting RMP2 calculation

 ITER.      SQ.NORM     CORR.ENERGY   TOTAL ENERGY   ENERGY CHANGE        DEN1      VAR(S)    VAR(P)  DIIS     TIME
   1      1.11637275    -0.42338177  -111.04651715    -0.42338177    -0.00119546  0.34D-04  0.42D-03  1  1    11.60
   2      1.11748647    -0.42466946  -111.04780485    -0.00128770    -0.00000392  0.13D-05  0.13D-05  2  2    11.72
   3      1.11753664    -0.42469674  -111.04783212    -0.00002727    -0.00000006  0.53D-07  0.86D-08  3  3    11.83
   4      1.11754013    -0.42469757  -111.04783296    -0.00000083    -0.00000000  0.95D-09  0.13D-09  4  4    11.95

 Norm of t1 vector:      0.05198074      S-energy:    -0.00426508      T1 diagnostic:  0.00118502
 Norm of t2 vector:      0.33887776      P-energy:    -0.42043249
                                         Alpha-Beta:  -0.31985662
                                         Alpha-Alpha: -0.05568866
                                         Beta-Beta:   -0.04488721

 Spin contamination <S**2-Sz**2-Sz>     0.00452218
  Reference energy                   -110.624368254473
  RHF-RMP2 correlation energy          -0.424697570740
 !RHF-RMP2 energy                    -111.049065825213

 Starting UCCSD calculation

 ITER.      SQ.NORM     CORR.ENERGY   TOTAL ENERGY   ENERGY CHANGE        DEN1      VAR(S)    VAR(P)  DIIS     TIME
   1      1.11873846    -0.42133313  -111.04446852    -0.42133313    -0.01138025  0.27D-02  0.19D-02  1  1    17.56
   2      1.12889710    -0.43138397  -111.05451935    -0.01005083    -0.00134528  0.32D-03  0.35D-03  2  2    23.18
   3      1.13519320    -0.43375724  -111.05689263    -0.00237328    -0.00030822  0.26D-03  0.36D-04  3  3    28.98
   4      1.14010021    -0.43510377  -111.05823915    -0.00134653    -0.00009745  0.81D-04  0.10D-04  4  4    34.55
   5      1.14459222    -0.43566333  -111.05879871    -0.00055956    -0.00002116  0.19D-04  0.19D-05  5  5    40.08
   6      1.14724154    -0.43590028  -111.05903566    -0.00023695    -0.00000240  0.13D-05  0.49D-06  6  6    45.75
   7      1.14777504    -0.43594221  -111.05907759    -0.00004193    -0.00000043  0.24D-06  0.97D-07  6  2    51.47
   8      1.14787860    -0.43595372  -111.05908910    -0.00001151    -0.00000010  0.83D-07  0.16D-07  6  1    57.11
   9      1.14793071    -0.43595850  -111.05909388    -0.00000478    -0.00000004  0.33D-07  0.37D-08  6  3    62.80
  10      1.14790711    -0.43595261  -111.05908799     0.00000589    -0.00000001  0.10D-07  0.14D-08  6  4    68.48
  11      1.14793449    -0.43595469  -111.05909008    -0.00000208    -0.00000000  0.26D-08  0.54D-09  6  5    74.11
  12      1.14792834    -0.43595377  -111.05908916     0.00000092    -0.00000000  0.51D-09  0.17D-09  6  6    79.95

 Norm of t1 vector:      0.13906795      S-energy:    -0.00459608      T1 diagnostic:  0.02475341
                                                                       D1 diagnostic:  0.08197371
 Norm of t2 vector:      0.35859231      P-energy:    -0.43135769
                                         Alpha-Beta:  -0.33924970
                                         Alpha-Alpha: -0.05102675
                                         Beta-Beta:   -0.04108124

 Singles amplitudes (print threshold =  0.500E-01):

         I         SYM. A    A   T(IA) [Beta-Beta]

         5         1         1      0.11063447

 Spin contamination <S**2-Sz**2-Sz>     0.00354187

 Memory could be reduced to 54.25 Mwords without degradation in triples
 

 RESULTS
 =======

  Reference energy                   -110.623135384463
  CABS relaxation correction to RHF    -0.001232870010
  New reference energy               -110.624368254473
 
  F12 corrections for ansatz 3C(FIX) added to UCCSD energy. Coupling mode: 15
 
  UCCSD-F12a singles energy            -0.004596077574
  UCCSD-F12a pair energy               -0.466549332051
  UCCSD-F12a correlation energy        -0.471145409625
  Triples (T) contribution             -0.017518765254
  Total correlation energy             -0.488664174880
 
  RHF-UCCSD-F12a energy              -111.095513664099
  RHF-UCCSD[T]-F12a energy           -111.113808569591
  RHF-UCCSD-T-F12a energy            -111.112876601864
 !RHF-UCCSD(T)-F12a energy           -111.113032429353
 
  F12 corrections for ansatz 3C(FIX) added to UCCSD energy. Coupling mode: 15
 
  UCCSD-F12b singles energy            -0.004596077574
  UCCSD-F12b pair energy               -0.460109609268
  UCCSD-F12b correlation energy        -0.464705686842
  Triples (T) contribution             -0.017518765254
  Total correlation energy             -0.482224452096
 
  RHF-UCCSD-F12b energy              -111.089073941315
  RHF-UCCSD[T]-F12b energy           -111.107368846807
  RHF-UCCSD-T-F12b energy            -111.106436879080
 !RHF-UCCSD(T)-F12b energy           -111.106592706569

 Program statistics:

 Available memory in ccsd:               749999438
 Min. memory needed in ccsd:               4432692
 Max. memory used in ccsd:                 6057732
 Max. memory used in cckext:               4497317 (13 integral passes)
 Max. memory used in cckint:              18247314 ( 1 integral passes)



 **********************************************************************************************************************************
 DATASETS  * FILE   NREC   LENGTH (MB)   RECORD NAMES
              1      19      378.66       500      610      700      900      950      970     1000      129      960     1100   
                                          VAR    BASINP    GEOM    SYMINP    ZMAT    AOBASIS   BASIS     P2S    ABASIS      S 
                                         1400     1410     1200     1210     1080     1600     1650     1300     1700   
                                           T        V       H0       H01     AOSYM     SMH    MOLCAS    ERIS     OPER   

              2       5        3.87       700     1000      520     2100     7360   
                                         GEOM     BASIS   MCVARS     RHF    F12ABS    

 PROGRAMS   *        TOTALUCCSD(T)-F        HF       INT
 CPU TIMES  *       170.37    151.99     12.36      5.90
 REAL TIME  *       385.08 SEC
 DISK USED  *         1.89 GB      
 **********************************************************************************************************************************

 UCCSD(T)-F12/cc-pVTZ-F12 energy=   -111.106592706569

    UCCSD(T)-F12        HF-SCF  
   -111.10659271   -110.62313538
 **********************************************************************************************************************************
 Molpro calculation terminated
 Variable memory released
