 Entering Gaussian System, Link 0=g16
 Initial command:
 /opt/g16/l1.exe "/scratch/alongd/g16/a19047-8472/Gau-7604.inp" -scrdir="/scratch/alongd/g16/a19047-8472/"
 Entering Link 1 = /opt/g16/l1.exe PID=      7606.
  
 Copyright (c) 1988-2017, Gaussian, Inc.  All Rights Reserved.
  
 This is part of the Gaussian(R) 16 program.  It is based on
 the Gaussian(R) 09 system (copyright 2009, Gaussian, Inc.),
 the Gaussian(R) 03 system (copyright 2003, Gaussian, Inc.),
 the Gaussian(R) 98 system (copyright 1998, Gaussian, Inc.),
 the Gaussian(R) 94 system (copyright 1995, Gaussian, Inc.),
 the Gaussian 92(TM) system (copyright 1992, Gaussian, Inc.),
 the Gaussian 90(TM) system (copyright 1990, Gaussian, Inc.),
 the Gaussian 88(TM) system (copyright 1988, Gaussian, Inc.),
 the Gaussian 86(TM) system (copyright 1986, Carnegie Mellon
 University), and the Gaussian 82(TM) system (copyright 1983,
 Carnegie Mellon University). Gaussian is a federally registered
 trademark of Gaussian, Inc.
  
 This software contains proprietary and confidential information,
 including trade secrets, belonging to Gaussian, Inc.
  
 This software is provided under written license and may be
 used, copied, transmitted, or stored only in accord with that
 written license.
  
 The following legend is applicable only to US Government
 contracts under FAR:
  
                    RESTRICTED RIGHTS LEGEND
  
 Use, reproduction and disclosure by the US Government is
 subject to restrictions as set forth in subparagraphs (a)
 and (c) of the Commercial Computer Software - Restricted
 Rights clause in FAR 52.227-19.
  
 Gaussian, Inc.
 340 Quinnipiac St., Bldg. 40, Wallingford CT 06492
  
  
 ---------------------------------------------------------------
 Warning -- This program may not be used in any manner that
 competes with the business of Gaussian, Inc. or will provide
 assistance to any competitor of Gaussian, Inc.  The licensee
 of this program is prohibited from giving any competitor of
 Gaussian, Inc. access to this program.  By using this program,
 the user acknowledges that Gaussian, Inc. is engaged in the
 business of creating and licensing software in the field of
 computational chemistry and represents and warrants to the
 licensee that it is not a competitor of Gaussian, Inc. and that
 it will not use this program in any manner prohibited above.
 ---------------------------------------------------------------
  

 Cite this work as:
 Gaussian 16, Revision B.01,
 M. J. Frisch, G. W. Trucks, H. B. Schlegel, G. E. Scuseria, 
 M. A. Robb, J. R. Cheeseman, G. Scalmani, V. Barone, 
 G. A. Petersson, H. Nakatsuji, X. Li, M. Caricato, A. V. Marenich, 
 J. Bloino, B. G. Janesko, R. Gomperts, B. Mennucci, H. P. Hratchian, 
 J. V. Ortiz, A. F. Izmaylov, J. L. Sonnenberg, D. Williams-Young, 
 F. Ding, F. Lipparini, F. Egidi, J. Goings, B. Peng, A. Petrone, 
 T. Henderson, D. Ranasinghe, V. G. Zakrzewski, J. Gao, N. Rega, 
 G. Zheng, W. Liang, M. Hada, M. Ehara, K. Toyota, R. Fukuda, 
 J. Hasegawa, M. Ishida, T. Nakajima, Y. Honda, O. Kitao, H. Nakai, 
 T. Vreven, K. Throssell, J. A. Montgomery, Jr., J. E. Peralta, 
 F. Ogliaro, M. J. Bearpark, J. J. Heyd, E. N. Brothers, K. N. Kudin, 
 V. N. Staroverov, T. A. Keith, R. Kobayashi, J. Normand, 
 K. Raghavachari, A. P. Rendell, J. C. Burant, S. S. Iyengar, 
 J. Tomasi, M. Cossi, J. M. Millam, M. Klene, C. Adamo, R. Cammi, 
 J. W. Ochterski, R. L. Martin, K. Morokuma, O. Farkas, 
 J. B. Foresman, and D. J. Fox, Gaussian, Inc., Wallingford CT, 2016.
 
 ******************************************
 Gaussian 16:  ES64L-G16RevB.01 20-Dec-2017
                10-Aug-2019 
 ******************************************
 %chk=check.chk
 %mem=14000mb
 %NProcShared=8
 Will use up to    8 processors via shared memory.
 ----------------------------------------------------------------------
 #P scf=(tight, direct) integral=(grid=ultrafine, Acc2E=12) guess=mix u
 b3lyp/6-311+g(3df,2p) scf=xqc iop(2/9=2000)
 ----------------------------------------------------------------------
 1/38=1,172=1/1;
 2/9=2000,12=2,17=6,18=5,40=1/2;
 3/5=4,6=6,7=216,11=2,25=1,27=12,30=1,74=-5,75=-5,116=2/1,2,3;
 4/13=-1/1;
 5/5=2,8=3,13=1,32=2,38=5,87=12/2,8;
 6/7=2,8=2,9=2,10=2,28=1,87=12/1;
 99/5=1,9=1/99;
 Leave Link    1 at Sat Aug 10 23:52:49 2019, MaxMem=  1835008000 cpu:               1.9 elap:               0.3
 (Enter /opt/g16/l101.exe)
 ----
 name
 ----
 Symbolic Z-matrix:
 Charge =  0 Multiplicity = 2
 O                     1.59277   0.85794   0.26525 
 O                     1.40517  -0.97922  -0.64024 
 C                    -0.67693   0.02314   0.09328 
 C                     0.79726  -0.03719  -0.08969 
 H                    -0.9201    0.61762   0.97264 
 H                    -1.11467   0.50071  -0.78505 
 H                    -1.0835   -0.983     0.1838 
 
 ITRead=  0  0  0  0  0  0  0
 MicOpt= -1 -1 -1 -1 -1 -1 -1
 NAtoms=      7 NQM=        7 NQMF=       0 NMMI=      0 NMMIF=      0
                NMic=       0 NMicF=      0.
                    Isotopes and Nuclear Properties:
 (Nuclear quadrupole moments (NQMom) in fm**2, nuclear magnetic moments (NMagM)
  in nuclear magnetons)

  Atom         1           2           3           4           5           6           7
 IAtWgt=          16          16          12          12           1           1           1
 AtmWgt=  15.9949146  15.9949146  12.0000000  12.0000000   1.0078250   1.0078250   1.0078250
 NucSpn=           0           0           0           0           1           1           1
 AtZEff=  -0.0000000  -0.0000000  -0.0000000  -0.0000000  -0.0000000  -0.0000000  -0.0000000
 NQMom=    0.0000000   0.0000000   0.0000000   0.0000000   0.0000000   0.0000000   0.0000000
 NMagM=    0.0000000   0.0000000   0.0000000   0.0000000   2.7928460   2.7928460   2.7928460
 AtZNuc=   8.0000000   8.0000000   6.0000000   6.0000000   1.0000000   1.0000000   1.0000000
 Leave Link  101 at Sat Aug 10 23:52:49 2019, MaxMem=  1835008000 cpu:               2.0 elap:               0.3
 (Enter /opt/g16/l202.exe)
                          Input orientation:                          
 ---------------------------------------------------------------------
 Center     Atomic      Atomic             Coordinates (Angstroms)
 Number     Number       Type             X           Y           Z
 ---------------------------------------------------------------------
      1          8           0        1.592766    0.857940    0.265250
      2          8           0        1.405174   -0.979220   -0.640236
      3          6           0       -0.676926    0.023141    0.093281
      4          6           0        0.797260   -0.037188   -0.089688
      5          1           0       -0.920099    0.617619    0.972643
      6          1           0       -1.114673    0.500706   -0.785048
      7          1           0       -1.083503   -0.982998    0.183798
 ---------------------------------------------------------------------
                    Distance matrix (angstroms):
                    1          2          3          4          5
     1  O    0.000000
     2  O    2.056758   0.000000
     3  C    2.424451   2.424441   0.000000
     4  C    1.249026   1.249034   1.486722   0.000000
     5  H    2.621574   3.249333   1.088951   2.122885   0.000000
     6  H    2.925913   2.925881   1.091399   2.104363   1.772288
     7  H    3.249323   2.621557   1.088951   2.122880   1.791913
                    6          7
     6  H    0.000000
     7  H    1.772290   0.000000
 Stoichiometry    C2H3O2(2)
 Framework group  C1[X(C2H3O2)]
 Deg. of freedom    15
 Full point group                 C1      NOp   1
 Largest Abelian subgroup         C1      NOp   1
 Largest concise Abelian subgroup C1      NOp   1
                         Standard orientation:                         
 ---------------------------------------------------------------------
 Center     Atomic      Atomic             Coordinates (Angstroms)
 Number     Number       Type             X           Y           Z
 ---------------------------------------------------------------------
      1          8           0        0.809845   -1.028371    0.001515
      2          8           0        0.809818    1.028387    0.001515
      3          6           0       -1.385699   -0.000009   -0.003102
      4          6           0        0.101015   -0.000007   -0.008023
      5          1           0       -1.760797   -0.895980   -0.495397
      6          1           0       -1.727610    0.000020    1.033358
      7          1           0       -1.760793    0.895933   -0.495449
 ---------------------------------------------------------------------
 Rotational constants (GHZ):          13.6511041           9.2704290           5.7174314
 Leave Link  202 at Sat Aug 10 23:52:49 2019, MaxMem=  1835008000 cpu:               0.2 elap:               0.0
 (Enter /opt/g16/l301.exe)
 Standard basis: 6-311+G(3df,2p) (5D, 7F)
 Ernie: Thresh=  0.10000D-02 Tol=  0.10000D-05 Strict=F.
 There are   207 symmetry adapted cartesian basis functions of A   symmetry.
 There are   183 symmetry adapted basis functions of A   symmetry.
   183 basis functions,   265 primitive gaussians,   207 cartesian basis functions
    16 alpha electrons       15 beta electrons
       nuclear repulsion energy       113.7683867902 Hartrees.
 IExCor=  402 DFT=T Ex+Corr=B3LYP ExCW=0 ScaHFX=  0.200000
 ScaDFX=  0.800000  0.720000  1.000000  0.810000 ScalE2=  1.000000  1.000000
 IRadAn=      5 IRanWt=     -1 IRanGd=            0 ICorTp=0 IEmpDi=  4
 NAtoms=    7 NActive=    7 NUniq=    7 SFac= 1.00D+00 NAtFMM=   60 NAOKFM=F Big=F
 Integral buffers will be    131072 words long.
 Raffenetti 2 integral format.
 Two-electron integral symmetry is turned on.
 Leave Link  301 at Sat Aug 10 23:52:49 2019, MaxMem=  1835008000 cpu:               0.5 elap:               0.1
 (Enter /opt/g16/l302.exe)
 NPDir=0 NMtPBC=     1 NCelOv=     1 NCel=       1 NClECP=     1 NCelD=      1
         NCelK=      1 NCelE2=     1 NClLst=     1 CellRange=     0.0.
 One-electron integrals computed using PRISM.
 One-electron integral symmetry used in STVInt
 NBasis=   183 RedAO= T EigKep=  6.16D-05  NBF=   183
 NBsUse=   183 1.00D-06 EigRej= -1.00D+00 NBFU=   183
 Precomputing XC quadrature grid using
 IXCGrd= 4 IRadAn=           5 IRanWt=          -1 IRanGd=           0 AccXCQ= 1.00D-12.
 Generated NRdTot=       0 NPtTot=           0 NUsed=           0 NTot=          32
 NSgBfM=   207   207   207   207   207 MxSgAt=     7 MxSgA2=     7.
 Leave Link  302 at Sat Aug 10 23:52:50 2019, MaxMem=  1835008000 cpu:               1.6 elap:               0.2
 (Enter /opt/g16/l303.exe)
 DipDrv:  MaxL=1.
 Leave Link  303 at Sat Aug 10 23:52:50 2019, MaxMem=  1835008000 cpu:               0.6 elap:               0.1
 (Enter /opt/g16/l401.exe)
 ExpMin= 4.38D-02 ExpMax= 8.59D+03 ExpMxC= 1.30D+03 IAcc=3 IRadAn=         5 AccDes= 0.00D+00
 Harris functional with IExCor=  402 and IRadAn=       5 diagonalized for initial guess.
 HarFok:  IExCor=  402 AccDes= 0.00D+00 IRadAn=         5 IDoV= 1 UseB2=F ITyADJ=14
 ICtDFT=  3500011 ScaDFX=  1.000000  1.000000  1.000000  1.000000
 FoFCou: FMM=F IPFlag=           0 FMFlag=      100000 FMFlg1=           0
         NFxFlg=           0 DoJE=T BraDBF=F KetDBF=T FulRan=T
         wScrn=  0.000000 ICntrl=       500 IOpCl=  0 I1Cent=   200000004 NGrid=           0
         NMat0=    1 NMatS0=      1 NMatT0=    0 NMatD0=    1 NMtDS0=    0 NMtDT0=    0
 Petite list used in FoFCou.
 Harris En= -228.501211378799    
 JPrj=0 DoOrth=F DoCkMO=T.
 Mixing orbitals, IMix= 1 IMixAn=  0 NRI=1 NE=   16 Coef=  7.07106781D-01  7.07106781D-01
 Mixing orbitals, IMix= 1 IMixAn=  0 NRI=1 NE=   15 Coef= -7.07106781D-01  7.07106781D-01
 Initial guess <Sx>= 0.0000 <Sy>= 0.0000 <Sz>= 0.5000 <S**2>= 1.0000 S= 0.6180
 Leave Link  401 at Sat Aug 10 23:52:51 2019, MaxMem=  1835008000 cpu:               8.0 elap:               1.0
 (Enter /opt/g16/l502.exe)
 Keep R1 and R2 ints in memory in canonical form, NReq=291743241.
 FoFCou: FMM=F IPFlag=           0 FMFlag=           0 FMFlg1=           0
         NFxFlg=           0 DoJE=F BraDBF=F KetDBF=F FulRan=T
         wScrn=  0.000000 ICntrl=       600 IOpCl=  0 I1Cent=           0 NGrid=           0
         NMat0=    1 NMatS0=  16836 NMatT0=    0 NMatD0=    1 NMtDS0=    0 NMtDT0=    0
 Symmetry not used in FoFCou.
 Two-electron integral symmetry not used.
 UHF open shell SCF:
 Using DIIS extrapolation, IDIIS=  1040.
 NGot=  1835008000 LenX=  1551451055 LenY=  1551407765
 Requested convergence on RMS density matrix=1.00D-08 within  32 cycles.
 Requested convergence on MAX density matrix=1.00D-06.
 Requested convergence on             energy=1.00D-06.
 No special actions if energy rises.

 Cycle   1  Pass 1  IDiag  1:
 E= -228.287094954311    
 DIIS: error= 2.10D-02 at cycle   1 NSaved=   1.
 NSaved= 1 IEnMin= 1 EnMin= -228.287094954311     IErMin= 1 ErrMin= 2.10D-02
 ErrMax= 2.10D-02  0.00D+00 EMaxC= 1.00D-01 BMatC= 4.38D-01 BMatP= 4.38D-01
 IDIUse=3 WtCom= 7.90D-01 WtEn= 2.10D-01
 Coeff-Com:  0.100D+01
 Coeff-En:   0.100D+01
 Coeff:      0.100D+01
 Gap=     0.076 Goal=   None    Shift=    0.000
 Gap=     0.100 Goal=   None    Shift=    0.000
 GapD=    0.076 DampG=0.500 DampE=0.500 DampFc=0.2500 IDamp=-1.
 Damping current iteration by 2.50D-01
 RMSDP=3.33D-03 MaxDP=1.33D-01              OVMax= 5.60D-01

 Cycle   2  Pass 1  IDiag  1:
 E= -228.338843825055     Delta-E=       -0.051748870743 Rises=F Damp=T
 DIIS: error= 1.46D-02 at cycle   2 NSaved=   2.
 NSaved= 2 IEnMin= 2 EnMin= -228.338843825055     IErMin= 2 ErrMin= 1.46D-02
 ErrMax= 1.46D-02  0.00D+00 EMaxC= 1.00D-01 BMatC= 1.42D-01 BMatP= 4.38D-01
 IDIUse=3 WtCom= 8.54D-01 WtEn= 1.46D-01
 Coeff-Com: -0.103D+01 0.203D+01
 Coeff-En:   0.000D+00 0.100D+01
 Coeff:     -0.878D+00 0.188D+01
 Gap=     0.240 Goal=   None    Shift=    0.000
 Gap=     0.122 Goal=   None    Shift=    0.000
 RMSDP=2.31D-03 MaxDP=8.12D-02 DE=-5.17D-02 OVMax= 9.15D-02

 Cycle   3  Pass 1  IDiag  1:
 E= -228.482797781695     Delta-E=       -0.143953956641 Rises=F Damp=F
 DIIS: error= 4.88D-03 at cycle   3 NSaved=   3.
 NSaved= 3 IEnMin= 3 EnMin= -228.482797781695     IErMin= 3 ErrMin= 4.88D-03
 ErrMax= 4.88D-03  0.00D+00 EMaxC= 1.00D-01 BMatC= 1.80D-02 BMatP= 1.42D-01
 IDIUse=3 WtCom= 9.51D-01 WtEn= 4.88D-02
 Coeff-Com: -0.339D+00 0.682D+00 0.658D+00
 Coeff-En:   0.000D+00 0.000D+00 0.100D+01
 Coeff:     -0.323D+00 0.649D+00 0.674D+00
 Gap=     0.280 Goal=   None    Shift=    0.000
 Gap=     0.113 Goal=   None    Shift=    0.000
 RMSDP=5.37D-04 MaxDP=1.77D-02 DE=-1.44D-01 OVMax= 9.58D-02

 Cycle   4  Pass 1  IDiag  1:
 E= -228.485113423356     Delta-E=       -0.002315641661 Rises=F Damp=F
 DIIS: error= 7.11D-03 at cycle   4 NSaved=   4.
 NSaved= 4 IEnMin= 4 EnMin= -228.485113423356     IErMin= 3 ErrMin= 4.88D-03
 ErrMax= 7.11D-03  0.00D+00 EMaxC= 1.00D-01 BMatC= 3.05D-02 BMatP= 1.80D-02
 IDIUse=3 WtCom= 1.06D-01 WtEn= 8.94D-01
 Coeff-Com: -0.837D-01 0.176D+00 0.549D+00 0.359D+00
 Coeff-En:   0.000D+00 0.000D+00 0.369D+00 0.631D+00
 Coeff:     -0.887D-02 0.187D-01 0.388D+00 0.602D+00
 Gap=     0.298 Goal=   None    Shift=    0.000
 Gap=     0.119 Goal=   None    Shift=    0.000
 RMSDP=6.38D-04 MaxDP=2.22D-02 DE=-2.32D-03 OVMax= 1.59D-01

 Cycle   5  Pass 1  IDiag  1:
 E= -228.482394792202     Delta-E=        0.002718631154 Rises=F Damp=F
 DIIS: error= 1.06D-02 at cycle   5 NSaved=   5.
 NSaved= 5 IEnMin= 4 EnMin= -228.485113423356     IErMin= 3 ErrMin= 4.88D-03
 ErrMax= 1.06D-02  0.00D+00 EMaxC= 1.00D-01 BMatC= 6.17D-02 BMatP= 1.80D-02
 IDIUse=2 WtCom= 0.00D+00 WtEn= 1.00D+00
 Coeff-En:   0.000D+00 0.000D+00 0.000D+00 0.556D+00 0.444D+00
 Coeff:      0.000D+00 0.000D+00 0.000D+00 0.556D+00 0.444D+00
 Gap=     0.302 Goal=   None    Shift=    0.000
 Gap=     0.122 Goal=   None    Shift=    0.000
 RMSDP=4.46D-04 MaxDP=1.54D-02 DE= 2.72D-03 OVMax= 8.74D-02

 Cycle   6  Pass 1  IDiag  1:
 E= -228.494593655235     Delta-E=       -0.012198863033 Rises=F Damp=F
 DIIS: error= 2.63D-03 at cycle   6 NSaved=   6.
 NSaved= 6 IEnMin= 6 EnMin= -228.494593655235     IErMin= 6 ErrMin= 2.63D-03
 ErrMax= 2.63D-03  0.00D+00 EMaxC= 1.00D-01 BMatC= 5.46D-03 BMatP= 1.80D-02
 IDIUse=3 WtCom= 9.74D-01 WtEn= 2.63D-02
 Coeff-Com: -0.470D-01 0.103D+00-0.178D+00 0.954D-01 0.304D+00 0.723D+00
 Coeff-En:   0.000D+00 0.000D+00 0.000D+00 0.000D+00 0.550D-01 0.945D+00
 Coeff:     -0.458D-01 0.100D+00-0.174D+00 0.929D-01 0.297D+00 0.729D+00
 Gap=     0.306 Goal=   None    Shift=    0.000
 Gap=     0.120 Goal=   None    Shift=    0.000
 RMSDP=2.70D-04 MaxDP=8.62D-03 DE=-1.22D-02 OVMax= 7.03D-02

 Cycle   7  Pass 1  IDiag  1:
 E= -228.497120852969     Delta-E=       -0.002527197734 Rises=F Damp=F
 DIIS: error= 1.46D-03 at cycle   7 NSaved=   7.
 NSaved= 7 IEnMin= 7 EnMin= -228.497120852969     IErMin= 7 ErrMin= 1.46D-03
 ErrMax= 1.46D-03  0.00D+00 EMaxC= 1.00D-01 BMatC= 1.02D-03 BMatP= 5.46D-03
 IDIUse=3 WtCom= 9.85D-01 WtEn= 1.46D-02
 Coeff-Com: -0.471D-01 0.101D+00-0.360D-01-0.237D+00-0.768D-01 0.413D+00
 Coeff-Com:  0.883D+00
 Coeff-En:   0.000D+00 0.000D+00 0.000D+00 0.000D+00 0.000D+00 0.000D+00
 Coeff-En:   0.100D+01
 Coeff:     -0.464D-01 0.996D-01-0.354D-01-0.233D+00-0.757D-01 0.407D+00
 Coeff:      0.885D+00
 Gap=     0.309 Goal=   None    Shift=    0.000
 Gap=     0.122 Goal=   None    Shift=    0.000
 RMSDP=2.48D-04 MaxDP=6.48D-03 DE=-2.53D-03 OVMax= 8.02D-02

 Cycle   8  Pass 1  IDiag  1:
 E= -228.498671662565     Delta-E=       -0.001550809596 Rises=F Damp=F
 DIIS: error= 1.07D-03 at cycle   8 NSaved=   8.
 NSaved= 8 IEnMin= 8 EnMin= -228.498671662565     IErMin= 8 ErrMin= 1.07D-03
 ErrMax= 1.07D-03  0.00D+00 EMaxC= 1.00D-01 BMatC= 3.63D-04 BMatP= 1.02D-03
 IDIUse=3 WtCom= 9.89D-01 WtEn= 1.07D-02
 Coeff-Com: -0.245D-01 0.547D-01 0.621D-01-0.135D+00-0.122D+00-0.530D-01
 Coeff-Com: -0.226D-01 0.124D+01
 Coeff-En:   0.000D+00 0.000D+00 0.000D+00 0.000D+00 0.000D+00 0.000D+00
 Coeff-En:   0.000D+00 0.100D+01
 Coeff:     -0.242D-01 0.541D-01 0.615D-01-0.134D+00-0.121D+00-0.525D-01
 Coeff:     -0.223D-01 0.124D+01
 Gap=     0.313 Goal=   None    Shift=    0.000
 Gap=     0.122 Goal=   None    Shift=    0.000
 RMSDP=2.46D-04 MaxDP=6.93D-03 DE=-1.55D-03 OVMax= 7.93D-02

 Cycle   9  Pass 1  IDiag  1:
 E= -228.499762492497     Delta-E=       -0.001090829932 Rises=F Damp=F
 DIIS: error= 7.25D-04 at cycle   9 NSaved=   9.
 NSaved= 9 IEnMin= 9 EnMin= -228.499762492497     IErMin= 9 ErrMin= 7.25D-04
 ErrMax= 7.25D-04  0.00D+00 EMaxC= 1.00D-01 BMatC= 2.03D-04 BMatP= 3.63D-04
 IDIUse=3 WtCom= 9.93D-01 WtEn= 7.25D-03
 Coeff-Com:  0.688D-02-0.114D-01 0.762D-02 0.143D+00 0.837D-01-0.192D+00
 Coeff-Com: -0.952D+00 0.260D+00 0.166D+01
 Coeff-En:   0.000D+00 0.000D+00 0.000D+00 0.000D+00 0.000D+00 0.000D+00
 Coeff-En:   0.000D+00 0.000D+00 0.100D+01
 Coeff:      0.683D-02-0.113D-01 0.756D-02 0.142D+00 0.831D-01-0.191D+00
 Coeff:     -0.945D+00 0.258D+00 0.165D+01
 Gap=     0.320 Goal=   None    Shift=    0.000
 Gap=     0.122 Goal=   None    Shift=    0.000
 RMSDP=3.41D-04 MaxDP=1.01D-02 DE=-1.09D-03 OVMax= 1.10D-01

 Cycle  10  Pass 1  IDiag  1:
 E= -228.500613345688     Delta-E=       -0.000850853191 Rises=F Damp=F
 DIIS: error= 2.71D-04 at cycle  10 NSaved=  10.
 NSaved=10 IEnMin=10 EnMin= -228.500613345688     IErMin=10 ErrMin= 2.71D-04
 ErrMax= 2.71D-04  0.00D+00 EMaxC= 1.00D-01 BMatC= 3.90D-05 BMatP= 2.03D-04
 IDIUse=3 WtCom= 9.97D-01 WtEn= 2.71D-03
 Coeff-Com: -0.182D-02 0.285D-02-0.241D-01 0.166D-01 0.418D-01 0.130D+00
 Coeff-Com:  0.202D+00-0.537D+00-0.159D+00 0.133D+01
 Coeff-En:   0.000D+00 0.000D+00 0.000D+00 0.000D+00 0.000D+00 0.000D+00
 Coeff-En:   0.000D+00 0.000D+00 0.000D+00 0.100D+01
 Coeff:     -0.182D-02 0.284D-02-0.240D-01 0.165D-01 0.417D-01 0.130D+00
 Coeff:      0.201D+00-0.535D+00-0.158D+00 0.133D+01
 Gap=     0.320 Goal=   None    Shift=    0.000
 Gap=     0.121 Goal=   None    Shift=    0.000
 RMSDP=7.40D-05 MaxDP=2.29D-03 DE=-8.51D-04 OVMax= 2.27D-02

 Cycle  11  Pass 1  IDiag  1:
 E= -228.500695242636     Delta-E=       -0.000081896948 Rises=F Damp=F
 DIIS: error= 1.59D-04 at cycle  11 NSaved=  11.
 NSaved=11 IEnMin=11 EnMin= -228.500695242636     IErMin=11 ErrMin= 1.59D-04
 ErrMax= 1.59D-04  0.00D+00 EMaxC= 1.00D-01 BMatC= 1.19D-05 BMatP= 3.90D-05
 IDIUse=3 WtCom= 9.98D-01 WtEn= 1.59D-03
 Coeff-Com: -0.106D-02 0.247D-02 0.925D-02-0.959D-02-0.234D-01-0.455D-01
 Coeff-Com: -0.115D-01-0.263D-01-0.609D-01-0.367D-01 0.120D+01
 Coeff-En:   0.000D+00 0.000D+00 0.000D+00 0.000D+00 0.000D+00 0.000D+00
 Coeff-En:   0.000D+00 0.000D+00 0.000D+00 0.000D+00 0.100D+01
 Coeff:     -0.106D-02 0.247D-02 0.923D-02-0.957D-02-0.233D-01-0.455D-01
 Coeff:     -0.114D-01-0.263D-01-0.608D-01-0.366D-01 0.120D+01
 Gap=     0.322 Goal=   None    Shift=    0.000
 Gap=     0.123 Goal=   None    Shift=    0.000
 RMSDP=1.21D-04 MaxDP=3.66D-03 DE=-8.19D-05 OVMax= 3.86D-02

 Cycle  12  Pass 1  IDiag  1:
 E= -228.500739423801     Delta-E=       -0.000044181165 Rises=F Damp=F
 DIIS: error= 1.80D-04 at cycle  12 NSaved=  12.
 NSaved=12 IEnMin=12 EnMin= -228.500739423801     IErMin=11 ErrMin= 1.59D-04
 ErrMax= 1.80D-04  0.00D+00 EMaxC= 1.00D-01 BMatC= 1.02D-05 BMatP= 1.19D-05
 IDIUse=3 WtCom= 9.98D-01 WtEn= 1.59D-03
 Coeff-Com: -0.290D-03 0.595D-03 0.234D-02-0.125D-01-0.808D-02-0.656D-02
 Coeff-Com:  0.111D-01 0.868D-01-0.557D-01-0.381D+00 0.574D+00 0.790D+00
 Coeff-En:   0.000D+00 0.000D+00 0.000D+00 0.000D+00 0.000D+00 0.000D+00
 Coeff-En:   0.000D+00 0.000D+00 0.000D+00 0.000D+00 0.000D+00 0.100D+01
 Coeff:     -0.289D-03 0.594D-03 0.233D-02-0.125D-01-0.807D-02-0.655D-02
 Coeff:      0.111D-01 0.867D-01-0.556D-01-0.381D+00 0.573D+00 0.790D+00
 Gap=     0.321 Goal=   None    Shift=    0.000
 Gap=     0.122 Goal=   None    Shift=    0.000
 RMSDP=1.50D-05 MaxDP=3.63D-04 DE=-4.42D-05 OVMax= 3.38D-03

 Cycle  13  Pass 1  IDiag  1:
 E= -228.500742631167     Delta-E=       -0.000003207366 Rises=F Damp=F
 DIIS: error= 2.18D-05 at cycle  13 NSaved=  13.
 NSaved=13 IEnMin=13 EnMin= -228.500742631167     IErMin=13 ErrMin= 2.18D-05
 ErrMax= 2.18D-05  0.00D+00 EMaxC= 1.00D-01 BMatC= 3.24D-07 BMatP= 1.02D-05
 IDIUse=1 WtCom= 1.00D+00 WtEn= 0.00D+00
 Coeff-Com:  0.119D-03-0.438D-04 0.373D-03 0.210D-02 0.115D-02-0.987D-02
 Coeff-Com: -0.210D-01 0.170D-01 0.251D-01-0.297D-01-0.204D-01-0.133D+00
 Coeff-Com:  0.117D+01
 Coeff:      0.119D-03-0.438D-04 0.373D-03 0.210D-02 0.115D-02-0.987D-02
 Coeff:     -0.210D-01 0.170D-01 0.251D-01-0.297D-01-0.204D-01-0.133D+00
 Coeff:      0.117D+01
 Gap=     0.321 Goal=   None    Shift=    0.000
 Gap=     0.122 Goal=   None    Shift=    0.000
 RMSDP=6.57D-06 MaxDP=2.04D-04 DE=-3.21D-06 OVMax= 2.09D-03

 Cycle  14  Pass 1  IDiag  1:
 E= -228.500742829968     Delta-E=       -0.000000198801 Rises=F Damp=F
 DIIS: error= 1.48D-05 at cycle  14 NSaved=  14.
 NSaved=14 IEnMin=14 EnMin= -228.500742829968     IErMin=14 ErrMin= 1.48D-05
 ErrMax= 1.48D-05  0.00D+00 EMaxC= 1.00D-01 BMatC= 9.00D-08 BMatP= 3.24D-07
 IDIUse=1 WtCom= 1.00D+00 WtEn= 0.00D+00
 Coeff-Com:  0.526D-05-0.395D-05-0.365D-03 0.828D-03 0.117D-02 0.983D-03
 Coeff-Com: -0.725D-03-0.596D-02 0.310D-02 0.258D-01-0.392D-01-0.137D+00
 Coeff-Com:  0.134D+00 0.102D+01
 Coeff:      0.526D-05-0.395D-05-0.365D-03 0.828D-03 0.117D-02 0.983D-03
 Coeff:     -0.725D-03-0.596D-02 0.310D-02 0.258D-01-0.392D-01-0.137D+00
 Coeff:      0.134D+00 0.102D+01
 Gap=     0.322 Goal=   None    Shift=    0.000
 Gap=     0.122 Goal=   None    Shift=    0.000
 RMSDP=1.78D-06 MaxDP=4.04D-05 DE=-1.99D-07 OVMax= 3.91D-04

 Cycle  15  Pass 1  IDiag  1:
 E= -228.500742865167     Delta-E=       -0.000000035199 Rises=F Damp=F
 DIIS: error= 5.43D-06 at cycle  15 NSaved=  15.
 NSaved=15 IEnMin=15 EnMin= -228.500742865167     IErMin=15 ErrMin= 5.43D-06
 ErrMax= 5.43D-06  0.00D+00 EMaxC= 1.00D-01 BMatC= 1.28D-08 BMatP= 9.00D-08
 IDIUse=1 WtCom= 1.00D+00 WtEn= 0.00D+00
 Coeff-Com:  0.202D-05-0.229D-04-0.208D-04 0.771D-05 0.321D-03 0.702D-03
 Coeff-Com:  0.161D-02-0.501D-02-0.787D-03 0.138D-01-0.516D-02-0.110D-01
 Coeff-Com: -0.129D+00 0.170D+00 0.965D+00
 Coeff:      0.202D-05-0.229D-04-0.208D-04 0.771D-05 0.321D-03 0.702D-03
 Coeff:      0.161D-02-0.501D-02-0.787D-03 0.138D-01-0.516D-02-0.110D-01
 Coeff:     -0.129D+00 0.170D+00 0.965D+00
 Gap=     0.322 Goal=   None    Shift=    0.000
 Gap=     0.122 Goal=   None    Shift=    0.000
 RMSDP=4.70D-07 MaxDP=9.91D-06 DE=-3.52D-08 OVMax= 1.04D-04

 Cycle  16  Pass 1  IDiag  1:
 E= -228.500742869473     Delta-E=       -0.000000004306 Rises=F Damp=F
 DIIS: error= 3.51D-06 at cycle  16 NSaved=  16.
 NSaved=16 IEnMin=16 EnMin= -228.500742869473     IErMin=16 ErrMin= 3.51D-06
 ErrMax= 3.51D-06  0.00D+00 EMaxC= 1.00D-01 BMatC= 4.71D-09 BMatP= 1.28D-08
 IDIUse=1 WtCom= 1.00D+00 WtEn= 0.00D+00
 Coeff-Com:  0.232D-05-0.874D-05-0.298D-04 0.253D-04 0.112D-03-0.241D-03
 Coeff-Com:  0.409D-03 0.639D-04-0.420D-03-0.108D-02 0.282D-02 0.100D-01
 Coeff-Com: -0.409D-02-0.103D+00-0.592D+00 0.169D+01
 Coeff:      0.232D-05-0.874D-05-0.298D-04 0.253D-04 0.112D-03-0.241D-03
 Coeff:      0.409D-03 0.639D-04-0.420D-03-0.108D-02 0.282D-02 0.100D-01
 Coeff:     -0.409D-02-0.103D+00-0.592D+00 0.169D+01
 Gap=     0.322 Goal=   None    Shift=    0.000
 Gap=     0.122 Goal=   None    Shift=    0.000
 RMSDP=3.71D-07 MaxDP=1.05D-05 DE=-4.31D-09 OVMax= 9.35D-05

 Cycle  17  Pass 1  IDiag  1:
 E= -228.500742871665     Delta-E=       -0.000000002192 Rises=F Damp=F
 DIIS: error= 1.19D-06 at cycle  17 NSaved=  17.
 NSaved=17 IEnMin=17 EnMin= -228.500742871665     IErMin=17 ErrMin= 1.19D-06
 ErrMax= 1.19D-06  0.00D+00 EMaxC= 1.00D-01 BMatC= 7.17D-10 BMatP= 4.71D-09
 IDIUse=1 WtCom= 1.00D+00 WtEn= 0.00D+00
 Coeff-Com:  0.528D-05-0.454D-05-0.257D-04 0.122D-03 0.647D-04-0.315D-03
 Coeff-Com: -0.599D-03 0.807D-03 0.583D-03-0.161D-02-0.301D-03-0.791D-02
 Coeff-Com:  0.483D-01 0.112D-01-0.530D+00 0.312D+00 0.117D+01
 Coeff:      0.528D-05-0.454D-05-0.257D-04 0.122D-03 0.647D-04-0.315D-03
 Coeff:     -0.599D-03 0.807D-03 0.583D-03-0.161D-02-0.301D-03-0.791D-02
 Coeff:      0.483D-01 0.112D-01-0.530D+00 0.312D+00 0.117D+01
 Gap=     0.321 Goal=   None    Shift=    0.000
 Gap=     0.122 Goal=   None    Shift=    0.000
 RMSDP=1.92D-07 MaxDP=5.33D-06 DE=-2.19D-09 OVMax= 4.61D-05

 Cycle  18  Pass 1  IDiag  1:
 E= -228.500742872034     Delta-E=       -0.000000000369 Rises=F Damp=F
 DIIS: error= 1.79D-07 at cycle  18 NSaved=  18.
 NSaved=18 IEnMin=18 EnMin= -228.500742872034     IErMin=18 ErrMin= 1.79D-07
 ErrMax= 1.79D-07  0.00D+00 EMaxC= 1.00D-01 BMatC= 1.96D-11 BMatP= 7.17D-10
 IDIUse=1 WtCom= 1.00D+00 WtEn= 0.00D+00
 Coeff-Com:  0.808D-06-0.903D-06-0.451D-06 0.753D-05 0.100D-04 0.313D-04
 Coeff-Com: -0.685D-04-0.140D-04 0.105D-03 0.847D-04-0.457D-03-0.308D-02
 Coeff-Com:  0.502D-02 0.164D-01-0.456D-02-0.934D-01 0.114D+00 0.966D+00
 Coeff:      0.808D-06-0.903D-06-0.451D-06 0.753D-05 0.100D-04 0.313D-04
 Coeff:     -0.685D-04-0.140D-04 0.105D-03 0.847D-04-0.457D-03-0.308D-02
 Coeff:      0.502D-02 0.164D-01-0.456D-02-0.934D-01 0.114D+00 0.966D+00
 Gap=     0.322 Goal=   None    Shift=    0.000
 Gap=     0.122 Goal=   None    Shift=    0.000
 RMSDP=3.42D-08 MaxDP=7.70D-07 DE=-3.69D-10 OVMax= 7.79D-06

 Cycle  19  Pass 1  IDiag  1:
 E= -228.500742872041     Delta-E=       -0.000000000006 Rises=F Damp=F
 DIIS: error= 1.02D-07 at cycle  19 NSaved=  19.
 NSaved=19 IEnMin=19 EnMin= -228.500742872041     IErMin=19 ErrMin= 1.02D-07
 ErrMax= 1.02D-07  0.00D+00 EMaxC= 1.00D-01 BMatC= 5.45D-12 BMatP= 1.96D-11
 IDIUse=1 WtCom= 1.00D+00 WtEn= 0.00D+00
 Coeff-Com:  0.715D-07-0.311D-06 0.202D-05 0.430D-06 0.276D-05 0.122D-04
 Coeff-Com: -0.397D-05-0.845D-04 0.180D-04 0.276D-03-0.234D-03-0.272D-03
 Coeff-Com: -0.222D-02 0.292D-02 0.356D-01-0.495D-01-0.768D-01 0.104D+00
 Coeff-Com:  0.986D+00
 Coeff:      0.715D-07-0.311D-06 0.202D-05 0.430D-06 0.276D-05 0.122D-04
 Coeff:     -0.397D-05-0.845D-04 0.180D-04 0.276D-03-0.234D-03-0.272D-03
 Coeff:     -0.222D-02 0.292D-02 0.356D-01-0.495D-01-0.768D-01 0.104D+00
 Coeff:      0.986D+00
 Gap=     0.321 Goal=   None    Shift=    0.000
 Gap=     0.122 Goal=   None    Shift=    0.000
 RMSDP=1.96D-08 MaxDP=4.91D-07 DE=-6.37D-12 OVMax= 4.95D-06

 Cycle  20  Pass 1  IDiag  1:
 E= -228.500742872046     Delta-E=       -0.000000000005 Rises=F Damp=F
 DIIS: error= 2.64D-08 at cycle  20 NSaved=  20.
 NSaved=20 IEnMin=20 EnMin= -228.500742872046     IErMin=20 ErrMin= 2.64D-08
 ErrMax= 2.64D-08  0.00D+00 EMaxC= 1.00D-01 BMatC= 3.67D-13 BMatP= 5.45D-12
 IDIUse=1 WtCom= 1.00D+00 WtEn= 0.00D+00
 Coeff-Com:  0.928D-08-0.110D-06-0.254D-06 0.164D-05 0.173D-05-0.169D-05
 Coeff-Com:  0.114D-05-0.204D-04 0.528D-05 0.756D-04-0.615D-04-0.266D-04
 Coeff-Com: -0.496D-03-0.688D-04 0.598D-02-0.371D-02-0.230D-01-0.738D-01
 Coeff-Com:  0.167D+00 0.929D+00
 Coeff:      0.928D-08-0.110D-06-0.254D-06 0.164D-05 0.173D-05-0.169D-05
 Coeff:      0.114D-05-0.204D-04 0.528D-05 0.756D-04-0.615D-04-0.266D-04
 Coeff:     -0.496D-03-0.688D-04 0.598D-02-0.371D-02-0.230D-01-0.738D-01
 Coeff:      0.167D+00 0.929D+00
 Gap=     0.321 Goal=   None    Shift=    0.000
 Gap=     0.122 Goal=   None    Shift=    0.000
 RMSDP=3.19D-09 MaxDP=7.22D-08 DE=-5.46D-12 OVMax= 6.47D-07

 SCF Done:  E(UB3LYP) =  -228.500742872     A.U. after   20 cycles
            NFock= 20  Conv=0.32D-08     -V/T= 2.0035
 <Sx>= 0.0000 <Sy>= 0.0000 <Sz>= 0.5000 <S**2>= 0.7569 S= 0.5034
 <L.S>= 0.000000000000E+00
 KE= 2.277082545734D+02 PE=-7.640051034900D+02 EE= 1.940277192544D+02
 Annihilation of the first spin contaminant:
 S**2 before annihilation     0.7569,   after     0.7500
 Leave Link  502 at Sat Aug 10 23:53:41 2019, MaxMem=  1835008000 cpu:             313.6 elap:              49.9
 (Enter /opt/g16/l508.exe)
 QCSCF skips out because SCF is already converged.
 Leave Link  508 at Sat Aug 10 23:53:41 2019, MaxMem=  1835008000 cpu:               0.4 elap:               0.1
 (Enter /opt/g16/l601.exe)
 Copying SCF densities to generalized density rwf, IOpCl= 1 IROHF=0.

 **********************************************************************

            Population analysis using the SCF Density.

 **********************************************************************

 Orbital symmetries:
 Alpha Orbitals:
       Occupied  (A) (A) (A) (A) (A) (A) (A) (A) (A) (A) (A) (A)
                 (A) (A) (A) (A)
       Virtual   (A) (A) (A) (A) (A) (A) (A) (A) (A) (A) (A) (A)
                 (A) (A) (A) (A) (A) (A) (A) (A) (A) (A) (A) (A)
                 (A) (A) (A) (A) (A) (A) (A) (A) (A) (A) (A) (A)
                 (A) (A) (A) (A) (A) (A) (A) (A) (A) (A) (A) (A)
                 (A) (A) (A) (A) (A) (A) (A) (A) (A) (A) (A) (A)
                 (A) (A) (A) (A) (A) (A) (A) (A) (A) (A) (A) (A)
                 (A) (A) (A) (A) (A) (A) (A) (A) (A) (A) (A) (A)
                 (A) (A) (A) (A) (A) (A) (A) (A) (A) (A) (A) (A)
                 (A) (A) (A) (A) (A) (A) (A) (A) (A) (A) (A) (A)
                 (A) (A) (A) (A) (A) (A) (A) (A) (A) (A) (A) (A)
                 (A) (A) (A) (A) (A) (A) (A) (A) (A) (A) (A) (A)
                 (A) (A) (A) (A) (A) (A) (A) (A) (A) (A) (A) (A)
                 (A) (A) (A) (A) (A) (A) (A) (A) (A) (A) (A) (A)
                 (A) (A) (A) (A) (A) (A) (A) (A) (A) (A) (A)
 Beta  Orbitals:
       Occupied  (A) (A) (A) (A) (A) (A) (A) (A) (A) (A) (A) (A)
                 (A) (A) (A)
       Virtual   (A) (A) (A) (A) (A) (A) (A) (A) (A) (A) (A) (A)
                 (A) (A) (A) (A) (A) (A) (A) (A) (A) (A) (A) (A)
                 (A) (A) (A) (A) (A) (A) (A) (A) (A) (A) (A) (A)
                 (A) (A) (A) (A) (A) (A) (A) (A) (A) (A) (A) (A)
                 (A) (A) (A) (A) (A) (A) (A) (A) (A) (A) (A) (A)
                 (A) (A) (A) (A) (A) (A) (A) (A) (A) (A) (A) (A)
                 (A) (A) (A) (A) (A) (A) (A) (A) (A) (A) (A) (A)
                 (A) (A) (A) (A) (A) (A) (A) (A) (A) (A) (A) (A)
                 (A) (A) (A) (A) (A) (A) (A) (A) (A) (A) (A) (A)
                 (A) (A) (A) (A) (A) (A) (A) (A) (A) (A) (A) (A)
                 (A) (A) (A) (A) (A) (A) (A) (A) (A) (A) (A) (A)
                 (A) (A) (A) (A) (A) (A) (A) (A) (A) (A) (A) (A)
                 (A) (A) (A) (A) (A) (A) (A) (A) (A) (A) (A) (A)
                 (A) (A) (A) (A) (A) (A) (A) (A) (A) (A) (A) (A)
 The electronic state is 2-A.
 Alpha  occ. eigenvalues --  -19.19093 -19.19092 -10.33004 -10.20951  -1.15552
 Alpha  occ. eigenvalues --   -1.03464  -0.78706  -0.57711  -0.53108  -0.50858
 Alpha  occ. eigenvalues --   -0.50688  -0.44178  -0.42845  -0.36998  -0.35058
 Alpha  occ. eigenvalues --   -0.34633
 Alpha virt. eigenvalues --   -0.02483  -0.00609   0.03591   0.03966   0.04108
 Alpha virt. eigenvalues --    0.07157   0.07436   0.08443   0.10978   0.11506
 Alpha virt. eigenvalues --    0.13946   0.18505   0.20264   0.20302   0.21508
 Alpha virt. eigenvalues --    0.21875   0.25842   0.26077   0.26912   0.27442
 Alpha virt. eigenvalues --    0.29673   0.30198   0.31275   0.36125   0.36211
 Alpha virt. eigenvalues --    0.38619   0.47129   0.49292   0.50125   0.51216
 Alpha virt. eigenvalues --    0.51567   0.53061   0.56606   0.57022   0.60267
 Alpha virt. eigenvalues --    0.62823   0.65847   0.68082   0.70277   0.74786
 Alpha virt. eigenvalues --    0.78041   0.82042   0.86588   0.89840   0.94543
 Alpha virt. eigenvalues --    0.94883   0.97838   0.99044   1.01450   1.04326
 Alpha virt. eigenvalues --    1.06157   1.06348   1.08374   1.09762   1.11151
 Alpha virt. eigenvalues --    1.11358   1.12911   1.18274   1.18308   1.21578
 Alpha virt. eigenvalues --    1.25840   1.26126   1.33285   1.36209   1.40891
 Alpha virt. eigenvalues --    1.49041   1.49464   1.54305   1.60106   1.62000
 Alpha virt. eigenvalues --    1.70072   1.84143   1.84487   1.90119   2.02099
 Alpha virt. eigenvalues --    2.05960   2.07982   2.08608   2.17093   2.22303
 Alpha virt. eigenvalues --    2.35019   2.53615   2.62337   2.69387   2.75730
 Alpha virt. eigenvalues --    2.80737   2.84412   2.88429   2.90086   2.97336
 Alpha virt. eigenvalues --    3.00343   3.08235   3.11771   3.21428   3.22167
 Alpha virt. eigenvalues --    3.31333   3.34535   3.41262   3.44464   3.50451
 Alpha virt. eigenvalues --    3.53889   3.55006   3.57612   3.66490   3.75629
 Alpha virt. eigenvalues --    3.77207   3.86371   3.96022   4.02783   4.10509
 Alpha virt. eigenvalues --    4.21686   4.23199   4.26315   4.29170   4.30225
 Alpha virt. eigenvalues --    4.41294   4.45554   4.51067   4.62676   4.63534
 Alpha virt. eigenvalues --    4.97651   4.98809   4.98999   5.01695   5.10010
 Alpha virt. eigenvalues --    5.11785   5.14353   5.26163   5.28302   5.35224
 Alpha virt. eigenvalues --    5.41776   5.48908   5.50233   5.59104   5.62273
 Alpha virt. eigenvalues --    5.68809   5.75693   6.08946   6.14140   6.22249
 Alpha virt. eigenvalues --    6.27201   6.59578   7.06367   7.18924   7.26098
 Alpha virt. eigenvalues --    7.32104   7.40836   7.52705   7.82900   7.89045
 Alpha virt. eigenvalues --    7.99251   8.18268   8.25438  14.24033  14.28347
 Alpha virt. eigenvalues --   14.28715  14.29771  14.51025  14.60293  14.60555
 Alpha virt. eigenvalues --   14.71442  14.77124  15.17268  24.36860  25.11808
 Alpha virt. eigenvalues --   50.28632  50.30469
  Beta  occ. eigenvalues --  -19.17599 -19.17598 -10.33115 -10.20956  -1.12742
  Beta  occ. eigenvalues --   -0.99841  -0.78422  -0.56404  -0.50303  -0.49584
  Beta  occ. eigenvalues --   -0.49246  -0.43518  -0.42396  -0.32978  -0.31322
  Beta virt. eigenvalues --   -0.19100  -0.02176  -0.00553   0.03683   0.04075
  Beta virt. eigenvalues --    0.04151   0.07290   0.07669   0.08457   0.11035
  Beta virt. eigenvalues --    0.11593   0.14063   0.18581   0.20440   0.20548
  Beta virt. eigenvalues --    0.21783   0.21955   0.26054   0.26504   0.27133
  Beta virt. eigenvalues --    0.27984   0.29973   0.30270   0.31370   0.36195
  Beta virt. eigenvalues --    0.36454   0.38896   0.47521   0.49718   0.50416
  Beta virt. eigenvalues --    0.51319   0.51865   0.54247   0.56750   0.56998
  Beta virt. eigenvalues --    0.60511   0.62841   0.65997   0.68322   0.70567
  Beta virt. eigenvalues --    0.75582   0.78602   0.82145   0.86784   0.90141
  Beta virt. eigenvalues --    0.95207   0.95650   0.98904   1.00269   1.02092
  Beta virt. eigenvalues --    1.04550   1.06819   1.07553   1.08759   1.10052
  Beta virt. eigenvalues --    1.11617   1.11837   1.13401   1.18617   1.19093
  Beta virt. eigenvalues --    1.21998   1.26026   1.27792   1.33497   1.36501
  Beta virt. eigenvalues --    1.41326   1.49453   1.50254   1.54242   1.61709
  Beta virt. eigenvalues --    1.62377   1.70471   1.84434   1.84625   1.90121
  Beta virt. eigenvalues --    2.02281   2.05951   2.08604   2.09212   2.17835
  Beta virt. eigenvalues --    2.22660   2.35656   2.53678   2.62534   2.69400
  Beta virt. eigenvalues --    2.75531   2.80890   2.85190   2.89212   2.90251
  Beta virt. eigenvalues --    2.98039   3.01136   3.08298   3.12822   3.22090
  Beta virt. eigenvalues --    3.22616   3.31855   3.36125   3.44719   3.45806
  Beta virt. eigenvalues --    3.53526   3.55619   3.57432   3.59028   3.67022
  Beta virt. eigenvalues --    3.78153   3.79002   3.87176   3.96696   4.03613
  Beta virt. eigenvalues --    4.10948   4.22071   4.23293   4.26948   4.29410
  Beta virt. eigenvalues --    4.31129   4.41447   4.46509   4.51250   4.63761
  Beta virt. eigenvalues --    4.65529   5.00800   5.01441   5.03166   5.04852
  Beta virt. eigenvalues --    5.12065   5.14333   5.18950   5.27032   5.29322
  Beta virt. eigenvalues --    5.37415   5.43273   5.50701   5.54456   5.61180
  Beta virt. eigenvalues --    5.64281   5.68964   5.76612   6.09476   6.14772
  Beta virt. eigenvalues --    6.23046   6.30375   6.61197   7.06200   7.19590
  Beta virt. eigenvalues --    7.26498   7.32618   7.40693   7.52733   7.82795
  Beta virt. eigenvalues --    7.89358   7.99219   8.18261   8.25469  14.29552
  Beta virt. eigenvalues --   14.33398  14.34947  14.35239  14.52278  14.61846
  Beta virt. eigenvalues --   14.66525  14.76161  14.80327  15.20597  24.36851
  Beta virt. eigenvalues --   25.11741  50.30104  50.31968
          Condensed to atoms (all electrons):
               1          2          3          4          5          6
     1  O    8.594926  -0.130935  -0.040155   0.089360  -0.003914  -0.001983
     2  O   -0.130935   8.594908  -0.040162   0.089370   0.004443  -0.001984
     3  C   -0.040155  -0.040162   5.335917  -0.186610   0.435116   0.423057
     4  C    0.089360   0.089370  -0.186610   5.293919  -0.052196  -0.038660
     5  H   -0.003914   0.004443   0.435116  -0.052196   0.469679  -0.011417
     6  H   -0.001983  -0.001984   0.423057  -0.038660  -0.011417   0.462951
     7  H    0.004442  -0.003914   0.435117  -0.052197  -0.016353  -0.011416
               7
     1  O    0.004442
     2  O   -0.003914
     3  C    0.435117
     4  C   -0.052197
     5  H   -0.016353
     6  H   -0.011416
     7  H    0.469678
          Atomic-Atomic Spin Densities.
               1          2          3          4          5          6
     1  O    0.622699  -0.087817   0.019996  -0.021188  -0.003418  -0.000001
     2  O   -0.087817   0.622738   0.019996  -0.021191  -0.000032  -0.000001
     3  C    0.019996   0.019996  -0.031912   0.006841   0.001292  -0.001214
     4  C   -0.021188  -0.021191   0.006841  -0.051653   0.000960   0.000762
     5  H   -0.003418  -0.000032   0.001292   0.000960   0.007034   0.000099
     6  H   -0.000001  -0.000001  -0.001214   0.000762   0.000099  -0.000752
     7  H   -0.000032  -0.003418   0.001292   0.000960  -0.001580   0.000099
               7
     1  O   -0.000032
     2  O   -0.003418
     3  C    0.001292
     4  C    0.000960
     5  H   -0.001580
     6  H    0.000099
     7  H    0.007034
 Mulliken charges and spin densities:
               1          2
     1  O   -0.511742   0.530240
     2  O   -0.511727   0.530276
     3  C   -0.362281   0.016291
     4  C    0.857014  -0.084509
     5  H    0.174642   0.004356
     6  H    0.179452  -0.001009
     7  H    0.174642   0.004355
 Sum of Mulliken charges =  -0.00000   1.00000
 Mulliken charges and spin densities with hydrogens summed into heavy atoms:
               1          2
     1  O   -0.511742   0.530240
     2  O   -0.511727   0.530276
     3  C    0.166455   0.023993
     4  C    0.857014  -0.084509
 Electronic spatial extent (au):  <R**2>=            236.1498
 Charge=             -0.0000 electrons
 Dipole moment (field-independent basis, Debye):
    X=             -3.3656    Y=             -0.0000    Z=              0.0146  Tot=              3.3657
 Quadrupole moment (field-independent basis, Debye-Ang):
   XX=            -23.1681   YY=            -25.6110   ZZ=            -22.2225
   XY=              0.0000   XZ=             -0.0615   YZ=             -0.0000
 Traceless Quadrupole moment (field-independent basis, Debye-Ang):
   XX=              0.4991   YY=             -1.9438   ZZ=              1.4447
   XY=              0.0000   XZ=             -0.0615   YZ=             -0.0000
 Octapole moment (field-independent basis, Debye-Ang**2):
  XXX=             -0.6119  YYY=             -0.0000  ZZZ=              0.8447  XYY=             -2.5857
  XXY=              0.0001  XXZ=              0.0632  XZZ=              0.1892  YZZ=              0.0001
  YYZ=             -0.7960  XYZ=              0.0000
 Hexadecapole moment (field-independent basis, Debye-Ang**3):
 XXXX=           -164.8318 YYYY=           -100.1260 ZZZZ=            -26.6448 XXXY=              0.0001
 XXXZ=             -0.0398 YYYX=              0.0001 YYYZ=              0.0000 ZZZX=             -1.6127
 ZZZY=             -0.0000 XXYY=            -44.0752 XXZZ=            -30.3185 YYZZ=            -21.3217
 XXYZ=             -0.0000 YYXZ=              1.5041 ZZXY=             -0.0002
 N-N= 1.137683867902D+02 E-N=-7.640051035149D+02  KE= 2.277082545734D+02
                          Isotropic Fermi Contact Couplings
        Atom                 a.u.       MegaHertz       Gauss      10(-4) cm-1
     1  O(17)              0.03571     -21.64966      -7.72514      -7.22155
     2  O(17)              0.03571     -21.65008      -7.72529      -7.22169
     3  C(13)             -0.01106     -12.43157      -4.43589      -4.14673
     4  C(13)             -0.03248     -36.51846     -13.03069     -12.18125
     5  H(1)               0.00308      13.75068       4.90658       4.58673
     6  H(1)              -0.00072      -3.22167      -1.14957      -1.07463
     7  H(1)               0.00308      13.74975       4.90625       4.58642
 --------------------------------------------------------
       Center         ----  Spin Dipole Couplings  ----
                      3XX-RR        3YY-RR        3ZZ-RR
 --------------------------------------------------------
     1   Atom        0.185372      0.949554     -1.134926
     2   Atom        0.185516      0.949474     -1.134991
     3   Atom        0.001959      0.013164     -0.015122
     4   Atom        0.023699      0.065565     -0.089265
     5   Atom        0.008322     -0.003169     -0.005152
     6   Atom        0.005454     -0.002431     -0.003023
     7   Atom        0.008322     -0.003170     -0.005152
 --------------------------------------------------------
                        XY            XZ            YZ
 --------------------------------------------------------
     1   Atom        1.731592      0.040965      0.052250
     2   Atom       -1.731723      0.040970     -0.052252
     3   Atom        0.000001      0.001468     -0.000000
     4   Atom       -0.000000      0.001292      0.000000
     5   Atom        0.001457      0.003441      0.001566
     6   Atom        0.000000     -0.004559     -0.000000
     7   Atom       -0.001456      0.003441     -0.001566
 --------------------------------------------------------


 ---------------------------------------------------------------------------------
              Anisotropic Spin Dipole Couplings in Principal Axis System
 ---------------------------------------------------------------------------------

       Atom             a.u.   MegaHertz   Gauss  10(-4) cm-1        Axes

              Baa    -1.2058    87.250    31.133    29.104  0.7794 -0.6264  0.0113
     1 O(17)  Bbb    -1.1362    82.213    29.336    27.423 -0.0208 -0.0078  0.9998
              Bcc     2.3420  -169.464   -60.469   -56.527  0.6262  0.7794  0.0191
 
              Baa    -1.2059    87.255    31.135    29.105  0.7794  0.6265  0.0113
     2 O(17)  Bbb    -1.1362    82.218    29.338    27.425 -0.0208  0.0078  0.9998
              Bcc     2.3421  -169.474   -60.472   -56.530 -0.6262  0.7794 -0.0191
 
              Baa    -0.0152    -2.046    -0.730    -0.682 -0.0850  0.0000  0.9964
     3 C(13)  Bbb     0.0021     0.280     0.100     0.093  0.9964 -0.0001  0.0850
              Bcc     0.0132     1.766     0.630     0.589  0.0001  1.0000 -0.0000
 
              Baa    -0.0893   -11.980    -4.275    -3.996 -0.0114 -0.0000  0.9999
     4 C(13)  Bbb     0.0237     3.182     1.135     1.061  0.9999  0.0000  0.0114
              Bcc     0.0656     8.798     3.139     2.935 -0.0000  1.0000  0.0000
 
              Baa    -0.0064    -3.434    -1.225    -1.145 -0.1780 -0.3598  0.9159
     5 H(1)   Bbb    -0.0030    -1.583    -0.565    -0.528 -0.2166  0.9223  0.3202
              Bcc     0.0094     5.018     1.790     1.674  0.9599  0.1414  0.2421
 
              Baa    -0.0050    -2.673    -0.954    -0.892  0.3994  0.0000  0.9168
     6 H(1)   Bbb    -0.0024    -1.297    -0.463    -0.433 -0.0000  1.0000 -0.0000
              Bcc     0.0074     3.970     1.417     1.324  0.9168  0.0000 -0.3994
 
              Baa    -0.0064    -3.434    -1.225    -1.146 -0.1781  0.3598  0.9159
     7 H(1)   Bbb    -0.0030    -1.584    -0.565    -0.528  0.2166  0.9222 -0.3202
              Bcc     0.0094     5.018     1.790     1.674  0.9599 -0.1413  0.2421
 

 ---------------------------------------------------------------------------------

 No NMR shielding tensors so no spin-rotation constants.
 Leave Link  601 at Sat Aug 10 23:53:41 2019, MaxMem=  1835008000 cpu:               2.9 elap:               0.4
 (Enter /opt/g16/l9999.exe)

 Test job not archived.
 1\1\GINC-NODE08\SP\UB3LYP\6-311+G(3df,2p)\C2H3O2(2)\ALONGD\10-Aug-2019
 \0\\#P scf=(tight, direct) integral=(grid=ultrafine, Acc2E=12) guess=m
 ix ub3lyp/6-311+g(3df,2p) scf=xqc iop(2/9=2000)\\name\\0,2\O,0,1.59276
 6,0.85794,0.26525\O,0,1.405174,-0.97922,-0.640236\C,0,-0.676926,0.0231
 41,0.093281\C,0,0.79726,-0.037188,-0.089688\H,0,-0.920099,0.617619,0.9
 72643\H,0,-1.114673,0.500706,-0.785048\H,0,-1.083503,-0.982998,0.18379
 8\\Version=ES64L-G16RevB.01\State=2-A\HF=-228.5007429\S2=0.756896\S2-1
 =0.\S2A=0.750024\RMSD=3.193e-09\Dipole=-1.3131126,0.0543442,0.1617454\
 Quadrupole=0.3709887,-0.9353843,0.5643956,-0.1984669,0.0264148,-0.9931
 52\PG=C01 [X(C2H3O2)]\\@


 QUHEN THE CAUSS IS TAKEN AWAY THE EFFECT WANISHETH.
 -- PROVERBS AND REASONS OF THE YEAR 1585
           AS REPRINTED IN PAISLEY MAGAZINE 1828.
 Job cpu time:       0 days  0 hours  5 minutes 32.5 seconds.
 Elapsed time:       0 days  0 hours  0 minutes 52.3 seconds.
 File lengths (MBytes):  RWF=     27 Int=      0 D2E=      0 Chk=      3 Scr=      1
 Normal termination of Gaussian 16 at Sat Aug 10 23:53:57 2019.
