
 Primary working directories    : /scratch/alongd/3303
 Secondary working directories  : /scratch/alongd/3303
 Wavefunction directory         : /home/alongd/wfu/
 Main file repository           : /scratch/alongd/3303/

 SHA1      : 5e3d8ac6839c721e2824de82269b4736200146bd
 NAME      : 2015.1.37
 ARCHNAME  : linux/x86_64
 FC        : /opt/intel/composer_xe_2015.1.133/bin/intel64/ifort
 BLASLIB   : -Wl,-_start-group /opt/intel/mkl/lib/intel64/libmkl_intel_ilp64.a /opt/intel/mkl/lib/intel64/libmkl_intel_thread.a /opt/intel/mkl/lib/intel64/libmkl_core.a -Wl,-_end-group
 id        : phalgunlolur

 Nodes     nprocs
 node08       1

 Using customized tuning parameters: mindgm=1; mindgv=20; mindgc=4; mindgr=1; noblas=0; minvec=7
 default implementation of scratch files=df  

 ***,name
 memory,750.0,m;
 geometry={angstrom;
 O      -0.80317400   -1.03768400   -0.05310000
 O      -0.81646600    1.02219800    0.05343100
 C       1.38663000    0.00653200   -0.00179500
 C      -0.10178000   -0.00359800    0.00838600
 H       1.77040600   -0.91209800    0.44322300
 H       1.72488800    0.06231300   -1.03953100
 H       1.75884600    0.87929500    0.53574300
 }
 
 basis=cc-pvtz-f12
 
 int;
 
 {hf;
 maxit,1000;
 wf,spin=1,charge=0;}
 
 uccsd(t)-f12;
 
 

 Variables initialized (889), CPU time= 0.00 sec
 Commands  initialized (702), CPU time= 0.01 sec, 572 directives.
 Default parameters read. Elapsed time= 0.08 sec

 Checking input...
 Passed
1


                                         ***  PROGRAM SYSTEM MOLPRO  ***
                                       Copyright, TTI GmbH Stuttgart, 2015
                                    Version 2015.1 linked Aug 10 2018 15:00:15


 **********************************************************************************************************************************
 LABEL *   name                                                                          
  64 bit serial version                                                                  DATE: 19-Feb-19          TIME: 10:58:05  
 **********************************************************************************************************************************

 SHA1:             5e3d8ac6839c721e2824de82269b4736200146bd
 **********************************************************************************************************************************

Geometry recognized as XYZ


 Variable memory set to  750000000 words,  buffer space   230000 words

 SETTING BASIS          =    CC-PVTZ-F12


 Using spherical harmonics

 Library entry O      S cc-pVTZ-F12          selected for orbital group  1
 Library entry O      P cc-pVTZ-F12          selected for orbital group  1
 Library entry O      D cc-pVTZ-F12          selected for orbital group  1
 Library entry O      F cc-pVTZ-F12          selected for orbital group  1
 Library entry C      S cc-pVTZ-F12          selected for orbital group  2
 Library entry C      P cc-pVTZ-F12          selected for orbital group  2
 Library entry C      D cc-pVTZ-F12          selected for orbital group  2
 Library entry C      F cc-pVTZ-F12          selected for orbital group  2
 Library entry H      S cc-pVTZ-F12          selected for orbital group  3
 Library entry H      P cc-pVTZ-F12          selected for orbital group  3
 Library entry H      D cc-pVTZ-F12          selected for orbital group  3


 PROGRAM * SEWARD (Integral evaluation for generally contracted gaussian basis sets)     Author: Roland Lindh, 1990

 Geometry written to block  1 of record 700


 Point group  C1  



 ATOMIC COORDINATES

 NR  ATOM    CHARGE       X              Y              Z

   1  O       8.00   -1.517778890   -1.960938564   -0.100344457
   2  O       8.00   -1.542897130    1.931674265    0.100969957
   3  C       6.00    2.620350936    0.012343691   -0.003392058
   4  C       6.00   -0.192336325   -0.006799235    0.015847243
   5  H       1.00    3.345582469   -1.723615419    0.837570082
   6  H       1.00    3.259565916    0.117754504   -1.964428888
   7  H       1.00    3.323737235    1.661626733    1.012407543

 Bond lengths in Bohr (Angstrom)

 1-4  2.364097930  2-4  2.364093880  3-4  2.812818201  3-5  2.060760085  3-6  2.065277869
     ( 1.251026749)     ( 1.251024606)     ( 1.488479290)     ( 1.090507274)     ( 1.092897983)

 3-7  2.060760944
     ( 1.090507729)

 Bond angles

  1-4-2  111.05432974   1-4-3  124.46605301   2-4-3  124.46619253   4-3-5  110.08316292

  4-3-6  108.44131315   4-3-7  110.08311080   5-3-6  108.75721944   5-3-7  110.66549574

  6-3-7  108.75700339

 NUCLEAR CHARGE:                   31
 NUMBER OF PRIMITIVE AOS:         351
 NUMBER OF SYMMETRY AOS:          312
 NUMBER OF CONTRACTIONS:          266   ( 266A   )
 NUMBER OF CORE ORBITALS:           4   (   4A   )
 NUMBER OF VALENCE ORBITALS:       19   (  19A   )


 NUCLEAR REPULSION ENERGY  113.59452379


 Eigenvalues of metric

         1 0.562E-04 0.150E-03 0.167E-03 0.199E-03 0.203E-03 0.265E-03 0.291E-03 0.404E-03


 Contracted 2-electron integrals neglected if value below      1.0D-11
 AO integral compression algorithm  1   Integral accuracy      1.0D-11

     2749.366 MB (compressed) written to integral file ( 47.6%)


 NUMBER OF SORTED TWO-ELECTRON INTEGRALS:  630533316.     BUFFER LENGTH:  32768
 NUMBER OF SEGMENTS:  40  SEGMENT LENGTH:   15999762      RECORD LENGTH: 262144

 Memory used in sort:      16.29 MW

 SORT1 READ   721885136. AND WROTE   605572342. INTEGRALS IN   3485 RECORDS. CPU TIME:     8.99 SEC, REAL TIME:    22.42 SEC
 SORT2 READ   605572342. AND WROTE   630533316. INTEGRALS IN  10488 RECORDS. CPU TIME:     8.42 SEC, REAL TIME:    11.68 SEC

 FILE SIZES:   FILE 1:  2772.0 MBYTE,  FILE 4:  7308.6 MBYTE,   TOTAL:  10080.6 MBYTE

 OPERATOR DM      FOR CENTER  0  COORDINATES:    0.000000    0.000000    0.000000


 **********************************************************************************************************************************
 DATASETS  * FILE   NREC   LENGTH (MB)   RECORD NAMES
              1      19     2459.78       500      610      700      900      950      970     1000      129      960     1100   
                                          VAR    BASINP    GEOM    SYMINP    ZMAT    AOBASIS   BASIS     P2S    ABASIS      S 
                                         1400     1410     1200     1210     1080     1600     1650     1300     1700   
                                           T        V       H0       H01     AOSYM     SMH    MOLCAS    ERIS     OPER   

 PROGRAMS   *        TOTAL       INT
 CPU TIMES  *        42.62     42.51
 REAL TIME  *        90.97 SEC
 DISK USED  *        10.08 GB      
 **********************************************************************************************************************************


 PROGRAM * RHF-SCF (OPEN SHELL)       Authors: W. Meyer, H.-J. Werner


 NUMBER OF ELECTRONS:      16+   15-    SPACE SYMMETRY=1    SPIN SYMMETRY: Doublet 
 CONVERGENCE THRESHOLDS:    1.00E-05 (Density)    1.00E-07 (Energy)
 MAX. NUMBER OF ITERATIONS:     1000
 INTERPOLATION TYPE:            DIIS
 INTERPOLATION STEPS:              2 (START)      1 (STEP)
 LEVEL SHIFTS:                 -0.60 (CLOSED) -0.30 (OPEN) 



 Orbital guess generated from atomic densities. Full valence occupancy:   23

 Molecular orbital dump at record        2100.2

 Initial alpha occupancy:  16
 Initial beta  occupancy:  15
 Wave function symmetry:    1

 ITERATION    DDIFF          GRAD             ENERGY        2-EL.EN.            DIPOLE MOMENTS         DIIS   ORB.
    1      0.000D+00      0.000D+00      -227.16468123    389.050460    1.86949    0.01294   -0.01682    0    start
    2      0.000D+00      0.412D-02      -227.22396751    389.102792    1.52793    0.01080   -0.01820    1    diag,B
    3      0.306D-02      0.121D-02      -227.23125866    389.336499    1.50227    0.01039   -0.01344    2    diag,B
    4      0.847D-03      0.539D-03      -227.23451436    389.305059    1.46699    0.00996   -0.00958    3    diag,B
    5      0.630D-03      0.211D-03      -227.23514004    389.307976    1.46764    0.00986   -0.00746    4    diag,B
    6      0.331D-03      0.678D-04      -227.23520062    389.300261    1.47447    0.00987   -0.00680    5    diag,B
    7      0.130D-03      0.197D-04      -227.23520617    389.301852    1.47773    0.00987   -0.00655    6    fixocc
    8      0.549D-04      0.668D-05      -227.23520708    389.302065    1.47864    0.00987   -0.00647    7    diag,B
    9      0.245D-04      0.276D-05      -227.23520733    389.302485    1.47892    0.00987   -0.00644    8    diag,B
   10      0.919D-05      0.140D-05      -227.23520742    389.302617    1.47897    0.00986   -0.00643    9    orth
   11      0.538D-05      0.653D-06      -227.23520743    389.302595    1.47895    0.00985   -0.00643    0    orth

 Final alpha occupancy:  16
 Final beta  occupancy:  15

 !RHF STATE 1.1 Energy               -227.235207434276
 Nuclear energy                       113.59452379
 One-electron energy                 -535.48102855
 Two-electron energy                  194.65129732
 Virial quotient                       -1.00104850
 !RHF STATE 1.1 Dipole moment           1.47894555     0.00985066    -0.00643464
 Dipole moment /Debye                   3.75885844     0.02503625    -0.01635415

 Orbital energies:

         1.1          2.1          3.1          4.1          5.1          6.1          7.1          8.1          9.1         10.1
    -20.621159   -20.621154   -11.413928   -11.269803    -1.489976    -1.343430    -1.048769    -0.789272    -0.699517    -0.679529

        11.1         12.1         13.1         14.1         15.1         16.1         17.1         18.1
     -0.679226    -0.596906    -0.585559    -0.501823    -0.478758    -0.540806     0.037919     0.064903

 HOMO     16.1    -0.540806 =     -14.7161eV
 LUMO     17.1     0.037919 =       1.0318eV
 LUMO-HOMO         0.578725 =      15.7479eV


 **********************************************************************************************************************************
 DATASETS  * FILE   NREC   LENGTH (MB)   RECORD NAMES
              1      19     2459.78       500      610      700      900      950      970     1000      129      960     1100   
                                          VAR    BASINP    GEOM    SYMINP    ZMAT    AOBASIS   BASIS     P2S    ABASIS      S 
                                         1400     1410     1200     1210     1080     1600     1650     1300     1700   
                                           T        V       H0       H01     AOSYM     SMH    MOLCAS    ERIS     OPER   

              2       4        4.88       700     1000      520     2100   
                                         GEOM     BASIS   MCVARS     RHF  

 PROGRAMS   *        TOTAL        HF       INT
 CPU TIMES  *       125.89     83.27     42.51
 REAL TIME  *       240.39 SEC
 DISK USED  *        10.08 GB      
 **********************************************************************************************************************************


 PROGRAM * CCSD (Unrestricted open-shell coupled cluster)     Authors: C. Hampel, H.-J. Werner, 1991, M. Deegan, P.J. Knowles, 1992

                           UCCSD-F12 implementation by G. Knizia and H.-J. Werner, 2008

                   Density fitting integral evaluation by F.R. Manby, 2003,2007, G. Knizia, 2010

 Basis set AUG-CC-PVTZ/JKFIT generated.  Number of basis functions:   554 
 Basis set CC-PVTZ-F12/OPTRI generated.  Number of basis functions:   423 
 Basis set AUG-CC-PVTZ/MP2FIT generated. Number of basis functions:   562 

 Convergence thresholds:  THRVAR = 1.00D-08  THRDEN = 1.00D-06

 CCSD(T)     terms to be evaluated (factor= 1.000)


 Number of core orbitals:           4 (   4 )
 Number of closed-shell orbitals:  11 (  11 )
 Number of active  orbitals:        1 (   1 )
 Number of external orbitals:     250 ( 250 )

 Memory could be reduced to 331.96 Mwords without degradation in triples

 Number of N-1 electron functions:              23
 Number of N-2 electron functions:             253
 Number of singly external CSFs:              5773
 Number of doubly external CSFs:          12112507
 Total number of CSFs:                    12118280

 Molecular orbitals read from record     2100.2  Type=RHF/CANONICAL (state 1.1)

 Integral transformation finished. Total CPU:  34.34 sec, npass=  1  Memory used: 133.50 MW
 
 Geminal basis:    OPTFULL  GEM_TYPE=SLATER  BETA=1.0  NGEM=6

 Optimizing Gaussian exponents for each gem_beta

 Geminal optimization for beta= 1.0000
 Weight function:   m=0, omega= 1.4646

 Augmented Hessian optimization of geminal fit. Trust ratio= 0.40000
 Convergence reached after   2 iterations. Final gradient= 8.41D-16, Step= 4.29D-06, Delta= 1.28D-09
 
 Alpha:                 0.19532     0.81920     2.85917     9.50073    35.69989   197.79328
 Coeff:                 0.27070     0.30552     0.18297     0.10986     0.06810     0.04224
 
 
 WFN_F12=FIX,EG    DECOUPLE_EXPL=F   HYBRID=0    NOX=F   SEMIINT_F12=T   CORE_SINGLES=F
 
 AO(A)-basis ORBITAL           loaded. Number of functions:     266
 RI(R)-basis CC-PVTZ-F12/OPTRI loaded. Number of functions:     423
 DF-basis AUG-CC-PVTZ/JKFIT    loaded. Number of functions:     554

 Screening thresholds:   THRAO=  1.00D-10  THRMO=  1.00D-09  THRPROD=  1.00D-09
                         THRSW=  1.00D-05  THROV=  1.00D-12  THRAOF12=   1.00D-08

 CPU time for one-electron matrices               6.95 sec
 
 Construction of ABS:
 Pseudo-inverse stability          5.87E-12
 Smallest eigenvalue of S          1.72E-04  (threshold= 1.00E-08)
 Ratio eigmin/eigmax               2.06E-05  (threshold= 1.00E-09)
 Smallest eigenvalue of S kept     1.72E-04  (threshold= 1.72E-04, 0 functions deleted, 423 kept)
 
 Construction of CABS:
 Pseudo-inverse stability          3.47E-10
 Smallest eigenvalue of S          5.01E-07  (threshold= 1.00E-08)
 Ratio eigmin/eigmax               5.01E-07  (threshold= 1.00E-09)
 Smallest eigenvalue of S kept     5.01E-07  (threshold= 5.01E-07, 0 functions deleted, 423 kept)
 
 CPU time for basis constructions                 0.10 sec
 Fock operators(MO) rebuilt from dump record.
 CPU time for fock operators                      0.23 sec
 
                                      TOTAL          ALPHA          BETA    
  Singles Contributions MO        -0.009060242   -0.004355630   -0.004704612
  Singles Contributions CABS      -0.001888021   -0.001013242   -0.000874779
  Pure DF-RHF relaxation          -0.001868703
 
 CPU time for singles                             0.50 sec
 
 AO(A)-basis ORBITAL           loaded. Number of functions:     266
 RI(R)-basis CC-PVTZ-F12/OPTRI loaded. Number of functions:     423
 DF-basis AUG-CC-PVTZ/MP2FIT   loaded. Number of functions:     562

 Screening thresholds:   THRAO=  1.00D-10  THRMO=  1.00D-09  THRPROD=  1.00D-09
                         THRSW=  1.00D-05  THROV=  1.00D-12  THRAOF12=   1.00D-08

 CPU time for transformed integrals              34.27 sec
 CPU time for F12 matrices                        2.38 sec

 Diagonal F12 ansatz with fixed amplitudes:   TS= 0.5000  TT= 0.2500  TN= 0.3750
 
 ITER.     SQ.NORM      CORR.ENERGY   TOTAL ENERGY  ENERGY CHANGE      VAR         CPU   MICRO    DIIS
   1      1.24417757    -0.91362635  -228.15070249    -9.1550E-01   2.38E-01      0.20  1  1  1   0  0
   2      1.24350286    -0.91127387  -228.14835000     2.3525E-03   1.78E-04      1.16  0  0  0   1  1
   3      1.24402276    -0.91169662  -228.14877276    -4.2276E-04   1.68E-06      2.20  0  0  0   2  2
   4      1.24403916    -0.91169910  -228.14877523    -2.4746E-06   5.71E-09      3.40  0  0  0   3  3
   5      1.24404067    -0.91169911  -228.14877524    -9.5327E-09   2.15E-11      4.51  0  0  0   4  4
 
 - - Continuing with F12/conv. amplitude coupling turned on.
 
   6      1.24400614    -0.91180405  -228.14888019    -1.0495E-04   6.31E-05      5.58  1  1  1   1  1
   7      1.24400516    -0.91180402  -228.14888016     2.5787E-08   1.52E-09      6.74  1  1  1   2  2
 
 CPU time for iterative RMP2-F12                  6.74 sec
 
 
 DF-RMP2-F12 doubles corrections:
 - - - - - - - - - - - - - - - - 
  Approx.                             TOTAL           A-B            A-A            B-B    
  RMP2-F12/3C(FIX)                -0.069778085   -0.064681293   -0.002892567   -0.002204225
  RMP2-F12/3*C(FIX)               -0.069673169   -0.064752810   -0.002794871   -0.002125488
  RMP2-F12/3*C(DX)                -0.069974924   -0.065019125   -0.002817182   -0.002138617
  RMP2-F12/3*C(FIX,DX)            -0.074265011   -0.068935407   -0.003041039   -0.002288565
 
 DF-RMP2-F12 doubles energies:
 - - - - - - - - - - - - - - -
  Approx.                             TOTAL           A-B            A-A            B-B    
  RMP2                            -0.832965695   -0.619045113   -0.104354160   -0.109566422
  RMP2-F12/3C(FIX)                -0.902743780   -0.683726406   -0.107246727   -0.111770647
  RMP2-F12/3*C(FIX)               -0.902638864   -0.683797923   -0.107149031   -0.111691910
  RMP2-F12/3*C(DX)                -0.902940619   -0.684064238   -0.107171342   -0.111705040
  RMP2-F12/3*C(FIX,DX)            -0.907230706   -0.687980519   -0.107395199   -0.111854988
 
 
  Reference energy                   -227.235207434276
  CABS relaxation correction to RHF    -0.001868703433
  New reference energy               -227.237076137709
 
  RMP2-F12 singles (MO) energy         -0.009060242025
  RMP2-F12 pair energy                 -0.902743780245
  RMP2-F12 correlation energy          -0.911804022270
 
 !RMP2-F12/3C(FIX) energy            -228.148880159979

 Starting RMP2 calculation

 ITER.      SQ.NORM     CORR.ENERGY   TOTAL ENERGY   ENERGY CHANGE        DEN1      VAR(S)    VAR(P)  DIIS     TIME
   1      1.24068664    -0.83909051  -228.07429794    -0.83909051    -0.00266654  0.31D-04  0.12D-02  1  1    93.88
   2      1.24383097    -0.84200420  -228.07721163    -0.00291370    -0.00001451  0.40D-06  0.85D-05  2  2    95.08
   3      1.24404078    -0.84209803  -228.07730546    -0.00009383    -0.00000007  0.48D-08  0.34D-07  3  3    96.32
   4      1.24404397    -0.84209755  -228.07730499     0.00000048    -0.00000000  0.10D-09  0.13D-09  4  4    97.67

 Norm of t1 vector:      0.07825890      S-energy:    -0.00906022      T1 diagnostic:  0.00075374
 Norm of t2 vector:      0.48776994      P-energy:    -0.83303733
                                         Alpha-Beta:  -0.61931699
                                         Alpha-Alpha: -0.10424434
                                         Beta-Beta:   -0.10947600

 Spin contamination <S**2-Sz**2-Sz>     0.00362410
  Reference energy                   -227.237076137709
  RHF-RMP2 correlation energy          -0.842097552595
 !RHF-RMP2 energy                    -228.079173690303

 Starting UCCSD calculation

 ITER.      SQ.NORM     CORR.ENERGY   TOTAL ENERGY   ENERGY CHANGE        DEN1      VAR(S)    VAR(P)  DIIS     TIME
   1      1.21711001    -0.79732448  -228.03253192    -0.79732448    -0.02956982  0.72D-02  0.51D-02  1  1   210.49
   2      1.23825036    -0.82143935  -228.05664679    -0.02411487    -0.00289834  0.33D-03  0.97D-03  2  2   324.96
   3      1.24677267    -0.82422262  -228.05943006    -0.00278327    -0.00042231  0.24D-03  0.71D-04  3  3   435.81
   4      1.25284842    -0.82654869  -228.06175612    -0.00232606    -0.00006837  0.31D-04  0.15D-04  4  4   548.21
   5      1.25525154    -0.82693665  -228.06214409    -0.00038797    -0.00001294  0.94D-05  0.16D-05  5  5   659.36
   6      1.25628574    -0.82703934  -228.06224677    -0.00010268    -0.00000257  0.17D-05  0.39D-06  6  6   772.47
   7      1.25659240    -0.82706424  -228.06227168    -0.00002490    -0.00000077  0.62D-06  0.88D-07  6  1   883.07
   8      1.25672315    -0.82707671  -228.06228414    -0.00001247    -0.00000024  0.16D-06  0.35D-07  6  2   995.37
   9      1.25677421    -0.82707741  -228.06228485    -0.00000070    -0.00000006  0.37D-07  0.83D-08  6  4  1109.58
  10      1.25679512    -0.82707932  -228.06228675    -0.00000191    -0.00000001  0.40D-08  0.18D-08  6  3  1220.57
  11      1.25679782    -0.82707915  -228.06228658     0.00000017    -0.00000000  0.14D-08  0.33D-09  6  5  1333.50

 Norm of t1 vector:      0.14512342      S-energy:    -0.00762600      T1 diagnostic:  0.01907121
                                                                       D1 diagnostic:  0.07646028
 Norm of t2 vector:      0.48552757      P-energy:    -0.81945315
                                         Alpha-Beta:  -0.63213899
                                         Alpha-Alpha: -0.09204987
                                         Beta-Beta:   -0.09526428

 Singles amplitudes (print threshold =  0.500E-01):

         I         SYM. A    A   T(IA) [Beta-Beta]

         7         1         9      0.05947671

 Doubles amplitudes (print threshold =  0.500E-01):

         I         J         SYM. A    SYM. B    A         B      T(IJ, AB) [Beta-Beta]

        11        10         1         1         1         9      0.05617065
        11        10         1         1         9         1     -0.05617065
 
         I         J         SYM. A    SYM. B    A         B      T(IJ, AB) [Alpha-Beta]

        10        11         1         1         9         1      0.06805913

 Spin contamination <S**2-Sz**2-Sz>     0.00238102

 Memory could be reduced to 351.42 Mwords without degradation in triples
 

 RESULTS
 =======

  Reference energy                   -227.235207434276
  CABS relaxation correction to RHF    -0.001868703433
  New reference energy               -227.237076137709
 
  F12 corrections for ansatz 3C(FIX) added to UCCSD energy. Coupling mode: 15
 
  UCCSD-F12a singles energy            -0.007625999423
  UCCSD-F12a pair energy               -0.888455136191
  UCCSD-F12a correlation energy        -0.896081135614
  Triples (T) contribution             -0.041247223326
  Total correlation energy             -0.937328358939
 
  RHF-UCCSD-F12a energy              -228.133157273322
  RHF-UCCSD[T]-F12a energy           -228.176669988284
  RHF-UCCSD-T-F12a energy            -228.173375290029
 !RHF-UCCSD(T)-F12a energy           -228.174404496648
 
  F12 corrections for ansatz 3C(FIX) added to UCCSD energy. Coupling mode: 15
 
  UCCSD-F12b singles energy            -0.007625999423
  UCCSD-F12b pair energy               -0.876315376334
  UCCSD-F12b correlation energy        -0.883941375757
  Triples (T) contribution             -0.041247223326
  Total correlation energy             -0.925188599083
 
  RHF-UCCSD-F12b energy              -228.121017513466
  RHF-UCCSD[T]-F12b energy           -228.164530228428
  RHF-UCCSD-T-F12b energy            -228.161235530172
 !RHF-UCCSD(T)-F12b energy           -228.162264736792

 Program statistics:

 Available memory in ccsd:               749998628
 Min. memory needed in ccsd:              34666106
 Max. memory used in ccsd:                49762311
 Max. memory used in cckext:              37497111 (12 integral passes)
 Max. memory used in cckint:             133503826 ( 1 integral passes)



 **********************************************************************************************************************************
 DATASETS  * FILE   NREC   LENGTH (MB)   RECORD NAMES
              1      19     2459.78       500      610      700      900      950      970     1000      129      960     1100   
                                          VAR    BASINP    GEOM    SYMINP    ZMAT    AOBASIS   BASIS     P2S    ABASIS      S 
                                         1400     1410     1200     1210     1080     1600     1650     1300     1700   
                                           T        V       H0       H01     AOSYM     SMH    MOLCAS    ERIS     OPER   

              2       5        5.73       700     1000      520     2100     7360   
                                         GEOM     BASIS   MCVARS     RHF    F12ABS    

 PROGRAMS   *        TOTALUCCSD(T)-F        HF       INT
 CPU TIMES  *      4086.88   3960.99     83.27     42.51
 REAL TIME  *      4442.04 SEC
 DISK USED  *        14.43 GB      
 **********************************************************************************************************************************

 UCCSD(T)-F12/cc-pVTZ-F12 energy=   -228.162264736792

    UCCSD(T)-F12        HF-SCF  
   -228.16226474   -227.23520743
 **********************************************************************************************************************************
 Molpro calculation terminated
 Variable memory released
