 Entering Gaussian System, Link 0=g16
 Initial command:
 /opt/g16/l1.exe "/scratch/alongd/g16/a4386-34560/Gau-30263.inp" -scrdir="/scratch/alongd/g16/a4386-34560/"
 Entering Link 1 = /opt/g16/l1.exe PID=     30265.
  
 Copyright (c) 1988-2017, Gaussian, Inc.  All Rights Reserved.
  
 This is part of the Gaussian(R) 16 program.  It is based on
 the Gaussian(R) 09 system (copyright 2009, Gaussian, Inc.),
 the Gaussian(R) 03 system (copyright 2003, Gaussian, Inc.),
 the Gaussian(R) 98 system (copyright 1998, Gaussian, Inc.),
 the Gaussian(R) 94 system (copyright 1995, Gaussian, Inc.),
 the Gaussian 92(TM) system (copyright 1992, Gaussian, Inc.),
 the Gaussian 90(TM) system (copyright 1990, Gaussian, Inc.),
 the Gaussian 88(TM) system (copyright 1988, Gaussian, Inc.),
 the Gaussian 86(TM) system (copyright 1986, Carnegie Mellon
 University), and the Gaussian 82(TM) system (copyright 1983,
 Carnegie Mellon University). Gaussian is a federally registered
 trademark of Gaussian, Inc.
  
 This software contains proprietary and confidential information,
 including trade secrets, belonging to Gaussian, Inc.
  
 This software is provided under written license and may be
 used, copied, transmitted, or stored only in accord with that
 written license.
  
 The following legend is applicable only to US Government
 contracts under FAR:
  
                    RESTRICTED RIGHTS LEGEND
  
 Use, reproduction and disclosure by the US Government is
 subject to restrictions as set forth in subparagraphs (a)
 and (c) of the Commercial Computer Software - Restricted
 Rights clause in FAR 52.227-19.
  
 Gaussian, Inc.
 340 Quinnipiac St., Bldg. 40, Wallingford CT 06492
  
  
 ---------------------------------------------------------------
 Warning -- This program may not be used in any manner that
 competes with the business of Gaussian, Inc. or will provide
 assistance to any competitor of Gaussian, Inc.  The licensee
 of this program is prohibited from giving any competitor of
 Gaussian, Inc. access to this program.  By using this program,
 the user acknowledges that Gaussian, Inc. is engaged in the
 business of creating and licensing software in the field of
 computational chemistry and represents and warrants to the
 licensee that it is not a competitor of Gaussian, Inc. and that
 it will not use this program in any manner prohibited above.
 ---------------------------------------------------------------
  

 Cite this work as:
 Gaussian 16, Revision B.01,
 M. J. Frisch, G. W. Trucks, H. B. Schlegel, G. E. Scuseria, 
 M. A. Robb, J. R. Cheeseman, G. Scalmani, V. Barone, 
 G. A. Petersson, H. Nakatsuji, X. Li, M. Caricato, A. V. Marenich, 
 J. Bloino, B. G. Janesko, R. Gomperts, B. Mennucci, H. P. Hratchian, 
 J. V. Ortiz, A. F. Izmaylov, J. L. Sonnenberg, D. Williams-Young, 
 F. Ding, F. Lipparini, F. Egidi, J. Goings, B. Peng, A. Petrone, 
 T. Henderson, D. Ranasinghe, V. G. Zakrzewski, J. Gao, N. Rega, 
 G. Zheng, W. Liang, M. Hada, M. Ehara, K. Toyota, R. Fukuda, 
 J. Hasegawa, M. Ishida, T. Nakajima, Y. Honda, O. Kitao, H. Nakai, 
 T. Vreven, K. Throssell, J. A. Montgomery, Jr., J. E. Peralta, 
 F. Ogliaro, M. J. Bearpark, J. J. Heyd, E. N. Brothers, K. N. Kudin, 
 V. N. Staroverov, T. A. Keith, R. Kobayashi, J. Normand, 
 K. Raghavachari, A. P. Rendell, J. C. Burant, S. S. Iyengar, 
 J. Tomasi, M. Cossi, J. M. Millam, M. Klene, C. Adamo, R. Cammi, 
 J. W. Ochterski, R. L. Martin, K. Morokuma, O. Farkas, 
 J. B. Foresman, and D. J. Fox, Gaussian, Inc., Wallingford CT, 2016.
 
 ******************************************
 Gaussian 16:  ES64L-G16RevB.01 20-Dec-2017
                 2-Mar-2020 
 ******************************************
 %chk=check.chk
 %mem=14336mb
 %NProcShared=36
 Will use up to   36 processors via shared memory.
 ----------------------------------------------------------------------
 #P opt=(tight) guess=read uwb97xd/def2tzvp scf=(tight, direct) integra
 l=(grid=ultrafine, Acc2E=12) scf=xqc iop(2/9=2000)
 ----------------------------------------------------------------------
 1/7=10,18=20,19=15,26=4,38=1/1,3;
 2/9=2000,12=2,17=6,18=5,40=1/2;
 3/5=44,7=101,11=2,25=1,27=12,30=1,71=1,74=-58,75=-5,116=2/1,2,3;
 4/5=1/1;
 5/5=2,8=3,13=1,32=2,38=6,87=12/2,8;
 6/7=2,8=2,9=2,10=2,28=1,87=12/1;
 7/87=12/1,2,3,16;
 1/7=10,18=20,19=15,26=4/3(2);
 2/9=2000/2;
 99//99;
 2/9=2000/2;
 3/5=44,7=101,11=2,25=1,27=12,30=1,71=1,74=-58,75=-5,116=2/1,2,3;
 4/5=5,16=3,69=1/1;
 5/5=2,8=3,13=1,32=2,38=5,87=12/2,8;
 7/87=12/1,2,3,16;
 1/7=10,18=20,19=15,26=4/3(-5);
 2/9=2000/2;
 6/7=2,8=2,9=2,10=2,19=2,28=1,87=12/1;
 99/9=1/99;
 Leave Link    1 at Mon Mar  2 00:39:50 2020, MaxMem=  1879048192 cpu:               5.8 elap:               0.2
 (Enter /opt/g16/l101.exe)
 ----
 name
 ----
 Symbolic Z-matrix:
 Charge =  0 Multiplicity = 3
 N                     2.25408   0.45895   0.16099 
 C                     0.96877   0.14666   0.06929 
 C                     0.01744   1.20877  -0.0012 
 H                     0.40477   2.21852   0.02458 
 C                    -1.33139   0.96374  -0.09759 
 C                    -1.81581  -0.35218  -0.12972 
 C                    -0.87662  -1.35784  -0.06022 
 C                     0.46222  -1.2005    0.03563 
 H                     2.81711  -0.39041   0.20315 
 H                    -2.03064   1.78923  -0.14949 
 H                    -2.87594  -0.55607  -0.20546 
 H                     1.15309  -2.03441   0.08695 
 
 ITRead=  0  0  0  0  0  0  0  0  0  0  0  0
 MicOpt= -1 -1 -1 -1 -1 -1 -1 -1 -1 -1 -1 -1
 NAtoms=     12 NQM=       12 NQMF=       0 NMMI=      0 NMMIF=      0
                NMic=       0 NMicF=      0.
                    Isotopes and Nuclear Properties:
 (Nuclear quadrupole moments (NQMom) in fm**2, nuclear magnetic moments (NMagM)
  in nuclear magnetons)

  Atom         1           2           3           4           5           6           7           8           9          10
 IAtWgt=          14          12          12           1          12          12          12          12           1           1
 AtmWgt=  14.0030740  12.0000000  12.0000000   1.0078250  12.0000000  12.0000000  12.0000000  12.0000000   1.0078250   1.0078250
 NucSpn=           2           0           0           1           0           0           0           0           1           1
 AtZEff=  -0.0000000  -0.0000000  -0.0000000  -0.0000000  -0.0000000  -0.0000000  -0.0000000  -0.0000000  -0.0000000  -0.0000000
 NQMom=    2.0440000   0.0000000   0.0000000   0.0000000   0.0000000   0.0000000   0.0000000   0.0000000   0.0000000   0.0000000
 NMagM=    0.4037610   0.0000000   0.0000000   2.7928460   0.0000000   0.0000000   0.0000000   0.0000000   2.7928460   2.7928460
 AtZNuc=   7.0000000   6.0000000   6.0000000   1.0000000   6.0000000   6.0000000   6.0000000   6.0000000   1.0000000   1.0000000

  Atom        11          12
 IAtWgt=           1           1
 AtmWgt=   1.0078250   1.0078250
 NucSpn=           1           1
 AtZEff=  -0.0000000  -0.0000000
 NQMom=    0.0000000   0.0000000
 NMagM=    2.7928460   2.7928460
 AtZNuc=   1.0000000   1.0000000
 Leave Link  101 at Mon Mar  2 00:39:51 2020, MaxMem=  1879048192 cpu:              26.4 elap:               0.8
 (Enter /opt/g16/l103.exe)

 GradGradGradGradGradGradGradGradGradGradGradGradGradGradGradGradGradGrad
 Berny optimization.
 Initialization pass.
                           ----------------------------
                           !    Initial Parameters    !
                           ! (Angstroms and Degrees)  !
 --------------------------                            --------------------------
 ! Name  Definition              Value          Derivative Info.                !
 --------------------------------------------------------------------------------
 ! R1    R(1,2)                  1.3259         estimate D2E/DX2                !
 ! R2    R(1,9)                  1.0199         estimate D2E/DX2                !
 ! R3    R(2,3)                  1.4276         estimate D2E/DX2                !
 ! R4    R(2,8)                  1.4396         estimate D2E/DX2                !
 ! R5    R(3,4)                  1.0818         estimate D2E/DX2                !
 ! R6    R(3,5)                  1.3743         estimate D2E/DX2                !
 ! R7    R(5,6)                  1.4026         estimate D2E/DX2                !
 ! R8    R(5,10)                 1.0831         estimate D2E/DX2                !
 ! R9    R(6,7)                  1.3778         estimate D2E/DX2                !
 ! R10   R(6,11)                 1.0822         estimate D2E/DX2                !
 ! R11   R(7,8)                  1.3515         estimate D2E/DX2                !
 ! R12   R(8,12)                 1.0841         estimate D2E/DX2                !
 ! A1    A(2,1,9)              109.9902         estimate D2E/DX2                !
 ! A2    A(1,2,3)              118.3051         estimate D2E/DX2                !
 ! A3    A(1,2,8)              124.2713         estimate D2E/DX2                !
 ! A4    A(3,2,8)              117.4236         estimate D2E/DX2                !
 ! A5    A(2,3,4)              117.0434         estimate D2E/DX2                !
 ! A6    A(2,3,5)              121.6576         estimate D2E/DX2                !
 ! A7    A(4,3,5)              121.299          estimate D2E/DX2                !
 ! A8    A(3,5,6)              120.5209         estimate D2E/DX2                !
 ! A9    A(3,5,10)             120.0737         estimate D2E/DX2                !
 ! A10   A(6,5,10)             119.4054         estimate D2E/DX2                !
 ! A11   A(5,6,7)              116.6294         estimate D2E/DX2                !
 ! A12   A(5,6,11)             121.11           estimate D2E/DX2                !
 ! A13   A(7,6,11)             122.2606         estimate D2E/DX2                !
 ! A14   A(6,7,8)              126.4345         estimate D2E/DX2                !
 ! A15   A(2,8,7)              117.334          estimate D2E/DX2                !
 ! A16   A(2,8,12)             119.6336         estimate D2E/DX2                !
 ! A17   A(7,8,12)             123.0324         estimate D2E/DX2                !
 ! D1    D(9,1,2,3)           -180.0            estimate D2E/DX2                !
 ! D2    D(9,1,2,8)              0.0            estimate D2E/DX2                !
 ! D3    D(1,2,3,4)              0.0            estimate D2E/DX2                !
 ! D4    D(1,2,3,5)            179.9999         estimate D2E/DX2                !
 ! D5    D(8,2,3,4)           -180.0            estimate D2E/DX2                !
 ! D6    D(8,2,3,5)              0.0            estimate D2E/DX2                !
 ! D7    D(1,2,8,7)           -179.9999         estimate D2E/DX2                !
 ! D8    D(1,2,8,12)             0.0            estimate D2E/DX2                !
 ! D9    D(3,2,8,7)              0.0            estimate D2E/DX2                !
 ! D10   D(3,2,8,12)           180.0            estimate D2E/DX2                !
 ! D11   D(2,3,5,6)              0.0            estimate D2E/DX2                !
 ! D12   D(2,3,5,10)           180.0            estimate D2E/DX2                !
 ! D13   D(4,3,5,6)            180.0            estimate D2E/DX2                !
 ! D14   D(4,3,5,10)            -0.0001         estimate D2E/DX2                !
 ! D15   D(3,5,6,7)             -0.0001         estimate D2E/DX2                !
 ! D16   D(3,5,6,11)           180.0            estimate D2E/DX2                !
 ! D17   D(10,5,6,7)           180.0            estimate D2E/DX2                !
 ! D18   D(10,5,6,11)            0.0            estimate D2E/DX2                !
 ! D19   D(5,6,7,8)              0.0001         estimate D2E/DX2                !
 ! D20   D(11,6,7,8)          -180.0            estimate D2E/DX2                !
 ! D21   D(6,7,8,2)             -0.0001         estimate D2E/DX2                !
 ! D22   D(6,7,8,12)           180.0            estimate D2E/DX2                !
 --------------------------------------------------------------------------------
 Trust Radius=3.00D-01 FncErr=1.00D-07 GrdErr=1.00D-06 EigMax=2.50D+02 EigMin=1.00D-04
 Number of steps in this run=     61 maximum allowed number of steps=    100.
 GradGradGradGradGradGradGradGradGradGradGradGradGradGradGradGradGradGrad

 Leave Link  103 at Mon Mar  2 00:39:51 2020, MaxMem=  1879048192 cpu:               2.0 elap:               0.1
 (Enter /opt/g16/l202.exe)
                          Input orientation:                          
 ---------------------------------------------------------------------
 Center     Atomic      Atomic             Coordinates (Angstroms)
 Number     Number       Type             X           Y           Z
 ---------------------------------------------------------------------
      1          7           0        2.254081    0.458951    0.160986
      2          6           0        0.968765    0.146659    0.069292
      3          6           0        0.017443    1.208772   -0.001195
      4          1           0        0.404771    2.218516    0.024582
      5          6           0       -1.331392    0.963738   -0.097589
      6          6           0       -1.815810   -0.352180   -0.129720
      7          6           0       -0.876624   -1.357841   -0.060220
      8          6           0        0.462218   -1.200498    0.035634
      9          1           0        2.817105   -0.390405    0.203149
     10          1           0       -2.030635    1.789226   -0.149489
     11          1           0       -2.875935   -0.556073   -0.205458
     12          1           0        1.153092   -2.034409    0.086950
 ---------------------------------------------------------------------
                    Distance matrix (angstroms):
                    1          2          3          4          5
     1  N    0.000000
     2  C    1.325885   0.000000
     3  C    2.364547   1.427608   0.000000
     4  H    2.556291   2.147715   1.081790   0.000000
     5  C    3.630053   2.446669   1.374296   2.145613   0.000000
     6  C    4.160103   2.835896   2.411204   3.400480   1.402617
     7  C    3.626428   2.384482   2.718518   3.799933   2.365996
     8  C    2.445456   1.439637   2.450258   3.419514   2.814019
     9  H    1.019892   1.929434   3.230670   3.557768   4.374263
    10  H    4.497201   3.426703   2.133903   2.479071   1.083081
    11  H    5.242291   3.918040   3.395296   4.302824   2.169579
    12  H    2.726628   2.188914   3.437396   4.318709   3.898154
                    6          7          8          9         10
     6  C    0.000000
     7  C    1.377772   0.000000
     8  C    2.436472   1.351459   0.000000
     9  H    4.645015   3.827392   2.495958   0.000000
    10  H    2.152245   3.353169   3.897055   5.326887   0.000000
    11  H    1.082208   2.158974   3.408324   5.710088   2.493610
    12  H    3.419243   2.144563   1.084135   2.342048   4.981185
                   11         12
    11  H    0.000000
    12  H    4.301632   0.000000
 Stoichiometry    C6H5N(3)
 Framework group  C1[X(C6H5N)]
 Deg. of freedom    30
 Full point group                 C1      NOp   1
 Largest Abelian subgroup         C1      NOp   1
 Largest concise Abelian subgroup C1      NOp   1
                         Standard orientation:                         
 ---------------------------------------------------------------------
 Center     Atomic      Atomic             Coordinates (Angstroms)
 Number     Number       Type             X           Y           Z
 ---------------------------------------------------------------------
      1          7           0        2.289773   -0.284216    0.000000
      2          6           0        0.982419   -0.063320   -0.000000
      3          6           0        0.105550   -1.189893   -0.000000
      4          1           0        0.563781   -2.169839    0.000000
      5          6           0       -1.260610   -1.040568    0.000000
      6          6           0       -1.837429    0.237952   -0.000000
      7          6           0       -0.968735    1.307356    0.000000
      8          6           0        0.381276    1.244801   -0.000000
      9          1           0        2.793240    0.602745    0.000001
     10          1           0       -1.901983   -1.913325    0.000000
     11          1           0       -2.911963    0.366594   -0.000000
     12          1           0        1.013689    2.125371   -0.000000
 ---------------------------------------------------------------------
 Rotational constants (GHZ):           6.0060225           2.8168653           1.9175305
 Leave Link  202 at Mon Mar  2 00:39:51 2020, MaxMem=  1879048192 cpu:               3.5 elap:               0.1
 (Enter /opt/g16/l301.exe)
 Standard basis: def2TZVP (5D, 7F)
 Ernie: Thresh=  0.10000D-02 Tol=  0.10000D-05 Strict=F.
 There are   282 symmetry adapted cartesian basis functions of A   symmetry.
 There are   247 symmetry adapted basis functions of A   symmetry.
   247 basis functions,   397 primitive gaussians,   282 cartesian basis functions
    25 alpha electrons       23 beta electrons
       nuclear repulsion energy       252.4271055487 Hartrees.
 IExCor= 4639 DFT=T Ex+Corr=wB97XD ExCW=0 ScaHFX=  1.000000
 ScaDFX=  1.000000  1.000000  1.000000  1.000000 ScalE2=  1.000000  1.000000
 IRadAn=      5 IRanWt=     -1 IRanGd=            0 ICorTp=0 IEmpDi=121
 HFx  wShort=  0.000000 wLong=  0.200000 cFull=  0.222036 cShort=  0.000000 cLong=  0.777964
 DFx  wShort=  0.000000 wLong=  0.200000 cFull=  0.000000 cShort=  0.000000 cLong=  1.000000
 NAtoms=   12 NActive=   12 NUniq=   12 SFac= 1.00D+00 NAtFMM=   60 NAOKFM=F Big=F
 Integral buffers will be    131072 words long.
 Raffenetti 2 integral format.
 Two-electron integral symmetry is turned on.
 R6Disp:  Grimme-D2 Dispersion energy=       -0.0042567048 Hartrees.
 Nuclear repulsion after empirical dispersion term =      252.4228488439 Hartrees.
 Leave Link  301 at Mon Mar  2 00:39:51 2020, MaxMem=  1879048192 cpu:               3.3 elap:               0.1
 (Enter /opt/g16/l302.exe)
 NPDir=0 NMtPBC=     1 NCelOv=     1 NCel=       1 NClECP=     1 NCelD=      1
         NCelK=      1 NCelE2=     1 NClLst=     1 CellRange=     0.0.
 One-electron integrals computed using PRISM.
 One-electron integral symmetry used in STVInt
   1 Symmetry operations used in ECPInt.
 ECPInt:  NShTT=    4753 NPrTT=   14704 LenC2=    4700 LenP2D=   12021.
 LDataN:  DoStor=T MaxTD1= 6 Len=  172
 NBasis=   247 RedAO= T EigKep=  1.73D-05  NBF=   247
 NBsUse=   247 1.00D-06 EigRej= -1.00D+00 NBFU=   247
 Precomputing XC quadrature grid using
 IXCGrd= 4 IRadAn=           5 IRanWt=          -1 IRanGd=           0 AccXCQ= 1.00D-12.
 Generated NRdTot=       0 NPtTot=           0 NUsed=           0 NTot=          32
 NSgBfM=   281   281   281   281   281 MxSgAt=    12 MxSgA2=    12.
 Leave Link  302 at Mon Mar  2 00:39:52 2020, MaxMem=  1879048192 cpu:              14.0 elap:               0.4
 (Enter /opt/g16/l303.exe)
 DipDrv:  MaxL=1.
 Leave Link  303 at Mon Mar  2 00:39:52 2020, MaxMem=  1879048192 cpu:               5.5 elap:               0.2
 (Enter /opt/g16/l401.exe)
 Initial guess from the checkpoint file:  "check.chk"
 B after Tr=     0.000000    0.000000    0.000000
         Rot=    1.000000   -0.000000    0.000000   -0.000000 Ang=  -0.00 deg.
 Guess basis will be translated and rotated to current coordinates.
 JPrj=2 DoOrth=T DoCkMO=T.
 Initial guess <Sx>= 0.0000 <Sy>= 0.0000 <Sz>= 1.0000 <S**2>= 2.0414 S= 1.0137
 Leave Link  401 at Mon Mar  2 00:39:56 2020, MaxMem=  1879048192 cpu:             136.9 elap:               3.9
 (Enter /opt/g16/l502.exe)
 Integral symmetry usage will be decided dynamically.
 UHF open shell SCF:
 Using DIIS extrapolation, IDIIS=  1040.
 NGot=  1879048192 LenX=  1878876442 LenY=  1878796477
 Requested convergence on RMS density matrix=1.00D-08 within  32 cycles.
 Requested convergence on MAX density matrix=1.00D-06.
 Requested convergence on             energy=1.00D-06.
 No special actions if energy rises.
 Fock matrices will be formed incrementally for  20 cycles.

 Cycle   1  Pass 1  IDiag  1:
 FoFJK:  IHMeth= 1 ICntrl=       0 DoSepK=T KAlg= 0 I1Cent=           0 FoldK=F
 IRaf=         1 NMat=       1 IRICut=       1 DoRegI=T DoRafI=F ISym2E= 0 IDoP0=0 IntGTp=1.
 FoFCou: FMM=F IPFlag=           0 FMFlag=      100000 FMFlg1=           0
         NFxFlg=           0 DoJE=T BraDBF=F KetDBF=F FulRan=T
         wScrn=  0.000000 ICntrl=       500 IOpCl=  0 I1Cent=           0 NGrid=           0
         NMat0=    1 NMatS0=      1 NMatT0=    0 NMatD0=    1 NMtDS0=    0 NMtDT0=    0
 Symmetry not used in FoFCou.
 E= -286.262049730668    
 DIIS: error= 6.25D-08 at cycle   1 NSaved=   1.
 NSaved= 1 IEnMin= 1 EnMin= -286.262049730668     IErMin= 1 ErrMin= 6.25D-08
 ErrMax= 6.25D-08  0.00D+00 EMaxC= 1.00D-01 BMatC= 6.13D-12 BMatP= 6.13D-12
 IDIUse=1 WtCom= 1.00D+00 WtEn= 0.00D+00
 Coeff-Com:  0.100D+01
 Coeff:      0.100D+01
 Gap=     0.339 Goal=   None    Shift=    0.000
 Gap=     0.287 Goal=   None    Shift=    0.000
 RMSDP=2.10D-08 MaxDP=7.13D-07              OVMax= 5.15D-07

 Cycle   2  Pass 1  IDiag  1:
 RMSU=  2.10D-08    CP:  1.00D+00
 E= -286.262049730662     Delta-E=        0.000000000006 Rises=F Damp=F
 DIIS: error= 2.53D-08 at cycle   2 NSaved=   2.
 NSaved= 2 IEnMin= 1 EnMin= -286.262049730668     IErMin= 2 ErrMin= 2.53D-08
 ErrMax= 2.53D-08  0.00D+00 EMaxC= 1.00D-01 BMatC= 5.67D-13 BMatP= 6.13D-12
 IDIUse=1 WtCom= 1.00D+00 WtEn= 0.00D+00
 Coeff-Com:  0.608D-01 0.939D+00
 Coeff:      0.608D-01 0.939D+00
 Gap=     0.339 Goal=   None    Shift=    0.000
 Gap=     0.287 Goal=   None    Shift=    0.000
 RMSDP=3.57D-09 MaxDP=1.47D-07 DE= 6.03D-12 OVMax= 2.57D-07

 SCF Done:  E(UwB97XD) =  -286.262049731     A.U. after    2 cycles
            NFock=  2  Conv=0.36D-08     -V/T= 2.0046
 <Sx>= 0.0000 <Sy>= 0.0000 <Sz>= 1.0000 <S**2>= 2.0414 S= 1.0137
 <L.S>= 0.000000000000E+00
 KE= 2.849387356471D+02 PE=-1.169843789821D+03 EE= 3.462201555996D+02
 Annihilation of the first spin contaminant:
 S**2 before annihilation     2.0414,   after     2.0006
 Leave Link  502 at Mon Mar  2 00:40:25 2020, MaxMem=  1879048192 cpu:            1052.4 elap:              29.3
 (Enter /opt/g16/l508.exe)
 QCSCF skips out because SCF is already converged.
 Leave Link  508 at Mon Mar  2 00:40:25 2020, MaxMem=  1879048192 cpu:               1.8 elap:               0.1
 (Enter /opt/g16/l601.exe)
 Copying SCF densities to generalized density rwf, IOpCl= 1 IROHF=0.

 **********************************************************************

            Population analysis using the SCF Density.

 **********************************************************************

 Orbital symmetries:
 Alpha Orbitals:
       Occupied  (A) (A) (A) (A) (A) (A) (A) (A) (A) (A) (A) (A)
                 (A) (A) (A) (A) (A) (A) (A) (A) (A) (A) (A) (A)
                 (A)
       Virtual   (A) (A) (A) (A) (A) (A) (A) (A) (A) (A) (A) (A)
                 (A) (A) (A) (A) (A) (A) (A) (A) (A) (A) (A) (A)
                 (A) (A) (A) (A) (A) (A) (A) (A) (A) (A) (A) (A)
                 (A) (A) (A) (A) (A) (A) (A) (A) (A) (A) (A) (A)
                 (A) (A) (A) (A) (A) (A) (A) (A) (A) (A) (A) (A)
                 (A) (A) (A) (A) (A) (A) (A) (A) (A) (A) (A) (A)
                 (A) (A) (A) (A) (A) (A) (A) (A) (A) (A) (A) (A)
                 (A) (A) (A) (A) (A) (A) (A) (A) (A) (A) (A) (A)
                 (A) (A) (A) (A) (A) (A) (A) (A) (A) (A) (A) (A)
                 (A) (A) (A) (A) (A) (A) (A) (A) (A) (A) (A) (A)
                 (A) (A) (A) (A) (A) (A) (A) (A) (A) (A) (A) (A)
                 (A) (A) (A) (A) (A) (A) (A) (A) (A) (A) (A) (A)
                 (A) (A) (A) (A) (A) (A) (A) (A) (A) (A) (A) (A)
                 (A) (A) (A) (A) (A) (A) (A) (A) (A) (A) (A) (A)
                 (A) (A) (A) (A) (A) (A) (A) (A) (A) (A) (A) (A)
                 (A) (A) (A) (A) (A) (A) (A) (A) (A) (A) (A) (A)
                 (A) (A) (A) (A) (A) (A) (A) (A) (A) (A) (A) (A)
                 (A) (A) (A) (A) (A) (A) (A) (A) (A) (A) (A) (A)
                 (A) (A) (A) (A) (A) (A)
 Beta  Orbitals:
       Occupied  (A) (A) (A) (A) (A) (A) (A) (A) (A) (A) (A) (A)
                 (A) (A) (A) (A) (A) (A) (A) (A) (A) (A) (A)
       Virtual   (A) (A) (A) (A) (A) (A) (A) (A) (A) (A) (A) (A)
                 (A) (A) (A) (A) (A) (A) (A) (A) (A) (A) (A) (A)
                 (A) (A) (A) (A) (A) (A) (A) (A) (A) (A) (A) (A)
                 (A) (A) (A) (A) (A) (A) (A) (A) (A) (A) (A) (A)
                 (A) (A) (A) (A) (A) (A) (A) (A) (A) (A) (A) (A)
                 (A) (A) (A) (A) (A) (A) (A) (A) (A) (A) (A) (A)
                 (A) (A) (A) (A) (A) (A) (A) (A) (A) (A) (A) (A)
                 (A) (A) (A) (A) (A) (A) (A) (A) (A) (A) (A) (A)
                 (A) (A) (A) (A) (A) (A) (A) (A) (A) (A) (A) (A)
                 (A) (A) (A) (A) (A) (A) (A) (A) (A) (A) (A) (A)
                 (A) (A) (A) (A) (A) (A) (A) (A) (A) (A) (A) (A)
                 (A) (A) (A) (A) (A) (A) (A) (A) (A) (A) (A) (A)
                 (A) (A) (A) (A) (A) (A) (A) (A) (A) (A) (A) (A)
                 (A) (A) (A) (A) (A) (A) (A) (A) (A) (A) (A) (A)
                 (A) (A) (A) (A) (A) (A) (A) (A) (A) (A) (A) (A)
                 (A) (A) (A) (A) (A) (A) (A) (A) (A) (A) (A) (A)
                 (A) (A) (A) (A) (A) (A) (A) (A) (A) (A) (A) (A)
                 (A) (A) (A) (A) (A) (A) (A) (A) (A) (A) (A) (A)
                 (A) (A) (A) (A) (A) (A) (A) (A)
 The electronic state is 3-A.
 Alpha  occ. eigenvalues --  -14.43889 -10.33901 -10.32609 -10.31947 -10.31350
 Alpha  occ. eigenvalues --  -10.31018 -10.30613  -1.02848  -0.96406  -0.87140
 Alpha  occ. eigenvalues --   -0.83701  -0.72337  -0.68695  -0.62671  -0.59348
 Alpha  occ. eigenvalues --   -0.55541  -0.53932  -0.50458  -0.49444  -0.46612
 Alpha  occ. eigenvalues --   -0.42896  -0.39416  -0.36555  -0.32908  -0.29789
 Alpha virt. eigenvalues --    0.04108   0.06245   0.12146   0.13138   0.16351
 Alpha virt. eigenvalues --    0.17586   0.18719   0.19898   0.21056   0.24513
 Alpha virt. eigenvalues --    0.26701   0.27423   0.28054   0.29878   0.30527
 Alpha virt. eigenvalues --    0.31555   0.32850   0.34314   0.34829   0.36522
 Alpha virt. eigenvalues --    0.39338   0.39994   0.40202   0.40843   0.42136
 Alpha virt. eigenvalues --    0.44754   0.46667   0.46967   0.47003   0.49348
 Alpha virt. eigenvalues --    0.49622   0.49947   0.50968   0.53050   0.55208
 Alpha virt. eigenvalues --    0.55761   0.56259   0.57782   0.59259   0.60819
 Alpha virt. eigenvalues --    0.65412   0.68537   0.69325   0.70287   0.73944
 Alpha virt. eigenvalues --    0.74492   0.75818   0.77510   0.80964   0.81015
 Alpha virt. eigenvalues --    0.83027   0.86860   0.87926   0.88849   0.94116
 Alpha virt. eigenvalues --    0.94551   0.95693   1.07062   1.07575   1.07640
 Alpha virt. eigenvalues --    1.09527   1.14162   1.14471   1.14869   1.18823
 Alpha virt. eigenvalues --    1.20280   1.25816   1.26561   1.28925   1.29771
 Alpha virt. eigenvalues --    1.31905   1.34745   1.35138   1.36976   1.41513
 Alpha virt. eigenvalues --    1.45620   1.46081   1.48218   1.53117   1.54076
 Alpha virt. eigenvalues --    1.54856   1.55929   1.57018   1.60823   1.62410
 Alpha virt. eigenvalues --    1.64462   1.68072   1.68960   1.72600   1.74002
 Alpha virt. eigenvalues --    1.76141   1.76345   1.80009   1.84270   1.85494
 Alpha virt. eigenvalues --    1.89888   1.93018   1.96095   2.00691   2.02450
 Alpha virt. eigenvalues --    2.04099   2.07345   2.08128   2.14659   2.16446
 Alpha virt. eigenvalues --    2.19604   2.21153   2.25446   2.27394   2.27578
 Alpha virt. eigenvalues --    2.31445   2.35997   2.41347   2.43055   2.45880
 Alpha virt. eigenvalues --    2.48489   2.57153   2.60279   2.61520   2.64355
 Alpha virt. eigenvalues --    2.64450   2.68885   2.70149   2.71051   2.72229
 Alpha virt. eigenvalues --    2.75323   2.75490   2.75698   2.81791   2.82022
 Alpha virt. eigenvalues --    2.82598   2.86261   2.86647   2.86857   2.89268
 Alpha virt. eigenvalues --    2.92237   2.95118   2.96398   3.03095   3.04106
 Alpha virt. eigenvalues --    3.05021   3.09384   3.12422   3.14669   3.15623
 Alpha virt. eigenvalues --    3.18008   3.18598   3.20367   3.22669   3.23553
 Alpha virt. eigenvalues --    3.27861   3.28094   3.29099   3.33608   3.34917
 Alpha virt. eigenvalues --    3.39797   3.40568   3.41196   3.42703   3.43414
 Alpha virt. eigenvalues --    3.44213   3.50988   3.53035   3.54824   3.55130
 Alpha virt. eigenvalues --    3.57126   3.58022   3.58475   3.67090   3.71501
 Alpha virt. eigenvalues --    3.71792   3.74686   3.80036   3.84959   3.89809
 Alpha virt. eigenvalues --    4.01670   4.02741   4.03970   4.06815   4.09395
 Alpha virt. eigenvalues --    4.11371   4.13562   4.18618   4.21914   4.27421
 Alpha virt. eigenvalues --    4.30155   4.30687   4.32599   4.34220   4.35767
 Alpha virt. eigenvalues --    4.50757   4.52988   4.63777   4.67948   4.69326
 Alpha virt. eigenvalues --    4.69460   4.72852   4.76499   4.81496   4.84702
 Alpha virt. eigenvalues --    4.91144   4.91275   4.99956   5.03766   5.15449
 Alpha virt. eigenvalues --    5.18624   5.28480   5.30545   5.33630   5.38736
 Alpha virt. eigenvalues --    5.50221   5.56224   5.64622   5.73304   6.05145
 Alpha virt. eigenvalues --   22.15252  22.58705  22.64961  22.77290  22.90949
 Alpha virt. eigenvalues --   23.27641  32.12155
  Beta  occ. eigenvalues --  -14.42821 -10.34034 -10.31559 -10.31473 -10.31097
  Beta  occ. eigenvalues --  -10.31051 -10.30302  -1.01045  -0.94351  -0.85632
  Beta  occ. eigenvalues --   -0.81738  -0.71500  -0.66768  -0.61557  -0.58231
  Beta  occ. eigenvalues --   -0.54366  -0.53184  -0.48295  -0.48235  -0.45666
  Beta  occ. eigenvalues --   -0.37952  -0.36400  -0.34592
  Beta virt. eigenvalues --   -0.05939  -0.02909   0.05840   0.09724   0.12430
  Beta virt. eigenvalues --    0.13298   0.16547   0.17801   0.18955   0.20082
  Beta virt. eigenvalues --    0.22269   0.25103   0.26761   0.27929   0.28295
  Beta virt. eigenvalues --    0.30032   0.31222   0.31736   0.33665   0.35043
  Beta virt. eigenvalues --    0.35540   0.36831   0.39928   0.40290   0.40666
  Beta virt. eigenvalues --    0.41587   0.42536   0.45206   0.47284   0.47571
  Beta virt. eigenvalues --    0.47817   0.49641   0.50168   0.51499   0.51562
  Beta virt. eigenvalues --    0.53346   0.55405   0.56394   0.56791   0.58713
  Beta virt. eigenvalues --    0.60095   0.61107   0.65734   0.68760   0.70038
  Beta virt. eigenvalues --    0.70892   0.74265   0.75421   0.76690   0.78167
  Beta virt. eigenvalues --    0.81231   0.81768   0.84244   0.87962   0.89087
  Beta virt. eigenvalues --    0.89164   0.95193   0.95287   0.96165   1.07882
  Beta virt. eigenvalues --    1.08423   1.09151   1.10236   1.15280   1.15361
  Beta virt. eigenvalues --    1.15492   1.20459   1.21208   1.26879   1.27047
  Beta virt. eigenvalues --    1.29379   1.30627   1.32619   1.35472   1.36122
  Beta virt. eigenvalues --    1.37967   1.42115   1.46288   1.46993   1.49546
  Beta virt. eigenvalues --    1.54461   1.54871   1.56459   1.56885   1.57914
  Beta virt. eigenvalues --    1.61380   1.63717   1.65084   1.68885   1.69497
  Beta virt. eigenvalues --    1.73288   1.74651   1.76919   1.77110   1.81750
  Beta virt. eigenvalues --    1.85092   1.86487   1.90444   1.93467   1.96812
  Beta virt. eigenvalues --    2.01588   2.03357   2.04762   2.08232   2.08632
  Beta virt. eigenvalues --    2.15347   2.17335   2.20203   2.22122   2.26203
  Beta virt. eigenvalues --    2.28651   2.29925   2.32029   2.36701   2.42262
  Beta virt. eigenvalues --    2.44137   2.48181   2.49359   2.58014   2.61306
  Beta virt. eigenvalues --    2.62218   2.65177   2.66022   2.69727   2.70695
  Beta virt. eigenvalues --    2.71498   2.72735   2.76169   2.76573   2.76587
  Beta virt. eigenvalues --    2.82560   2.83259   2.83537   2.87181   2.87189
  Beta virt. eigenvalues --    2.88242   2.90103   2.92889   2.95543   2.97310
  Beta virt. eigenvalues --    3.04691   3.04821   3.05753   3.10775   3.14053
  Beta virt. eigenvalues --    3.15782   3.16347   3.19167   3.19548   3.22161
  Beta virt. eigenvalues --    3.23289   3.25565   3.28945   3.28985   3.30052
  Beta virt. eigenvalues --    3.34522   3.36052   3.40537   3.41628   3.42707
  Beta virt. eigenvalues --    3.43680   3.45007   3.45804   3.52691   3.54358
  Beta virt. eigenvalues --    3.56504   3.56653   3.59063   3.59352   3.59799
  Beta virt. eigenvalues --    3.68436   3.72831   3.72978   3.76207   3.81623
  Beta virt. eigenvalues --    3.86320   3.90794   4.02399   4.04375   4.04903
  Beta virt. eigenvalues --    4.08449   4.10467   4.12375   4.15021   4.19677
  Beta virt. eigenvalues --    4.23389   4.28463   4.30836   4.32035   4.33537
  Beta virt. eigenvalues --    4.36421   4.37496   4.52857   4.54618   4.66092
  Beta virt. eigenvalues --    4.69891   4.70381   4.71455   4.76100   4.78386
  Beta virt. eigenvalues --    4.83358   4.85856   4.92254   4.94961   5.03055
  Beta virt. eigenvalues --    5.04515   5.16840   5.20155   5.29517   5.32886
  Beta virt. eigenvalues --    5.34771   5.39636   5.51365   5.57204   5.65750
  Beta virt. eigenvalues --    5.74368   6.05784  22.16061  22.59560  22.65611
  Beta virt. eigenvalues --   22.77919  22.91241  23.27692  32.13543
          Condensed to atoms (all electrons):
               1          2          3          4          5          6
     1  N    6.542646   0.572674  -0.064699   0.010433   0.002931  -0.003007
     2  C    0.572674   4.686767   0.437859  -0.036275  -0.022388  -0.042460
     3  C   -0.064699   0.437859   4.973679   0.415991   0.518430  -0.011818
     4  H    0.010433  -0.036275   0.415991   0.506771  -0.049627   0.010889
     5  C    0.002931  -0.022388   0.518430  -0.049627   4.853373   0.435665
     6  C   -0.003007  -0.042460  -0.011818   0.010889   0.435665   4.918254
     7  C    0.027640   0.044593  -0.066457  -0.007232   0.004792   0.475714
     8  C   -0.125394   0.330879  -0.007989   0.017823  -0.055291  -0.000859
     9  H    0.356299  -0.086337   0.011899  -0.001529  -0.000157  -0.000847
    10  H   -0.000038   0.009991  -0.048118  -0.007215   0.433289  -0.051625
    11  H   -0.000001  -0.002012   0.005804  -0.000030  -0.046814   0.425104
    12  H   -0.003810  -0.047350   0.005408  -0.000111  -0.000949   0.004119
               7          8          9         10         11         12
     1  N    0.027640  -0.125394   0.356299  -0.000038  -0.000001  -0.003810
     2  C    0.044593   0.330879  -0.086337   0.009991  -0.002012  -0.047350
     3  C   -0.066457  -0.007989   0.011899  -0.048118   0.005804   0.005408
     4  H   -0.007232   0.017823  -0.001529  -0.007215  -0.000030  -0.000111
     5  C    0.004792  -0.055291  -0.000157   0.433289  -0.046814  -0.000949
     6  C    0.475714  -0.000859  -0.000847  -0.051625   0.425104   0.004119
     7  C    5.196908   0.320555   0.009993   0.010092  -0.039428  -0.020827
     8  C    0.320555   5.378930  -0.026708  -0.004280   0.007822   0.411348
     9  H    0.009993  -0.026708   0.527520   0.000034  -0.000007   0.002410
    10  H    0.010092  -0.004280   0.000034   0.528466  -0.004385   0.000053
    11  H   -0.039428   0.007822  -0.000007  -0.004385   0.507600  -0.000064
    12  H   -0.020827   0.411348   0.002410   0.000053  -0.000064   0.510294
          Atomic-Atomic Spin Densities.
               1          2          3          4          5          6
     1  N    0.686418  -0.026347  -0.028232  -0.001480   0.000520  -0.000005
     2  C   -0.026347  -0.102050   0.003972   0.000106   0.008281  -0.004010
     3  C   -0.028232   0.003972   0.289979   0.002536  -0.004621  -0.009271
     4  H   -0.001480   0.000106   0.002536  -0.006340  -0.000962   0.000532
     5  C    0.000520   0.008281  -0.004621  -0.000962  -0.096291   0.017847
     6  C   -0.000005  -0.004010  -0.009271   0.000532   0.017847   0.297556
     7  C    0.005938  -0.008853  -0.020329  -0.002267  -0.008872  -0.005209
     8  C   -0.024599   0.043746   0.022507   0.000779   0.000667  -0.005813
     9  H   -0.000718   0.000565   0.001222  -0.000048   0.000067  -0.000073
    10  H    0.000128   0.001571  -0.005414  -0.001340   0.000634  -0.005832
    11  H    0.000028   0.000815  -0.001207  -0.000082  -0.003874   0.006308
    12  H    0.003337  -0.006773  -0.001362  -0.000094   0.000262  -0.001678
               7          8          9         10         11         12
     1  N    0.005938  -0.024599  -0.000718   0.000128   0.000028   0.003337
     2  C   -0.008853   0.043746   0.000565   0.001571   0.000815  -0.006773
     3  C   -0.020329   0.022507   0.001222  -0.005414  -0.001207  -0.001362
     4  H   -0.002267   0.000779  -0.000048  -0.001340  -0.000082  -0.000094
     5  C   -0.008872   0.000667   0.000067   0.000634  -0.003874   0.000262
     6  C   -0.005209  -0.005813  -0.000073  -0.005832   0.006308  -0.001678
     7  C    0.839411  -0.007221   0.000377   0.004875  -0.003052   0.000691
     8  C   -0.007221   0.191042  -0.002174  -0.001696  -0.003291   0.000076
     9  H    0.000377  -0.002174  -0.016285   0.000008   0.000004   0.001675
    10  H    0.004875  -0.001696   0.000008   0.020757   0.001827   0.000032
    11  H   -0.003052  -0.003291   0.000004   0.001827   0.008348   0.000077
    12  H    0.000691   0.000076   0.001675   0.000032   0.000077   0.017034
 Mulliken charges and spin densities:
               1          2
     1  N   -0.315674   0.614988
     2  C    0.154059  -0.088979
     3  C   -0.169989   0.249782
     4  H    0.140111  -0.008659
     5  C   -0.073254  -0.086342
     6  C   -0.159130   0.290352
     7  C    0.043657   0.795488
     8  C   -0.246838   0.214025
     9  H    0.207430  -0.015380
    10  H    0.133737   0.015549
    11  H    0.146411   0.005901
    12  H    0.139479   0.013277
 Sum of Mulliken charges =  -0.00000   2.00000
 Mulliken charges and spin densities with hydrogens summed into heavy atoms:
               1          2
     1  N   -0.108244   0.599607
     2  C    0.154059  -0.088979
     3  C   -0.029878   0.241123
     5  C    0.060483  -0.070793
     6  C   -0.012719   0.296253
     7  C    0.043657   0.795488
     8  C   -0.107358   0.227302
 Electronic spatial extent (au):  <R**2>=            621.9253
 Charge=             -0.0000 electrons
 Dipole moment (field-independent basis, Debye):
    X=             -1.5367    Y=              0.6232    Z=              0.0000  Tot=              1.6583
 Quadrupole moment (field-independent basis, Debye-Ang):
   XX=            -39.3867   YY=            -38.0973   ZZ=            -43.5626
   XY=              6.7040   XZ=              0.0000   YZ=             -0.0000
 Traceless Quadrupole moment (field-independent basis, Debye-Ang):
   XX=              0.9622   YY=              2.2516   ZZ=             -3.2138
   XY=              6.7040   XZ=              0.0000   YZ=             -0.0000
 Octapole moment (field-independent basis, Debye-Ang**2):
  XXX=            -14.5412  YYY=             -7.1830  ZZZ=              0.0000  XYY=              3.2332
  XXY=             11.5954  XXZ=              0.0000  XZZ=              2.6291  YZZ=             -0.4741
  YYZ=              0.0000  XYZ=              0.0000
 Hexadecapole moment (field-independent basis, Debye-Ang**3):
 XXXX=           -499.3521 YYYY=           -269.7284 ZZZZ=            -49.0299 XXXY=             46.3750
 XXXZ=              0.0000 YYYX=             20.9590 YYYZ=             -0.0000 ZZZX=              0.0000
 ZZZY=             -0.0000 XXYY=           -132.8083 XXZZ=           -102.1765 YYZZ=            -60.9917
 XXYZ=              0.0000 YYXZ=              0.0000 ZZXY=              1.6613
 N-N= 2.524228488439D+02 E-N=-1.169843791570D+03  KE= 2.849387356471D+02
                          Isotropic Fermi Contact Couplings
        Atom                 a.u.       MegaHertz       Gauss      10(-4) cm-1
     1  N(14)              0.05432       8.77621       3.13157       2.92743
     2  C(13)              0.00134       0.75201       0.26833       0.25084
     3  C(13)              0.01193       6.70529       2.39262       2.23665
     4  H(1)              -0.00355      -7.93060      -2.82984      -2.64536
     5  C(13)              0.02390      13.43145       4.79268       4.48025
     6  C(13)              0.03527      19.82249       7.07316       6.61207
     7  C(13)              0.29956     168.37952      60.08200      56.16536
     8  C(13)              0.02359      13.25914       4.73119       4.42277
     9  H(1)              -0.00791     -17.68537      -6.31058      -5.89920
    10  H(1)               0.00564      12.60955       4.49940       4.20609
    11  H(1)               0.00500      11.18437       3.99086       3.73070
    12  H(1)               0.00824      18.40539       6.56750       6.13938
 --------------------------------------------------------
       Center         ----  Spin Dipole Couplings  ----
                      3XX-RR        3YY-RR        3ZZ-RR
 --------------------------------------------------------
     1   Atom       -0.668631     -0.695241      1.363873
     2   Atom        0.095588      0.127342     -0.222929
     3   Atom       -0.155552     -0.143630      0.299182
     4   Atom       -0.011696      0.018968     -0.007272
     5   Atom        0.052306      0.124283     -0.176589
     6   Atom       -0.186266     -0.112467      0.298733
     7   Atom       -0.214065      0.798092     -0.584026
     8   Atom       -0.046095     -0.150844      0.196939
     9   Atom       -0.023000      0.038281     -0.015281
    10   Atom        0.003393      0.007449     -0.010842
    11   Atom        0.039347     -0.026745     -0.012602
    12   Atom        0.014333      0.001774     -0.016107
 --------------------------------------------------------
                        XY            XZ            YZ
 --------------------------------------------------------
     1   Atom       -0.029680     -0.000001     -0.000000
     2   Atom       -0.055279      0.000000      0.000000
     3   Atom       -0.004517      0.000000      0.000000
     4   Atom       -0.012082      0.000000      0.000000
     5   Atom       -0.035545     -0.000000     -0.000000
     6   Atom        0.044326     -0.000000      0.000000
     7   Atom       -0.580507     -0.000000      0.000000
     8   Atom       -0.037185      0.000000      0.000000
     9   Atom        0.058930      0.000000      0.000000
    10   Atom       -0.001084     -0.000000     -0.000000
    11   Atom        0.010417      0.000000      0.000000
    12   Atom        0.022457     -0.000000     -0.000000
 --------------------------------------------------------


 ---------------------------------------------------------------------------------
              Anisotropic Spin Dipole Couplings in Principal Axis System
 ---------------------------------------------------------------------------------

       Atom             a.u.   MegaHertz   Gauss  10(-4) cm-1        Axes

              Baa    -0.7145   -27.555    -9.832    -9.191  0.5436  0.8394  0.0000
     1 N(14)  Bbb    -0.6494   -25.046    -8.937    -8.355  0.8394 -0.5436  0.0000
              Bcc     1.3639    52.602    18.770    17.546 -0.0000 -0.0000  1.0000
 
              Baa    -0.2229   -29.915   -10.674    -9.979 -0.0000 -0.0000  1.0000
     2 C(13)  Bbb     0.0540     7.240     2.583     2.415  0.7988  0.6016  0.0000
              Bcc     0.1690    22.675     8.091     7.564 -0.6016  0.7988 -0.0000
 
              Baa    -0.1571   -21.077    -7.521    -7.031  0.9479  0.3186 -0.0000
     3 C(13)  Bbb    -0.1421   -19.070    -6.805    -6.361 -0.3186  0.9479 -0.0000
              Bcc     0.2992    40.147    14.326    13.392  0.0000  0.0000  1.0000
 
              Baa    -0.0159    -8.475    -3.024    -2.827  0.9448  0.3275 -0.0000
     4 H(1)   Bbb    -0.0073    -3.880    -1.384    -1.294  0.0000  0.0000  1.0000
              Bcc     0.0232    12.355     4.409     4.121 -0.3275  0.9448 -0.0000
 
              Baa    -0.1766   -23.697    -8.456    -7.904  0.0000  0.0000  1.0000
     5 C(13)  Bbb     0.0377     5.061     1.806     1.688  0.9251  0.3798 -0.0000
              Bcc     0.1389    18.636     6.650     6.216 -0.3798  0.9251 -0.0000
 
              Baa    -0.2070   -27.783    -9.914    -9.267  0.9055 -0.4244  0.0000
     6 C(13)  Bbb    -0.0917   -12.304    -4.390    -4.104  0.4244  0.9055  0.0000
              Bcc     0.2987    40.087    14.304    13.372 -0.0000  0.0000  1.0000
 
              Baa    -0.5840   -78.371   -27.965   -26.142  0.0000 -0.0000  1.0000
     7 C(13)  Bbb    -0.4781   -64.159   -22.894   -21.401  0.9103  0.4140 -0.0000
              Bcc     1.0621   142.530    50.858    47.543 -0.4140  0.9103  0.0000
 
              Baa    -0.1627   -21.833    -7.791    -7.283  0.3038  0.9527 -0.0000
     8 C(13)  Bbb    -0.0342    -4.594    -1.639    -1.532  0.9527 -0.3038 -0.0000
              Bcc     0.1969    26.427     9.430     8.815  0.0000 -0.0000  1.0000
 
              Baa    -0.0588   -31.362   -11.191   -10.461  0.8548 -0.5190  0.0000
     9 H(1)   Bbb    -0.0153    -8.153    -2.909    -2.720 -0.0000 -0.0000  1.0000
              Bcc     0.0741    39.515    14.100    13.181  0.5190  0.8548  0.0000
 
              Baa    -0.0108    -5.785    -2.064    -1.930  0.0000  0.0000  1.0000
    10 H(1)   Bbb     0.0031     1.665     0.594     0.555  0.9700  0.2430 -0.0000
              Bcc     0.0077     4.119     1.470     1.374 -0.2430  0.9700 -0.0000
 
              Baa    -0.0283   -15.125    -5.397    -5.045 -0.1521  0.9884 -0.0000
    11 H(1)   Bbb    -0.0126    -6.724    -2.399    -2.243 -0.0000  0.0000  1.0000
              Bcc     0.0410    21.849     7.796     7.288  0.9884  0.1521  0.0000
 
              Baa    -0.0161    -8.594    -3.067    -2.867 -0.0000  0.0000  1.0000
    12 H(1)   Bbb    -0.0153    -8.145    -2.906    -2.717 -0.6044  0.7967 -0.0000
              Bcc     0.0314    16.739     5.973     5.583  0.7967  0.6044 -0.0000
 

 ---------------------------------------------------------------------------------

 No NMR shielding tensors so no spin-rotation constants.
 Leave Link  601 at Mon Mar  2 00:40:27 2020, MaxMem=  1879048192 cpu:              56.2 elap:               1.7
 (Enter /opt/g16/l701.exe)
 ... and contract with generalized density number  0.
 Compute integral first derivatives.
 R6Disp: Adding Grimme-D2 dispersion energy 1st derivatives to the gradient.
   1 Symmetry operations used in ECPInt.
 ECPInt:  NShTT=    4753 NPrTT=   14704 LenC2=    4700 LenP2D=   12021.
 LDataN:  DoStor=T MaxTD1= 7 Len=  274
 Leave Link  701 at Mon Mar  2 00:40:28 2020, MaxMem=  1879048192 cpu:              35.0 elap:               1.0
 (Enter /opt/g16/l702.exe)
 L702 exits ... SP integral derivatives will be done elsewhere.
 Leave Link  702 at Mon Mar  2 00:40:28 2020, MaxMem=  1879048192 cpu:               3.0 elap:               0.1
 (Enter /opt/g16/l703.exe)
 Integral derivatives from FoFJK, PRISM(SPDF).
 Compute integral first derivatives, UseDBF=F ICtDFT=           0.
 Calling FoFJK, ICntrl=      2127 FMM=F ISym2X=0 I1Cent= 0 IOpClX= 1 NMat=1 NMatS=1 NMatT=0.
 FoFJK:  IHMeth= 1 ICntrl=    2127 DoSepK=T KAlg= 0 I1Cent=           0 FoldK=F
 IRaf=         1 NMat=       1 IRICut=       1 DoRegI=T DoRafI=F ISym2E= 0 IDoP0=0 IntGTp=1.
 FoFCou: FMM=F IPFlag=           0 FMFlag=      100000 FMFlg1=         800
         NFxFlg=           0 DoJE=F BraDBF=F KetDBF=F FulRan=T
         wScrn=  0.000000 ICntrl=      2527 IOpCl=  0 I1Cent=           0 NGrid=           0
         NMat0=    1 NMatS0=      1 NMatT0=    0 NMatD0=    1 NMtDS0=    0 NMtDT0=    0
 Symmetry not used in FoFCou.
 Leave Link  703 at Mon Mar  2 00:40:43 2020, MaxMem=  1879048192 cpu:             526.7 elap:              14.7
 (Enter /opt/g16/l716.exe)
 Dipole        =-6.04589663D-01 2.45185722D-01 3.87928711D-08
 ***** Axes restored to original set *****
 -------------------------------------------------------------------
 Center     Atomic                   Forces (Hartrees/Bohr)
 Number     Number              X              Y              Z
 -------------------------------------------------------------------
      1        7          -0.000075452   -0.000023045   -0.000005346
      2        6           0.000085816    0.000087049    0.000005904
      3        6          -0.000048120   -0.000017342   -0.000003476
      4        1          -0.000010170   -0.000009479   -0.000000692
      5        6           0.000025469    0.000007268    0.000001947
      6        6           0.000001884   -0.000001115    0.000000020
      7        6           0.000062287    0.000032658    0.000004539
      8        6          -0.000099096   -0.000088783   -0.000006990
      9        1           0.000029308   -0.000014210    0.000002156
     10        1           0.000004717   -0.000007386    0.000000337
     11        1           0.000016937    0.000010012    0.000001188
     12        1           0.000006420    0.000024372    0.000000412
 -------------------------------------------------------------------
 Cartesian Forces:  Max     0.000099096 RMS     0.000037136
 Leave Link  716 at Mon Mar  2 00:40:43 2020, MaxMem=  1879048192 cpu:               4.0 elap:               0.1
 (Enter /opt/g16/l103.exe)

 GradGradGradGradGradGradGradGradGradGradGradGradGradGradGradGradGradGrad
 Berny optimization.
 FormGI is forming the generalized inverse of G from B-inverse, IUseBI=4.
 GSVD:  received Info=                   1 from GESDD.
 Internal  Forces:  Max     0.000069917 RMS     0.000018572
 Search for a local minimum.
 Step number   1 out of a maximum of   61
 All quantities printed in internal units (Hartrees-Bohrs-Radians)
 RMS Force = .18572D-04 SwitMx=.10000D-02 MixMth= 2
 Mixed Optimization -- En-DIIS/RFO-DIIS
 Second derivative matrix not updated -- first step.
 ITU=  0
     Eigenvalues ---    0.01693   0.01897   0.01961   0.02073   0.02154
     Eigenvalues ---    0.02200   0.02288   0.02451   0.02672   0.16000
     Eigenvalues ---    0.16000   0.16000   0.16000   0.16000   0.22000
     Eigenvalues ---    0.23249   0.23450   0.25000   0.35499   0.35625
     Eigenvalues ---    0.35729   0.35779   0.38123   0.40172   0.43982
     Eigenvalues ---    0.44355   0.47437   0.49304   0.53636   0.60488
 RFO step:  Lambda=-4.68119287D-08 EMin= 1.69349647D-02
 Linear search not attempted -- first point.
 Iteration  1 RMS(Cart)=  0.00005789 RMS(Int)=  0.00000000
 Iteration  2 RMS(Cart)=  0.00000000 RMS(Int)=  0.00000000
 ITry= 1 IFail=0 DXMaxC= 2.20D-04 DCOld= 1.00D+10 DXMaxT= 3.00D-01 DXLimC= 3.00D+00 Rises=F
 Variable       Old X    -DE/DX   Delta X   Delta X   Delta X     New X
                                 (Linear)    (Quad)   (Total)
    R1        2.50556  -0.00005   0.00000  -0.00009  -0.00009   2.50547
    R2        1.92732   0.00003   0.00000   0.00006   0.00006   1.92738
    R3        2.69779   0.00000   0.00000   0.00001   0.00001   2.69780
    R4        2.72052   0.00005   0.00000   0.00012   0.00012   2.72064
    R5        2.04429  -0.00001   0.00000  -0.00004  -0.00004   2.04425
    R6        2.59704  -0.00005   0.00000  -0.00009  -0.00009   2.59695
    R7        2.65056  -0.00002   0.00000  -0.00005  -0.00005   2.65051
    R8        2.04673  -0.00001   0.00000  -0.00002  -0.00002   2.04670
    R9        2.60361  -0.00001   0.00000  -0.00002  -0.00002   2.60359
   R10        2.04508  -0.00002   0.00000  -0.00005  -0.00005   2.04502
   R11        2.55389  -0.00007   0.00000  -0.00013  -0.00013   2.55376
   R12        2.04872  -0.00001   0.00000  -0.00004  -0.00004   2.04868
    A1        1.91969   0.00003   0.00000   0.00020   0.00020   1.91989
    A2        2.06481   0.00002   0.00000   0.00009   0.00009   2.06490
    A3        2.16894  -0.00001   0.00000  -0.00003  -0.00003   2.16891
    A4        2.04943  -0.00002   0.00000  -0.00006  -0.00006   2.04937
    A5        2.04279   0.00000   0.00000   0.00002   0.00002   2.04281
    A6        2.12333   0.00001   0.00000   0.00004   0.00004   2.12337
    A7        2.11707  -0.00001   0.00000  -0.00006  -0.00006   2.11701
    A8        2.10349  -0.00000   0.00000  -0.00002  -0.00002   2.10347
    A9        2.09568   0.00000   0.00000   0.00002   0.00002   2.09570
   A10        2.08402  -0.00000   0.00000  -0.00000  -0.00000   2.08402
   A11        2.03557   0.00001   0.00000   0.00002   0.00002   2.03558
   A12        2.11377  -0.00001   0.00000  -0.00005  -0.00005   2.11372
   A13        2.13385   0.00000   0.00000   0.00003   0.00003   2.13388
   A14        2.20670   0.00001   0.00000   0.00003   0.00003   2.20673
   A15        2.04786  -0.00001   0.00000  -0.00002  -0.00002   2.04785
   A16        2.08800  -0.00002   0.00000  -0.00012  -0.00012   2.08788
   A17        2.14732   0.00002   0.00000   0.00014   0.00014   2.14746
    D1       -3.14159  -0.00000   0.00000  -0.00000  -0.00000   3.14159
    D2       -0.00000  -0.00000   0.00000   0.00000   0.00000   0.00000
    D3       -0.00000   0.00000   0.00000   0.00000   0.00000   0.00000
    D4        3.14159   0.00000   0.00000   0.00000   0.00000  -3.14159
    D5       -3.14159  -0.00000   0.00000  -0.00000  -0.00000   3.14159
    D6       -0.00000  -0.00000   0.00000  -0.00000  -0.00000  -0.00000
    D7       -3.14159  -0.00000   0.00000  -0.00000  -0.00000   3.14159
    D8        0.00000  -0.00000   0.00000  -0.00000  -0.00000  -0.00000
    D9        0.00000   0.00000   0.00000   0.00000   0.00000   0.00000
   D10        3.14159   0.00000   0.00000   0.00000   0.00000  -3.14159
   D11        0.00000  -0.00000   0.00000  -0.00000  -0.00000  -0.00000
   D12        3.14159   0.00000   0.00000   0.00000   0.00000   3.14159
   D13        3.14159  -0.00000   0.00000   0.00000   0.00000   3.14159
   D14       -0.00000   0.00000   0.00000   0.00000   0.00000   0.00000
   D15       -0.00000   0.00000   0.00000   0.00000   0.00000   0.00000
   D16        3.14159   0.00000   0.00000   0.00000   0.00000   3.14159
   D17        3.14159   0.00000   0.00000   0.00000   0.00000  -3.14159
   D18        0.00000  -0.00000   0.00000  -0.00000  -0.00000  -0.00000
   D19        0.00000  -0.00000   0.00000  -0.00000  -0.00000  -0.00000
   D20       -3.14159  -0.00000   0.00000  -0.00000  -0.00000  -3.14159
   D21       -0.00000   0.00000   0.00000   0.00000   0.00000  -0.00000
   D22        3.14159   0.00000   0.00000   0.00000   0.00000   3.14159
         Item               Value     Threshold  Converged?
 Maximum Force            0.000070     0.000015     NO 
 RMS     Force            0.000019     0.000010     NO 
 Maximum Displacement     0.000220     0.000060     NO 
 RMS     Displacement     0.000058     0.000040     NO 
 Predicted change in Energy=-2.340597D-08
 Lowest energy point so far.  Saving SCF results.
 GradGradGradGradGradGradGradGradGradGradGradGradGradGradGradGradGradGrad

 Leave Link  103 at Mon Mar  2 00:40:45 2020, MaxMem=  1879048192 cpu:              59.3 elap:               1.8
 (Enter /opt/g16/l202.exe)
                          Input orientation:                          
 ---------------------------------------------------------------------
 Center     Atomic      Atomic             Coordinates (Angstroms)
 Number     Number       Type             X           Y           Z
 ---------------------------------------------------------------------
      1          7           0        2.254052    0.458884    0.160984
      2          6           0        0.968765    0.146670    0.069291
      3          6           0        0.017401    1.208752   -0.001199
      4          1           0        0.404668    2.218500    0.024575
      5          6           0       -1.331388    0.963737   -0.097588
      6          6           0       -1.815784   -0.352160   -0.129719
      7          6           0       -0.876614   -1.357819   -0.060219
      8          6           0        0.462167   -1.200537    0.035630
      9          1           0        2.817221   -0.390416    0.203158
     10          1           0       -2.030630    1.789209   -0.149488
     11          1           0       -2.875891   -0.556005   -0.205455
     12          1           0        1.153112   -2.034360    0.086951
 ---------------------------------------------------------------------
                    Distance matrix (angstroms):
                    1          2          3          4          5
     1  N    0.000000
     2  C    1.325838   0.000000
     3  C    2.364575   1.427614   0.000000
     4  H    2.556381   2.147717   1.081772   0.000000
     5  C    3.630030   2.446661   1.374247   2.145517   0.000000
     6  C    4.160032   2.835869   2.411127   3.400369   1.402590
     7  C    3.626350   2.384468   2.718462   3.799860   2.365975
     8  C    2.445453   1.439702   2.450275   3.419538   2.814013
     9  H    1.019925   1.929552   3.230804   3.557914   4.374373
    10  H    4.497184   3.426685   2.133859   2.478965   1.083068
    11  H    5.242193   3.917986   3.395177   4.302657   2.169503
    12  H    2.726502   2.188878   3.437352   4.318666   3.898125
                    6          7          8          9         10
     6  C    0.000000
     7  C    1.377759   0.000000
     8  C    2.436420   1.351392   0.000000
     9  H    4.645106   3.827487   2.496126   0.000000
    10  H    2.152210   3.353134   3.897035   5.326987   0.000000
    11  H    1.082180   2.158959   3.408250   5.710158   2.493517
    12  H    3.419223   2.144564   1.084113   2.342075   4.981144
                   11         12
    11  H    0.000000
    12  H    4.301615   0.000000
 Stoichiometry    C6H5N(3)
 Framework group  C1[X(C6H5N)]
 Deg. of freedom    30
 Full point group                 C1      NOp   1
 RotChk:  IX=2 Diff= 5.47D-05
 Largest Abelian subgroup         C1      NOp   1
 Largest concise Abelian subgroup C1      NOp   1
                         Standard orientation:                         
 ---------------------------------------------------------------------
 Center     Atomic      Atomic             Coordinates (Angstroms)
 Number     Number       Type             X           Y           Z
 ---------------------------------------------------------------------
      1          7           0        2.289738   -0.284248   -0.000000
      2          6           0        0.982427   -0.063378    0.000000
      3          6           0        0.105470   -1.189889    0.000000
      4          1           0        0.563602   -2.169861   -0.000000
      5          6           0       -1.260636   -1.040527   -0.000000
      6          6           0       -1.837383    0.237996    0.000000
      7          6           0       -0.968663    1.307364   -0.000000
      8          6           0        0.381280    1.244813    0.000000
      9          1           0        2.793389    0.602648   -0.000001
     10          1           0       -1.902044   -1.913242   -0.000001
     11          1           0       -2.911890    0.366634   -0.000000
     12          1           0        1.013804    2.125276   -0.000001
 ---------------------------------------------------------------------
 Rotational constants (GHZ):           6.0060734           2.8169342           1.9175676
 Leave Link  202 at Mon Mar  2 00:40:45 2020, MaxMem=  1879048192 cpu:               3.5 elap:               0.1
 (Enter /opt/g16/l301.exe)
 Standard basis: def2TZVP (5D, 7F)
 Ernie: Thresh=  0.10000D-02 Tol=  0.10000D-05 Strict=F.
 There are   282 symmetry adapted cartesian basis functions of A   symmetry.
 There are   247 symmetry adapted basis functions of A   symmetry.
   247 basis functions,   397 primitive gaussians,   282 cartesian basis functions
    25 alpha electrons       23 beta electrons
       nuclear repulsion energy       252.4297465707 Hartrees.
 IExCor= 4639 DFT=T Ex+Corr=wB97XD ExCW=0 ScaHFX=  1.000000
 ScaDFX=  1.000000  1.000000  1.000000  1.000000 ScalE2=  1.000000  1.000000
 IRadAn=      5 IRanWt=     -1 IRanGd=            0 ICorTp=0 IEmpDi=121
 HFx  wShort=  0.000000 wLong=  0.200000 cFull=  0.222036 cShort=  0.000000 cLong=  0.777964
 DFx  wShort=  0.000000 wLong=  0.200000 cFull=  0.000000 cShort=  0.000000 cLong=  1.000000
 NAtoms=   12 NActive=   12 NUniq=   12 SFac= 1.00D+00 NAtFMM=   60 NAOKFM=F Big=F
 Integral buffers will be    131072 words long.
 Raffenetti 2 integral format.
 Two-electron integral symmetry is turned on.
 R6Disp:  Grimme-D2 Dispersion energy=       -0.0042567598 Hartrees.
 Nuclear repulsion after empirical dispersion term =      252.4254898109 Hartrees.
 Leave Link  301 at Mon Mar  2 00:40:45 2020, MaxMem=  1879048192 cpu:               3.6 elap:               0.1
 (Enter /opt/g16/l302.exe)
 NPDir=0 NMtPBC=     1 NCelOv=     1 NCel=       1 NClECP=     1 NCelD=      1
         NCelK=      1 NCelE2=     1 NClLst=     1 CellRange=     0.0.
 One-electron integrals computed using PRISM.
 One-electron integral symmetry used in STVInt
   1 Symmetry operations used in ECPInt.
 ECPInt:  NShTT=    4753 NPrTT=   14704 LenC2=    4700 LenP2D=   12021.
 LDataN:  DoStor=T MaxTD1= 6 Len=  172
 NBasis=   247 RedAO= T EigKep=  1.73D-05  NBF=   247
 NBsUse=   247 1.00D-06 EigRej= -1.00D+00 NBFU=   247
 Precomputing XC quadrature grid using
 IXCGrd= 4 IRadAn=           5 IRanWt=          -1 IRanGd=           0 AccXCQ= 1.00D-12.
 Generated NRdTot=       0 NPtTot=           0 NUsed=           0 NTot=          32
 NSgBfM=   281   281   281   281   281 MxSgAt=    12 MxSgA2=    12.
 Leave Link  302 at Mon Mar  2 00:40:48 2020, MaxMem=  1879048192 cpu:              96.8 elap:               2.8
 (Enter /opt/g16/l303.exe)
 DipDrv:  MaxL=1.
 Leave Link  303 at Mon Mar  2 00:40:48 2020, MaxMem=  1879048192 cpu:              13.3 elap:               0.4
 (Enter /opt/g16/l401.exe)
 Initial guess from the checkpoint file:  "check.chk"
 B after Tr=    -0.000000    0.000000   -0.000000
         Rot=    1.000000   -0.000000   -0.000000    0.000016 Ang=   0.00 deg.
 Guess basis will be translated and rotated to current coordinates.
 JPrj=2 DoOrth=T DoCkMO=T.
 Initial guess <Sx>= 0.0000 <Sy>= 0.0000 <Sz>= 1.0000 <S**2>= 2.0414 S= 1.0137
 Leave Link  401 at Mon Mar  2 00:40:49 2020, MaxMem=  1879048192 cpu:              27.9 elap:               0.8
 (Enter /opt/g16/l502.exe)
 Integral symmetry usage will be decided dynamically.
 UHF open shell SCF:
 Using DIIS extrapolation, IDIIS=  1040.
 NGot=  1879048192 LenX=  1878876442 LenY=  1878796477
 Requested convergence on RMS density matrix=1.00D-08 within  32 cycles.
 Requested convergence on MAX density matrix=1.00D-06.
 Requested convergence on             energy=1.00D-06.
 No special actions if energy rises.
 Fock matrices will be formed incrementally for  20 cycles.

 Cycle   1  Pass 1  IDiag  1:
 FoFJK:  IHMeth= 1 ICntrl=       0 DoSepK=T KAlg= 0 I1Cent=           0 FoldK=F
 IRaf=         1 NMat=       1 IRICut=       1 DoRegI=T DoRafI=F ISym2E= 0 IDoP0=0 IntGTp=1.
 FoFCou: FMM=F IPFlag=           0 FMFlag=      100000 FMFlg1=           0
         NFxFlg=           0 DoJE=T BraDBF=F KetDBF=F FulRan=T
         wScrn=  0.000000 ICntrl=       500 IOpCl=  0 I1Cent=           0 NGrid=           0
         NMat0=    1 NMatS0=      1 NMatT0=    0 NMatD0=    1 NMtDS0=    0 NMtDT0=    0
 Symmetry not used in FoFCou.
 E= -286.262049748121    
 DIIS: error= 4.18D-06 at cycle   1 NSaved=   1.
 NSaved= 1 IEnMin= 1 EnMin= -286.262049748121     IErMin= 1 ErrMin= 4.18D-06
 ErrMax= 4.18D-06  0.00D+00 EMaxC= 1.00D-01 BMatC= 4.14D-08 BMatP= 4.14D-08
 IDIUse=1 WtCom= 1.00D+00 WtEn= 0.00D+00
 Coeff-Com:  0.100D+01
 Coeff:      0.100D+01
 Gap=     0.881 Goal=   None    Shift=    0.000
 Gap=     0.920 Goal=   None    Shift=    0.000
 RMSDP=9.45D-07 MaxDP=4.34D-05              OVMax= 3.32D-05

 Cycle   2  Pass 1  IDiag  1:
 RMSU=  9.44D-07    CP:  1.00D+00
 E= -286.262049757859     Delta-E=       -0.000000009738 Rises=F Damp=F
 DIIS: error= 3.16D-06 at cycle   2 NSaved=   2.
 NSaved= 2 IEnMin= 2 EnMin= -286.262049757859     IErMin= 2 ErrMin= 3.16D-06
 ErrMax= 3.16D-06  0.00D+00 EMaxC= 1.00D-01 BMatC= 2.57D-09 BMatP= 4.14D-08
 IDIUse=1 WtCom= 1.00D+00 WtEn= 0.00D+00
 Coeff-Com:  0.223D-01 0.978D+00
 Coeff:      0.223D-01 0.978D+00
 Gap=     0.339 Goal=   None    Shift=    0.000
 Gap=     0.287 Goal=   None    Shift=    0.000
 RMSDP=2.44D-07 MaxDP=9.45D-06 DE=-9.74D-09 OVMax= 2.40D-05

 Cycle   3  Pass 1  IDiag  1:
 RMSU=  1.80D-07    CP:  1.00D+00  1.17D+00
 E= -286.262049758685     Delta-E=       -0.000000000826 Rises=F Damp=F
 DIIS: error= 1.71D-06 at cycle   3 NSaved=   3.
 NSaved= 3 IEnMin= 3 EnMin= -286.262049758685     IErMin= 3 ErrMin= 1.71D-06
 ErrMax= 1.71D-06  0.00D+00 EMaxC= 1.00D-01 BMatC= 1.35D-09 BMatP= 2.57D-09
 IDIUse=1 WtCom= 1.00D+00 WtEn= 0.00D+00
 Coeff-Com: -0.389D-01 0.411D+00 0.628D+00
 Coeff:     -0.389D-01 0.411D+00 0.628D+00
 Gap=     0.339 Goal=   None    Shift=    0.000
 Gap=     0.287 Goal=   None    Shift=    0.000
 RMSDP=7.53D-08 MaxDP=1.71D-06 DE=-8.26D-10 OVMax= 1.13D-05

 Cycle   4  Pass 1  IDiag  1:
 RMSU=  6.67D-08    CP:  1.00D+00  1.21D+00  9.54D-01
 E= -286.262049759144     Delta-E=       -0.000000000460 Rises=F Damp=F
 DIIS: error= 1.70D-06 at cycle   4 NSaved=   4.
 NSaved= 4 IEnMin= 4 EnMin= -286.262049759144     IErMin= 4 ErrMin= 1.70D-06
 ErrMax= 1.70D-06  0.00D+00 EMaxC= 1.00D-01 BMatC= 1.58D-10 BMatP= 1.35D-09
 IDIUse=1 WtCom= 1.00D+00 WtEn= 0.00D+00
 Coeff-Com: -0.883D-02-0.345D-01 0.164D+00 0.880D+00
 Coeff:     -0.883D-02-0.345D-01 0.164D+00 0.880D+00
 Gap=     0.339 Goal=   None    Shift=    0.000
 Gap=     0.287 Goal=   None    Shift=    0.000
 RMSDP=4.75D-08 MaxDP=1.72D-06 DE=-4.60D-10 OVMax= 1.16D-05

 Cycle   5  Pass 1  IDiag  1:
 RMSU=  2.84D-08    CP:  1.00D+00  1.23D+00  1.11D+00  1.24D+00
 E= -286.262049759304     Delta-E=       -0.000000000160 Rises=F Damp=F
 DIIS: error= 8.83D-07 at cycle   5 NSaved=   5.
 NSaved= 5 IEnMin= 5 EnMin= -286.262049759304     IErMin= 5 ErrMin= 8.83D-07
 ErrMax= 8.83D-07  0.00D+00 EMaxC= 1.00D-01 BMatC= 5.40D-11 BMatP= 1.58D-10
 IDIUse=1 WtCom= 1.00D+00 WtEn= 0.00D+00
 Coeff-Com:  0.855D-02-0.123D+00-0.104D+00 0.249D+00 0.969D+00
 Coeff:      0.855D-02-0.123D+00-0.104D+00 0.249D+00 0.969D+00
 Gap=     0.339 Goal=   None    Shift=    0.000
 Gap=     0.287 Goal=   None    Shift=    0.000
 RMSDP=3.96D-08 MaxDP=2.01D-06 DE=-1.60D-10 OVMax= 9.74D-06

 Cycle   6  Pass 1  IDiag  1:
 RMSU=  2.04D-08    CP:  1.00D+00  1.24D+00  1.22D+00  1.56D+00  1.55D+00
 E= -286.262049759393     Delta-E=       -0.000000000089 Rises=F Damp=F
 DIIS: error= 6.47D-07 at cycle   6 NSaved=   6.
 NSaved= 6 IEnMin= 6 EnMin= -286.262049759393     IErMin= 6 ErrMin= 6.47D-07
 ErrMax= 6.47D-07  0.00D+00 EMaxC= 1.00D-01 BMatC= 1.84D-11 BMatP= 5.40D-11
 IDIUse=1 WtCom= 1.00D+00 WtEn= 0.00D+00
 Coeff-Com:  0.524D-02-0.588D-02-0.798D-01-0.330D+00 0.868D-01 0.132D+01
 Coeff:      0.524D-02-0.588D-02-0.798D-01-0.330D+00 0.868D-01 0.132D+01
 Gap=     0.339 Goal=   None    Shift=    0.000
 Gap=     0.287 Goal=   None    Shift=    0.000
 RMSDP=3.65D-08 MaxDP=1.48D-06 DE=-8.91D-11 OVMax= 1.08D-05

 Cycle   7  Pass 1  IDiag  1:
 RMSU=  9.52D-09    CP:  1.00D+00  1.24D+00  1.29D+00  1.80D+00  2.34D+00
                    CP:  1.91D+00
 E= -286.262049759446     Delta-E=       -0.000000000053 Rises=F Damp=F
 DIIS: error= 2.04D-07 at cycle   7 NSaved=   7.
 NSaved= 7 IEnMin= 7 EnMin= -286.262049759446     IErMin= 7 ErrMin= 2.04D-07
 ErrMax= 2.04D-07  0.00D+00 EMaxC= 1.00D-01 BMatC= 4.59D-12 BMatP= 1.84D-11
 IDIUse=1 WtCom= 1.00D+00 WtEn= 0.00D+00
 Coeff-Com: -0.153D-02 0.385D-01 0.153D-01-0.134D+00-0.301D+00 0.256D+00
 Coeff-Com:  0.113D+01
 Coeff:     -0.153D-02 0.385D-01 0.153D-01-0.134D+00-0.301D+00 0.256D+00
 Coeff:      0.113D+01
 Gap=     0.339 Goal=   None    Shift=    0.000
 Gap=     0.287 Goal=   None    Shift=    0.000
 RMSDP=1.99D-08 MaxDP=7.93D-07 DE=-5.30D-11 OVMax= 5.16D-06

 Cycle   8  Pass 1  IDiag  1:
 RMSU=  5.21D-09    CP:  1.00D+00  1.24D+00  1.30D+00  1.88D+00  2.75D+00
                    CP:  2.51D+00  1.61D+00
 E= -286.262049759459     Delta-E=       -0.000000000012 Rises=F Damp=F
 DIIS: error= 7.23D-08 at cycle   8 NSaved=   8.
 NSaved= 8 IEnMin= 8 EnMin= -286.262049759459     IErMin= 8 ErrMin= 7.23D-08
 ErrMax= 7.23D-08  0.00D+00 EMaxC= 1.00D-01 BMatC= 1.06D-12 BMatP= 4.59D-12
 IDIUse=1 WtCom= 1.00D+00 WtEn= 0.00D+00
 Coeff-Com: -0.142D-02 0.101D-01 0.205D-01 0.505D-01-0.823D-01-0.230D+00
 Coeff-Com:  0.267D+00 0.966D+00
 Coeff:     -0.142D-02 0.101D-01 0.205D-01 0.505D-01-0.823D-01-0.230D+00
 Coeff:      0.267D+00 0.966D+00
 Gap=     0.339 Goal=   None    Shift=    0.000
 Gap=     0.287 Goal=   None    Shift=    0.000
 RMSDP=6.65D-09 MaxDP=2.05D-07 DE=-1.23D-11 OVMax= 1.18D-06

 SCF Done:  E(UwB97XD) =  -286.262049759     A.U. after    8 cycles
            NFock=  8  Conv=0.66D-08     -V/T= 2.0046
 <Sx>= 0.0000 <Sy>= 0.0000 <Sz>= 1.0000 <S**2>= 2.0414 S= 1.0137
 <L.S>= 0.000000000000E+00
 KE= 2.849391261447D+02 PE=-1.169849437105D+03 EE= 3.462227713897D+02
 Annihilation of the first spin contaminant:
 S**2 before annihilation     2.0414,   after     2.0006
 Leave Link  502 at Mon Mar  2 00:42:45 2020, MaxMem=  1879048192 cpu:            4149.9 elap:             115.3
 (Enter /opt/g16/l508.exe)
 QCSCF skips out because SCF is already converged.
 Leave Link  508 at Mon Mar  2 00:42:45 2020, MaxMem=  1879048192 cpu:               1.8 elap:               0.1
 (Enter /opt/g16/l701.exe)
 ... and contract with generalized density number  0.
 Compute integral first derivatives.
 R6Disp: Adding Grimme-D2 dispersion energy 1st derivatives to the gradient.
   1 Symmetry operations used in ECPInt.
 ECPInt:  NShTT=    4753 NPrTT=   14704 LenC2=    4700 LenP2D=   12021.
 LDataN:  DoStor=T MaxTD1= 7 Len=  274
 Leave Link  701 at Mon Mar  2 00:42:46 2020, MaxMem=  1879048192 cpu:              48.5 elap:               1.4
 (Enter /opt/g16/l702.exe)
 L702 exits ... SP integral derivatives will be done elsewhere.
 Leave Link  702 at Mon Mar  2 00:42:46 2020, MaxMem=  1879048192 cpu:               3.3 elap:               0.1
 (Enter /opt/g16/l703.exe)
 Integral derivatives from FoFJK, PRISM(SPDF).
 Compute integral first derivatives, UseDBF=F ICtDFT=           0.
 Calling FoFJK, ICntrl=      2127 FMM=F ISym2X=0 I1Cent= 0 IOpClX= 1 NMat=1 NMatS=1 NMatT=0.
 FoFJK:  IHMeth= 1 ICntrl=    2127 DoSepK=T KAlg= 0 I1Cent=           0 FoldK=F
 IRaf=         1 NMat=       1 IRICut=       1 DoRegI=T DoRafI=F ISym2E= 0 IDoP0=0 IntGTp=1.
 FoFCou: FMM=F IPFlag=           0 FMFlag=      100000 FMFlg1=         800
         NFxFlg=           0 DoJE=F BraDBF=F KetDBF=F FulRan=T
         wScrn=  0.000000 ICntrl=      2527 IOpCl=  0 I1Cent=           0 NGrid=           0
         NMat0=    1 NMatS0=      1 NMatT0=    0 NMatD0=    1 NMtDS0=    0 NMtDT0=    0
 Symmetry not used in FoFCou.
 Leave Link  703 at Mon Mar  2 00:43:00 2020, MaxMem=  1879048192 cpu:             485.1 elap:              13.5
 (Enter /opt/g16/l716.exe)
 Dipole        =-6.04523518D-01 2.45153780D-01-4.51650131D-07
 ***** Axes restored to original set *****
 -------------------------------------------------------------------
 Center     Atomic                   Forces (Hartrees/Bohr)
 Number     Number              X              Y              Z
 -------------------------------------------------------------------
      1        7          -0.000036534   -0.000012912   -0.000002627
      2        6           0.000063160    0.000035200    0.000004579
      3        6          -0.000003606   -0.000001421   -0.000000281
      4        1           0.000000445    0.000001958    0.000000028
      5        6           0.000001515    0.000002334    0.000000060
      6        6          -0.000007999   -0.000000013   -0.000000519
      7        6           0.000023741    0.000003747    0.000001669
      8        6          -0.000041847   -0.000039304   -0.000002929
      9        1          -0.000005049    0.000002981   -0.000000379
     10        1          -0.000000084    0.000000074   -0.000000007
     11        1          -0.000001298    0.000001035   -0.000000104
     12        1           0.000007554    0.000006323    0.000000511
 -------------------------------------------------------------------
 Cartesian Forces:  Max     0.000063160 RMS     0.000017375
 Leave Link  716 at Mon Mar  2 00:43:00 2020, MaxMem=  1879048192 cpu:               3.8 elap:               0.1
 (Enter /opt/g16/l103.exe)

 GradGradGradGradGradGradGradGradGradGradGradGradGradGradGradGradGradGrad
 Berny optimization.
 Using GEDIIS/GDIIS optimizer.
 FormGI is forming the generalized inverse of G from B-inverse, IUseBI=4.
 GSVD:  received Info=                   1 from GESDD.
 Internal  Forces:  Max     0.000042738 RMS     0.000008243
 Search for a local minimum.
 Step number   2 out of a maximum of   61
 All quantities printed in internal units (Hartrees-Bohrs-Radians)
 RMS Force = .82434D-05 SwitMx=.10000D-02 MixMth= 2
 Mixed Optimization -- En-DIIS/RFO-DIIS
 Swapping is turned off.
 Update second derivatives using D2CorX and points    1    2
 DE= -2.88D-08 DEPred=-2.34D-08 R= 1.23D+00
 Trust test= 1.23D+00 RLast= 4.02D-04 DXMaxT set to 3.00D-01
 ITU=  0  0
     Eigenvalues ---    0.01694   0.01897   0.01962   0.02073   0.02154
     Eigenvalues ---    0.02200   0.02288   0.02451   0.02672   0.13236
     Eigenvalues ---    0.16000   0.16000   0.16000   0.17249   0.22207
     Eigenvalues ---    0.22873   0.23315   0.24867   0.31582   0.35546
     Eigenvalues ---    0.35641   0.35765   0.36465   0.40151   0.43962
     Eigenvalues ---    0.45925   0.47435   0.48742   0.51561   0.62637
 En-DIIS/RFO-DIIS/Sim-DIIS IScMMF=       -3 using points:     2    1
 RFO step:  Lambda=-1.09094750D-08.
 NNeg= 0 NGDIIS= 2 SimSw=  2.50D-03 Rises=F DC= -2.88D-08 SmlDif=  1.00D-05
 NRisDI= 0 DoIntr=F SqrtH=F CThrHd= 10.0 CDAdj=  3.0
 RMS Error=  0.3489118950D-04 NUsed= 2 OKEnD=F EnDIS=F
 InvSVX:  RCond= 4.03D-08 Info=           0 Equed=N FErr=  2.50D-15 BErr=  6.69D-17
 DIIS inversion failure, remove point   2.
 Use linear search instead of GDIIS.
 RFO step:  Lambda= 0.00000000D+00 EMin= 1.69350541D-02
 Quartic linear search produced a step of  0.35280.
 Iteration  1 RMS(Cart)=  0.00002918 RMS(Int)=  0.00000000
 Iteration  2 RMS(Cart)=  0.00000000 RMS(Int)=  0.00000000
 ITry= 1 IFail=0 DXMaxC= 1.03D-04 DCOld= 1.00D+10 DXMaxT= 3.00D-01 DXLimC= 3.00D+00 Rises=F
 Variable       Old X    -DE/DX   Delta X   Delta X   Delta X     New X
                                 (Linear)    (Quad)   (Total)
    R1        2.50547  -0.00004  -0.00003  -0.00008  -0.00011   2.50536
    R2        1.92738  -0.00001   0.00002  -0.00003  -0.00000   1.92738
    R3        2.69780   0.00000   0.00000   0.00001   0.00001   2.69781
    R4        2.72064   0.00003   0.00004   0.00008   0.00013   2.72077
    R5        2.04425   0.00000  -0.00001   0.00001   0.00000   2.04425
    R6        2.59695   0.00000  -0.00003   0.00002  -0.00001   2.59694
    R7        2.65051   0.00000  -0.00002   0.00002   0.00000   2.65051
    R8        2.04670   0.00000  -0.00001   0.00000  -0.00000   2.04670
    R9        2.60359   0.00001  -0.00001   0.00002   0.00001   2.60360
   R10        2.04502   0.00000  -0.00002   0.00001  -0.00001   2.04502
   R11        2.55376  -0.00002  -0.00005  -0.00003  -0.00007   2.55369
   R12        2.04868   0.00000  -0.00001   0.00001  -0.00001   2.04867
    A1        1.91989  -0.00000   0.00007  -0.00006   0.00001   1.91990
    A2        2.06490   0.00000   0.00003   0.00001   0.00004   2.06494
    A3        2.16891   0.00000  -0.00001   0.00001  -0.00000   2.16891
    A4        2.04937  -0.00001  -0.00002  -0.00002  -0.00004   2.04933
    A5        2.04281   0.00000   0.00001  -0.00000   0.00001   2.04282
    A6        2.12337   0.00000   0.00002   0.00000   0.00002   2.12339
    A7        2.11701  -0.00000  -0.00002   0.00000  -0.00002   2.11698
    A8        2.10347   0.00000  -0.00001   0.00001   0.00001   2.10348
    A9        2.09570  -0.00000   0.00001  -0.00001  -0.00000   2.09570
   A10        2.08402  -0.00000  -0.00000  -0.00001  -0.00001   2.08401
   A11        2.03558  -0.00000   0.00001  -0.00001  -0.00001   2.03558
   A12        2.11372  -0.00000  -0.00002   0.00000  -0.00002   2.11370
   A13        2.13388   0.00000   0.00001   0.00001   0.00002   2.13390
   A14        2.20673   0.00000   0.00001   0.00001   0.00002   2.20675
   A15        2.04785   0.00000  -0.00001   0.00001  -0.00000   2.04785
   A16        2.08788  -0.00001  -0.00004  -0.00007  -0.00012   2.08776
   A17        2.14746   0.00001   0.00005   0.00007   0.00012   2.14758
    D1        3.14159   0.00000  -0.00000   0.00000   0.00000  -3.14159
    D2        0.00000  -0.00000   0.00000  -0.00000  -0.00000  -0.00000
    D3        0.00000  -0.00000   0.00000  -0.00000  -0.00000  -0.00000
    D4       -3.14159  -0.00000   0.00000  -0.00000  -0.00000  -3.14159
    D5        3.14159   0.00000  -0.00000   0.00000   0.00000  -3.14159
    D6       -0.00000   0.00000  -0.00000   0.00000   0.00000   0.00000
    D7        3.14159   0.00000  -0.00000   0.00000   0.00000   3.14159
    D8       -0.00000   0.00000  -0.00000   0.00000   0.00000  -0.00000
    D9        0.00000  -0.00000   0.00000  -0.00000  -0.00000  -0.00000
   D10       -3.14159  -0.00000   0.00000  -0.00000  -0.00000   3.14159
   D11       -0.00000   0.00000  -0.00000   0.00000  -0.00000  -0.00000
   D12        3.14159  -0.00000   0.00000  -0.00000  -0.00000   3.14159
   D13        3.14159   0.00000   0.00000   0.00000   0.00000  -3.14159
   D14        0.00000  -0.00000   0.00000  -0.00000   0.00000   0.00000
   D15        0.00000  -0.00000   0.00000  -0.00000  -0.00000   0.00000
   D16        3.14159   0.00000   0.00000   0.00000   0.00000  -3.14159
   D17       -3.14159  -0.00000   0.00000  -0.00000  -0.00000   3.14159
   D18       -0.00000   0.00000  -0.00000   0.00000   0.00000   0.00000
   D19       -0.00000   0.00000  -0.00000   0.00000   0.00000  -0.00000
   D20       -3.14159  -0.00000  -0.00000  -0.00000  -0.00000   3.14159
   D21       -0.00000   0.00000   0.00000   0.00000   0.00000   0.00000
   D22        3.14159   0.00000   0.00000   0.00000   0.00000  -3.14159
         Item               Value     Threshold  Converged?
 Maximum Force            0.000043     0.000015     NO 
 RMS     Force            0.000008     0.000010     YES
 Maximum Displacement     0.000103     0.000060     NO 
 RMS     Displacement     0.000029     0.000040     YES
 Predicted change in Energy=-6.294328D-09
 Lowest energy point so far.  Saving SCF results.
 GradGradGradGradGradGradGradGradGradGradGradGradGradGradGradGradGradGrad

 Leave Link  103 at Mon Mar  2 00:43:02 2020, MaxMem=  1879048192 cpu:              62.9 elap:               1.9
 (Enter /opt/g16/l202.exe)
                          Input orientation:                          
 ---------------------------------------------------------------------
 Center     Atomic      Atomic             Coordinates (Angstroms)
 Number     Number       Type             X           Y           Z
 ---------------------------------------------------------------------
      1          7           0        2.254027    0.458861    0.160982
      2          6           0        0.968792    0.146688    0.069293
      3          6           0        0.017401    1.208756   -0.001198
      4          1           0        0.404641    2.218514    0.024573
      5          6           0       -1.331379    0.963736   -0.097588
      6          6           0       -1.815781   -0.352159   -0.129718
      7          6           0       -0.876604   -1.357822   -0.060218
      8          6           0        0.462143   -1.200571    0.035628
      9          1           0        2.817184   -0.390444    0.203156
     10          1           0       -2.030624    1.789203   -0.149488
     11          1           0       -2.875888   -0.555984   -0.205455
     12          1           0        1.153167   -2.034324    0.086955
 ---------------------------------------------------------------------
[...]
 Alpha virt. eigenvalues --    2.48486   2.57153   2.60280   2.61517   2.64357
 Alpha virt. eigenvalues --    2.64451   2.68888   2.70152   2.71060   2.72234
 Alpha virt. eigenvalues --    2.75323   2.75489   2.75698   2.81794   2.82018
 Alpha virt. eigenvalues --    2.82602   2.86264   2.86651   2.86859   2.89268
 Alpha virt. eigenvalues --    2.92239   2.95117   2.96397   3.03097   3.04108
 Alpha virt. eigenvalues --    3.05019   3.09386   3.12426   3.14669   3.15626
 Alpha virt. eigenvalues --    3.18007   3.18598   3.20368   3.22667   3.23552
 Alpha virt. eigenvalues --    3.27866   3.28092   3.29105   3.33609   3.34918
 Alpha virt. eigenvalues --    3.39797   3.40575   3.41196   3.42703   3.43415
 Alpha virt. eigenvalues --    3.44217   3.50995   3.53037   3.54828   3.55131
 Alpha virt. eigenvalues --    3.57129   3.58022   3.58483   3.67090   3.71506
 Alpha virt. eigenvalues --    3.71795   3.74684   3.80034   3.84955   3.89808
 Alpha virt. eigenvalues --    4.01674   4.02745   4.03967   4.06813   4.09394
 Alpha virt. eigenvalues --    4.11376   4.13548   4.18627   4.21921   4.27430
 Alpha virt. eigenvalues --    4.30155   4.30696   4.32613   4.34226   4.35770
 Alpha virt. eigenvalues --    4.50766   4.52983   4.63783   4.67956   4.69325
 Alpha virt. eigenvalues --    4.69463   4.72856   4.76505   4.81506   4.84704
 Alpha virt. eigenvalues --    4.91147   4.91286   4.99962   5.03766   5.15461
 Alpha virt. eigenvalues --    5.18628   5.28486   5.30560   5.33642   5.38748
 Alpha virt. eigenvalues --    5.50232   5.56225   5.64628   5.73324   6.05146
 Alpha virt. eigenvalues --   22.15252  22.58706  22.64983  22.77307  22.90975
 Alpha virt. eigenvalues --   23.27655  32.12162
  Beta  occ. eigenvalues --  -14.42819 -10.34034 -10.31559 -10.31471 -10.31096
  Beta  occ. eigenvalues --  -10.31050 -10.30301  -1.01046  -0.94352  -0.85634
  Beta  occ. eigenvalues --   -0.81737  -0.71501  -0.66767  -0.61557  -0.58233
  Beta  occ. eigenvalues --   -0.54366  -0.53185  -0.48295  -0.48235  -0.45668
  Beta  occ. eigenvalues --   -0.37954  -0.36398  -0.34593
  Beta virt. eigenvalues --   -0.05939  -0.02908   0.05841   0.09725   0.12430
  Beta virt. eigenvalues --    0.13298   0.16547   0.17802   0.18956   0.20082
  Beta virt. eigenvalues --    0.22269   0.25103   0.26761   0.27929   0.28295
  Beta virt. eigenvalues --    0.30031   0.31222   0.31736   0.33665   0.35045
  Beta virt. eigenvalues --    0.35540   0.36832   0.39927   0.40290   0.40665
  Beta virt. eigenvalues --    0.41587   0.42538   0.45207   0.47286   0.47571
  Beta virt. eigenvalues --    0.47818   0.49641   0.50169   0.51500   0.51563
  Beta virt. eigenvalues --    0.53344   0.55405   0.56396   0.56793   0.58714
  Beta virt. eigenvalues --    0.60095   0.61107   0.65734   0.68764   0.70039
  Beta virt. eigenvalues --    0.70894   0.74266   0.75421   0.76692   0.78170
  Beta virt. eigenvalues --    0.81233   0.81768   0.84246   0.87965   0.89087
  Beta virt. eigenvalues --    0.89165   0.95193   0.95288   0.96164   1.07881
  Beta virt. eigenvalues --    1.08425   1.09152   1.10237   1.15282   1.15361
  Beta virt. eigenvalues --    1.15492   1.20458   1.21207   1.26880   1.27049
  Beta virt. eigenvalues --    1.29380   1.30627   1.32621   1.35473   1.36124
  Beta virt. eigenvalues --    1.37969   1.42114   1.46290   1.46994   1.49546
  Beta virt. eigenvalues --    1.54462   1.54872   1.56459   1.56887   1.57914
  Beta virt. eigenvalues --    1.61382   1.63716   1.65086   1.68889   1.69496
  Beta virt. eigenvalues --    1.73287   1.74651   1.76919   1.77111   1.81754
  Beta virt. eigenvalues --    1.85096   1.86487   1.90442   1.93467   1.96807
  Beta virt. eigenvalues --    2.01585   2.03360   2.04768   2.08234   2.08634
  Beta virt. eigenvalues --    2.15349   2.17335   2.20205   2.22124   2.26202
  Beta virt. eigenvalues --    2.28651   2.29927   2.32031   2.36701   2.42264
  Beta virt. eigenvalues --    2.44141   2.48186   2.49357   2.58015   2.61307
  Beta virt. eigenvalues --    2.62216   2.65180   2.66022   2.69731   2.70699
  Beta virt. eigenvalues --    2.71507   2.72740   2.76170   2.76573   2.76586
  Beta virt. eigenvalues --    2.82557   2.83262   2.83542   2.87185   2.87192
  Beta virt. eigenvalues --    2.88245   2.90104   2.92891   2.95542   2.97309
  Beta virt. eigenvalues --    3.04693   3.04823   3.05752   3.10777   3.14057
  Beta virt. eigenvalues --    3.15783   3.16351   3.19166   3.19549   3.22162
  Beta virt. eigenvalues --    3.23286   3.25566   3.28949   3.28983   3.30058
  Beta virt. eigenvalues --    3.34523   3.36053   3.40538   3.41634   3.42708
  Beta virt. eigenvalues --    3.43681   3.45011   3.45805   3.52699   3.54358
  Beta virt. eigenvalues --    3.56506   3.56657   3.59067   3.59358   3.59800
  Beta virt. eigenvalues --    3.68434   3.72836   3.72980   3.76207   3.81622
  Beta virt. eigenvalues --    3.86315   3.90793   4.02404   4.04380   4.04899
  Beta virt. eigenvalues --    4.08446   4.10466   4.12380   4.15007   4.19686
  Beta virt. eigenvalues --    4.23397   4.28472   4.30836   4.32045   4.33551
  Beta virt. eigenvalues --    4.36426   4.37498   4.52865   4.54614   4.66097
  Beta virt. eigenvalues --    4.69899   4.70385   4.71454   4.76102   4.78393
  Beta virt. eigenvalues --    4.83367   4.85858   4.92257   4.94971   5.03060
  Beta virt. eigenvalues --    5.04515   5.16852   5.20159   5.29524   5.32900
  Beta virt. eigenvalues --    5.34783   5.39647   5.51375   5.57205   5.65756
  Beta virt. eigenvalues --    5.74387   6.05785  22.16062  22.59561  22.65633
  Beta virt. eigenvalues --   22.77936  22.91268  23.27706  32.13550
          Condensed to atoms (all electrons):
               1          2          3          4          5          6
     1  N    6.542530   0.572785  -0.064687   0.010427   0.002930  -0.003007
     2  C    0.572785   4.686700   0.437861  -0.036264  -0.022411  -0.042415
     3  C   -0.064687   0.437861   4.973696   0.415986   0.518454  -0.011855
     4  H    0.010427  -0.036264   0.415986   0.506791  -0.049633   0.010892
     5  C    0.002930  -0.022411   0.518454  -0.049633   4.853353   0.435677
     6  C   -0.003007  -0.042415  -0.011855   0.010892   0.435677   4.918261
     7  C    0.027655   0.044496  -0.066407  -0.007234   0.004776   0.475691
     8  C   -0.125427   0.330969  -0.008079   0.017822  -0.055249  -0.000909
     9  H    0.356308  -0.086361   0.011907  -0.001529  -0.000158  -0.000846
    10  H   -0.000038   0.009989  -0.048113  -0.007218   0.433290  -0.051625
    11  H   -0.000001  -0.002013   0.005805  -0.000030  -0.046822   0.425116
    12  H   -0.003803  -0.047351   0.005409  -0.000111  -0.000949   0.004117
               7          8          9         10         11         12
     1  N    0.027655  -0.125427   0.356308  -0.000038  -0.000001  -0.003803
     2  C    0.044496   0.330969  -0.086361   0.009989  -0.002013  -0.047351
     3  C   -0.066407  -0.008079   0.011907  -0.048113   0.005805   0.005409
     4  H   -0.007234   0.017822  -0.001529  -0.007218  -0.000030  -0.000111
     5  C    0.004776  -0.055249  -0.000158   0.433290  -0.046822  -0.000949
     6  C    0.475691  -0.000909  -0.000846  -0.051625   0.425116   0.004117
     7  C    5.196898   0.320628   0.009995   0.010093  -0.039431  -0.020801
     8  C    0.320628   5.378898  -0.026710  -0.004280   0.007823   0.411320
     9  H    0.009995  -0.026710   0.527509   0.000034  -0.000007   0.002415
    10  H    0.010093  -0.004280   0.000034   0.528467  -0.004386   0.000053
    11  H   -0.039431   0.007823  -0.000007  -0.004386   0.507598  -0.000064
    12  H   -0.020801   0.411320   0.002415   0.000053  -0.000064   0.510296
          Atomic-Atomic Spin Densities.
               1          2          3          4          5          6
     1  N    0.686170  -0.026363  -0.028228  -0.001480   0.000520  -0.000005
     2  C   -0.026363  -0.101988   0.003978   0.000107   0.008277  -0.004003
     3  C   -0.028228   0.003978   0.290094   0.002535  -0.004619  -0.009293
     4  H   -0.001480   0.000107   0.002535  -0.006340  -0.000961   0.000532
     5  C    0.000520   0.008277  -0.004619  -0.000961  -0.096338   0.017861
     6  C   -0.000005  -0.004003  -0.009293   0.000532   0.017861   0.297737
     7  C    0.005942  -0.008887  -0.020317  -0.002269  -0.008880  -0.005215
     8  C   -0.024600   0.043781   0.022510   0.000779   0.000674  -0.005827
     9  H   -0.000718   0.000557   0.001221  -0.000048   0.000067  -0.000073
    10  H    0.000128   0.001570  -0.005411  -0.001340   0.000631  -0.005831
    11  H    0.000028   0.000814  -0.001207  -0.000082  -0.003874   0.006309
    12  H    0.003341  -0.006785  -0.001361  -0.000094   0.000262  -0.001678
               7          8          9         10         11         12
     1  N    0.005942  -0.024600  -0.000718   0.000128   0.000028   0.003341
     2  C   -0.008887   0.043781   0.000557   0.001570   0.000814  -0.006785
     3  C   -0.020317   0.022510   0.001221  -0.005411  -0.001207  -0.001361
     4  H   -0.002269   0.000779  -0.000048  -0.001340  -0.000082  -0.000094
     5  C   -0.008880   0.000674   0.000067   0.000631  -0.003874   0.000262
     6  C   -0.005215  -0.005827  -0.000073  -0.005831   0.006309  -0.001678
     7  C    0.839365  -0.007215   0.000378   0.004875  -0.003051   0.000697
     8  C   -0.007215   0.191035  -0.002173  -0.001696  -0.003293   0.000067
     9  H    0.000378  -0.002173  -0.016272   0.000008   0.000004   0.001677
    10  H    0.004875  -0.001696   0.000008   0.020758   0.001827   0.000032
    11  H   -0.003051  -0.003293   0.000004   0.001827   0.008344   0.000077
    12  H    0.000697   0.000067   0.001677   0.000032   0.000077   0.017057
 Mulliken charges and spin densities:
               1          2
     1  N   -0.315674   0.614735
     2  C    0.154014  -0.088942
     3  C   -0.169977   0.249901
     4  H    0.140101  -0.008660
     5  C   -0.073260  -0.086379
     6  C   -0.159097   0.290513
     7  C    0.043639   0.795424
     8  C   -0.246806   0.214043
     9  H    0.207444  -0.015373
    10  H    0.133735   0.015550
    11  H    0.146411   0.005897
    12  H    0.139470   0.013291
 Sum of Mulliken charges =  -0.00000   2.00000
 Mulliken charges and spin densities with hydrogens summed into heavy atoms:
               1          2
     1  N   -0.108230   0.599363
     2  C    0.154014  -0.088942
     3  C   -0.029877   0.241241
     5  C    0.060475  -0.070828
     6  C   -0.012686   0.296410
     7  C    0.043639   0.795424
     8  C   -0.107336   0.227334
 Electronic spatial extent (au):  <R**2>=            621.9128
 Charge=              0.0000 electrons
 Dipole moment (field-independent basis, Debye):
    X=             -1.5366    Y=              0.6230    Z=              0.0000  Tot=              1.6581
 Quadrupole moment (field-independent basis, Debye-Ang):
   XX=            -39.3850   YY=            -38.0984   ZZ=            -43.5621
   XY=              6.7048   XZ=             -0.0000   YZ=              0.0000
 Traceless Quadrupole moment (field-independent basis, Debye-Ang):
   XX=              0.9635   YY=              2.2501   ZZ=             -3.2136
   XY=              6.7048   XZ=             -0.0000   YZ=              0.0000
 Octapole moment (field-independent basis, Debye-Ang**2):
  XXX=            -14.5350  YYY=             -7.1856  ZZZ=              0.0000  XYY=              3.2320
  XXY=             11.5967  XXZ=              0.0000  XZZ=              2.6284  YZZ=             -0.4743
  YYZ=              0.0000  XYZ=             -0.0000
 Hexadecapole moment (field-independent basis, Debye-Ang**3):
 XXXX=           -499.3118 YYYY=           -269.7364 ZZZZ=            -49.0286 XXXY=             46.3799
 XXXZ=             -0.0000 YYYX=             20.9606 YYYZ=              0.0000 ZZZX=             -0.0000
 ZZZY=              0.0000 XXYY=           -132.8065 XXZZ=           -102.1727 YYZZ=            -60.9910
 XXYZ=             -0.0000 YYXZ=              0.0000 ZZXY=              1.6613
 N-N= 2.524260376119D+02 E-N=-1.169850588551D+03  KE= 2.849392381229D+02
                          Isotropic Fermi Contact Couplings
        Atom                 a.u.       MegaHertz       Gauss      10(-4) cm-1
     1  N(14)              0.05431       8.77316       3.13048       2.92641
     2  C(13)              0.00135       0.75895       0.27081       0.25316
     3  C(13)              0.01193       6.70812       2.39362       2.23759
     4  H(1)              -0.00355      -7.93254      -2.83053      -2.64601
     5  C(13)              0.02389      13.42639       4.79087       4.47856
     6  C(13)              0.03527      19.82358       7.07355       6.61243
     7  C(13)              0.29946     168.32545      60.06271      56.14733
     8  C(13)              0.02357      13.25103       4.72830       4.42007
     9  H(1)              -0.00791     -17.67575      -6.30715      -5.89600
    10  H(1)               0.00564      12.61059       4.49977       4.20644
    11  H(1)               0.00500      11.18082       3.98960       3.72952
    12  H(1)               0.00824      18.41687       6.57160       6.14321
 --------------------------------------------------------
       Center         ----  Spin Dipole Couplings  ----
                      3XX-RR        3YY-RR        3ZZ-RR
 --------------------------------------------------------
     1   Atom       -0.668348     -0.694940      1.363288
     2   Atom        0.095582      0.127386     -0.222968
     3   Atom       -0.155630     -0.143696      0.299327
     4   Atom       -0.011708      0.018978     -0.007270
     5   Atom        0.052328      0.124308     -0.176635
     6   Atom       -0.186372     -0.112587      0.298960
     7   Atom       -0.214021      0.798080     -0.584058
     8   Atom       -0.046102     -0.150861      0.196963
     9   Atom       -0.022961      0.038240     -0.015279
    10   Atom        0.003392      0.007452     -0.010844
    11   Atom        0.039361     -0.026761     -0.012601
    12   Atom        0.014340      0.001764     -0.016104
 --------------------------------------------------------
                        XY            XZ            YZ
 --------------------------------------------------------
     1   Atom       -0.029704      0.000000      0.000000
     2   Atom       -0.055302     -0.000000      0.000000
     3   Atom       -0.004518     -0.000000      0.000000
     4   Atom       -0.012089     -0.000000      0.000000
     5   Atom       -0.035548      0.000000     -0.000000
     6   Atom        0.044321      0.000000     -0.000000
     7   Atom       -0.580530     -0.000000      0.000000
     8   Atom       -0.037174     -0.000000     -0.000000
     9   Atom        0.058915     -0.000000     -0.000000
    10   Atom       -0.001086      0.000000     -0.000000
    11   Atom        0.010413     -0.000000      0.000000
    12   Atom        0.022459      0.000000      0.000000
 --------------------------------------------------------


 ---------------------------------------------------------------------------------
              Anisotropic Spin Dipole Couplings in Principal Axis System
 ---------------------------------------------------------------------------------

       Atom             a.u.   MegaHertz   Gauss  10(-4) cm-1        Axes

              Baa    -0.7142   -27.545    -9.829    -9.188  0.5438  0.8392 -0.0000
     1 N(14)  Bbb    -0.6491   -25.034    -8.933    -8.351  0.8392 -0.5438 -0.0000
              Bcc     1.3633    52.579    18.761    17.538  0.0000  0.0000  1.0000
 
              Baa    -0.2230   -29.920   -10.676    -9.980  0.0000 -0.0000  1.0000
     2 C(13)  Bbb     0.0539     7.238     2.583     2.414  0.7989  0.6015 -0.0000
              Bcc     0.1690    22.682     8.093     7.566 -0.6015  0.7989  0.0000
 
              Baa    -0.1571   -21.088    -7.525    -7.034  0.9480  0.3184  0.0000
     3 C(13)  Bbb    -0.1422   -19.079    -6.808    -6.364 -0.3184  0.9480 -0.0000
              Bcc     0.2993    40.167    14.333    13.398 -0.0000  0.0000  1.0000
 
              Baa    -0.0159    -8.483    -3.027    -2.830  0.9448  0.3275  0.0000
     4 H(1)   Bbb    -0.0073    -3.879    -1.384    -1.294 -0.0000 -0.0000  1.0000
              Bcc     0.0232    12.362     4.411     4.123 -0.3275  0.9448  0.0000
 
              Baa    -0.1766   -23.703    -8.458    -7.906 -0.0000  0.0000  1.0000
     5 C(13)  Bbb     0.0377     5.063     1.807     1.689  0.9251  0.3798  0.0000
              Bcc     0.1389    18.640     6.651     6.217 -0.3798  0.9251 -0.0000
 
              Baa    -0.2071   -27.797    -9.919    -9.272  0.9055 -0.4244 -0.0000
     6 C(13)  Bbb    -0.0918   -12.320    -4.396    -4.110  0.4244  0.9055 -0.0000
              Bcc     0.2990    40.118    14.315    13.382  0.0000 -0.0000  1.0000
 
              Baa    -0.5841   -78.375   -27.966   -26.143 -0.0000 -0.0000  1.0000
     7 C(13)  Bbb    -0.4781   -64.157   -22.893   -21.400  0.9102  0.4141  0.0000
              Bcc     1.0622   142.532    50.859    47.543 -0.4141  0.9102  0.0000
 
              Baa    -0.1627   -21.834    -7.791    -7.283  0.3037  0.9528  0.0000
     8 C(13)  Bbb    -0.0343    -4.596    -1.640    -1.533  0.9528 -0.3037  0.0000
              Bcc     0.1970    26.431     9.431     8.816 -0.0000 -0.0000  1.0000
 
              Baa    -0.0587   -31.346   -11.185   -10.456  0.8547 -0.5192  0.0000
     9 H(1)   Bbb    -0.0153    -8.152    -2.909    -2.719  0.0000  0.0000  1.0000
              Bcc     0.0740    39.498    14.094    13.175  0.5192  0.8547 -0.0000
 
              Baa    -0.0108    -5.786    -2.065    -1.930 -0.0000  0.0000  1.0000
    10 H(1)   Bbb     0.0031     1.665     0.594     0.555  0.9700  0.2431  0.0000
              Bcc     0.0077     4.121     1.471     1.375 -0.2431  0.9700 -0.0000
 
              Baa    -0.0284   -15.132    -5.400    -5.048 -0.1520  0.9884 -0.0000
    11 H(1)   Bbb    -0.0126    -6.723    -2.399    -2.243  0.0000  0.0000  1.0000
              Bcc     0.0410    21.856     7.799     7.290  0.9884  0.1520 -0.0000
 
              Baa    -0.0161    -8.592    -3.066    -2.866  0.0000 -0.0000  1.0000
    12 H(1)   Bbb    -0.0153    -8.148    -2.907    -2.718 -0.6043  0.7967  0.0000
              Bcc     0.0314    16.740     5.973     5.584  0.7967  0.6043  0.0000
 

 ---------------------------------------------------------------------------------

 No NMR shielding tensors so no spin-rotation constants.
 Leave Link  601 at Mon Mar  2 00:45:17 2020, MaxMem=  1879048192 cpu:              19.0 elap:               0.6
 (Enter /opt/g16/l9999.exe)

 Test job not archived.
 1\1\GINC-NODE08\FOpt\UwB97XD\def2TZVP\C6H5N1(3)\ALONGD\02-Mar-2020\0\\
 #P opt=(tight) guess=read uwb97xd/def2tzvp scf=(tight, direct) integra
 l=(grid=ultrafine, Acc2E=12) scf=xqc iop(2/9=2000)\\name\\0,3\N,2.2540
 268351,0.458860918,0.1609823751\C,0.968791818,0.1466883839,0.069293481
 6\C,0.0174013227,1.208756389,-0.0011984824\H,0.404641349,2.218514451,0
 .0245725714\C,-1.3313791376,0.9637364938,-0.0975877242\C,-1.8157810886
 ,-0.3521590885,-0.1297179104\C,-0.8766041797,-1.3578216432,-0.06021784
 12\C,0.4621428819,-1.2005714708,0.0356283827\H,2.8171840799,-0.3904438
 47,0.2031555678\H,-2.0306239547,1.7892025538,-0.1494880841\H,-2.875887
 5663,-0.5559835962,-0.2054548723\H,1.1531666403,-2.0343235439,0.086954
 5361\\Version=ES64L-G16RevB.01\State=3-A\HF=-286.2620498\S2=2.041436\S
 2-1=0.\S2A=2.000641\RMSD=5.590e-09\RMSF=4.013e-06\Dipole=-0.5843669,-0
 .2869952,-0.0413952\Quadrupole=1.3990071,0.9691819,-2.368189,-4.989297
 2,0.2822211,-0.3651939\PG=C01 [X(C6H5N1)]\\@


 THE FIRST AND LAST THING REQUIRED OF GENIUS IS THE LOVE OF TRUTH.

                          -- GOETHE
 Job cpu time:       0 days  3 hours 14 minutes 27.0 seconds.
 Elapsed time:       0 days  0 hours  5 minutes 26.1 seconds.
 File lengths (MBytes):  RWF=     62 Int=      0 D2E=      0 Chk=      7 Scr=      1
 Normal termination of Gaussian 16 at Mon Mar  2 00:45:17 2020.
