
 Working directory              : /tmp/molpro.itm5kNVNkD/
 Global scratch directory       : /tmp/molpro.itm5kNVNkD/
 Wavefunction directory         : /srv01/technion/alongd/wfu/
 Main file repository           : /tmp/molpro.itm5kNVNkD/

 id        : dana

 Nodes     nprocs
 tech-wn215    9
 Distribution of processes:   nprocs(total)=   10   nprocs(compute)=    9   nprocs(helper)=    1
 GA implementation: MPI file
 GA implementation (serial work in mppx): MPI file

 Using customized tuning parameters: mindgm=1; mindgv=20; mindgc=4; mindgr=1; noblas=0; minvec=7
 default implementation of scratch files=sf  


 Variables initialized (1009), CPU time= 0.01 sec
 ***,ONHO[T]
 memory,81,m;
 
 geometry={angstrom;
 O       1.16311000   -0.40014300   -0.07491100
 N      -0.01347400    0.09324800    0.23645300
 O      -0.98340400   -0.73991000   -0.06323900
 H      -0.16623100    1.04680500   -0.09830300}
 
 basis=cc-pvtz-f12
 
 
 
 int;
 {hf;
 maxit,1000;
 wf,spin=2,charge=0;}
 
 uccsd(t)-f12;
 
 
 
 Commands initialized (810), CPU time= 0.01 sec, 661 directives.
 Default parameters read. Elapsed time= 0.19 sec

 Checking input...
 Passed
1


                                         ***  PROGRAM SYSTEM MOLPRO  ***
                                       Copyright, TTI GmbH Stuttgart, 2015
                                    Version 2021.2 linked Jul 16 2021 12:17:16


 **********************************************************************************************************************************
 LABEL *   ONHO[T]                                                                       
  64 bit mpp version                                                                     DATE: 22-May-23          TIME: 05:03:35  
 **********************************************************************************************************************************

 SHA1:             dade016a989826d9d859d6207854b99675d53db3
 **********************************************************************************************************************************

 Memory per process:        81 MW
 Total memory per node:    729 MW

 GA preallocation disabled
 GA check disabled

 Variable memory set to 81.0 MW


 Geometry recognized as XYZ

 SETTING BASIS          =    CC-PVTZ-F12


 Using spherical harmonics

 Library entry O      S cc-pVTZ-F12          selected for orbital group  1
 Library entry O      P cc-pVTZ-F12          selected for orbital group  1
 Library entry O      D cc-pVTZ-F12          selected for orbital group  1
 Library entry O      F cc-pVTZ-F12          selected for orbital group  1
 Library entry N      S cc-pVTZ-F12          selected for orbital group  2
 Library entry N      P cc-pVTZ-F12          selected for orbital group  2
 Library entry N      D cc-pVTZ-F12          selected for orbital group  2
 Library entry N      F cc-pVTZ-F12          selected for orbital group  2
 Library entry H      S cc-pVTZ-F12          selected for orbital group  4
 Library entry H      P cc-pVTZ-F12          selected for orbital group  4
 Library entry H      D cc-pVTZ-F12          selected for orbital group  4


 PROGRAM * SEWARD (Integral evaluation for generally contracted gaussian basis sets)     Author: Roland Lindh, 1990

 Geometry written to block  1 of record 700


 Point group  C1  



 ATOMIC COORDINATES

 NR  ATOM    CHARGE       X              Y              Z

   1  O       8.00    2.197959353   -0.756160681   -0.141561274
   2  N       7.00   -0.025462170    0.176213182    0.446831411
   3  O       8.00   -1.858364230   -1.398227257   -0.119504390
   4  H       1.00   -0.314131063    1.978174756   -0.185765747

 Bond lengths in Bohr (Angstrom)

 1-2  2.481759505  2-3  2.481759234  2-4  1.931469495
     ( 1.313290573)     ( 1.313290430)     ( 1.022089640)

 Bond angles

  1-2-3  111.66797230   1-2-4  114.00065603   3-2-4  114.00063237

 NUCLEAR CHARGE:                   24
 NUMBER OF PRIMITIVE AOS:         237
 NUMBER OF SYMMETRY AOS:          209
 NUMBER OF CONTRACTIONS:          177   (  177A   )
 NUMBER OF INNER CORE ORBITALS:     0   (    0A   )
 NUMBER OF OUTER CORE ORBITALS:     3   (    3A   )
 NUMBER OF VALENCE ORBITALS:       13   (   13A   )


 NUCLEAR REPULSION ENERGY   68.64579960


 Eigenvalues of metric

         1 0.187E-03 0.375E-03 0.383E-03 0.529E-03 0.542E-03 0.557E-03 0.593E-03 0.650E-03


 Contracted 2-electron integrals neglected if value below      1.0D-11
 AO integral compression algorithm  1   Integral accuracy      1.0D-11

     614.728 MB (compressed) written to integral file ( 50.3%)

     Node minimum: 55.050 MB, node maximum: 78.119 MB


 NUMBER OF SORTED TWO-ELECTRON INTEGRALS:   13789125.     BUFFER LENGTH:  32768
 NUMBER OF SEGMENTS:   1  SEGMENT LENGTH:   13789125      RECORD LENGTH: 524288

 Memory used in sort:      14.35 MW

 SORT1 READ   152879757. AND WROTE    13315607. INTEGRALS IN     39 RECORDS. CPU TIME:     3.29 SEC, REAL TIME:     3.52 SEC
 SORT2 READ   119810212. AND WROTE   124086381. INTEGRALS IN   2277 RECORDS. CPU TIME:     0.34 SEC, REAL TIME:     1.05 SEC

 Node minimum:    13780375.  Node maximum:    13794378. integrals

 OPERATOR DM      FOR CENTER  0  COORDINATES:    0.000000    0.000000    0.000000


 **********************************************************************************************************************************
 DATASETS  * FILE   NREC   LENGTH (MB)   RECORD NAMES
              1      18       29.74       500      610      700      900      950      970     1000      129      960     1100   
                                          VAR    BASINP    GEOM    SYMINP    ZMAT    AOBASIS   BASIS     P2S    ABASIS      S 
                                         1400     1410     1200     1210     1080     1600     1650     1700   
                                           T        V       H0       H01     AOSYM     SMH    MOLCAS    OPER   

 PROGRAMS   *        TOTAL       INT
 CPU TIMES  *         5.00      4.74
 REAL TIME  *         6.76 SEC
 DISK USED  *        30.09 MB (local),        2.18 GB (total)
 GA USED    *         0.00 MB       (max)       0.00 MB       (current)
 **********************************************************************************************************************************


 Program * Restricted Hartree-Fock

 Orbital guess generated from atomic densities. Full valence occupancy:   16

 Initial alpha occupancy:  13
 Initial beta  occupancy:  11

 NELEC=   24   SYM=1   MS2= 2   THRE=1.0D-08   THRD=3.2D-06   THRG=3.2D-06  HFMA2=F  DIIS_START=2   DIIS_MAX=10   DIIS_INCORE=F

 Level shifts:    0.00 (CLOSED)    0.00 (OPEN)    0.30 (GAP_MIN)

 ITER           ETOT              DE          GRAD        DDIFF     DIIS  NEXP   TIME(IT)  TIME(TOT)  DIAG
   1     -204.50816248    -204.50816248     0.00D+00     0.51D-01     0     0       0.20      0.37    start
   2     -204.56862228      -0.06045980     0.69D-02     0.73D-02     1     0       0.19      0.56    diag2
   3     -204.60593664      -0.03731435     0.47D-02     0.34D-02     2     0       0.19      0.75    diag2
   4     -204.61271823      -0.00678159     0.76D-03     0.84D-03     3     0       0.21      0.96    diag2
   5     -204.61956180      -0.00684358     0.52D-03     0.73D-03     4     0       0.20      1.16    diag2
   6     -204.62468678      -0.00512498     0.51D-03     0.53D-03     5     0       0.18      1.34    diag2
   7     -204.63097347      -0.00628669     0.52D-03     0.67D-03     6     0       0.18      1.52    diag2
   8     -204.61701361       0.01395986     0.53D-03     0.16D-02     7     0       0.19      1.71    diag2
   9     -204.59732447       0.01968915     0.48D-03     0.26D-02     8     0       0.19      1.90    diag2
  10     -204.59669942       0.00062504     0.69D-03     0.36D-03     9     0       0.19      2.09    diag2/orth
  11     -204.59156820       0.00513122     0.90D-03     0.17D-02     9     0       0.18      2.27    diag2
  12     -204.58675148       0.00481673     0.75D-03     0.89D-03     9     0       0.20      2.47    diag2
  13     -204.59097883      -0.00422735     0.12D-02     0.57D-03     9     0       0.19      2.66    diag2
  14     -204.59032950       0.00064933     0.72D-03     0.16D-03     9     0       0.20      2.86    diag2
  15     -204.58784321       0.00248630     0.81D-03     0.32D-03     9     0       0.20      3.06    diag2
  16     -204.59212620      -0.00428299     0.11D-02     0.65D-03     9     0       0.19      3.25    diag2
  17     -204.59381255      -0.00168635     0.61D-03     0.46D-03     9     0       0.20      3.45    diag2
  18     -204.59427810      -0.00046555     0.29D-03     0.28D-03     9     0       0.20      3.65    diag2
  19     -204.59430073      -0.00002262     0.12D-03     0.22D-03     9     0       0.19      3.84    diag2
  20     -204.59428590       0.00001482     0.37D-04     0.11D-03     9     0       0.19      4.03    diag2/orth
  21     -204.59430477      -0.00001887     0.53D-04     0.92D-04     9     0       0.20      4.23    diag2
  22     -204.59430467       0.00000010     0.54D-05     0.17D-04     9     0       0.19      4.42    diag2
  23     -204.59430508      -0.00000040     0.65D-05     0.12D-04     9     0       0.20      4.62    diag2
  24     -204.59430509      -0.00000001     0.88D-06     0.31D-05     9     0       0.20      4.82    diag2
  25     -204.59430509      -0.00000001     0.84D-06     0.94D-06     0     0       0.18      5.00    diag

 Final alpha occupancy:  13
 Final beta  occupancy:  11

 !RHF STATE 1.1 Energy               -204.594305094369
  RHF One-electron energy            -416.979880956712
  RHF Two-electron energy             143.739776264723
  RHF Kinetic energy                  204.276244177975
  RHF Nuclear energy                   68.645799597620
  RHF Virial quotient                  -1.001557013728

 !RHF STATE 1.1 Dipole moment          -0.19669853     1.24700707     0.06345251
 Dipole moment /Debye                  -0.49995780     3.16957581     0.16128018

 Orbital energies:

           1.1          2.1          3.1          4.1          5.1          6.1          7.1          8.1          9.1         10.1
    -20.654690   -20.654619   -15.797142    -1.550131    -1.350629    -1.028033    -0.767777    -0.712159    -0.689357    -0.528380

          11.1         12.1         13.1         14.1         15.1
     -0.490295    -0.568787    -0.485154     0.051998     0.085680


 HOMO     13.1    -0.485154 =     -13.2017eV
 LUMO     14.1     0.051998 =       1.4149eV
 LUMO-HOMO         0.537152 =      14.6166eV

 Orbitals saved in record  2100.2


 **********************************************************************************************************************************
 DATASETS  * FILE   NREC   LENGTH (MB)   RECORD NAMES
              1      18       29.74       500      610      700      900      950      970     1000      129      960     1100   
                                          VAR    BASINP    GEOM    SYMINP    ZMAT    AOBASIS   BASIS     P2S    ABASIS      S 
                                         1400     1410     1200     1210     1080     1600     1650     1700   
                                           T        V       H0       H01     AOSYM     SMH    MOLCAS    OPER   

              2       4        3.66       700     1000      520     2100   
                                         GEOM     BASIS   MCVARS     RHF  

 PROGRAMS   *        TOTAL    HF-SCF       INT
 CPU TIMES  *        10.08      5.06      4.74
 REAL TIME  *        12.33 SEC
 DISK USED  *        37.79 MB (local),        2.25 GB (total)
 GA USED    *         0.00 MB       (max)       0.00 MB       (current)
 **********************************************************************************************************************************


 PROGRAM * CCSD (Unrestricted open-shell coupled cluster)     Authors: C. Hampel, H.-J. Werner, 1991, M. Deegan, P.J. Knowles, 1992

                           UCCSD-F12 implementation by G. Knizia and H.-J. Werner, 2008

                   Density fitting integral evaluation by F.R. Manby, 2003,2007, G. Knizia, 2010


 Basis set VTZ-F12/JKFIT generated.      Number of basis functions:   358 
 Basis set CC-PVTZ-F12/OPTRI generated.  Number of basis functions:   266 
 Basis set CC-PVTZ-F12/MP2FIT generated. Number of basis functions:   364 

 Convergence thresholds:  THRVAR = 1.00D-08  THRDEN = 1.00D-06

 CCSD(T)     terms to be evaluated (factor= 1.000)


 Number of core orbitals:           3 (   3 )
 Number of closed-shell orbitals:   8 (   8 )
 Number of active  orbitals:        2 (   2 )
 Number of external orbitals:     164 ( 164 )

 For full I/O caching in triples, increase memory by 4.40 Mwords to 85.45 Mwords.

 Number of N-1 electron functions:              18
 Number of N-2 electron functions:             153
 Number of singly external CSFs:              2988
 Number of doubly external CSFs:           3204215
 Total number of CSFs:                     3207203

 Molecular orbitals read from record     2100.2  Type=RHF/CANONICAL  

 Integral transformation finished. Total CPU:   3.77 sec, npass=  1  Memory used:  34.24 MW

 Geminal basis:    OPTFULL  GEM_TYPE=SLATER  BETA=1.0  NGEM=6

 Optimizing Gaussian exponents for each gem_beta

 Geminal optimization for beta= 1.0000
 Weight function:   m=0, omega= 1.4646

 Augmented Hessian optimization of geminal fit. Trust ratio= 0.40000
 Convergence reached after   2 iterations. Final gradient= 8.66D-16, Step= 4.23D-06, Delta= 1.28D-09

 Alpha:                 0.19532     0.81920     2.85917     9.50073    35.69989   197.79328
 Coeff:                 0.27070     0.30552     0.18297     0.10986     0.06810     0.04224


 WFN_F12=FIX,EG    DECOUPLE_EXPL=F   HYBRID=0    NOX=F   SEMIINT_F12=T   CORE_SINGLES=F


 AO(A)-basis ORBITAL           loaded. Number of functions:     177
 RI(R)-basis CC-PVTZ-F12/OPTRI loaded. Number of functions:     266
 DF-basis VTZ-F12/JKFIT        loaded. Number of functions:     358

 Screening thresholds:   THRAO=  1.00D-10  THRMO=  1.00D-09  THRPROD=  1.00D-09
                         THRSW=  1.00D-05  THROV=  1.00D-12  THRAOF12= 1.00D-08

 CPU time for one-electron matrices               0.43 sec

 Construction of ABS:
 Pseudo-inverse stability          1.22E-12
 Smallest eigenvalue of S          5.64E-04  (threshold= 1.00E-08)
 Ratio eigmin/eigmax               8.61E-05  (threshold= 1.00E-09)
 Smallest eigenvalue of S kept     5.64E-04  (threshold= 5.64E-04, 0 functions deleted, 266 kept)

 Construction of CABS:
 Pseudo-inverse stability          1.09E-10
 Smallest eigenvalue of S          1.32E-06  (threshold= 1.00E-08)
 Ratio eigmin/eigmax               1.32E-06  (threshold= 1.00E-09)
 Smallest eigenvalue of S kept     1.32E-06  (threshold= 1.32E-06, 0 functions deleted, 266 kept)

 CPU time for basis constructions                 0.04 sec
 Fock operators(MO) rebuilt from dump record.
 CPU time for Fock operator transformation        0.07 sec

                                      TOTAL          ALPHA          BETA    
  Singles Contributions MO        -0.014322449   -0.006918469   -0.007403980
  Singles Contributions CABS      -0.001920198   -0.001097200   -0.000822997
  Pure DF-RHF relaxation          -0.001885518

 CPU time for RHF CABS relaxation                 0.07 sec
 CPU time for singles (tot)                       0.16 sec

 AO(A)-basis ORBITAL           loaded. Number of functions:     177
 RI(R)-basis CC-PVTZ-F12/OPTRI loaded. Number of functions:     266
 DF-basis CC-PVTZ-F12/MP2FIT   loaded. Number of functions:     364

 Screening thresholds:   THRAO=  1.00D-10  THRMO=  1.00D-09  THRPROD=  1.00D-09
                         THRSW=  1.00D-05  THROV=  1.00D-12  THRAOF12= 1.00D-08

 CPU time for transformed integrals               1.80 sec
 CPU time for F12 matrices                        1.76 sec

 Diagonal F12 ansatz with fixed amplitudes:   TS= 0.5000  TT= 0.2500  TN= 0.3750

 ITER.     SQ.NORM      CORR.ENERGY   TOTAL ENERGY  ENERGY CHANGE      VAR         CPU   MICRO    DIIS
   1      1.21786532    -0.79736109  -205.39355170    -7.9925E-01   2.07E-01      0.11  1  1  1   0  0
   2      1.21492015    -0.79229656  -205.38848718     5.0645E-03   4.26E-04      0.42  0  0  0   1  1
   3      1.21608606    -0.79324301  -205.38943362    -9.4644E-04   7.61E-06      0.81  0  0  0   2  2
   4      1.21613146    -0.79325368  -205.38944429    -1.0674E-05   6.90E-08      1.31  0  0  0   3  3
   5      1.21613965    -0.79325379  -205.38944441    -1.1263E-07   4.78E-10      1.95  0  0  0   4  4

 - - Continuing with F12/conv. amplitude coupling turned on.

   6      1.21613596    -0.79359212  -205.38978273    -3.3844E-04   6.02E-05      2.39  1  1  1   1  1
   7      1.21613414    -0.79359206  -205.38978268     5.3836E-08   4.00E-09      2.97  1  1  1   2  2

 CPU time for iterative RMP2-F12                  2.97 sec


 DF-RMP2-F12 doubles corrections:
 - - - - - - - - - - - - - - - - 
  Approx.                             TOTAL           A-B            A-A            B-B    
  RMP2-F12/3C(FIX)                -0.059649753   -0.054741330   -0.003089795   -0.001818628
  RMP2-F12/3*C(FIX)               -0.059311483   -0.054626021   -0.002960263   -0.001725199
  RMP2-F12/3*C(DX)                -0.059629319   -0.054908743   -0.002983489   -0.001737086
  RMP2-F12/3*C(FIX,DX)            -0.063951701   -0.058838159   -0.003237216   -0.001876326

 DF-RMP2-F12 doubles energies:
 - - - - - - - - - - - - - - -
  Approx.                             TOTAL           A-B            A-A            B-B    
  RMP2                            -0.719619861   -0.521365148   -0.094171054   -0.104083659
  RMP2-F12/3C(FIX)                -0.779269614   -0.576106478   -0.097260848   -0.105902288
  RMP2-F12/3*C(FIX)               -0.778931344   -0.575991168   -0.097131317   -0.105808859
  RMP2-F12/3*C(DX)                -0.779249179   -0.576273891   -0.097154543   -0.105820746
  RMP2-F12/3*C(FIX,DX)            -0.783571562   -0.580203307   -0.097408270   -0.105959985


  Reference energy                   -204.594305094369
  CABS relaxation correction to RHF    -0.001885518432
  New reference energy               -204.596190612801

  RMP2-F12 singles (MO) energy         -0.014322449179
  RMP2-F12 pair energy                 -0.779269613905
  RMP2-F12 correlation energy          -0.793592063084

 !RMP2-F12/3C(FIX) energy            -205.389782675885

 Starting RMP2 calculation, locsing= 0

 ITER.      SQ.NORM     CORR.ENERGY   TOTAL ENERGY   ENERGY CHANGE        DEN1      VAR(S)    VAR(P)  DIIS     TIME
   1      1.21201001    -0.73069539  -205.32500049    -0.73069539    -0.00283164  0.89D-04  0.13D-02  1  1    12.08
   2      1.21578131    -0.73384920  -205.32815429    -0.00315380    -0.00002504  0.86D-06  0.15D-04  2  2    12.61
   3      1.21613420    -0.73399532  -205.32830042    -0.00014613    -0.00000027  0.79D-08  0.14D-06  3  3    13.06
   4      1.21614044    -0.73399281  -205.32829791     0.00000251    -0.00000000  0.14D-09  0.14D-08  4  4    13.41
   5      1.21614016    -0.73399262  -205.32829772     0.00000019    -0.00000000  0.66D-11  0.15D-10  5  5    13.93

 Norm of t1 vector:      0.10183213      S-energy:    -0.01432245      T1 diagnostic:  0.00131542
 Norm of t2 vector:      0.45361920      P-energy:    -0.71967017
                                         Alpha-Beta:  -0.52156532
                                         Alpha-Alpha: -0.09407779
                                         Beta-Beta:   -0.10402706

 Spin contamination <S**2-Sz**2-Sz>     0.00137406
  Reference energy                   -204.594305094369
  CABS singles correction              -0.001885518432
  New reference energy               -204.596190612801
  RHF-RMP2 correlation energy          -0.733992624992
 !RHF-RMP2 energy                    -205.330183237793

  F12/3C(FIX) correction               -0.059649753206
  RHF-RMP2-F12 correlation energy      -0.793642378199
 !RHF-RMP2-F12 total energy          -205.389832991000

 Starting UCCSD calculation

 ITER.      SQ.NORM     CORR.ENERGY   TOTAL ENERGY   ENERGY CHANGE        DEN1      VAR(S)    VAR(P)  DIIS     TIME
   1      1.17899064    -0.67643819  -205.27074328    -0.67643819    -0.03119289  0.94D-02  0.50D-02  1  1    18.74
   2      1.20180801    -0.70103039  -205.29533548    -0.02459220    -0.00352011  0.92D-03  0.10D-02  2  2    23.16
   3      1.21499994    -0.70363982  -205.29794491    -0.00260943    -0.00093563  0.73D-03  0.13D-03  3  3    28.22
   4      1.22987595    -0.70713176  -205.30143686    -0.00349194    -0.00029171  0.21D-03  0.48D-04  4  4    33.44
   5      1.24217753    -0.70869506  -205.30300015    -0.00156330    -0.00009832  0.94D-04  0.13D-04  5  5    37.99
   6      1.24926455    -0.70918738  -205.30349248    -0.00049233    -0.00005217  0.61D-04  0.52D-05  6  6    42.51
   7      1.25300578    -0.70938820  -205.30369330    -0.00020082    -0.00004633  0.60D-04  0.33D-05  6  1    47.41
   8      1.25429767    -0.70943555  -205.30374065    -0.00004735    -0.00004603  0.60D-04  0.31D-05  6  3    52.77
   9      1.25415395    -0.70945031  -205.30375541    -0.00001476    -0.00004589  0.60D-04  0.31D-05  6  2    57.43
  10      1.25152101    -0.70927518  -205.30358027     0.00017514    -0.00004530  0.59D-04  0.31D-05  6  4    61.87
  11      1.24627889    -0.70865498  -205.30296008     0.00062019    -0.00003825  0.47D-04  0.31D-05  6  5    66.52
  12      1.26089888    -0.70813118  -205.30243627     0.00052380    -0.00003093  0.37D-04  0.28D-05  6  6    71.70
  13      1.28815306    -0.70769691  -205.30200201     0.00043427    -0.00002188  0.24D-04  0.26D-05  6  1    76.51
  14      1.44079753    -0.70672817  -205.30103326     0.00096874    -0.00000696  0.65D-05  0.11D-05  6  3    81.43
  15      1.43362614    -0.70660919  -205.30091429     0.00011897    -0.00000575  0.41D-05  0.15D-05  6  6    85.97
  16      1.45642320    -0.70636456  -205.30066965     0.00024464    -0.00000210  0.10D-05  0.79D-06  6  1    90.39
  17      1.47495896    -0.70626229  -205.30056739     0.00010226    -0.00000051  0.24D-06  0.20D-06  6  3    95.59
  18      1.47924993    -0.70621370  -205.30051879     0.00004860    -0.00000019  0.13D-06  0.46D-07  6  5    99.90
  19      1.48410957    -0.70618830  -205.30049340     0.00002540    -0.00000008  0.69D-07  0.16D-07  6  3   104.62
  20      1.47752988    -0.70619886  -205.30050395    -0.00001055    -0.00000003  0.20D-07  0.57D-08  6  6   108.81
  21      1.47910940    -0.70619396  -205.30049906     0.00000489    -0.00000002  0.11D-07  0.42D-08  6  1   114.00
  22      1.48251864    -0.70617939  -205.30048448     0.00001458    -0.00000001  0.35D-08  0.20D-08  6  5   119.75
  23      1.48011544    -0.70618691  -205.30049201    -0.00000753    -0.00000000  0.94D-09  0.50D-09  6  6   125.75
  24      1.48129711    -0.70618087  -205.30048597     0.00000604    -0.00000000  0.11D-09  0.85D-10  6  2   130.53
  25      1.48143355    -0.70618021  -205.30048531     0.00000066    -0.00000000  0.43D-10  0.23D-10  6  4   134.97

 Norm of t1 vector:      0.51307486      S-energy:    -0.01327348      T1 diagnostic:  0.08392018
                                                                       D1 diagnostic:  0.32815588
                                                                       D2 diagnostic:  0.18493718 (internal)
 Norm of t2 vector:      0.46710570      P-energy:    -0.69290674
                                         Alpha-Beta:  -0.52239075
                                         Alpha-Alpha: -0.08223939
                                         Beta-Beta:   -0.08827659

 Singles amplitudes (print threshold =  0.500E-01):

         I         SYM. A    A   T(IA) [Beta-Beta]

         5         1         1     -0.05148975
         6         1         2      0.17443263
         7         1         1     -0.46095969

 Doubles amplitudes (print threshold =  0.500E-01):

         I         J         SYM. A    SYM. B    A         B      T(IJ, AB) [Beta-Beta]

         7         4         1         1         1         2      0.05340832
         7         4         1         1         2         1     -0.05340832
         8         7         1         1         1         2     -0.12716886
         8         7         1         1         2         1      0.12716886

 Spin contamination <S**2-Sz**2-Sz>     0.00324895

 For full I/O caching in triples, increase memory by 11.36 Mwords to 92.41 Mwords.


 RESULTS
 =======

  Reference energy                   -204.594305094369
  CABS relaxation correction to RHF    -0.001885518432
  New reference energy               -204.596190612801

  F12 corrections for ansatz 3C(FIX) added to UCCSD energy. Coupling mode: 15

  UCCSD-F12a singles energy            -0.013273475828
  UCCSD-F12a pair energy               -0.751491924860
  UCCSD-F12a correlation energy        -0.764765400688
  Triples (T) contribution             -0.039595621856
  Total correlation energy             -0.804361022544

  RHF-UCCSD-F12a energy              -205.360956013489
  RHF-UCCSD[T]-F12a energy           -205.404541008915
  RHF-UCCSD-T-F12a energy            -205.399718174377
 !RHF-UCCSD(T)-F12a energy           -205.400551635345

  F12 corrections for ansatz 3C(FIX) added to UCCSD energy. Coupling mode: 15

  UCCSD-F12b singles energy            -0.013273475828
  UCCSD-F12b pair energy               -0.741609941455
  UCCSD-F12b correlation energy        -0.754883417282
  Triples (T) contribution             -0.039595621856
  Total correlation energy             -0.794479039139

  RHF-UCCSD-F12b energy              -205.351074030083
  RHF-UCCSD[T]-F12b energy           -205.394659025510
  RHF-UCCSD-T-F12b energy            -205.389836190972
 !RHF-UCCSD(T)-F12b energy           -205.390669651940

 Program statistics:

 Available memory in ccsd:                80999087
 Min. memory needed in ccsd:               9591163
 Max. memory used in ccsd:                13497261
 Max. memory used in cckext:              10315093 (26 integral passes)
 Max. memory used in cckint:              34238127 ( 1 integral passes)



 **********************************************************************************************************************************
 DATASETS  * FILE   NREC   LENGTH (MB)   RECORD NAMES
              1      18       29.74       500      610      700      900      950      970     1000      129      960     1100   
                                          VAR    BASINP    GEOM    SYMINP    ZMAT    AOBASIS   BASIS     P2S    ABASIS      S 
                                         1400     1410     1200     1210     1080     1600     1650     1700   
                                           T        V       H0       H01     AOSYM     SMH    MOLCAS    OPER   

              2       5        3.89       700     1000      520     2100     7360   
                                         GEOM     BASIS   MCVARS     RHF    F12ABS    

 PROGRAMS   *        TOTAL  UCCSD(T)    HF-SCF       INT
 CPU TIMES  *       193.70    183.60      5.06      4.74
 REAL TIME  *       240.06 SEC
 DISK USED  *       419.99 MB (local),        5.61 GB (total)
 SF USED    *         2.86 GB
 GA USED    *         3.05 MB       (max)       0.00 MB       (current)
 **********************************************************************************************************************************

 UCCSD(T)-F12/cc-pVTZ-F12 energy=   -205.390669651940

    UCCSD(T)-F12          HF-SCF
   -205.39066965   -204.59430509
 **********************************************************************************************************************************
 Molpro calculation terminated
