 Entering Gaussian System, Link 0=g03
 Input=input.gjf
 Output=input.log
 Initial command:
 /opt/g03/l1.exe /scratch/alongd/Gau-19672.inp -scrdir=/scratch/alongd/
 Entering Link 1 = /opt/g03/l1.exe PID=     19674.
  
 Copyright (c) 1988,1990,1992,1993,1995,1998,2003,2004, Gaussian, Inc.
                  All Rights Reserved.
  
 This is the Gaussian(R) 03 program.  It is based on the
 the Gaussian(R) 98 system (copyright 1998, Gaussian, Inc.),
 the Gaussian(R) 94 system (copyright 1995, Gaussian, Inc.),
 the Gaussian 92(TM) system (copyright 1992, Gaussian, Inc.),
 the Gaussian 90(TM) system (copyright 1990, Gaussian, Inc.),
 the Gaussian 88(TM) system (copyright 1988, Gaussian, Inc.),
 the Gaussian 86(TM) system (copyright 1986, Carnegie Mellon
 University), and the Gaussian 82(TM) system (copyright 1983,
 Carnegie Mellon University). Gaussian is a federally registered
 trademark of Gaussian, Inc.
  
 This software contains proprietary and confidential information,
 including trade secrets, belonging to Gaussian, Inc.
  
 This software is provided under written license and may be
 used, copied, transmitted, or stored only in accord with that
 written license.
  
 The following legend is applicable only to US Government
 contracts under FAR:
  
                    RESTRICTED RIGHTS LEGEND
  
 Use, reproduction and disclosure by the US Government is
 subject to restrictions as set forth in subparagraphs (a)
 and (c) of the Commercial Computer Software - Restricted
 Rights clause in FAR 52.227-19.
  
 Gaussian, Inc.
 340 Quinnipiac St., Bldg. 40, Wallingford CT 06492
  
  
 ---------------------------------------------------------------
 Warning -- This program may not be used in any manner that
 competes with the business of Gaussian, Inc. or will provide
 assistance to any competitor of Gaussian, Inc.  The licensee
 of this program is prohibited from giving any competitor of
 Gaussian, Inc. access to this program.  By using this program,
 the user acknowledges that Gaussian, Inc. is engaged in the
 business of creating and licensing software in the field of
 computational chemistry and represents and warrants to the
 licensee that it is not a competitor of Gaussian, Inc. and that
 it will not use this program in any manner prohibited above.
 ---------------------------------------------------------------
  

 Cite this work as:
 Gaussian 03, Revision D.01,
 M. J. Frisch, G. W. Trucks, H. B. Schlegel, G. E. Scuseria, 
 M. A. Robb, J. R. Cheeseman, J. A. Montgomery, Jr., T. Vreven, 
 K. N. Kudin, J. C. Burant, J. M. Millam, S. S. Iyengar, J. Tomasi, 
 V. Barone, B. Mennucci, M. Cossi, G. Scalmani, N. Rega, 
 G. A. Petersson, H. Nakatsuji, M. Hada, M. Ehara, K. Toyota, 
 R. Fukuda, J. Hasegawa, M. Ishida, T. Nakajima, Y. Honda, O. Kitao, 
 H. Nakai, M. Klene, X. Li, J. E. Knox, H. P. Hratchian, J. B. Cross, 
 V. Bakken, C. Adamo, J. Jaramillo, R. Gomperts, R. E. Stratmann, 
 O. Yazyev, A. J. Austin, R. Cammi, C. Pomelli, J. W. Ochterski, 
 P. Y. Ayala, K. Morokuma, G. A. Voth, P. Salvador, J. J. Dannenberg, 
 V. G. Zakrzewski, S. Dapprich, A. D. Daniels, M. C. Strain, 
 O. Farkas, D. K. Malick, A. D. Rabuck, K. Raghavachari, 
 J. B. Foresman, J. V. Ortiz, Q. Cui, A. G. Baboul, S. Clifford, 
 J. Cioslowski, B. B. Stefanov, G. Liu, A. Liashenko, P. Piskorz, 
 I. Komaromi, R. L. Martin, D. J. Fox, T. Keith, M. A. Al-Laham, 
 C. Y. Peng, A. Nanayakkara, M. Challacombe, P. M. W. Gill, 
 B. Johnson, W. Chen, M. W. Wong, C. Gonzalez, and J. A. Pople, 
 Gaussian, Inc., Wallingford CT, 2004.
 
 ******************************************
 Gaussian 03:  AM64L-G03RevD.01 13-Oct-2005
                31-Jan-2019 
 ******************************************
 %chk=check.chk
 %mem=1500mb
 %nproc=8
 Will use up to    8 processors via shared memory.
 --------------------------------------------------------------------
 # opt=(modredundant, calcfc, noeigentest) b3lyp/6-311+g(d,p) scf=xqc
 --------------------------------------------------------------------
 1/10=4,11=1,14=-1,18=120,26=3,38=1/1,3;
 2/9=110,17=6,18=5,40=1/2;
 3/5=4,6=6,7=111,11=2,16=1,25=1,30=1,74=-5/1,2,3;
 4//1;
 5/5=2,8=3,13=1,38=5/2,8;
 8/6=4,10=90,11=11/1;
 11/6=1,8=1,9=11,15=111,16=1/1,2,10;
 10/6=1,7=6/2;
 6/7=2,8=2,9=2,10=2,28=1/1;
 7/10=1,18=20,25=1/1,2,3,16;
 1/10=4,11=1,14=-1,18=20/3(3);
 2/9=110/2;
 6/7=2,8=2,9=2,10=2,19=2,28=1/1;
 99//99;
 2/9=110/2;
 3/5=4,6=6,7=111,11=2,16=1,25=1,30=1,74=-5/1,2,3;
 4/5=5,16=3/1;
 5/5=2,8=3,13=1,38=5/2,8;
 7//1,2,3,16;
 1/11=1,14=-1,18=20/3(-5);
 2/9=110/2;
 6/7=2,8=2,9=2,10=2,19=2,28=1/1;
 99/9=1/99;
 ----
 name
 ----
 Symbolic Z-matrix:
 Charge =  0 Multiplicity = 1
 O                    -0.70267  -0.11865  -0.05331 
 O                     0.70267   0.11865  -0.05331 
 H                    -1.02356   0.65172   0.42683 
 H                     1.02356  -0.65172   0.42683 
 
 The following ModRedundant input section has been read:
 D    3    1    2    4 S  36 10.000                                            

 GradGradGradGradGradGradGradGradGradGradGradGradGradGradGradGradGradGrad
 Berny optimization.
 Initialization pass.
                           ----------------------------
                           !    Initial Parameters    !
                           ! (Angstroms and Degrees)  !
 --------------------------                            --------------------------
 ! Name  Definition              Value          Derivative Info.                !
 --------------------------------------------------------------------------------
 ! R1    R(1,2)                  1.4252         calculate D2E/DX2 analytically  !
 ! R2    R(1,3)                  0.9628         calculate D2E/DX2 analytically  !
 ! R3    R(2,4)                  0.9628         calculate D2E/DX2 analytically  !
 ! A1    A(2,1,3)              101.2687         calculate D2E/DX2 analytically  !
 ! A2    A(1,2,4)              101.2687         calculate D2E/DX2 analytically  !
 ! D1    D(3,1,2,4)            118.8736         Scan                            !
 --------------------------------------------------------------------------------
 Trust Radius=3.00D-01 FncErr=1.00D-07 GrdErr=1.00D-06
 Number of optimizations in scan=  37
 Number of steps in this run=  20 maximum allowed number of steps= 100.
 GradGradGradGradGradGradGradGradGradGradGradGradGradGradGradGradGradGrad

                          Input orientation:                          
 ---------------------------------------------------------------------
 Center     Atomic     Atomic              Coordinates (Angstroms)
 Number     Number      Type              X           Y           Z
 ---------------------------------------------------------------------
    1          8             0       -0.702671   -0.118654   -0.053306
    2          8             0        0.702671    0.118654   -0.053306
    3          1             0       -1.023563    0.651724    0.426828
    4          1             0        1.023563   -0.651724    0.426828
 ---------------------------------------------------------------------
                    Distance matrix (angstroms):
                    1          2          3          4
     1  O    0.000000
     2  O    1.425237   0.000000
     3  H    0.962800   1.869378   0.000000
     4  H    1.869378   0.962800   2.426871   0.000000
 Stoichiometry    H2O2
 Framework group  C2[X(H2O2)]
 Deg. of freedom     4
 Full point group                 C2
 Largest Abelian subgroup         C2      NOp   2
 Largest concise Abelian subgroup C2      NOp   2
                         Standard orientation:                         
 ---------------------------------------------------------------------
 Center     Atomic     Atomic              Coordinates (Angstroms)
 Number     Number      Type              X           Y           Z
 ---------------------------------------------------------------------
    1          8             0        0.000000    0.712618   -0.053348
    2          8             0        0.000000   -0.712618   -0.053348
    3          1             0        0.813055    0.900759    0.426786
    4          1             0       -0.813055   -0.900759    0.426786
 ---------------------------------------------------------------------
 Rotational constants (GHZ):    308.3588631     27.3941224     26.3038336
 Standard basis: 6-311+G(d,p) (5D, 7F)
 There are    28 symmetry adapted basis functions of A   symmetry.
 There are    28 symmetry adapted basis functions of B   symmetry.
 Integral buffers will be    131072 words long.
 Raffenetti 2 integral format.
 Two-electron integral symmetry is turned on.
    56 basis functions,    88 primitive gaussians,    58 cartesian basis functions
     9 alpha electrons        9 beta electrons
       nuclear repulsion energy        37.3038490925 Hartrees.
 NAtoms=    4 NActive=    4 NUniq=    2 SFac= 3.00D+00 NAtFMM=   80 NAOKFM=F Big=F
 One-electron integrals computed using PRISM.
 NBasis=    56 RedAO= T  NBF=    28    28
 NBsUse=    56 1.00D-06 NBFU=    28    28
 Harris functional with IExCor=  402 diagonalized for initial guess.
 ExpMin= 8.45D-02 ExpMax= 8.59D+03 ExpMxC= 1.30D+03 IAcc=2 IRadAn=         4 AccDes= 0.00D+00
 HarFok:  IExCor= 402 AccDes= 0.00D+00 IRadAn=         4 IDoV=1
 ScaDFX=  1.000000  1.000000  1.000000  1.000000
 Initial guess orbital symmetries:
       Occupied  (B) (A) (A) (B) (A) (B) (A) (A) (B)
       Virtual   (B) (A) (B) (A) (B) (A) (B) (A) (B) (A) (B) (A)
                 (B) (B) (A) (B) (A) (B) (A) (A) (B) (A) (B) (B)
                 (A) (A) (B) (B) (A) (A) (A) (B) (A) (B) (B) (A)
                 (B) (A) (B) (A) (A) (B) (B) (A) (B) (A) (B)
 The electronic state of the initial guess is 1-A.
 Requested convergence on RMS density matrix=1.00D-08 within 128 cycles.
 Requested convergence on MAX density matrix=1.00D-06.
 Requested convergence on             energy=1.00D-06.
 No special actions if energy rises.
 Keep R1 integrals in memory in canonical form, NReq=     3224073.
 Integral accuracy reduced to 1.0D-05 until final iterations.
 Initial convergence to 1.0D-05 achieved.  Increase integral accuracy.
 SCF Done:  E(RB+HF-LYP) =  -151.601624317     A.U. after   10 cycles
             Convg  =    0.5240D-08             -V/T =  2.0023
             S**2   =   0.0000
 QCSCF skips out because SCF is already converged.
 Range of M.O.s used for correlation:     1    56
 NBasis=    56 NAE=     9 NBE=     9 NFC=     0 NFV=     0
 NROrb=     56 NOA=     9 NOB=     9 NVA=    47 NVB=    47

 **** Warning!!: The largest alpha MO coefficient is  0.14065273D+02

 Symmetrizing basis deriv contribution to polar:
 IMax=3 JMax=2 DiffMx= 0.00D+00
 G2DrvN: will do    5 centers at a time, making    1 passes doing MaxLOS=2.
 FoFDir/FoFCou used for L=0 through L=2.
 DoAtom=TTTT
          Differentiating once with respect to electric field.
                with respect to dipole field.
          Differentiating once with respect to nuclear coordinates.
          Store integrals in memory, NReq=     2286029.
          There are   9 degrees of freedom in the 1st order CPHF.
     9 vectors were produced by pass  0.
 AX will form   9 AO Fock derivatives at one time.
     9 vectors were produced by pass  1.
     9 vectors were produced by pass  2.
     9 vectors were produced by pass  3.
     7 vectors were produced by pass  4.
     3 vectors were produced by pass  5.
 Inv2:  IOpt= 1 Iter= 1 AM= 8.22D-16 Conv= 1.00D-12.
 Inverted reduced A of dimension   46 with in-core refinement.
 Isotropic polarizability for W=    0.000000       12.45 Bohr**3.
 End of Minotr Frequency-dependent properties file   721 does not exist.

 **********************************************************************

            Population analysis using the SCF density.

 **********************************************************************

 Orbital symmetries:
       Occupied  (A) (B) (A) (B) (A) (B) (A) (A) (B)
       Virtual   (B) (A) (B) (A) (B) (A) (A) (B) (B) (A) (B) (A)
                 (B) (B) (A) (B) (A) (B) (A) (B) (A) (A) (B) (B)
                 (A) (A) (B) (B) (A) (A) (A) (B) (A) (B) (B) (A)
                 (B) (A) (B) (A) (A) (B) (B) (A) (B) (A) (B)
 The electronic state is 1-A.
 Alpha  occ. eigenvalues --  -19.19218 -19.19212  -1.14775  -0.91354  -0.55594
 Alpha  occ. eigenvalues --   -0.51241  -0.43846  -0.34022  -0.29167
 Alpha virt. eigenvalues --   -0.00284   0.02277   0.07649   0.14024   0.14746
 Alpha virt. eigenvalues --    0.17184   0.18704   0.18834   0.20279   0.25752
 Alpha virt. eigenvalues --    0.31400   0.46579   0.47873   0.92777   0.95127
 Alpha virt. eigenvalues --    0.95137   0.95664   1.02294   1.05462   1.26640
 Alpha virt. eigenvalues --    1.26944   1.38326   1.41791   1.49960   1.60000
 Alpha virt. eigenvalues --    1.96585   2.00128   2.40159   2.49176   2.56051
 Alpha virt. eigenvalues --    2.60485   2.73162   3.07235   3.10346   3.22702
 Alpha virt. eigenvalues --    3.33584   3.62692   3.72522   3.86369   4.73073
 Alpha virt. eigenvalues --    4.87266   4.92474   5.30913   5.45905   5.68453
 Alpha virt. eigenvalues --   49.77184  49.80402
          Condensed to atoms (all electrons):
              1          2          3          4
     1  O    7.988000   0.069542   0.240248  -0.037615
     2  O    0.069542   7.988000  -0.037615   0.240248
     3  H    0.240248  -0.037615   0.532642   0.004551
     4  H   -0.037615   0.240248   0.004551   0.532642
 Mulliken atomic charges:
              1
     1  O   -0.260174
     2  O   -0.260174
     3  H    0.260174
     4  H    0.260174
 Sum of Mulliken charges=   0.00000
 Atomic charges with hydrogens summed into heavy atoms:
              1
     1  O    0.000000
     2  O    0.000000
     3  H    0.000000
     4  H    0.000000
 Sum of Mulliken charges=   0.00000
 APT atomic charges:
              1
     1  O   -0.260805
     2  O   -0.260806
     3  H    0.260805
     4  H    0.260805
 Sum of APT charges=   0.00000
 APT Atomic charges with hydrogens summed into heavy atoms:
              1
     1  O    0.000000
     2  O    0.000000
     3  H    0.000000
     4  H    0.000000
 Sum of APT charges=   0.00000
 Electronic spatial extent (au):  <R**2>=    66.0104
 Charge=     0.0000 electrons
 Dipole moment (field-independent basis, Debye):
    X=     0.0000    Y=     0.0000    Z=     1.7921  Tot=     1.7921
 Quadrupole moment (field-independent basis, Debye-Ang):
   XX=    -9.6590   YY=   -11.7845   ZZ=   -12.2025
   XY=     3.2294   XZ=     0.0000   YZ=     0.0000
 Traceless Quadrupole moment (field-independent basis, Debye-Ang):
   XX=     1.5563   YY=    -0.5692   ZZ=    -0.9872
   XY=     3.2294   XZ=     0.0000   YZ=     0.0000
 Octapole moment (field-independent basis, Debye-Ang**2):
  XXX=     0.0000  YYY=     0.0000  ZZZ=     1.1286  XYY=     0.0000
  XXY=     0.0000  XXZ=     1.3599  XZZ=     0.0000  YZZ=     0.0000
  YYZ=     1.9636  XYZ=     1.6496
 Hexadecapole moment (field-independent basis, Debye-Ang**3):
 XXXX=   -10.9504 YYYY=   -45.7145 ZZZZ=   -11.9377 XXXY=     0.5817
 XXXZ=     0.0000 YYYX=     1.6160 YYYZ=     0.0000 ZZZX=     0.0000
 ZZZY=     0.0000 XXYY=    -8.6230 XXZZ=    -3.5811 YYZZ=   -10.5149
 XXYZ=     0.0000 YYXZ=     0.0000 ZZXY=     0.0387
 N-N= 3.730384909254D+01 E-N=-4.335181436478D+02  KE= 1.512578131035D+02
 Symmetry A    KE= 7.747421538318D+01
 Symmetry B    KE= 7.378359772033D+01
  Exact polarizability:  11.384   1.706  15.782   0.000   0.000  10.180
 Approx polarizability:  13.947   1.955  20.690   0.000   0.000  11.759
 ***** Axes restored to original set *****
 -------------------------------------------------------------------
 Center     Atomic                   Forces (Hartrees/Bohr)
 Number     Number              X              Y              Z
 -------------------------------------------------------------------
    1          8          -0.013705742   -0.005480306   -0.002087760
    2          8           0.013705742    0.005480306   -0.002087760
    3          1          -0.001785278    0.003303609    0.002087760
    4          1           0.001785278   -0.003303609    0.002087760
 -------------------------------------------------------------------
 Cartesian Forces:  Max     0.013705742 RMS     0.006333768

 GradGradGradGradGradGradGradGradGradGradGradGradGradGradGradGradGradGrad
 Berny optimization.
 Internal  Forces:  Max     0.015634470 RMS     0.006856228
 Search for a local minimum.
 Step number   1 out of a maximum of  20 on scan point     1 out of    37
 All quantities printed in internal units (Hartrees-Bohrs-Radians)
 Second derivative matrix not updated -- analytic derivatives used.
 The second derivative matrix:
                          R1        R2        R3        A1        A2
           R1           0.35162
           R2          -0.00393   0.52548
           R3          -0.00393  -0.00051   0.52548
           A1           0.07290  -0.00564   0.00066   0.22835
           A2           0.07290   0.00066  -0.00564   0.02368   0.22835
           D1          -0.00213   0.00240   0.00240   0.00889   0.00889
                          D1
           D1           0.00938
     Eigenvalues ---    0.18733   0.20455   0.41582   0.52547   0.52611
     Eigenvalues --- 1000.00000
 RFO step:  Lambda=-8.25972304D-04.
 Linear search not attempted -- first point.
 Iteration  1 RMS(Cart)=  0.01594757 RMS(Int)=  0.00006733
 Iteration  2 RMS(Cart)=  0.00008322 RMS(Int)=  0.00000000
 Iteration  3 RMS(Cart)=  0.00000000 RMS(Int)=  0.00000000
 Iteration  1 RMS(Cart)=  0.00000000 RMS(Int)=  0.00000000
 Variable       Old X    -DE/DX   Delta X   Delta X   Delta X     New X
                                 (Linear)    (Quad)   (Total)
    R1        2.69331   0.01563   0.00000   0.04922   0.04922   2.74253
    R2        1.81943   0.00428   0.00000   0.00840   0.00840   1.82783
    R3        1.81943   0.00428   0.00000   0.00840   0.00840   1.82783
    A1        1.76747   0.00069   0.00000  -0.01130  -0.01130   1.75617
    A2        1.76747   0.00069   0.00000  -0.01130  -0.01130   1.75617
    D1        2.07474   0.00002   0.00000   0.00000   0.00000   2.07474
         Item               Value     Threshold  Converged?
 Maximum Force            0.015634     0.000450     NO 
 RMS     Force            0.007511     0.000300     NO 
 Maximum Displacement     0.023990     0.001800     NO 
 RMS     Displacement     0.015913     0.001200     NO 
 Predicted change in Energy=-4.141540D-04
 GradGradGradGradGradGradGradGradGradGradGradGradGradGradGradGradGradGrad

                          Input orientation:                          
 ---------------------------------------------------------------------
 Center     Atomic     Atomic              Coordinates (Angstroms)
 Number     Number      Type              X           Y           Z
 ---------------------------------------------------------------------
    1          8             0       -0.715366   -0.121692   -0.054943
    2          8             0        0.715366    0.121692   -0.054943
    3          1             0       -1.028396    0.655416    0.428465
    4          1             0        1.028396   -0.655416    0.428465
 ---------------------------------------------------------------------
                    Distance matrix (angstroms):
                    1          2          3          4
     1  O    0.000000
     2  O    1.451285   0.000000
     3  H    0.967247   1.886597   0.000000
     4  H    1.886597   0.967247   2.438990   0.000000
 Stoichiometry    H2O2
 Framework group  C2[X(H2O2)]
 Deg. of freedom     4
 Full point group                 C2
 Largest Abelian subgroup         C2      NOp   2
 Largest concise Abelian subgroup C2      NOp   2
                         Standard orientation:                         
 ---------------------------------------------------------------------
 Center     Atomic     Atomic              Coordinates (Angstroms)
 Number     Number      Type              X           Y           Z
 ---------------------------------------------------------------------
    1          8             0        0.000000    0.725642   -0.053712
    2          8             0        0.000000   -0.725642   -0.053712
    3          1             0        0.818598    0.903917    0.429696
    4          1             0       -0.818598   -0.903917    0.429696
 ---------------------------------------------------------------------
 Rotational constants (GHZ):    303.5336387     26.5105830     25.4700743
 Standard basis: 6-311+G(d,p) (5D, 7F)
 There are    28 symmetry adapted basis functions of A   symmetry.
 There are    28 symmetry adapted basis functions of B   symmetry.
 Integral buffers will be    131072 words long.
 Raffenetti 2 integral format.
 Two-electron integral symmetry is turned on.
    56 basis functions,    88 primitive gaussians,    58 cartesian basis functions
     9 alpha electrons        9 beta electrons
       nuclear repulsion energy        36.7945051729 Hartrees.
 NAtoms=    4 NActive=    4 NUniq=    2 SFac= 3.00D+00 NAtFMM=   80 NAOKFM=F Big=F
 One-electron integrals computed using PRISM.
 NBasis=    56 RedAO= T  NBF=    28    28
 NBsUse=    56 1.00D-06 NBFU=    28    28
 Initial guess read from the read-write file:
 Initial guess orbital symmetries:
       Occupied  (A) (B) (A) (B) (A) (B) (A) (A) (B)
       Virtual   (B) (A) (B) (A) (B) (A) (A) (B) (B) (A) (B) (A)
                 (B) (B) (A) (B) (A) (B) (A) (B) (A) (A) (B) (B)
                 (A) (A) (B) (B) (A) (A) (A) (B) (A) (B) (B) (A)
                 (B) (A) (B) (A) (A) (B) (B) (A) (B) (A) (B)
 Harris functional with IExCor=  402 diagonalized for initial guess.
 ExpMin= 8.45D-02 ExpMax= 8.59D+03 ExpMxC= 1.30D+03 IAcc=2 IRadAn=         4 AccDes= 0.00D+00
 HarFok:  IExCor= 402 AccDes= 0.00D+00 IRadAn=         4 IDoV=1
 ScaDFX=  1.000000  1.000000  1.000000  1.000000
 Requested convergence on RMS density matrix=1.00D-08 within 128 cycles.
 Requested convergence on MAX density matrix=1.00D-06.
 Requested convergence on             energy=1.00D-06.
 No special actions if energy rises.
 Keep R1 integrals in memory in canonical form, NReq=     3224073.
 Integral accuracy reduced to 1.0D-05 until final iterations.
 Initial convergence to 1.0D-05 achieved.  Increase integral accuracy.
 SCF Done:  E(RB+HF-LYP) =  -151.602056902     A.U. after    9 cycles
             Convg  =    0.5275D-08             -V/T =  2.0026
             S**2   =   0.0000
 QCSCF skips out because SCF is already converged.
 ***** Axes restored to original set *****
 -------------------------------------------------------------------
 Center     Atomic                   Forces (Hartrees/Bohr)
 Number     Number              X              Y              Z
 -------------------------------------------------------------------
    1          8          -0.001072173   -0.000310601    0.000089920
    2          8           0.001072173    0.000310601    0.000089920
    3          1          -0.000075422    0.000132621   -0.000089920
    4          1           0.000075422   -0.000132621   -0.000089920
 -------------------------------------------------------------------
 Cartesian Forces:  Max     0.001072173 RMS     0.000462867

 GradGradGradGradGradGradGradGradGradGradGradGradGradGradGradGradGradGrad
 Berny optimization.
 Internal  Forces:  Max     0.001159254 RMS     0.000490102
 Search for a local minimum.
 Step number   2 out of a maximum of  20 on scan point     1 out of    37
 All quantities printed in internal units (Hartrees-Bohrs-Radians)
 Update second derivatives using D2CorX and points  1  2
 Trust test= 1.04D+00 RLast= 5.31D-02 DXMaxT set to 3.00D-01
 The second derivative matrix:
                          R1        R2        R3        A1        A2
           R1           0.32891
           R2          -0.00590   0.52617
           R3          -0.00590   0.00019   0.52617
           A1           0.07146  -0.00585   0.00045   0.22827
           A2           0.07146   0.00045  -0.00585   0.02359   0.22827
           D1          -0.00184   0.00240   0.00240   0.00891   0.00891
                          D1
           D1           0.00938
     Eigenvalues ---    0.18224   0.20455   0.39777   0.52611   0.52713
     Eigenvalues --- 1000.00000
 RFO step:  Lambda=-2.31532034D-07.
 Quartic linear search produced a step of  0.08024.
 Iteration  1 RMS(Cart)=  0.00126748 RMS(Int)=  0.00000051
 Iteration  2 RMS(Cart)=  0.00000050 RMS(Int)=  0.00000000
 Iteration  1 RMS(Cart)=  0.00000000 RMS(Int)=  0.00000000
 Variable       Old X    -DE/DX   Delta X   Delta X   Delta X     New X
                                 (Linear)    (Quad)   (Total)
    R1        2.74253   0.00116   0.00395   0.00027   0.00422   2.74675
    R2        1.82783   0.00009   0.00067  -0.00045   0.00023   1.82806
    R3        1.82783   0.00009   0.00067  -0.00045   0.00023   1.82806
    A1        1.75617   0.00006  -0.00091  -0.00011  -0.00101   1.75515
    A2        1.75617   0.00006  -0.00091  -0.00011  -0.00101   1.75515
    D1        2.07474   0.00027   0.00000   0.00000   0.00000   2.07474
         Item               Value     Threshold  Converged?
 Maximum Force            0.001159     0.000450     NO 
 RMS     Force            0.000523     0.000300     NO 
 Maximum Displacement     0.002068     0.001800     NO 
 RMS     Displacement     0.001267     0.001200     NO 
 Predicted change in Energy=-2.209157D-06
 GradGradGradGradGradGradGradGradGradGradGradGradGradGradGradGradGradGrad

                          Input orientation:                          
 ---------------------------------------------------------------------
 Center     Atomic     Atomic              Coordinates (Angstroms)
 Number     Number      Type              X           Y           Z
 ---------------------------------------------------------------------
    1          8             0       -0.716460   -0.121911   -0.055019
    2          8             0        0.716460    0.121911   -0.055019
    3          1             0       -1.028641    0.655594    0.428541
    4          1             0        1.028641   -0.655594    0.428541
 ---------------------------------------------------------------------
                    Distance matrix (angstroms):
                    1          2          3          4
     1  O    0.000000
     2  O    1.453516   0.000000
     3  H    0.967368   1.887863   0.000000
     4  H    1.887863   0.967368   2.439595   0.000000
 Stoichiometry    H2O2
 Framework group  C2[X(H2O2)]
 Deg. of freedom     4
 Full point group                 C2
 Largest Abelian subgroup         C2      NOp   2
 Largest concise Abelian subgroup C2      NOp   2
                         Standard orientation:                         
 ---------------------------------------------------------------------
 Center     Atomic     Atomic              Coordinates (Angstroms)
 Number     Number      Type              X           Y           Z
 ---------------------------------------------------------------------
    1          8             0        0.000000    0.726758   -0.053729
    2          8             0        0.000000   -0.726758   -0.053729
    3          1             0        0.818855    0.904092    0.429831
    4          1             0       -0.818855   -0.904092    0.429831
 ---------------------------------------------------------------------
 Rotational constants (GHZ):    303.2820730     26.4377703     25.4018069
 Standard basis: 6-311+G(d,p) (5D, 7F)
 There are    28 symmetry adapted basis functions of A   symmetry.
 There are    28 symmetry adapted basis functions of B   symmetry.
 Integral buffers will be    131072 words long.
 Raffenetti 2 integral format.
 Two-electron integral symmetry is turned on.
    56 basis functions,    88 primitive gaussians,    58 cartesian basis functions
     9 alpha electrons        9 beta electrons
       nuclear repulsion energy        36.7545208686 Hartrees.
 NAtoms=    4 NActive=    4 NUniq=    2 SFac= 3.00D+00 NAtFMM=   80 NAOKFM=F Big=F
 One-electron integrals computed using PRISM.
 NBasis=    56 RedAO= T  NBF=    28    28
 NBsUse=    56 1.00D-06 NBFU=    28    28
 Initial guess read from the read-write file:
 Initial guess orbital symmetries:
       Occupied  (A) (B) (A) (B) (A) (B) (A) (A) (B)
       Virtual   (B) (A) (B) (A) (B) (A) (A) (B) (B) (A) (B) (A)
                 (B) (B) (A) (B) (A) (B) (A) (B) (A) (A) (B) (B)
                 (A) (A) (B) (B) (A) (A) (A) (B) (A) (B) (B) (A)
                 (B) (A) (B) (A) (A) (B) (B) (A) (B) (A) (B)
 Requested convergence on RMS density matrix=1.00D-08 within 128 cycles.
 Requested convergence on MAX density matrix=1.00D-06.
 Requested convergence on             energy=1.00D-06.
 No special actions if energy rises.
 Keep R1 integrals in memory in canonical form, NReq=     3224073.
 SCF Done:  E(RB+HF-LYP) =  -151.602059309     A.U. after    6 cycles
             Convg  =    0.4218D-08             -V/T =  2.0027
             S**2   =   0.0000
 QCSCF skips out because SCF is already converged.
 ***** Axes restored to original set *****
 -------------------------------------------------------------------
 Center     Atomic                   Forces (Hartrees/Bohr)
 Number     Number              X              Y              Z
 -------------------------------------------------------------------
    1          8           0.000003821   -0.000076209    0.000149919
    2          8          -0.000003821    0.000076209    0.000149919
    3          1          -0.000023532    0.000064117   -0.000149919
    4          1           0.000023532   -0.000064117   -0.000149919
 -------------------------------------------------------------------
 Cartesian Forces:  Max     0.000149919 RMS     0.000096123

 GradGradGradGradGradGradGradGradGradGradGradGradGradGradGradGradGradGrad
 Berny optimization.
 Internal  Forces:  Max     0.000295213 RMS     0.000121905
 Search for a local minimum.
 Step number   3 out of a maximum of  20 on scan point     1 out of    37
 All quantities printed in internal units (Hartrees-Bohrs-Radians)
 Update second derivatives using D2CorX and points  1  2  3
 Trust test= 1.09D+00 RLast= 4.47D-03 DXMaxT set to 3.00D-01
 The second derivative matrix:
                          R1        R2        R3        A1        A2
           R1           0.30450
           R2          -0.00579   0.52649
           R3          -0.00579   0.00050   0.52649
           A1           0.06995  -0.00591   0.00039   0.22819
           A2           0.06995   0.00039  -0.00591   0.02352   0.22819
           D1          -0.00146   0.00239   0.00239   0.00893   0.00893
                          D1
           D1           0.00937
     Eigenvalues ---    0.17572   0.20455   0.37984   0.52611   0.52765
     Eigenvalues --- 1000.00000
 RFO step:  Lambda= 0.00000000D+00.
 Quartic linear search produced a step of  0.00553.
 Iteration  1 RMS(Cart)=  0.00007106 RMS(Int)=  0.00000000
 Iteration  2 RMS(Cart)=  0.00000000 RMS(Int)=  0.00000000
 Iteration  1 RMS(Cart)=  0.00000000 RMS(Int)=  0.00000000
 Variable       Old X    -DE/DX   Delta X   Delta X   Delta X     New X
                                 (Linear)    (Quad)   (Total)
    R1        2.74675   0.00002   0.00002   0.00000   0.00002   2.74677
    R2        1.82806  -0.00001   0.00000  -0.00003  -0.00003   1.82804
    R3        1.82806  -0.00001   0.00000  -0.00003  -0.00003   1.82804
    A1        1.75515   0.00002  -0.00001   0.00010   0.00009   1.75525
    A2        1.75515   0.00002  -0.00001   0.00010   0.00009   1.75525
    D1        2.07474   0.00030   0.00000   0.00000   0.00000   2.07474
         Item               Value     Threshold  Converged?
 Maximum Force            0.000025     0.000450     YES
 RMS     Force            0.000020     0.000300     YES
 Maximum Displacement     0.000100     0.001800     YES
 RMS     Displacement     0.000071     0.001200     YES
 Predicted change in Energy=-2.836976D-09
 Optimization completed.
    -- Stationary point found.
                           ----------------------------
                           !   Optimized Parameters   !
                           ! (Angstroms and Degrees)  !
 --------------------------                            --------------------------
 ! Name  Definition              Value          Derivative Info.                !
 --------------------------------------------------------------------------------
 ! R1    R(1,2)                  1.4535         -DE/DX =    0.0                 !
 ! R2    R(1,3)                  0.9674         -DE/DX =    0.0                 !
 ! R3    R(2,4)                  0.9674         -DE/DX =    0.0                 !
 ! A1    A(2,1,3)              100.563          -DE/DX =    0.0                 !
 ! A2    A(1,2,4)              100.563          -DE/DX =    0.0                 !
 ! D1    D(3,1,2,4)            118.8736         -DE/DX =    0.0003              !
 --------------------------------------------------------------------------------
 Iteration  1 RMS(Cart)=  0.06548337 RMS(Int)=  0.00395335
 Iteration  2 RMS(Cart)=  0.00285898 RMS(Int)=  0.00000178
 Iteration  3 RMS(Cart)=  0.00000195 RMS(Int)=  0.00000000
 Iteration  4 RMS(Cart)=  0.00000000 RMS(Int)=  0.00000000
 Iteration  1 RMS(Cart)=  0.00000000 RMS(Int)=  0.00000000
 GradGradGradGradGradGradGradGradGradGradGradGradGradGradGradGradGradGrad

                          Input orientation:                          
 ---------------------------------------------------------------------
 Center     Atomic     Atomic              Coordinates (Angstroms)
 Number     Number      Type              X           Y           Z
 ---------------------------------------------------------------------
    1          8             0       -0.714266   -0.134199   -0.018409
    2          8             0        0.714266    0.134199   -0.018409
    3          1             0       -1.047039    0.676146    0.391930
    4          1             0        1.047039   -0.676146    0.391930
 ---------------------------------------------------------------------
                    Distance matrix (angstroms):
                    1          2          3          4
     1  O    0.000000
     2  O    1.453527   0.000000
     3  H    0.967354   1.887930   0.000000
     4  H    1.887930   0.967354   2.492761   0.000000
 Stoichiometry    H2O2
 Framework group  C2[X(H2O2)]
 Deg. of freedom     4
 Full point group                 C2
 Largest Abelian subgroup         C2      NOp   2
 Largest concise Abelian subgroup C2      NOp   2
                         Standard orientation:                         
 ---------------------------------------------------------------------
 Center     Atomic     Atomic              Coordinates (Angstroms)
 Number     Number      Type              X           Y           Z
 ---------------------------------------------------------------------
    1          8             0        0.000000    0.726764   -0.045593
    2          8             0        0.000000   -0.726764   -0.045593
    3          1             0        0.857857    0.904182    0.364746
    4          1             0       -0.857857   -0.904182    0.364746
 ---------------------------------------------------------------------
 Rotational constants (GHZ):    304.3461220     26.5907602     25.2338697
 Standard basis: 6-311+G(d,p) (5D, 7F)
 There are    28 symmetry adapted basis functions of A   symmetry.
 There are    28 symmetry adapted basis functions of B   symmetry.
 Integral buffers will be    131072 words long.
 Raffenetti 2 integral format.
 Two-electron integral symmetry is turned on.
    56 basis functions,    88 primitive gaussians,    58 cartesian basis functions
     9 alpha electrons        9 beta electrons
       nuclear repulsion energy        36.7496756017 Hartrees.
 NAtoms=    4 NActive=    4 NUniq=    2 SFac= 3.00D+00 NAtFMM=   80 NAOKFM=F Big=F
 One-electron integrals computed using PRISM.
 NBasis=    56 RedAO= T  NBF=    28    28
 NBsUse=    56 1.00D-06 NBFU=    28    28
 Initial guess read from the read-write file:
 Initial guess orbital symmetries:
       Occupied  (A) (B) (A) (B) (A) (B) (A) (A) (B)
       Virtual   (B) (A) (B) (A) (B) (A) (A) (B) (B) (A) (B) (A)
                 (B) (B) (A) (B) (A) (B) (A) (B) (A) (A) (B) (B)
                 (A) (A) (B) (B) (A) (A) (A) (B) (A) (B) (B) (A)
                 (B) (A) (B) (A) (A) (B) (B) (A) (B) (A) (B)
 Harris functional with IExCor=  402 diagonalized for initial guess.
 ExpMin= 8.45D-02 ExpMax= 8.59D+03 ExpMxC= 1.30D+03 IAcc=2 IRadAn=         4 AccDes= 0.00D+00
 HarFok:  IExCor= 402 AccDes= 0.00D+00 IRadAn=         4 IDoV=1
 ScaDFX=  1.000000  1.000000  1.000000  1.000000
 Requested convergence on RMS density matrix=1.00D-08 within 128 cycles.
 Requested convergence on MAX density matrix=1.00D-06.
 Requested convergence on             energy=1.00D-06.
 No special actions if energy rises.
 Keep R1 integrals in memory in canonical form, NReq=     3224073.
 Integral accuracy reduced to 1.0D-05 until final iterations.
 Initial convergence to 1.0D-05 achieved.  Increase integral accuracy.
 SCF Done:  E(RB+HF-LYP) =  -151.601987213     A.U. after   10 cycles
             Convg  =    0.4944D-08             -V/T =  2.0027
             S**2   =   0.0000
 QCSCF skips out because SCF is already converged.
 ***** Axes restored to original set *****
 -------------------------------------------------------------------
 Center     Atomic                   Forces (Hartrees/Bohr)
 Number     Number              X              Y              Z
 -------------------------------------------------------------------
    1          8          -0.001119151   -0.000648896   -0.000424356
    2          8           0.001119151    0.000648896   -0.000424356
    3          1           0.000880344   -0.000278210    0.000424356
    4          1          -0.000880344    0.000278210    0.000424356
 -------------------------------------------------------------------
 Cartesian Forces:  Max     0.001119151 RMS     0.000693557

 GradGradGradGradGradGradGradGradGradGradGradGradGradGradGradGradGradGrad
 Berny optimization.
 Internal  Forces:  Max     0.001400162 RMS     0.000946747
 Search for a local minimum.
 Step number   1 out of a maximum of  20 on scan point     2 out of    37
 All quantities printed in internal units (Hartrees-Bohrs-Radians)
 Second derivative matrix not updated -- first step.
 The second derivative matrix:
                          R1        R2        R3        A1        A2
           R1           0.30450
           R2          -0.00579   0.52649
           R3          -0.00579   0.00050   0.52649
           A1           0.06995  -0.00591   0.00039   0.22819
           A2           0.06995   0.00039  -0.00591   0.02352   0.22819
           D1          -0.00146   0.00239   0.00239   0.00893   0.00893
                          D1
           D1           0.00937
     Eigenvalues ---    0.17572   0.20455   0.37984   0.52611   0.52765
     Eigenvalues --- 1000.00000
 RFO step:  Lambda=-2.13269359D-05.
 Linear search not attempted -- first point.
 Iteration  1 RMS(Cart)=  0.00454713 RMS(Int)=  0.00001263
 Iteration  2 RMS(Cart)=  0.00001208 RMS(Int)=  0.00000000
 Iteration  3 RMS(Cart)=  0.00000000 RMS(Int)=  0.00000000
 Iteration  1 RMS(Cart)=  0.00000000 RMS(Int)=  0.00000000
 Variable       Old X    -DE/DX   Delta X   Delta X   Delta X     New X
                                 (Linear)    (Quad)   (Total)
    R1        2.74677   0.00040   0.00000   0.00442   0.00442   2.75119
    R2        1.82804  -0.00035   0.00000  -0.00069  -0.00069   1.82734
    R3        1.82804  -0.00035   0.00000  -0.00069  -0.00069   1.82734
    A1        1.75525  -0.00140   0.00000  -0.00681  -0.00681   1.74844
    A2        1.75525  -0.00140   0.00000  -0.00681  -0.00681   1.74844
    D1        2.24927  -0.00102   0.00000   0.00000   0.00000   2.24927
         Item               Value     Threshold  Converged?
 Maximum Force            0.001400     0.000450     NO 
 RMS     Force            0.000931     0.000300     NO 
 Maximum Displacement     0.006467     0.001800     NO 
 RMS     Displacement     0.004553     0.001200     NO 
 Predicted change in Energy=-1.066347D-05
 GradGradGradGradGradGradGradGradGradGradGradGradGradGradGradGradGradGrad

                          Input orientation:                          
 ---------------------------------------------------------------------
 Center     Atomic     Atomic              Coordinates (Angstroms)
 Number     Number      Type              X           Y           Z
 ---------------------------------------------------------------------
    1          8             0       -0.715072   -0.136232   -0.018587
    2          8             0        0.715072    0.136232   -0.018587
    3          1             0       -1.043617    0.675219    0.392108
    4          1             0        1.043617   -0.675219    0.392108
 ---------------------------------------------------------------------
                    Distance matrix (angstroms):
                    1          2          3          4
     1  O    0.000000
     2  O    1.455867   0.000000
     3  H    0.966988   1.884718   0.000000
     4  H    1.884718   0.966988   2.486006   0.000000
 Stoichiometry    H2O2
 Framework group  C2[X(H2O2)]
 Deg. of freedom     4
 Full point group                 C2
 Largest Abelian subgroup         C2      NOp   2
 Largest concise Abelian subgroup C2      NOp   2
                         Standard orientation:                         
 ---------------------------------------------------------------------
 Center     Atomic     Atomic              Coordinates (Angstroms)
 Number     Number      Type              X           Y           Z
 ---------------------------------------------------------------------
    1          8             0        0.000000    0.727933   -0.045633
    2          8             0        0.000000   -0.727933   -0.045633
    3          1             0        0.858601    0.898811    0.365062
    4          1             0       -0.858601   -0.898811    0.365062
 ---------------------------------------------------------------------
 Rotational constants (GHZ):    303.4656922     26.5435896     25.1867292
 Standard basis: 6-311+G(d,p) (5D, 7F)
 There are    28 symmetry adapted basis functions of A   symmetry.
 There are    28 symmetry adapted basis functions of B   symmetry.
 Integral buffers will be    131072 words long.
 Raffenetti 2 integral format.
 Two-electron integral symmetry is turned on.
    56 basis functions,    88 primitive gaussians,    58 cartesian basis functions
     9 alpha electrons        9 beta electrons
       nuclear repulsion energy        36.7237735702 Hartrees.
 NAtoms=    4 NActive=    4 NUniq=    2 SFac= 3.00D+00 NAtFMM=   80 NAOKFM=F Big=F
 One-electron integrals computed using PRISM.
 NBasis=    56 RedAO= T  NBF=    28    28
 NBsUse=    56 1.00D-06 NBFU=    28    28
 Initial guess read from the read-write file:
 Initial guess orbital symmetries:
       Occupied  (A) (B) (A) (B) (A) (B) (A) (A) (B)
       Virtual   (B) (A) (B) (A) (B) (A) (A) (B) (B) (A) (B) (A)
                 (B) (B) (A) (B) (A) (B) (A) (B) (A) (A) (B) (B)
                 (A) (A) (B) (B) (A) (A) (A) (B) (A) (B) (B) (A)
                 (B) (A) (B) (A) (A) (B) (B) (A) (B) (A) (B)
 Requested convergence on RMS density matrix=1.00D-08 within 128 cycles.
 Requested convergence on MAX density matrix=1.00D-06.
 Requested convergence on             energy=1.00D-06.
 No special actions if energy rises.
 Keep R1 integrals in memory in canonical form, NReq=     3224073.
 SCF Done:  E(RB+HF-LYP) =  -151.601997808     A.U. after    7 cycles
             Convg  =    0.6306D-08             -V/T =  2.0027
             S**2   =   0.0000
 QCSCF skips out because SCF is already converged.
 ***** Axes restored to original set *****
 -------------------------------------------------------------------
 Center     Atomic                   Forces (Hartrees/Bohr)
 Number     Number              X              Y              Z
 -------------------------------------------------------------------
    1          8          -0.000029110    0.000250674   -0.000456640
    2          8           0.000029110   -0.000250674   -0.000456640
    3          1           0.000042757   -0.000211642    0.000456640
    4          1          -0.000042757    0.000211642    0.000456640
 -------------------------------------------------------------------
 Cartesian Forces:  Max     0.000456640 RMS     0.000296464

 GradGradGradGradGradGradGradGradGradGradGradGradGradGradGradGradGradGrad
 Berny optimization.
 Internal  Forces:  Max     0.000905517 RMS     0.000369891
 Search for a local minimum.
 Step number   2 out of a maximum of  20 on scan point     2 out of    37
 All quantities printed in internal units (Hartrees-Bohrs-Radians)
 Update second derivatives using D2CorX and points  1  2
 Trust test= 9.94D-01 RLast= 1.06D-02 DXMaxT set to 3.00D-01
 The second derivative matrix:
                          R1        R2        R3        A1        A2
           R1           0.30548
           R2          -0.00630   0.52666
           R3          -0.00630   0.00067   0.52666
           A1           0.06853  -0.00576   0.00054   0.22679
           A2           0.06853   0.00054  -0.00576   0.02212   0.22679
           D1          -0.00134   0.00219   0.00219   0.00796   0.00796
                          D1
           D1           0.00921
     Eigenvalues ---    0.17624   0.20455   0.37744   0.52611   0.52803
     Eigenvalues --- 1000.00000
 RFO step:  Lambda= 0.00000000D+00.
 Quartic linear search produced a step of  0.00284.
 Iteration  1 RMS(Cart)=  0.00004265 RMS(Int)=  0.00000000
 Iteration  2 RMS(Cart)=  0.00000000 RMS(Int)=  0.00000000
 Iteration  1 RMS(Cart)=  0.00000000 RMS(Int)=  0.00000000
 Variable       Old X    -DE/DX   Delta X   Delta X   Delta X     New X
                                 (Linear)    (Quad)   (Total)
    R1        2.75119  -0.00002   0.00001  -0.00008  -0.00006   2.75113
    R2        1.82734   0.00000   0.00000   0.00001   0.00001   1.82735
    R3        1.82734   0.00000   0.00000   0.00001   0.00001   1.82735
    A1        1.74844  -0.00001  -0.00002  -0.00001  -0.00003   1.74841
    A2        1.74844  -0.00001  -0.00002  -0.00001  -0.00003   1.74841
    D1        2.24927  -0.00091   0.00000   0.00000   0.00000   2.24927
         Item               Value     Threshold  Converged?
 Maximum Force            0.000024     0.000450     YES
 RMS     Force            0.000014     0.000300     YES
 Maximum Displacement     0.000056     0.001800     YES
 RMS     Displacement     0.000043     0.001200     YES
 Predicted change in Energy=-1.239272D-09
 Optimization completed.
    -- Stationary point found.
                           ----------------------------
                           !   Optimized Parameters   !
                           ! (Angstroms and Degrees)  !
 --------------------------                            --------------------------
 ! Name  Definition              Value          Derivative Info.                !
 --------------------------------------------------------------------------------
 ! R1    R(1,2)                  1.4559         -DE/DX =    0.0                 !
 ! R2    R(1,3)                  0.967          -DE/DX =    0.0                 !
 ! R3    R(2,4)                  0.967          -DE/DX =    0.0                 !
 ! A1    A(2,1,3)              100.1782         -DE/DX =    0.0                 !
 ! A2    A(1,2,4)              100.1782         -DE/DX =    0.0                 !
 ! D1    D(3,1,2,4)            128.8736         -DE/DX =   -0.0009              !
 --------------------------------------------------------------------------------
 Iteration  1 RMS(Cart)=  0.06532185 RMS(Int)=  0.00394567
 Iteration  2 RMS(Cart)=  0.00294235 RMS(Int)=  0.00000178
 Iteration  3 RMS(Cart)=  0.00000143 RMS(Int)=  0.00000000
 Iteration  4 RMS(Cart)=  0.00000000 RMS(Int)=  0.00000000
 Iteration  1 RMS(Cart)=  0.00000000 RMS(Int)=  0.00000000
 GradGradGradGradGradGradGradGradGradGradGradGradGradGradGradGradGradGrad

                          Input orientation:                          
 ---------------------------------------------------------------------
 Center     Atomic     Atomic              Coordinates (Angstroms)
 Number     Number      Type              X           Y           Z
 ---------------------------------------------------------------------
    1          8             0       -0.713089   -0.146172    0.019609
    2          8             0        0.713089    0.146172    0.019609
    3          1             0       -1.059403    0.692506    0.353913
    4          1             0        1.059403   -0.692506    0.353913
 ---------------------------------------------------------------------
                    Distance matrix (angstroms):
                    1          2          3          4
     1  O    0.000000
     2  O    1.455833   0.000000
     3  H    0.966992   1.884667   0.000000
     4  H    1.884667   0.966992   2.531324   0.000000
 Stoichiometry    H2O2
 Framework group  C2[X(H2O2)]
 Deg. of freedom     4
 Full point group                 C2
 Largest Abelian subgroup         C2      NOp   2
 Largest concise Abelian subgroup C2      NOp   2
                         Standard orientation:                         
 ---------------------------------------------------------------------
 Center     Atomic     Atomic              Coordinates (Angstroms)
 Number     Number      Type              X           Y           Z
 ---------------------------------------------------------------------
    1          8             0        0.000000    0.727916   -0.037145
    2          8             0        0.000000   -0.727916   -0.037145
    3          1             0        0.891138    0.898762    0.297159
    4          1             0       -0.891138   -0.898762    0.297159
 ---------------------------------------------------------------------
 Rotational constants (GHZ):    304.3625874     26.6797023     25.0447061
 Standard basis: 6-311+G(d,p) (5D, 7F)
 There are    28 symmetry adapted basis functions of A   symmetry.
 There are    28 symmetry adapted basis functions of B   symmetry.
 Integral buffers will be    131072 words long.
 Raffenetti 2 integral format.
 Two-electron integral symmetry is turned on.
    56 basis functions,    88 primitive gaussians,    58 cartesian basis functions
     9 alpha electrons        9 beta electrons
       nuclear repulsion energy        36.7205914279 Hartrees.
 NAtoms=    4 NActive=    4 NUniq=    2 SFac= 3.00D+00 NAtFMM=   80 NAOKFM=F Big=F
 One-electron integrals computed using PRISM.
 NBasis=    56 RedAO= T  NBF=    28    28
 NBsUse=    56 1.00D-06 NBFU=    28    28
 Initial guess read from the read-write file:
 Initial guess orbital symmetries:
       Occupied  (A) (B) (A) (B) (A) (B) (A) (A) (B)
       Virtual   (B) (A) (B) (A) (B) (A) (A) (B) (B) (A) (B) (A)
                 (B) (B) (A) (B) (A) (B) (A) (B) (A) (A) (B) (B)
                 (A) (A) (B) (B) (A) (A) (A) (B) (A) (B) (B) (A)
                 (B) (A) (B) (A) (A) (B) (B) (A) (B) (A) (B)
 Harris functional with IExCor=  402 diagonalized for initial guess.
 ExpMin= 8.45D-02 ExpMax= 8.59D+03 ExpMxC= 1.30D+03 IAcc=2 IRadAn=         4 AccDes= 0.00D+00
 HarFok:  IExCor= 402 AccDes= 0.00D+00 IRadAn=         4 IDoV=1
 ScaDFX=  1.000000  1.000000  1.000000  1.000000
 Requested convergence on RMS density matrix=1.00D-08 within 128 cycles.
 Requested convergence on MAX density matrix=1.00D-06.
 Requested convergence on             energy=1.00D-06.
 No special actions if energy rises.
 Keep R1 integrals in memory in canonical form, NReq=     3224073.
 Integral accuracy reduced to 1.0D-05 until final iterations.
 Initial convergence to 1.0D-05 achieved.  Increase integral accuracy.
 SCF Done:  E(RB+HF-LYP) =  -151.601764730     A.U. after   10 cycles
             Convg  =    0.3822D-08             -V/T =  2.0027
             S**2   =   0.0000
 QCSCF skips out because SCF is already converged.
 ***** Axes restored to original set *****
 -------------------------------------------------------------------
 Center     Atomic                   Forces (Hartrees/Bohr)
 Number     Number              X              Y              Z
 -------------------------------------------------------------------
    1          8          -0.001158876   -0.000497995   -0.000804954
    2          8           0.001158876    0.000497995   -0.000804954
    3          1           0.000799588   -0.000350516    0.000804954
    4          1          -0.000799588    0.000350516    0.000804954
 -------------------------------------------------------------------
 Cartesian Forces:  Max     0.001158876 RMS     0.000779861

 GradGradGradGradGradGradGradGradGradGradGradGradGradGradGradGradGradGrad
 Berny optimization.
 Internal  Forces:  Max     0.001673019 RMS     0.001021509
 Search for a local minimum.
 Step number   1 out of a maximum of  20 on scan point     3 out of    37
 All quantities printed in internal units (Hartrees-Bohrs-Radians)
 Second derivative matrix not updated -- first step.
 The second derivative matrix:
                          R1        R2        R3        A1        A2
           R1           0.30548
           R2          -0.00630   0.52666
           R3          -0.00630   0.00067   0.52666
           A1           0.06853  -0.00576   0.00054   0.22679
           A2           0.06853   0.00054  -0.00576   0.02212   0.22679
           D1          -0.00134   0.00219   0.00219   0.00796   0.00796
                          D1
           D1           0.00921
     Eigenvalues ---    0.17624   0.20455   0.37744   0.52611   0.52803
     Eigenvalues --- 1000.00000
 RFO step:  Lambda=-1.77503745D-05.
 Linear search not attempted -- first point.
 Iteration  1 RMS(Cart)=  0.00398279 RMS(Int)=  0.00000979
 Iteration  2 RMS(Cart)=  0.00000989 RMS(Int)=  0.00000000
 Iteration  3 RMS(Cart)=  0.00000000 RMS(Int)=  0.00000000
 Iteration  1 RMS(Cart)=  0.00000000 RMS(Int)=  0.00000000
 Variable       Old X    -DE/DX   Delta X   Delta X   Delta X     New X
                                 (Linear)    (Quad)   (Total)
    R1        2.75113   0.00052   0.00000   0.00444   0.00444   2.75557
    R2        1.82735  -0.00031   0.00000  -0.00060  -0.00060   1.82675
    R3        1.82735  -0.00031   0.00000  -0.00060  -0.00060   1.82675
    A1        1.74841  -0.00122   0.00000  -0.00615  -0.00615   1.74225
    A2        1.74841  -0.00122   0.00000  -0.00615  -0.00615   1.74225
    D1        2.42380  -0.00167   0.00000   0.00000   0.00000   2.42380
         Item               Value     Threshold  Converged?
 Maximum Force            0.001224     0.000450     NO 
 RMS     Force            0.000832     0.000300     NO 
 Maximum Displacement     0.005545     0.001800     NO 
 RMS     Displacement     0.003988     0.001200     NO 
 Predicted change in Energy=-8.875187D-06
 GradGradGradGradGradGradGradGradGradGradGradGradGradGradGradGradGradGrad

                          Input orientation:                          
 ---------------------------------------------------------------------
 Center     Atomic     Atomic              Coordinates (Angstroms)
 Number     Number      Type              X           Y           Z
 ---------------------------------------------------------------------
    1          8             0       -0.713906   -0.148028    0.019482
    2          8             0        0.713906    0.148028    0.019482
    3          1             0       -1.056469    0.691725    0.354039
    4          1             0        1.056469   -0.691725    0.354039
 ---------------------------------------------------------------------
                    Distance matrix (angstroms):
                    1          2          3          4
     1  O    0.000000
     2  O    1.458183   0.000000
     3  H    0.966676   1.881957   0.000000
     4  H    1.881957   0.966676   2.525558   0.000000
 Stoichiometry    H2O2
 Framework group  C2[X(H2O2)]
 Deg. of freedom     4
 Full point group                 C2
 Largest Abelian subgroup         C2      NOp   2
 Largest concise Abelian subgroup C2      NOp   2
                         Standard orientation:                         
 ---------------------------------------------------------------------
 Center     Atomic     Atomic              Coordinates (Angstroms)
 Number     Number      Type              X           Y           Z
 ---------------------------------------------------------------------
    1          8             0        0.000000    0.729091   -0.037173
    2          8             0        0.000000   -0.729091   -0.037173
    3          1             0        0.891813    0.894024    0.297384
    4          1             0       -0.891813   -0.894024    0.297384
 ---------------------------------------------------------------------
 Rotational constants (GHZ):    303.5553515     26.6286733     24.9950697
 Standard basis: 6-311+G(d,p) (5D, 7F)
 There are    28 symmetry adapted basis functions of A   symmetry.
 There are    28 symmetry adapted basis functions of B   symmetry.
 Integral buffers will be    131072 words long.
 Raffenetti 2 integral format.
 Two-electron integral symmetry is turned on.
    56 basis functions,    88 primitive gaussians,    58 cartesian basis functions
     9 alpha electrons        9 beta electrons
       nuclear repulsion energy        36.6929096945 Hartrees.
 NAtoms=    4 NActive=    4 NUniq=    2 SFac= 3.00D+00 NAtFMM=   80 NAOKFM=F Big=F
 One-electron integrals computed using PRISM.
 NBasis=    56 RedAO= T  NBF=    28    28
 NBsUse=    56 1.00D-06 NBFU=    28    28
 Initial guess read from the read-write file:
 Initial guess orbital symmetries:
       Occupied  (A) (B) (A) (B) (A) (B) (A) (A) (B)
       Virtual   (B) (A) (B) (A) (B) (A) (A) (B) (B) (A) (B) (A)
                 (B) (B) (A) (B) (A) (B) (A) (B) (A) (A) (B) (B)
                 (A) (A) (B) (A) (B) (A) (A) (B) (B) (A) (B) (A)
                 (B) (A) (B) (A) (A) (B) (B) (A) (B) (A) (B)
 Requested convergence on RMS density matrix=1.00D-08 within 128 cycles.
 Requested convergence on MAX density matrix=1.00D-06.
 Requested convergence on             energy=1.00D-06.
 No special actions if energy rises.
 Keep R1 integrals in memory in canonical form, NReq=     3224073.
 SCF Done:  E(RB+HF-LYP) =  -151.601773366     A.U. after    7 cycles
             Convg  =    0.5962D-08             -V/T =  2.0027
             S**2   =   0.0000
 QCSCF skips out because SCF is already converged.
 ***** Axes restored to original set *****
 -------------------------------------------------------------------
 Center     Atomic                   Forces (Hartrees/Bohr)
 Number     Number              X              Y              Z
 -------------------------------------------------------------------
    1          8          -0.000058236    0.000380871   -0.000825305
    2          8           0.000058236   -0.000380871   -0.000825305
    3          1           0.000039890   -0.000294611    0.000825305
    4          1          -0.000039890    0.000294611    0.000825305
 -------------------------------------------------------------------
 Cartesian Forces:  Max     0.000825305 RMS     0.000516252

 GradGradGradGradGradGradGradGradGradGradGradGradGradGradGradGradGradGrad
 Berny optimization.
 Internal  Forces:  Max     0.001577541 RMS     0.000644345
 Search for a local minimum.
 Step number   2 out of a maximum of  20 on scan point     3 out of    37
 All quantities printed in internal units (Hartrees-Bohrs-Radians)
 Update second derivatives using D2CorX and points  1  2
 Trust test= 9.73D-01 RLast= 9.81D-03 DXMaxT set to 3.00D-01
 The second derivative matrix:
                          R1        R2        R3        A1        A2
           R1           0.30519
           R2          -0.00659   0.52712
           R3          -0.00659   0.00113   0.52712
           A1           0.06837  -0.00456   0.00174   0.22913
           A2           0.06837   0.00174  -0.00456   0.02446   0.22913
           D1          -0.00096   0.00204   0.00204   0.00722   0.00722
                          D1
           D1           0.00908
     Eigenvalues ---    0.17928   0.20455   0.37891   0.52611   0.52884
     Eigenvalues --- 1000.00000
 RFO step:  Lambda= 0.00000000D+00.
 Quartic linear search produced a step of -0.02245.
 Iteration  1 RMS(Cart)=  0.00010173 RMS(Int)=  0.00000001
 Iteration  2 RMS(Cart)=  0.00000000 RMS(Int)=  0.00000000
 Iteration  1 RMS(Cart)=  0.00000000 RMS(Int)=  0.00000000
 Variable       Old X    -DE/DX   Delta X   Delta X   Delta X     New X
                                 (Linear)    (Quad)   (Total)
    R1        2.75557   0.00000  -0.00010   0.00003  -0.00007   2.75550
    R2        1.82675   0.00002   0.00001   0.00002   0.00003   1.82678
    R3        1.82675   0.00002   0.00001   0.00002   0.00003   1.82678
    A1        1.74225   0.00003   0.00014   0.00000   0.00014   1.74239
    A2        1.74225   0.00003   0.00014   0.00000   0.00014   1.74239
    D1        2.42380  -0.00158   0.00000   0.00000   0.00000   2.42380
         Item               Value     Threshold  Converged?
 Maximum Force            0.000031     0.000450     YES
 RMS     Force            0.000022     0.000300     YES
 Maximum Displacement     0.000150     0.001800     YES
 RMS     Displacement     0.000102     0.001200     YES
 Predicted change in Energy=-4.828585D-09
 Optimization completed.
    -- Stationary point found.
                           ----------------------------
                           !   Optimized Parameters   !
                           ! (Angstroms and Degrees)  !
 --------------------------                            --------------------------
 ! Name  Definition              Value          Derivative Info.                !
 --------------------------------------------------------------------------------
 ! R1    R(1,2)                  1.4582         -DE/DX =    0.0                 !
 ! R2    R(1,3)                  0.9667         -DE/DX =    0.0                 !
 ! R3    R(2,4)                  0.9667         -DE/DX =    0.0                 !
 ! A1    A(2,1,3)               99.8238         -DE/DX =    0.0                 !
 ! A2    A(1,2,4)               99.8238         -DE/DX =    0.0                 !
 ! D1    D(3,1,2,4)            138.8736         -DE/DX =   -0.0016              !
 --------------------------------------------------------------------------------
 Iteration  1 RMS(Cart)=  0.06505110 RMS(Int)=  0.00393848
 Iteration  2 RMS(Cart)=  0.00302472 RMS(Int)=  0.00000191
 Iteration  3 RMS(Cart)=  0.00000132 RMS(Int)=  0.00000000
 Iteration  4 RMS(Cart)=  0.00000000 RMS(Int)=  0.00000000
 Iteration  1 RMS(Cart)=  0.00000000 RMS(Int)=  0.00000000
 GradGradGradGradGradGradGradGradGradGradGradGradGradGradGradGradGradGrad

                          Input orientation:                          
 ---------------------------------------------------------------------
 Center     Atomic     Atomic              Coordinates (Angstroms)
 Number     Number      Type              X           Y           Z
 ---------------------------------------------------------------------
    1          8             0       -0.712270   -0.155629    0.058983
    2          8             0        0.712270    0.155629    0.058983
    3          1             0       -1.069401    0.705559    0.314539
    4          1             0        1.069401   -0.705559    0.314539
 ---------------------------------------------------------------------
                    Distance matrix (angstroms):
                    1          2          3          4
     1  O    0.000000
     2  O    1.458148   0.000000
     3  H    0.966692   1.882042   0.000000
     4  H    1.882042   0.966692   2.562367   0.000000
 Stoichiometry    H2O2
 Framework group  C2[X(H2O2)]
 Deg. of freedom     4
 Full point group                 C2
 Largest Abelian subgroup         C2      NOp   2
 Largest concise Abelian subgroup C2      NOp   2
                         Standard orientation:                         
 ---------------------------------------------------------------------
 Center     Atomic     Atomic              Coordinates (Angstroms)
 Number     Number      Type              X           Y           Z
 ---------------------------------------------------------------------
    1          8             0        0.000000    0.729074   -0.028395
    2          8             0        0.000000   -0.729074   -0.028395
    3          1             0        0.917572    0.894144    0.227160
    4          1             0       -0.917572   -0.894144    0.227160
 ---------------------------------------------------------------------
 Rotational constants (GHZ):    304.3060344     26.7401534     24.8799321
 Standard basis: 6-311+G(d,p) (5D, 7F)
 There are    28 symmetry adapted basis functions of A   symmetry.
 There are    28 symmetry adapted basis functions of B   symmetry.
 Integral buffers will be    131072 words long.
 Raffenetti 2 integral format.
 Two-electron integral symmetry is turned on.
    56 basis functions,    88 primitive gaussians,    58 cartesian basis functions
     9 alpha electrons        9 beta electrons
       nuclear repulsion energy        36.6900966858 Hartrees.
 NAtoms=    4 NActive=    4 NUniq=    2 SFac= 3.00D+00 NAtFMM=   80 NAOKFM=F Big=F
 One-electron integrals computed using PRISM.
 NBasis=    56 RedAO= T  NBF=    28    28
 NBsUse=    56 1.00D-06 NBFU=    28    28
 Initial guess read from the read-write file:
 Initial guess orbital symmetries:
       Occupied  (A) (B) (A) (B) (A) (B) (A) (A) (B)
       Virtual   (B) (A) (B) (A) (B) (A) (A) (B) (B) (A) (B) (A)
                 (B) (B) (A) (B) (A) (B) (A) (B) (A) (A) (B) (B)
                 (A) (A) (B) (A) (B) (A) (A) (B) (B) (A) (B) (A)
                 (B) (A) (B) (A) (A) (B) (B) (A) (B) (A) (B)
 Harris functional with IExCor=  402 diagonalized for initial guess.
 ExpMin= 8.45D-02 ExpMax= 8.59D+03 ExpMxC= 1.30D+03 IAcc=2 IRadAn=         4 AccDes= 0.00D+00
 HarFok:  IExCor= 402 AccDes= 0.00D+00 IRadAn=         4 IDoV=1
 ScaDFX=  1.000000  1.000000  1.000000  1.000000
 Requested convergence on RMS density matrix=1.00D-08 within 128 cycles.
 Requested convergence on MAX density matrix=1.00D-06.
 Requested convergence on             energy=1.00D-06.
 No special actions if energy rises.
 Keep R1 integrals in memory in canonical form, NReq=     3224073.
 Integral accuracy reduced to 1.0D-05 until final iterations.
 Initial convergence to 1.0D-05 achieved.  Increase integral accuracy.
 SCF Done:  E(RB+HF-LYP) =  -151.601466759     A.U. after   10 cycles
             Convg  =    0.1704D-08             -V/T =  2.0027
             S**2   =   0.0000
 QCSCF skips out because SCF is already converged.
 ***** Axes restored to original set *****
 -------------------------------------------------------------------
 Center     Atomic                   Forces (Hartrees/Bohr)
 Number     Number              X              Y              Z
 -------------------------------------------------------------------
    1          8          -0.001041306   -0.000465394   -0.000952087
    2          8           0.001041306    0.000465394   -0.000952087
    3          1           0.000660547   -0.000273103    0.000952087
    4          1          -0.000660547    0.000273103    0.000952087
 -------------------------------------------------------------------
 Cartesian Forces:  Max     0.001041306 RMS     0.000777255

 GradGradGradGradGradGradGradGradGradGradGradGradGradGradGradGradGradGrad
 Berny optimization.
 Internal  Forces:  Max     0.001848730 RMS     0.000987576
 Search for a local minimum.
 Step number   1 out of a maximum of  20 on scan point     4 out of    37
 All quantities printed in internal units (Hartrees-Bohrs-Radians)
 Second derivative matrix not updated -- first step.
 The second derivative matrix:
                          R1        R2        R3        A1        A2
           R1           0.30519
           R2          -0.00659   0.52712
           R3          -0.00659   0.00113   0.52712
           A1           0.06837  -0.00456   0.00174   0.22913
           A2           0.06837   0.00174  -0.00456   0.02446   0.22913
           D1          -0.00096   0.00204   0.00204   0.00722   0.00722
                          D1
           D1           0.00908
     Eigenvalues ---    0.17928   0.20455   0.37891   0.52611   0.52884
     Eigenvalues --- 1000.00000
 RFO step:  Lambda=-1.25475972D-05.
 Linear search not attempted -- first point.
 Iteration  1 RMS(Cart)=  0.00318402 RMS(Int)=  0.00000635
 Iteration  2 RMS(Cart)=  0.00000680 RMS(Int)=  0.00000000
 Iteration  3 RMS(Cart)=  0.00000000 RMS(Int)=  0.00000000
 Iteration  1 RMS(Cart)=  0.00000000 RMS(Int)=  0.00000000
 Variable       Old X    -DE/DX   Delta X   Delta X   Delta X     New X
                                 (Linear)    (Quad)   (Total)
    R1        2.75550   0.00053   0.00000   0.00399   0.00399   2.75949
    R2        1.82678  -0.00024   0.00000  -0.00043  -0.00043   1.82636
    R3        1.82678  -0.00024   0.00000  -0.00043  -0.00043   1.82636
    A1        1.74239  -0.00101   0.00000  -0.00506  -0.00506   1.73733
    A2        1.74239  -0.00101   0.00000  -0.00506  -0.00506   1.73733
    D1        2.59833  -0.00185   0.00000   0.00000   0.00000   2.59833
         Item               Value     Threshold  Converged?
 Maximum Force            0.001010     0.000450     NO 
 RMS     Force            0.000698     0.000300     NO 
 Maximum Displacement     0.004328     0.001800     NO 
 RMS     Displacement     0.003188     0.001200     NO 
 Predicted change in Energy=-6.273799D-06
 GradGradGradGradGradGradGradGradGradGradGradGradGradGradGradGradGradGrad

                          Input orientation:                          
 ---------------------------------------------------------------------
 Center     Atomic     Atomic              Coordinates (Angstroms)
 Number     Number      Type              X           Y           Z
 ---------------------------------------------------------------------
    1          8             0       -0.713013   -0.157171    0.058903
    2          8             0        0.713013    0.157171    0.058903
    3          1             0       -1.067111    0.704967    0.314619
    4          1             0        1.067111   -0.704967    0.314619
 ---------------------------------------------------------------------
                    Distance matrix (angstroms):
                    1          2          3          4
     1  O    0.000000
     2  O    1.460261   0.000000
     3  H    0.966467   1.879976   0.000000
     4  H    1.879976   0.966467   2.557892   0.000000
 Stoichiometry    H2O2
 Framework group  C2[X(H2O2)]
 Deg. of freedom     4
 Full point group                 C2
 Largest Abelian subgroup         C2      NOp   2
 Largest concise Abelian subgroup C2      NOp   2
                         Standard orientation:                         
 ---------------------------------------------------------------------
 Center     Atomic     Atomic              Coordinates (Angstroms)
 Number     Number      Type              X           Y           Z
 ---------------------------------------------------------------------
    1          8             0        0.000000    0.730130   -0.028413
    2          8             0        0.000000   -0.730130   -0.028413
    3          1             0        0.918151    0.890339    0.227304
    4          1             0       -0.918151   -0.890339    0.227304
 ---------------------------------------------------------------------
 Rotational constants (GHZ):    303.6193813     26.6916970     24.8337754
 Standard basis: 6-311+G(d,p) (5D, 7F)
 There are    28 symmetry adapted basis functions of A   symmetry.
 There are    28 symmetry adapted basis functions of B   symmetry.
 Integral buffers will be    131072 words long.
 Raffenetti 2 integral format.
 Two-electron integral symmetry is turned on.
    56 basis functions,    88 primitive gaussians,    58 cartesian basis functions
     9 alpha electrons        9 beta electrons
       nuclear repulsion energy        36.6638491991 Hartrees.
 NAtoms=    4 NActive=    4 NUniq=    2 SFac= 3.00D+00 NAtFMM=   80 NAOKFM=F Big=F
 One-electron integrals computed using PRISM.
 NBasis=    56 RedAO= T  NBF=    28    28
 NBsUse=    56 1.00D-06 NBFU=    28    28
 Initial guess read from the read-write file:
 Initial guess orbital symmetries:
       Occupied  (A) (B) (A) (B) (A) (B) (A) (A) (B)
       Virtual   (B) (A) (B) (A) (B) (A) (A) (B) (B) (A) (B) (A)
                 (B) (B) (A) (B) (A) (B) (A) (B) (A) (A) (B) (B)
                 (A) (A) (B) (A) (B) (A) (A) (B) (B) (A) (B) (A)
                 (B) (A) (B) (A) (A) (B) (B) (A) (B) (A) (B)
 Requested convergence on RMS density matrix=1.00D-08 within 128 cycles.
 Requested convergence on MAX density matrix=1.00D-06.
 Requested convergence on             energy=1.00D-06.
 No special actions if energy rises.
 Keep R1 integrals in memory in canonical form, NReq=     3224073.
 SCF Done:  E(RB+HF-LYP) =  -151.601472935     A.U. after    7 cycles
             Convg  =    0.4589D-08             -V/T =  2.0027
             S**2   =   0.0000
 QCSCF skips out because SCF is already converged.
 ***** Axes restored to original set *****
 -------------------------------------------------------------------
 Center     Atomic                   Forces (Hartrees/Bohr)
 Number     Number              X              Y              Z
 -------------------------------------------------------------------
    1          8          -0.000056671    0.000327920   -0.000957141
    2          8           0.000056671   -0.000327920   -0.000957141
    3          1           0.000042502   -0.000251152    0.000957141
    4          1          -0.000042502    0.000251152    0.000957141
 -------------------------------------------------------------------
 Cartesian Forces:  Max     0.000957141 RMS     0.000578484

 GradGradGradGradGradGradGradGradGradGradGradGradGradGradGradGradGradGrad
 Berny optimization.
 Internal  Forces:  Max     0.001784559 RMS     0.000728700
 Search for a local minimum.
 Step number   2 out of a maximum of  20 on scan point     4 out of    37
 All quantities printed in internal units (Hartrees-Bohrs-Radians)
 Update second derivatives using D2CorX and points  1  2
 Trust test= 9.84D-01 RLast= 8.22D-03 DXMaxT set to 3.00D-01
 The second derivative matrix:
                          R1        R2        R3        A1        A2
           R1           0.30481
           R2          -0.00691   0.52749
           R3          -0.00691   0.00151   0.52749
           A1           0.06818  -0.00352   0.00278   0.23127
           A2           0.06818   0.00278  -0.00352   0.02659   0.23127
           D1          -0.00030   0.00181   0.00181   0.00607   0.00607
                          D1
           D1           0.00890
     Eigenvalues ---    0.18201   0.20455   0.38013   0.52611   0.52953
     Eigenvalues --- 1000.00000
 RFO step:  Lambda= 0.00000000D+00.
 Quartic linear search produced a step of -0.01915.
 Iteration  1 RMS(Cart)=  0.00007268 RMS(Int)=  0.00000000
 Iteration  2 RMS(Cart)=  0.00000000 RMS(Int)=  0.00000000
 Iteration  1 RMS(Cart)=  0.00000000 RMS(Int)=  0.00000000
 Variable       Old X    -DE/DX   Delta X   Delta X   Delta X     New X
                                 (Linear)    (Quad)   (Total)
    R1        2.75949   0.00000  -0.00008   0.00003  -0.00005   2.75945
    R2        1.82636   0.00001   0.00001   0.00001   0.00002   1.82638
    R3        1.82636   0.00001   0.00001   0.00001   0.00002   1.82638
    A1        1.73733   0.00002   0.00010   0.00000   0.00010   1.73743
    A2        1.73733   0.00002   0.00010   0.00000   0.00010   1.73743
    D1        2.59833  -0.00178   0.00000   0.00000   0.00000   2.59833
         Item               Value     Threshold  Converged?
 Maximum Force            0.000023     0.000450     YES
 RMS     Force            0.000017     0.000300     YES
 Maximum Displacement     0.000107     0.001800     YES
 RMS     Displacement     0.000073     0.001200     YES
 Predicted change in Energy=-2.666575D-09
 Optimization completed.
    -- Stationary point found.
                           ----------------------------
                           !   Optimized Parameters   !
                           ! (Angstroms and Degrees)  !
 --------------------------                            --------------------------
 ! Name  Definition              Value          Derivative Info.                !
 --------------------------------------------------------------------------------
 ! R1    R(1,2)                  1.4603         -DE/DX =    0.0                 !
 ! R2    R(1,3)                  0.9665         -DE/DX =    0.0                 !
 ! R3    R(2,4)                  0.9665         -DE/DX =    0.0                 !
 ! A1    A(2,1,3)               99.5418         -DE/DX =    0.0                 !
 ! A2    A(1,2,4)               99.5418         -DE/DX =    0.0                 !
 ! D1    D(3,1,2,4)            148.8736         -DE/DX =   -0.0018              !
 --------------------------------------------------------------------------------
 Iteration  1 RMS(Cart)=  0.06474477 RMS(Int)=  0.00393217
 Iteration  2 RMS(Cart)=  0.00309585 RMS(Int)=  0.00000207
 Iteration  3 RMS(Cart)=  0.00000146 RMS(Int)=  0.00000000
 Iteration  4 RMS(Cart)=  0.00000000 RMS(Int)=  0.00000000
 Iteration  1 RMS(Cart)=  0.00000000 RMS(Int)=  0.00000000
 GradGradGradGradGradGradGradGradGradGradGradGradGradGradGradGradGradGrad

                          Input orientation:                          
 ---------------------------------------------------------------------
 Center     Atomic     Atomic              Coordinates (Angstroms)
 Number     Number      Type              X           Y           Z
 ---------------------------------------------------------------------
    1          8             0       -0.711783   -0.162594    0.099401
    2          8             0        0.711783    0.162594    0.099401
    3          1             0       -1.076717    0.715118    0.274121
    4          1             0        1.076717   -0.715118    0.274121
 ---------------------------------------------------------------------
                    Distance matrix (angstroms):
                    1          2          3          4
     1  O    0.000000
     2  O    1.460236   0.000000
     3  H    0.966479   1.880038   0.000000
     4  H    1.880038   0.966479   2.585121   0.000000
 Stoichiometry    H2O2
 Framework group  C2[X(H2O2)]
 Deg. of freedom     4
 Full point group                 C2
 Largest Abelian subgroup         C2      NOp   2
 Largest concise Abelian subgroup C2      NOp   2
                         Standard orientation:                         
 ---------------------------------------------------------------------
 Center     Atomic     Atomic              Coordinates (Angstroms)
 Number     Number      Type              X           Y           Z
 ---------------------------------------------------------------------
    1          8             0        0.000000    0.730118   -0.019413
    2          8             0        0.000000   -0.730118   -0.019413
    3          1             0        0.936939    0.890425    0.155307
    4          1             0       -0.936939   -0.890425    0.155307
 ---------------------------------------------------------------------
 Rotational constants (GHZ):    304.1782617     26.7753588     24.7486513
 Standard basis: 6-311+G(d,p) (5D, 7F)
 There are    28 symmetry adapted basis functions of A   symmetry.
 There are    28 symmetry adapted basis functions of B   symmetry.
 Integral buffers will be    131072 words long.
 Raffenetti 2 integral format.
 Two-electron integral symmetry is turned on.
    56 basis functions,    88 primitive gaussians,    58 cartesian basis functions
[...]
 Variable       Old X    -DE/DX   Delta X   Delta X   Delta X     New X
                                 (Linear)    (Quad)   (Total)
    R1        2.74288   0.00016   0.00000   0.00396   0.00396   2.74684
    R2        1.82883  -0.00038   0.00000  -0.00083  -0.00083   1.82800
    R3        1.82883  -0.00038   0.00000  -0.00083  -0.00083   1.82800
    A1        1.76281  -0.00157   0.00000  -0.00773  -0.00773   1.75508
    A2        1.76281  -0.00157   0.00000  -0.00773  -0.00773   1.75508
    D1        2.07474   0.00016   0.00000   0.00000   0.00000   2.07474
         Item               Value     Threshold  Converged?
 Maximum Force            0.001573     0.000450     NO 
 RMS     Force            0.001026     0.000300     NO 
 Maximum Displacement     0.007648     0.001800     NO 
 RMS     Displacement     0.005447     0.001200     NO 
 Predicted change in Energy=-1.279503D-05
 GradGradGradGradGradGradGradGradGradGradGradGradGradGradGradGradGradGrad

                          Input orientation:                          
 ---------------------------------------------------------------------
 Center     Atomic     Atomic              Coordinates (Angstroms)
 Number     Number      Type              X           Y           Z
 ---------------------------------------------------------------------
    1          8             0       -0.493125    0.533891    0.428536
    2          8             0        0.493125   -0.533891    0.428536
    3          1             0       -1.214910    0.108516   -0.055014
    4          1             0        1.214910   -0.108516   -0.055014
 ---------------------------------------------------------------------
                    Distance matrix (angstroms):
                    1          2          3          4
     1  O    0.000000
     2  O    1.453564   0.000000
     3  H    0.967336   1.887828   0.000000
     4  H    1.887828   0.967336   2.439494   0.000000
 Stoichiometry    H2O2
 Framework group  C2[X(H2O2)]
 Deg. of freedom     4
 Full point group                 C2
 Largest Abelian subgroup         C2      NOp   2
 Largest concise Abelian subgroup C2      NOp   2
                         Standard orientation:                         
 ---------------------------------------------------------------------
 Center     Atomic     Atomic              Coordinates (Angstroms)
 Number     Number      Type              X           Y           Z
 ---------------------------------------------------------------------
    1          8             0        0.000000    0.726782   -0.053728
    2          8             0        0.000000   -0.726782   -0.053728
    3          1             0        0.818839    0.904038    0.429823
    4          1             0       -0.818839   -0.904038    0.429823
 ---------------------------------------------------------------------
 Rotational constants (GHZ):    303.2899206     26.4365452     25.4006864
 Standard basis: 6-311+G(d,p) (5D, 7F)
 There are    28 symmetry adapted basis functions of A   symmetry.
 There are    28 symmetry adapted basis functions of B   symmetry.
 Integral buffers will be    131072 words long.
 Raffenetti 2 integral format.
 Two-electron integral symmetry is turned on.
    56 basis functions,    88 primitive gaussians,    58 cartesian basis functions
     9 alpha electrons        9 beta electrons
       nuclear repulsion energy        36.7541317149 Hartrees.
 NAtoms=    4 NActive=    4 NUniq=    2 SFac= 3.00D+00 NAtFMM=   80 NAOKFM=F Big=F
 One-electron integrals computed using PRISM.
 NBasis=    56 RedAO= T  NBF=    28    28
 NBsUse=    56 1.00D-06 NBFU=    28    28
 Initial guess read from the read-write file:
 Initial guess orbital symmetries:
       Occupied  (A) (B) (A) (B) (A) (B) (A) (A) (B)
       Virtual   (B) (A) (B) (A) (B) (A) (A) (B) (B) (A) (B) (A)
                 (B) (B) (A) (B) (A) (B) (A) (B) (A) (A) (B) (B)
                 (A) (A) (B) (B) (A) (A) (A) (B) (A) (B) (B) (A)
                 (B) (A) (B) (A) (A) (B) (B) (A) (B) (A) (B)
 Requested convergence on RMS density matrix=1.00D-08 within 128 cycles.
 Requested convergence on MAX density matrix=1.00D-06.
 Requested convergence on             energy=1.00D-06.
 No special actions if energy rises.
 Keep R1 integrals in memory in canonical form, NReq=     3224073.
 SCF Done:  E(RB+HF-LYP) =  -151.602059305     A.U. after    7 cycles
             Convg  =    0.6611D-08             -V/T =  2.0027
             S**2   =   0.0000
 QCSCF skips out because SCF is already converged.
 ***** Axes restored to original set *****
 -------------------------------------------------------------------
 Center     Atomic                   Forces (Hartrees/Bohr)
 Number     Number              X              Y              Z
 -------------------------------------------------------------------
    1          8           0.000083801    0.000048672   -0.000135553
    2          8          -0.000083801   -0.000048672   -0.000135553
    3          1          -0.000085275   -0.000045237    0.000135553
    4          1           0.000085275    0.000045237    0.000135553
 -------------------------------------------------------------------
 Cartesian Forces:  Max     0.000135553 RMS     0.000096141

 GradGradGradGradGradGradGradGradGradGradGradGradGradGradGradGradGradGrad
 Berny optimization.
 Internal  Forces:  Max     0.000296897 RMS     0.000123429
 Search for a local minimum.
 Step number   2 out of a maximum of  20 on scan point    37 out of    37
 All quantities printed in internal units (Hartrees-Bohrs-Radians)
 Update second derivatives using D2CorX and points  1  2
 Trust test= 9.72D-01 RLast= 1.17D-02 DXMaxT set to 3.00D-01
 The second derivative matrix:
                          R1        R2        R3        A1        A2
           R1           0.30051
           R2          -0.00525   0.52610
           R3          -0.00525   0.00011   0.52610
           A1           0.06700  -0.00686  -0.00056   0.22400
           A2           0.06700  -0.00056  -0.00686   0.01932   0.22400
           D1           0.03360  -0.00434  -0.00434   0.01821   0.01821
                          D1
           D1           0.01344
     Eigenvalues ---    0.17294   0.20455   0.37020   0.52611   0.52690
     Eigenvalues --- 1000.00000
 RFO step:  Lambda= 0.00000000D+00.
 Quartic linear search produced a step of -0.02271.
 Iteration  1 RMS(Cart)=  0.00012914 RMS(Int)=  0.00000001
 Iteration  2 RMS(Cart)=  0.00000001 RMS(Int)=  0.00000000
 Iteration  1 RMS(Cart)=  0.00000000 RMS(Int)=  0.00000000
 Variable       Old X    -DE/DX   Delta X   Delta X   Delta X     New X
                                 (Linear)    (Quad)   (Total)
    R1        2.74684   0.00000  -0.00009   0.00002  -0.00007   2.74677
    R2        1.82800   0.00002   0.00002   0.00002   0.00003   1.82803
    R3        1.82800   0.00002   0.00002   0.00002   0.00003   1.82803
    A1        1.75508   0.00004   0.00018   0.00000   0.00017   1.75525
    A2        1.75508   0.00004   0.00018   0.00000   0.00017   1.75525
    D1        2.07474   0.00030   0.00000   0.00000   0.00000   2.07474
         Item               Value     Threshold  Converged?
 Maximum Force            0.000037     0.000450     YES
 RMS     Force            0.000026     0.000300     YES
 Maximum Displacement     0.000189     0.001800     YES
 RMS     Displacement     0.000129     0.001200     YES
 Predicted change in Energy=-6.747238D-09
 Optimization completed.
    -- Stationary point found.
                           ----------------------------
                           !   Optimized Parameters   !
                           ! (Angstroms and Degrees)  !
 --------------------------                            --------------------------
 ! Name  Definition              Value          Derivative Info.                !
 --------------------------------------------------------------------------------
 ! R1    R(1,2)                  1.4536         -DE/DX =    0.0                 !
 ! R2    R(1,3)                  0.9673         -DE/DX =    0.0                 !
 ! R3    R(2,4)                  0.9673         -DE/DX =    0.0                 !
 ! A1    A(2,1,3)              100.5586         -DE/DX =    0.0                 !
 ! A2    A(1,2,4)              100.5586         -DE/DX =    0.0                 !
 ! D1    D(3,1,2,4)            118.8736         -DE/DX =    0.0003              !
 --------------------------------------------------------------------------------
 GradGradGradGradGradGradGradGradGradGradGradGradGradGradGradGradGradGrad

 Summary of Optimized Potential Surface Scan
                           1         2         3         4         5
     EIGENVALUES --  -151.60206-151.60200-151.60177-151.60147-151.60118
           R1           1.45352   1.45587   1.45818   1.46026   1.46190
           R2           0.96737   0.96699   0.96668   0.96647   0.96634
           R3           0.96737   0.96699   0.96668   0.96647   0.96634
           A1         100.56295 100.17824  99.82379  99.54180  99.33415
           A2         100.56295 100.17824  99.82379  99.54180  99.33415
           D1         118.87361 128.87361 138.87361 148.87361 158.87361
                           6         7         8         9        10
     EIGENVALUES --  -151.60096-151.60086-151.60092-151.60112-151.60140
           R1           1.46296   1.46296   1.46339   1.46311   1.46069
           R2           0.96627   0.96627   0.96625   0.96626   0.96643
           R3           0.96627   0.96627   0.96625   0.96626   0.96643
           A1          99.20645  99.20783  99.15759  99.18957  99.48851
           A2          99.20645  99.20783  99.15759  99.18957  99.48851
           D1         168.87361 178.87361-171.12639-161.12639-151.12639
                          11        12        13        14        15
     EIGENVALUES --  -151.60171-151.60196-151.60206-151.60194-151.60151
           R1           1.45867   1.45640   1.45407   1.45193   1.45022
           R2           0.96663   0.96690   0.96725   0.96766   0.96809
           R3           0.96663   0.96690   0.96725   0.96766   0.96809
           A1          99.75647 100.08644 100.46750 100.89104 101.35149
           A2          99.75647 100.08644 100.46750 100.89104 101.35149
           D1        -141.12639-131.12639-121.12639-111.12639-101.12639
                          16        17        18        19        20
     EIGENVALUES --  -151.60074-151.59963-151.59823-151.59659-151.59479
           R1           1.44918   1.44899   1.44969   1.45121   1.45337
           R2           0.96849   0.96876   0.96888   0.96882   0.96860
           R3           0.96849   0.96876   0.96888   0.96882   0.96860
           A1         101.83341 102.31529 102.78893 103.25994 103.72818
           A2         101.83341 102.31529 102.78893 103.25994 103.72818
           D1         -91.12639 -81.12639 -71.12639 -61.12639 -51.12639
                          21        22        23        24        25
     EIGENVALUES --  -151.59298-151.59130-151.58991-151.58896-151.58858
           R1           1.45591   1.45844   1.46062   1.46215   1.46278
           R2           0.96830   0.96797   0.96769   0.96749   0.96743
           R3           0.96830   0.96797   0.96769   0.96749   0.96743
           A1         104.18002 104.60016 104.95419 105.19870 105.29949
           A2         104.18002 104.60016 104.95419 105.19870 105.29949
           D1         -41.12639 -31.12639 -21.12639 -11.12639  -1.12639
                          26        27        28        29        30
     EIGENVALUES --  -151.58882-151.58965-151.59095-151.59258-151.59438
           R1           1.46240   1.46106   1.45900   1.45651   1.45392
           R2           0.96747   0.96764   0.96791   0.96822   0.96853
           R3           0.96747   0.96764   0.96791   0.96822   0.96853
           A1         105.23484 105.02028 104.68930 104.27991 103.83347
           A2         105.23484 105.02028 104.68930 104.27991 103.83347
           D1           8.87361  18.87361  28.87361  38.87361  48.87361
                          31        32        33        34        35
     EIGENVALUES --  -151.59619-151.59788-151.59934-151.60052-151.60137
           R1           1.45163   1.44995   1.44905   1.44904   1.44990
           R2           0.96877   0.96888   0.96880   0.96857   0.96820
           R3           0.96877   0.96888   0.96880   0.96857   0.96820
           A1         103.36826 102.89692 102.42322 101.94214 101.45873
           A2         103.36826 102.89692 102.42322 101.94214 101.45873
           D1          58.87361  68.87361  78.87361  88.87361  98.87361
                          36        37
     EIGENVALUES --  -151.60187-151.60206
           R1           1.45149   1.45356
           R2           0.96776   0.96734
           R3           0.96776   0.96734
           A1         100.99134 100.55861
           A2         100.99134 100.55861
           D1         108.87361 118.87361
                          Input orientation:                          
 ---------------------------------------------------------------------
 Center     Atomic     Atomic              Coordinates (Angstroms)
 Number     Number      Type              X           Y           Z
 ---------------------------------------------------------------------
    1          8             0       -0.493125    0.533891    0.428536
    2          8             0        0.493125   -0.533891    0.428536
    3          1             0       -1.214910    0.108516   -0.055014
    4          1             0        1.214910   -0.108516   -0.055014
 ---------------------------------------------------------------------
                    Distance matrix (angstroms):
                    1          2          3          4
     1  O    0.000000
     2  O    1.453564   0.000000
     3  H    0.967336   1.887828   0.000000
     4  H    1.887828   0.967336   2.439494   0.000000
 Stoichiometry    H2O2
 Framework group  C2[X(H2O2)]
 Deg. of freedom     4
 Full point group                 C2
 Largest Abelian subgroup         C2      NOp   2
 Largest concise Abelian subgroup C2      NOp   2
                         Standard orientation:                         
 ---------------------------------------------------------------------
 Center     Atomic     Atomic              Coordinates (Angstroms)
 Number     Number      Type              X           Y           Z
 ---------------------------------------------------------------------
    1          8             0        0.000000    0.726782   -0.053728
    2          8             0        0.000000   -0.726782   -0.053728
    3          1             0        0.818839    0.904038    0.429823
    4          1             0       -0.818839   -0.904038    0.429823
 ---------------------------------------------------------------------
 Rotational constants (GHZ):    303.2899206     26.4365452     25.4006864

 **********************************************************************

            Population analysis using the SCF density.

 **********************************************************************

 Orbital symmetries:
       Occupied  (A) (B) (A) (B) (A) (B) (A) (A) (B)
       Virtual   (B) (A) (B) (A) (B) (A) (A) (B) (B) (A) (B) (A)
                 (B) (B) (A) (B) (A) (B) (A) (B) (A) (A) (B) (B)
                 (A) (A) (B) (B) (A) (A) (A) (B) (A) (B) (B) (A)
                 (B) (A) (B) (A) (A) (B) (B) (A) (B) (A) (B)
 The electronic state is 1-A.
 Alpha  occ. eigenvalues --  -19.19421 -19.19415  -1.13579  -0.91668  -0.54834
 Alpha  occ. eigenvalues --   -0.50975  -0.43510  -0.34290  -0.29547
 Alpha virt. eigenvalues --   -0.01612   0.02143   0.07186   0.14056   0.14401
 Alpha virt. eigenvalues --    0.17156   0.18662   0.18715   0.20242   0.25823
 Alpha virt. eigenvalues --    0.31282   0.46143   0.47649   0.92510   0.95092
 Alpha virt. eigenvalues --    0.95185   0.95932   1.02389   1.05781   1.26608
 Alpha virt. eigenvalues --    1.27021   1.38414   1.41467   1.50020   1.59310
 Alpha virt. eigenvalues --    1.95738   1.99552   2.40164   2.49305   2.54689
 Alpha virt. eigenvalues --    2.61723   2.74787   3.07131   3.09656   3.19309
 Alpha virt. eigenvalues --    3.30313   3.61069   3.72429   3.85363   4.73413
 Alpha virt. eigenvalues --    4.87579   4.92148   5.29620   5.44662   5.59653
 Alpha virt. eigenvalues --   49.76684  49.80177
          Condensed to atoms (all electrons):
              1          2          3          4
     1  O    7.977069   0.074325   0.241873  -0.033256
     2  O    0.074325   7.977069  -0.033256   0.241873
     3  H    0.241873  -0.033256   0.527257   0.004117
     4  H   -0.033256   0.241873   0.004117   0.527257
 Mulliken atomic charges:
              1
     1  O   -0.260010
     2  O   -0.260010
     3  H    0.260010
     4  H    0.260010
 Sum of Mulliken charges=   0.00000
 Atomic charges with hydrogens summed into heavy atoms:
              1
     1  O    0.000000
     2  O    0.000000
     3  H    0.000000
     4  H    0.000000
 Sum of Mulliken charges=   0.00000
 Electronic spatial extent (au):  <R**2>=    67.3203
 Charge=     0.0000 electrons
 Dipole moment (field-independent basis, Debye):
    X=     0.0000    Y=     0.0000    Z=     1.7969  Tot=     1.7969
 Quadrupole moment (field-independent basis, Debye-Ang):
   XX=    -9.6545   YY=   -11.7777   ZZ=   -12.2333
   XY=     3.2457   XZ=     0.0000   YZ=     0.0000
 Traceless Quadrupole moment (field-independent basis, Debye-Ang):
   XX=     1.5673   YY=    -0.5558   ZZ=    -1.0115
   XY=     3.2457   XZ=     0.0000   YZ=     0.0000
 Octapole moment (field-independent basis, Debye-Ang**2):
  XXX=     0.0000  YYY=     0.0000  ZZZ=     1.1321  XYY=     0.0000
  XXY=     0.0000  XXZ=     1.3860  XZZ=     0.0000  YZZ=     0.0000
  YYZ=     1.9759  XYZ=     1.6902
 Hexadecapole moment (field-independent basis, Debye-Ang**3):
 XXXX=   -11.0035 YYYY=   -47.0170 ZZZZ=   -12.0181 XXXY=     0.5954
 XXXZ=     0.0000 YYYX=     1.6079 YYYZ=     0.0000 ZZZX=     0.0000
 ZZZY=     0.0000 XXYY=    -8.8222 XXZZ=    -3.5953 YYZZ=   -10.7518
 XXYZ=     0.0000 YYXZ=     0.0000 ZZXY=     0.0417
 N-N= 3.675413171486D+01 E-N=-4.323943036523D+02  KE= 1.511992763160D+02
 Symmetry A    KE= 7.742395663231D+01
 Symmetry B    KE= 7.377531968367D+01
 1\1\GINC-NODE52\Scan\RB3LYP\6-311+G(d,p)\H2O2\ALONGD\31-Jan-2019\0\\# 
 opt=(modredundant, calcfc, noeigentest) b3lyp/6-311+g(d,p) scf=xqc\\na
 me\\0,1\O,-0.4931254337,0.5338911142,0.428536104\O,0.4931254337,-0.533
 8911142,0.428536104\H,-1.2149101311,0.1085159153,-0.055014364\H,1.2149
 101311,-0.1085159153,-0.055014364\\Version=AM64L-G03RevD.01\State=1-A\
 HF=-151.6020593,-151.6019978,-151.6017734,-151.6014729,-151.6011773,-1
 51.6009576,-151.6008648,-151.6009242,-151.601118,-151.6014031,-151.601
 7095,-151.6019581,-151.6020645,-151.6019382,-151.6015085,-151.600738,-
 151.5996337,-151.5982291,-151.5965853,-151.5947925,-151.5929787,-151.5
 912967,-151.589907,-151.5889621,-151.5885813,-151.5888236,-151.5896505
 ,-151.5909523,-151.5925827,-151.5943805,-151.5961905,-151.5978769,-151
 .5993418,-151.6005175,-151.6013651,-151.6018699,-151.6020593\RMSD=4.21
 8e-09,6.306e-09,5.962e-09,4.589e-09,2.656e-09,6.006e-09,5.330e-09,2.77
 1e-09,4.093e-09,2.719e-09,4.173e-09,5.139e-09,5.511e-09,5.737e-09,5.88
 3e-09,5.916e-09,5.701e-09,5.598e-09,5.613e-09,5.562e-09,5.247e-09,4.63
 7e-09,3.638e-09,2.410e-09,8.035e-09,3.719e-09,2.204e-09,3.646e-09,4.81
 3e-09,5.533e-09,5.901e-09,5.978e-09,5.961e-09,6.048e-09,7.306e-09,6.48
 8e-09,6.611e-09\Thermal=0.,0.,0.,0.,0.,0.,0.,0.,0.,0.,0.,0.,0.,0.,0.,0
 .,0.,0.,0.,0.,0.,0.,0.,0.,0.,0.,0.,0.,0.,0.,0.,0.,0.,0.,0.,0.,0.\PG=C0
 2 [X(H2O2)]\\@


 IN THE UNIVERSE THE DIFFICULT THINGS ARE DONE AS IF THEY WERE EASY.

                                                          -- LAO-TSU
 Job cpu time:  0 days  0 hours 30 minutes  2.8 seconds.
 File lengths (MBytes):  RWF=     17 Int=      0 D2E=      0 Chk=      7 Scr=      1
 Normal termination of Gaussian 03 at Thu Jan 31 07:15:02 2019.
