 Entering Gaussian System, Link 0=g16
 Initial command:
 /home/gridsan/groups/GRPAPI/Software/g16/l1.exe "/state/partition1/user/alongd/a53790-23475474/Gau-94566.inp" -scrdir="/state/partition1/user/alongd/a53790-23475474/"
 Entering Link 1 = /home/gridsan/groups/GRPAPI/Software/g16/l1.exe PID=     94568.
  
 Copyright (c) 1988-2017, Gaussian, Inc.  All Rights Reserved.
  
 This is part of the Gaussian(R) 16 program.  It is based on
 the Gaussian(R) 09 system (copyright 2009, Gaussian, Inc.),
 the Gaussian(R) 03 system (copyright 2003, Gaussian, Inc.),
 the Gaussian(R) 98 system (copyright 1998, Gaussian, Inc.),
 the Gaussian(R) 94 system (copyright 1995, Gaussian, Inc.),
 the Gaussian 92(TM) system (copyright 1992, Gaussian, Inc.),
 the Gaussian 90(TM) system (copyright 1990, Gaussian, Inc.),
 the Gaussian 88(TM) system (copyright 1988, Gaussian, Inc.),
 the Gaussian 86(TM) system (copyright 1986, Carnegie Mellon
 University), and the Gaussian 82(TM) system (copyright 1983,
 Carnegie Mellon University). Gaussian is a federally registered
 trademark of Gaussian, Inc.
  
 This software contains proprietary and confidential information,
 including trade secrets, belonging to Gaussian, Inc.
  
 This software is provided under written license and may be
 used, copied, transmitted, or stored only in accord with that
 written license.
  
 The following legend is applicable only to US Government
 contracts under FAR:
  
                    RESTRICTED RIGHTS LEGEND
  
 Use, reproduction and disclosure by the US Government is
 subject to restrictions as set forth in subparagraphs (a)
 and (c) of the Commercial Computer Software - Restricted
 Rights clause in FAR 52.227-19.
  
 Gaussian, Inc.
 340 Quinnipiac St., Bldg. 40, Wallingford CT 06492
  
  
 ---------------------------------------------------------------
 Warning -- This program may not be used in any manner that
 competes with the business of Gaussian, Inc. or will provide
 assistance to any competitor of Gaussian, Inc.  The licensee
 of this program is prohibited from giving any competitor of
 Gaussian, Inc. access to this program.  By using this program,
 the user acknowledges that Gaussian, Inc. is engaged in the
 business of creating and licensing software in the field of
 computational chemistry and represents and warrants to the
 licensee that it is not a competitor of Gaussian, Inc. and that
 it will not use this program in any manner prohibited above.
 ---------------------------------------------------------------
  

 Cite this work as:
 Gaussian 16, Revision B.01,
 M. J. Frisch, G. W. Trucks, H. B. Schlegel, G. E. Scuseria, 
 M. A. Robb, J. R. Cheeseman, G. Scalmani, V. Barone, 
 G. A. Petersson, H. Nakatsuji, X. Li, M. Caricato, A. V. Marenich, 
 J. Bloino, B. G. Janesko, R. Gomperts, B. Mennucci, H. P. Hratchian, 
 J. V. Ortiz, A. F. Izmaylov, J. L. Sonnenberg, D. Williams-Young, 
 F. Ding, F. Lipparini, F. Egidi, J. Goings, B. Peng, A. Petrone, 
 T. Henderson, D. Ranasinghe, V. G. Zakrzewski, J. Gao, N. Rega, 
 G. Zheng, W. Liang, M. Hada, M. Ehara, K. Toyota, R. Fukuda, 
 J. Hasegawa, M. Ishida, T. Nakajima, Y. Honda, O. Kitao, H. Nakai, 
 T. Vreven, K. Throssell, J. A. Montgomery, Jr., J. E. Peralta, 
 F. Ogliaro, M. J. Bearpark, J. J. Heyd, E. N. Brothers, K. N. Kudin, 
 V. N. Staroverov, T. A. Keith, R. Kobayashi, J. Normand, 
 K. Raghavachari, A. P. Rendell, J. C. Burant, S. S. Iyengar, 
 J. Tomasi, M. Cossi, J. M. Millam, M. Klene, C. Adamo, R. Cammi, 
 J. W. Ochterski, R. L. Martin, K. Morokuma, O. Farkas, 
 J. B. Foresman, and D. J. Fox, Gaussian, Inc., Wallingford CT, 2016.
 
 ******************************************
 Gaussian 16:  ES64L-G16RevB.01 20-Dec-2017
                27-Jul-2023 
 ******************************************
 %chk=check.chk
 %mem=14336mb
 %NProcShared=8
 Will use up to    8 processors via shared memory.
 ----------------------------------------------------------------------
 #P opt=(ts, modredundant, calcfc, noeigentest, maxStep=5) scf=(tight, 
 direct) integral=(grid=ultrafine, Acc2E=12) guess=read ub3lyp/cbsb7 IO
 p(2/9=2000) scf=xqc
 ----------------------------------------------------------------------
 1/5=1,8=5,10=4,11=1,18=120,26=4,38=1/1,3;
 2/9=2000,12=2,17=6,18=5,40=1/2;
 3/5=4,6=6,7=700,11=2,25=1,27=12,30=1,71=2,74=-5,75=-5,116=2,140=1/1,2,3;
 4/5=1/1;
 5/5=2,8=3,13=1,32=2,38=6,87=12/2,8;
 8/6=4,10=90,11=11,87=12/1;
 11/6=1,8=1,9=11,15=111,16=1,87=12/1,2,10;
 10/6=1,13=1,87=12/2;
 6/7=2,8=2,9=2,10=2,28=1,87=12/1;
 7/10=1,18=20,25=1,87=12/1,2,3,16;
 1/5=1,8=5,10=4,11=1,18=20,26=4/3(2);
 2/9=2000/2;
 99//99;
 2/9=2000/2;
 3/5=4,6=6,7=700,11=2,25=1,27=12,30=1,71=1,74=-5,75=-5,116=2/1,2,3;
 4/5=5,16=3,69=1/1;
 5/5=2,8=3,13=1,32=2,38=5,87=12/2,8;
 7/87=12/1,2,3,16;
 1/5=1,8=5,11=1,18=20,26=4/3(-5);
 2/9=2000/2;
 6/7=2,8=2,9=2,10=2,19=2,28=1,87=12/1;
 99/9=1/99;
 Leave Link    1 at Thu Jul 27 12:59:17 2023, MaxMem=  1879048192 cpu:               0.3 elap:               0.0
 (Enter /home/gridsan/groups/GRPAPI/Software/g16/l101.exe)
 ---
 TS0
 ---
 Symbolic Z-matrix:
 Charge =  0 Multiplicity = 2
 N                    -1.72252  -1.51457  -0.02718 
 O                    -0.52576  -2.0929   -0.0659 
 H                    -2.30521  -2.25015   0.39835 
 H                     0.16179  -1.36789  -0.28027 
 N                     1.28513  -0.31326  -0.0295 
 H                     1.57277  -0.09008   0.94088 
 
 Add virtual bond connecting atoms N5         and H4         Dist= 2.95D+00.
 The following ModRedundant input section has been read:
 D       3       1       2       4 S  45 8.0000                                
 
 ITRead=  0  0  0  0  0  0
 MicOpt= -1 -1 -1 -1 -1 -1
 NAtoms=      6 NQM=        6 NQMF=       0 NMMI=      0 NMMIF=      0
                NMic=       0 NMicF=      0.
                    Isotopes and Nuclear Properties:
 (Nuclear quadrupole moments (NQMom) in fm**2, nuclear magnetic moments (NMagM)
  in nuclear magnetons)

  Atom         1           2           3           4           5           6
 IAtWgt=          14          16           1           1          14           1
 AtmWgt=  14.0030740  15.9949146   1.0078250   1.0078250  14.0030740   1.0078250
 NucSpn=           2           0           1           1           2           1
 AtZEff=  -0.0000000  -0.0000000  -0.0000000  -0.0000000  -0.0000000  -0.0000000
 NQMom=    2.0440000   0.0000000   0.0000000   0.0000000   2.0440000   0.0000000
 NMagM=    0.4037610   0.0000000   2.7928460   2.7928460   0.4037610   2.7928460
 AtZNuc=   7.0000000   8.0000000   1.0000000   1.0000000   7.0000000   1.0000000
 Leave Link  101 at Thu Jul 27 12:59:18 2023, MaxMem=  1879048192 cpu:               3.6 elap:               0.7
 (Enter /home/gridsan/groups/GRPAPI/Software/g16/l103.exe)

 GradGradGradGradGradGradGradGradGradGradGradGradGradGradGradGradGradGrad
 Berny optimization.
 Initialization pass.
                           ----------------------------
                           !    Initial Parameters    !
                           ! (Angstroms and Degrees)  !
 --------------------------                            --------------------------
 ! Name  Definition              Value          Derivative Info.                !
 --------------------------------------------------------------------------------
 ! R1    R(1,2)                  1.3297         calculate D2E/DX2 analytically  !
 ! R2    R(1,3)                  1.0304         calculate D2E/DX2 analytically  !
 ! R3    R(2,4)                  1.0219         calculate D2E/DX2 analytically  !
 ! R4    R(4,5)                  1.5611         calculate D2E/DX2 analytically  !
 ! R5    R(5,6)                  1.0364         calculate D2E/DX2 analytically  !
 ! A1    A(2,1,3)              102.1514         calculate D2E/DX2 analytically  !
 ! A2    A(1,2,4)              107.6419         calculate D2E/DX2 analytically  !
 ! A3    A(2,4,5)              158.393          calculate D2E/DX2 analytically  !
 ! A4    A(4,5,6)              119.7082         calculate D2E/DX2 analytically  !
 ! D1    D(3,1,2,4)           -167.5736         Scan                            !
 ! D2    D(1,2,4,5)            101.0654         calculate D2E/DX2 analytically  !
 ! D3    D(2,4,5,6)             -6.6868         calculate D2E/DX2 analytically  !
 --------------------------------------------------------------------------------
 Trust Radius=5.00D-02 FncErr=1.00D-07 GrdErr=1.00D-06 EigMax=2.50D+02 EigMin=1.00D-04
 Number of optimizations in scan=  46
 Number of steps in this run=     22 maximum allowed number of steps=    100.
 Search for a saddle point of order  1.
 GradGradGradGradGradGradGradGradGradGradGradGradGradGradGradGradGradGrad

 Leave Link  103 at Thu Jul 27 12:59:18 2023, MaxMem=  1879048192 cpu:               0.1 elap:               0.0
 (Enter /home/gridsan/groups/GRPAPI/Software/g16/l202.exe)
                          Input orientation:                          
 ---------------------------------------------------------------------
 Center     Atomic      Atomic             Coordinates (Angstroms)
 Number     Number       Type             X           Y           Z
 ---------------------------------------------------------------------
      1          7           0       -1.722519   -1.514568   -0.027175
      2          8           0       -0.525756   -2.092903   -0.065903
      3          1           0       -2.305207   -2.250149    0.398348
      4          1           0        0.161793   -1.367890   -0.280269
      5          7           0        1.285130   -0.313260   -0.029500
      6          1           0        1.572770   -0.090077    0.940877
 ---------------------------------------------------------------------
                    Distance matrix (angstroms):
                    1          2          3          4          5
     1  N    0.000000
     2  O    1.329742   0.000000
     3  H    1.030376   1.845725   0.000000
     4  H    1.906883   1.021920   2.706472   0.000000
     5  N    3.238688   2.539244   4.101843   1.561094   0.000000
     6  H    3.718229   3.070624   4.472019   2.261606   1.036426
                    6
     6  H    0.000000
 Stoichiometry    H3N2O(2)
 Framework group  C1[X(H3N2O)]
 Deg. of freedom    12
 Full point group                 C1      NOp   1
 Largest Abelian subgroup         C1      NOp   1
 Largest concise Abelian subgroup C1      NOp   1
                         Standard orientation:                         
 ---------------------------------------------------------------------
 Center     Atomic      Atomic             Coordinates (Angstroms)
 Number     Number       Type             X           Y           Z
 ---------------------------------------------------------------------
      1          7           0        1.332065   -0.491630   -0.065712
      2          8           0        0.546272    0.577456    0.022595
      3          1           0        2.179721   -0.179296    0.429869
      4          1           0       -0.394637    0.294287   -0.258166
      5          7           0       -1.886960   -0.137397   -0.104421
      6          1           0       -2.270993   -0.331445    0.838470
 ---------------------------------------------------------------------
 Rotational constants (GHZ):          48.7604741           5.5684756           5.1119772
 Leave Link  202 at Thu Jul 27 12:59:19 2023, MaxMem=  1879048192 cpu:               0.1 elap:               0.0
 (Enter /home/gridsan/groups/GRPAPI/Software/g16/l301.exe)
 Standard basis: 6-311G(2d,d,p) (5D, 7F)
 Ernie: Thresh=  0.10000D-02 Tol=  0.10000D-05 Strict=F.
 There are    75 symmetry adapted cartesian basis functions of A   symmetry.
 There are    72 symmetry adapted basis functions of A   symmetry.
    72 basis functions,   120 primitive gaussians,    75 cartesian basis functions
    13 alpha electrons       12 beta electrons
       nuclear repulsion energy        63.7086485666 Hartrees.
 IExCor=  402 DFT=T Ex+Corr=B3LYP ExCW=0 ScaHFX=  0.200000
 ScaDFX=  0.800000  0.720000  1.000000  0.810000 ScalE2=  1.000000  1.000000
 IRadAn=      5 IRanWt=     -1 IRanGd=            0 ICorTp=0 IEmpDi=  4
 NAtoms=    6 NActive=    6 NUniq=    6 SFac= 1.00D+00 NAtFMM=   60 NAOKFM=F Big=F
 Integral buffers will be    131072 words long.
 Raffenetti 2 integral format.
 Two-electron integral symmetry is turned on.
 Leave Link  301 at Thu Jul 27 12:59:19 2023, MaxMem=  1879048192 cpu:               0.9 elap:               0.1
 (Enter /home/gridsan/groups/GRPAPI/Software/g16/l302.exe)
 NPDir=0 NMtPBC=     1 NCelOv=     1 NCel=       1 NClECP=     1 NCelD=      1
         NCelK=      1 NCelE2=     1 NClLst=     1 CellRange=     0.0.
 One-electron integrals computed using PRISM.
 One-electron integral symmetry used in STVInt
 NBasis=    72 RedAO= T EigKep=  1.11D-02  NBF=    72
 NBsUse=    72 1.00D-06 EigRej= -1.00D+00 NBFU=    72
 Precomputing XC quadrature grid using
 IXCGrd= 4 IRadAn=           5 IRanWt=          -1 IRanGd=           0 AccXCQ= 1.00D-12.
 Generated NRdTot=       0 NPtTot=           0 NUsed=           0 NTot=          32
 NSgBfM=    75    75    75    75    75 MxSgAt=     6 MxSgA2=     6.
 Leave Link  302 at Thu Jul 27 12:59:19 2023, MaxMem=  1879048192 cpu:               0.8 elap:               0.1
 (Enter /home/gridsan/groups/GRPAPI/Software/g16/l303.exe)
 DipDrv:  MaxL=1.
 Leave Link  303 at Thu Jul 27 12:59:19 2023, MaxMem=  1879048192 cpu:               0.2 elap:               0.0
 (Enter /home/gridsan/groups/GRPAPI/Software/g16/l401.exe)
 Initial guess from the checkpoint file:  "check.chk"
 B after Tr=     0.000000    0.000000    0.000000
         Rot=    1.000000   -0.000000   -0.000000    0.000000 Ang=  -0.00 deg.
 Guess basis will be translated and rotated to current coordinates.
 JPrj=2 DoOrth=T DoCkMO=T.
 Initial guess <Sx>= 0.0000 <Sy>= 0.0000 <Sz>= 0.5000 <S**2>= 1.7708 S= 0.9215
 Leave Link  401 at Thu Jul 27 12:59:19 2023, MaxMem=  1879048192 cpu:               0.7 elap:               0.1
 (Enter /home/gridsan/groups/GRPAPI/Software/g16/l502.exe)
 Keep R1 and R2 ints in memory in canonical form, NReq=14090793.
 FoFCou: FMM=F IPFlag=           0 FMFlag=           0 FMFlg1=           0
         NFxFlg=           0 DoJE=F BraDBF=F KetDBF=F FulRan=T
         wScrn=  0.000000 ICntrl=       600 IOpCl=  0 I1Cent=           0 NGrid=           0
         NMat0=    1 NMatS0=   2628 NMatT0=    0 NMatD0=    1 NMtDS0=    0 NMtDT0=    0
 Symmetry not used in FoFCou.
 Two-electron integral symmetry not used.
 UHF open shell SCF:
 Using DIIS extrapolation, IDIIS=  1040.
 NGot=  1879048192 LenX=  1872126453 LenY=  1872120387
 Requested convergence on RMS density matrix=1.00D-08 within  32 cycles.
 Requested convergence on MAX density matrix=1.00D-06.
 Requested convergence on             energy=1.00D-06.
 No special actions if energy rises.

 Cycle   1  Pass 1  IDiag  1:
 E= -186.303844322164    
 DIIS: error= 2.25D-02 at cycle   1 NSaved=   1.
 NSaved= 1 IEnMin= 1 EnMin= -186.303844322164     IErMin= 1 ErrMin= 2.25D-02
 ErrMax= 2.25D-02  0.00D+00 EMaxC= 1.00D-01 BMatC= 2.39D-01 BMatP= 2.39D-01
 IDIUse=3 WtCom= 7.75D-01 WtEn= 2.25D-01
 Coeff-Com:  0.100D+01
 Coeff-En:   0.100D+01
 Coeff:      0.100D+01
 Gap=     4.915 Goal=   None    Shift=    0.000
 Gap=     3.077 Goal=   None    Shift=    0.000
 GapD=    3.077 DampG=2.000 DampE=0.500 DampFc=1.0000 IDamp=-1.
 RMSDP=2.92D-03 MaxDP=4.27D-02              OVMax= 2.07D-01

 Cycle   2  Pass 1  IDiag  1:
 E= -186.332897084406     Delta-E=       -0.029052762243 Rises=F Damp=F
 DIIS: error= 8.05D-03 at cycle   2 NSaved=   2.
 NSaved= 2 IEnMin= 2 EnMin= -186.332897084406     IErMin= 2 ErrMin= 8.05D-03
 ErrMax= 8.05D-03  0.00D+00 EMaxC= 1.00D-01 BMatC= 1.94D-02 BMatP= 2.39D-01
 IDIUse=3 WtCom= 9.19D-01 WtEn= 8.05D-02
 Coeff-Com:  0.952D-01 0.905D+00
 Coeff-En:   0.000D+00 0.100D+01
 Coeff:      0.876D-01 0.912D+00
 Gap=     0.076 Goal=   None    Shift=    0.000
 Gap=     0.135 Goal=   None    Shift=    0.000
 RMSDP=1.41D-03 MaxDP=2.84D-02 DE=-2.91D-02 OVMax= 3.47D-02

 Cycle   3  Pass 1  IDiag  1:
 E= -186.330087556722     Delta-E=        0.002809527685 Rises=F Damp=F
 DIIS: error= 1.52D-02 at cycle   3 NSaved=   3.
 NSaved= 3 IEnMin= 2 EnMin= -186.332897084406     IErMin= 2 ErrMin= 8.05D-03
 ErrMax= 1.52D-02  0.00D+00 EMaxC= 1.00D-01 BMatC= 3.97D-02 BMatP= 1.94D-02
 IDIUse=2 WtCom= 0.00D+00 WtEn= 1.00D+00
 Coeff-En:   0.000D+00 0.611D+00 0.389D+00
 Coeff:      0.000D+00 0.611D+00 0.389D+00
 Gap=     0.068 Goal=   None    Shift=    0.000
 Gap=     0.127 Goal=   None    Shift=    0.000
 RMSDP=8.96D-04 MaxDP=1.28D-02 DE= 2.81D-03 OVMax= 6.29D-02

 Cycle   4  Pass 1  IDiag  1:
 E= -186.337852282047     Delta-E=       -0.007764725325 Rises=F Damp=F
 DIIS: error= 3.00D-03 at cycle   4 NSaved=   4.
 NSaved= 4 IEnMin= 4 EnMin= -186.337852282047     IErMin= 4 ErrMin= 3.00D-03
 ErrMax= 3.00D-03  0.00D+00 EMaxC= 1.00D-01 BMatC= 2.00D-03 BMatP= 1.94D-02
 IDIUse=3 WtCom= 9.70D-01 WtEn= 3.00D-02
 Coeff-Com: -0.963D-02 0.232D+00 0.221D+00 0.557D+00
 Coeff-En:   0.000D+00 0.000D+00 0.000D+00 0.100D+01
 Coeff:     -0.934D-02 0.225D+00 0.214D+00 0.570D+00
 Gap=     0.071 Goal=   None    Shift=    0.000
 Gap=     0.136 Goal=   None    Shift=    0.000
 RMSDP=2.45D-04 MaxDP=4.31D-03 DE=-7.76D-03 OVMax= 6.71D-03

 Cycle   5  Pass 1  IDiag  1:
 E= -186.338278618610     Delta-E=       -0.000426336563 Rises=F Damp=F
 DIIS: error= 8.77D-04 at cycle   5 NSaved=   5.
 NSaved= 5 IEnMin= 5 EnMin= -186.338278618610     IErMin= 5 ErrMin= 8.77D-04
 ErrMax= 8.77D-04  0.00D+00 EMaxC= 1.00D-01 BMatC= 1.93D-04 BMatP= 2.00D-03
 IDIUse=3 WtCom= 9.91D-01 WtEn= 8.77D-03
 Coeff-Com: -0.290D-02-0.889D-01-0.130D-02 0.112D+00 0.981D+00
 Coeff-En:   0.000D+00 0.000D+00 0.000D+00 0.000D+00 0.100D+01
 Coeff:     -0.288D-02-0.881D-01-0.129D-02 0.112D+00 0.981D+00
 Gap=     0.069 Goal=   None    Shift=    0.000
 Gap=     0.138 Goal=   None    Shift=    0.000
 RMSDP=3.64D-04 MaxDP=4.91D-03 DE=-4.26D-04 OVMax= 4.12D-02

 Cycle   6  Pass 1  IDiag  1:
 E= -186.338371389736     Delta-E=       -0.000092771126 Rises=F Damp=F
 DIIS: error= 1.12D-03 at cycle   6 NSaved=   6.
 NSaved= 6 IEnMin= 6 EnMin= -186.338371389736     IErMin= 5 ErrMin= 8.77D-04
 ErrMax= 1.12D-03  0.00D+00 EMaxC= 1.00D-01 BMatC= 3.98D-04 BMatP= 1.93D-04
 IDIUse=3 WtCom= 9.91D-01 WtEn= 8.77D-03
 Coeff-Com: -0.735D-03-0.125D+00-0.390D-01-0.469D-01 0.857D+00 0.355D+00
 Coeff-En:   0.000D+00 0.000D+00 0.000D+00 0.000D+00 0.000D+00 0.100D+01
 Coeff:     -0.729D-03-0.124D+00-0.387D-01-0.465D-01 0.849D+00 0.360D+00
 Gap=     0.071 Goal=   None    Shift=    0.000
 Gap=     0.143 Goal=   None    Shift=    0.000
 RMSDP=1.03D-04 MaxDP=1.64D-03 DE=-9.28D-05 OVMax= 4.10D-03

 Cycle   7  Pass 1  IDiag  1:
 E= -186.338477175817     Delta-E=       -0.000105786081 Rises=F Damp=F
 DIIS: error= 2.87D-04 at cycle   7 NSaved=   7.
 NSaved= 7 IEnMin= 7 EnMin= -186.338477175817     IErMin= 7 ErrMin= 2.87D-04
 ErrMax= 2.87D-04  0.00D+00 EMaxC= 1.00D-01 BMatC= 2.29D-05 BMatP= 1.93D-04
 IDIUse=3 WtCom= 9.97D-01 WtEn= 2.87D-03
 Coeff-Com:  0.676D-03-0.224D-01-0.959D-02-0.970D-01 0.988D-01-0.160D-01
 Coeff-Com:  0.105D+01
 Coeff-En:   0.000D+00 0.000D+00 0.000D+00 0.000D+00 0.000D+00 0.000D+00
 Coeff-En:   0.100D+01
 Coeff:      0.674D-03-0.224D-01-0.956D-02-0.967D-01 0.985D-01-0.159D-01
 Coeff:      0.105D+01
 Gap=     0.071 Goal=   None    Shift=    0.000
 Gap=     0.145 Goal=   None    Shift=    0.000
 RMSDP=7.65D-05 MaxDP=7.37D-04 DE=-1.06D-04 OVMax= 6.17D-03

 Cycle   8  Pass 1  IDiag  1:
 E= -186.338489242107     Delta-E=       -0.000012066290 Rises=F Damp=F
 DIIS: error= 6.07D-05 at cycle   8 NSaved=   8.
 NSaved= 8 IEnMin= 8 EnMin= -186.338489242107     IErMin= 8 ErrMin= 6.07D-05
 ErrMax= 6.07D-05  0.00D+00 EMaxC= 1.00D-01 BMatC= 1.66D-06 BMatP= 2.29D-05
 IDIUse=1 WtCom= 1.00D+00 WtEn= 0.00D+00
 Coeff-Com: -0.195D-04 0.112D-01 0.195D-02-0.187D-02-0.746D-01-0.873D-01
 Coeff-Com:  0.107D+00 0.104D+01
 Coeff:     -0.195D-04 0.112D-01 0.195D-02-0.187D-02-0.746D-01-0.873D-01
 Coeff:      0.107D+00 0.104D+01
 Gap=     0.071 Goal=   None    Shift=    0.000
 Gap=     0.146 Goal=   None    Shift=    0.000
 RMSDP=2.29D-05 MaxDP=2.35D-04 DE=-1.21D-05 OVMax= 1.17D-03

 Cycle   9  Pass 1  IDiag  1:
 E= -186.338490635914     Delta-E=       -0.000001393807 Rises=F Damp=F
 DIIS: error= 4.65D-05 at cycle   9 NSaved=   9.
 NSaved= 9 IEnMin= 9 EnMin= -186.338490635914     IErMin= 9 ErrMin= 4.65D-05
 ErrMax= 4.65D-05  0.00D+00 EMaxC= 1.00D-01 BMatC= 2.30D-07 BMatP= 1.66D-06
 IDIUse=1 WtCom= 1.00D+00 WtEn= 0.00D+00
 Coeff-Com: -0.700D-04 0.108D-02 0.295D-03 0.135D-01-0.473D-02 0.212D-01
 Coeff-Com: -0.112D+00-0.127D+00 0.121D+01
 Coeff:     -0.700D-04 0.108D-02 0.295D-03 0.135D-01-0.473D-02 0.212D-01
 Coeff:     -0.112D+00-0.127D+00 0.121D+01
 Gap=     0.071 Goal=   None    Shift=    0.000
 Gap=     0.145 Goal=   None    Shift=    0.000
 RMSDP=1.04D-05 MaxDP=1.40D-04 DE=-1.39D-06 OVMax= 8.42D-04

 Cycle  10  Pass 1  IDiag  1:
 E= -186.338491118723     Delta-E=       -0.000000482809 Rises=F Damp=F
 DIIS: error= 4.48D-05 at cycle  10 NSaved=  10.
 NSaved=10 IEnMin=10 EnMin= -186.338491118723     IErMin=10 ErrMin= 4.48D-05
 ErrMax= 4.48D-05  0.00D+00 EMaxC= 1.00D-01 BMatC= 9.13D-08 BMatP= 2.30D-07
 IDIUse=1 WtCom= 1.00D+00 WtEn= 0.00D+00
 Coeff-Com: -0.152D-06-0.761D-03-0.847D-04-0.263D-03 0.469D-02 0.414D-02
 Coeff-Com: -0.605D-02-0.811D-01 0.234D-01 0.106D+01
 Coeff:     -0.152D-06-0.761D-03-0.847D-04-0.263D-03 0.469D-02 0.414D-02
 Coeff:     -0.605D-02-0.811D-01 0.234D-01 0.106D+01
 Gap=     0.071 Goal=   None    Shift=    0.000
 Gap=     0.146 Goal=   None    Shift=    0.000
 RMSDP=7.67D-06 MaxDP=1.19D-04 DE=-4.83D-07 OVMax= 7.14D-04

 Cycle  11  Pass 1  IDiag  1:
 E= -186.338491463754     Delta-E=       -0.000000345030 Rises=F Damp=F
 DIIS: error= 4.38D-05 at cycle  11 NSaved=  11.
 NSaved=11 IEnMin=11 EnMin= -186.338491463754     IErMin=11 ErrMin= 4.38D-05
 ErrMax= 4.38D-05  0.00D+00 EMaxC= 1.00D-01 BMatC= 8.00D-08 BMatP= 9.13D-08
 IDIUse=1 WtCom= 1.00D+00 WtEn= 0.00D+00
 Coeff-Com:  0.249D-04-0.201D-03-0.904D-04-0.485D-02 0.875D-03-0.761D-02
 Coeff-Com:  0.407D-01 0.723D-01-0.418D+00-0.403D+00 0.172D+01
 Coeff:      0.249D-04-0.201D-03-0.904D-04-0.485D-02 0.875D-03-0.761D-02
 Coeff:      0.407D-01 0.723D-01-0.418D+00-0.403D+00 0.172D+01
 Gap=     0.071 Goal=   None    Shift=    0.000
 Gap=     0.146 Goal=   None    Shift=    0.000
 RMSDP=1.34D-05 MaxDP=2.11D-04 DE=-3.45D-07 OVMax= 1.26D-03

 Cycle  12  Pass 1  IDiag  1:
 E= -186.338492045230     Delta-E=       -0.000000581477 Rises=F Damp=F
 DIIS: error= 4.14D-05 at cycle  12 NSaved=  12.
 NSaved=12 IEnMin=12 EnMin= -186.338492045230     IErMin=12 ErrMin= 4.14D-05
 ErrMax= 4.14D-05  0.00D+00 EMaxC= 1.00D-01 BMatC= 7.22D-08 BMatP= 8.00D-08
 IDIUse=1 WtCom= 1.00D+00 WtEn= 0.00D+00
 Coeff-Com: -0.595D-04 0.282D-02 0.465D-04 0.123D-01-0.172D-01 0.268D-02
 Coeff-Com: -0.643D-01 0.126D+00 0.729D+00-0.270D+01-0.378D+01 0.669D+01
 Coeff:     -0.595D-04 0.282D-02 0.465D-04 0.123D-01-0.172D-01 0.268D-02
 Coeff:     -0.643D-01 0.126D+00 0.729D+00-0.270D+01-0.378D+01 0.669D+01
 Gap=     0.071 Goal=   None    Shift=    0.000
 Gap=     0.145 Goal=   None    Shift=    0.000
 RMSDP=8.77D-05 MaxDP=1.37D-03 DE=-5.81D-07 OVMax= 8.23D-03

 Cycle  13  Pass 1  IDiag  1:
 E= -186.338495095688     Delta-E=       -0.000003050458 Rises=F Damp=F
 DIIS: error= 2.64D-05 at cycle  13 NSaved=  13.
 NSaved=13 IEnMin=13 EnMin= -186.338495095688     IErMin=13 ErrMin= 2.64D-05
 ErrMax= 2.64D-05  0.00D+00 EMaxC= 1.00D-01 BMatC= 3.37D-08 BMatP= 7.22D-08
 IDIUse=1 WtCom= 1.00D+00 WtEn= 0.00D+00
 Coeff-Com: -0.144D-04-0.119D-02-0.499D-04-0.123D-02 0.313D-02 0.540D-03
 Coeff-Com:  0.299D-02-0.958D-01 0.114D+00 0.158D+01-0.146D+01-0.176D+01
 Coeff-Com:  0.261D+01
 Coeff:     -0.144D-04-0.119D-02-0.499D-04-0.123D-02 0.313D-02 0.540D-03
 Coeff:      0.299D-02-0.958D-01 0.114D+00 0.158D+01-0.146D+01-0.176D+01
 Coeff:      0.261D+01
 Gap=     0.071 Goal=   None    Shift=    0.000
 Gap=     0.145 Goal=   None    Shift=    0.000
 RMSDP=1.28D-04 MaxDP=1.98D-03 DE=-3.05D-06 OVMax= 1.20D-02

 Cycle  14  Pass 1  IDiag  1:
 E= -186.338497214378     Delta-E=       -0.000002118689 Rises=F Damp=F
 DIIS: error= 9.07D-06 at cycle  14 NSaved=  14.
 NSaved=14 IEnMin=14 EnMin= -186.338497214378     IErMin=14 ErrMin= 9.07D-06
 ErrMax= 9.07D-06  0.00D+00 EMaxC= 1.00D-01 BMatC= 1.28D-08 BMatP= 3.37D-08
 IDIUse=1 WtCom= 1.00D+00 WtEn= 0.00D+00
 Coeff-Com: -0.963D-05-0.106D-02-0.321D-03-0.320D-02 0.314D-02-0.204D-03
 Coeff-Com:  0.236D-01-0.186D-01-0.224D+00 0.663D+00 0.218D+00-0.111D+01
 Coeff-Com:  0.560D+00 0.886D+00
 Coeff:     -0.963D-05-0.106D-02-0.321D-03-0.320D-02 0.314D-02-0.204D-03
 Coeff:      0.236D-01-0.186D-01-0.224D+00 0.663D+00 0.218D+00-0.111D+01
 Coeff:      0.560D+00 0.886D+00
 Gap=     0.071 Goal=   None    Shift=    0.000
 Gap=     0.145 Goal=   None    Shift=    0.000
 RMSDP=1.46D-05 MaxDP=2.23D-04 DE=-2.12D-06 OVMax= 1.36D-03

 Cycle  15  Pass 1  IDiag  1:
 E= -186.338497285166     Delta-E=       -0.000000070788 Rises=F Damp=F
 DIIS: error= 3.66D-06 at cycle  15 NSaved=  15.
 NSaved=15 IEnMin=15 EnMin= -186.338497285166     IErMin=15 ErrMin= 3.66D-06
 ErrMax= 3.66D-06  0.00D+00 EMaxC= 1.00D-01 BMatC= 3.07D-09 BMatP= 1.28D-08
 IDIUse=1 WtCom= 1.00D+00 WtEn= 0.00D+00
 Coeff-Com: -0.333D-05 0.216D-03-0.967D-04 0.543D-03-0.436D-03-0.430D-02
 Coeff-Com:  0.129D-02 0.263D-01 0.312D-01-0.446D+00 0.172D+00 0.574D+00
 Coeff-Com: -0.623D+00-0.328D+00 0.160D+01
 Coeff:     -0.333D-05 0.216D-03-0.967D-04 0.543D-03-0.436D-03-0.430D-02
 Coeff:      0.129D-02 0.263D-01 0.312D-01-0.446D+00 0.172D+00 0.574D+00
 Coeff:     -0.623D+00-0.328D+00 0.160D+01
 Gap=     0.071 Goal=   None    Shift=    0.000
 Gap=     0.145 Goal=   None    Shift=    0.000
 RMSDP=1.73D-05 MaxDP=2.65D-04 DE=-7.08D-08 OVMax= 1.62D-03

 Cycle  16  Pass 1  IDiag  1:
 E= -186.338497317913     Delta-E=       -0.000000032747 Rises=F Damp=F
 DIIS: error= 6.22D-07 at cycle  16 NSaved=  16.
 NSaved=16 IEnMin=16 EnMin= -186.338497317913     IErMin=16 ErrMin= 6.22D-07
 ErrMax= 6.22D-07  0.00D+00 EMaxC= 1.00D-01 BMatC= 1.19D-10 BMatP= 3.07D-09
 IDIUse=1 WtCom= 1.00D+00 WtEn= 0.00D+00
 Coeff-Com: -0.831D-07 0.374D-04 0.118D-04 0.244D-03 0.251D-03-0.165D-03
 Coeff-Com: -0.140D-02-0.113D-02 0.109D-01-0.408D-01-0.171D-02 0.456D-01
 Coeff-Com: -0.429D-01 0.106D-01 0.129D+00 0.892D+00
 Coeff:     -0.831D-07 0.374D-04 0.118D-04 0.244D-03 0.251D-03-0.165D-03
 Coeff:     -0.140D-02-0.113D-02 0.109D-01-0.408D-01-0.171D-02 0.456D-01
 Coeff:     -0.429D-01 0.106D-01 0.129D+00 0.892D+00
 Gap=     0.071 Goal=   None    Shift=    0.000
 Gap=     0.145 Goal=   None    Shift=    0.000
 RMSDP=2.01D-06 MaxDP=3.02D-05 DE=-3.27D-08 OVMax= 1.87D-04

 Cycle  17  Pass 1  IDiag  1:
 E= -186.338497318373     Delta-E=       -0.000000000460 Rises=F Damp=F
 DIIS: error= 2.36D-07 at cycle  17 NSaved=  17.
 NSaved=17 IEnMin=17 EnMin= -186.338497318373     IErMin=17 ErrMin= 2.36D-07
 ErrMax= 2.36D-07  0.00D+00 EMaxC= 1.00D-01 BMatC= 1.46D-11 BMatP= 1.19D-10
 IDIUse=1 WtCom= 1.00D+00 WtEn= 0.00D+00
 Coeff-Com: -0.535D-07-0.814D-05-0.680D-05-0.639D-04-0.886D-04 0.181D-03
 Coeff-Com:  0.546D-03 0.128D-02-0.614D-02 0.827D-04 0.104D-01-0.553D-03
 Coeff-Com:  0.615D-02 0.146D-01-0.144D+00-0.148D+00 0.127D+01
 Coeff:     -0.535D-07-0.814D-05-0.680D-05-0.639D-04-0.886D-04 0.181D-03
 Coeff:      0.546D-03 0.128D-02-0.614D-02 0.827D-04 0.104D-01-0.553D-03
 Coeff:      0.615D-02 0.146D-01-0.144D+00-0.148D+00 0.127D+01
 Gap=     0.071 Goal=   None    Shift=    0.000
 Gap=     0.145 Goal=   None    Shift=    0.000
 RMSDP=2.28D-07 MaxDP=3.09D-06 DE=-4.60D-10 OVMax= 1.63D-05

 Cycle  18  Pass 1  IDiag  1:
 E= -186.338497318389     Delta-E=       -0.000000000017 Rises=F Damp=F
 DIIS: error= 4.57D-07 at cycle  18 NSaved=  18.
 NSaved=18 IEnMin=18 EnMin= -186.338497318389     IErMin=17 ErrMin= 2.36D-07
 ErrMax= 4.57D-07  0.00D+00 EMaxC= 1.00D-01 BMatC= 3.64D-11 BMatP= 1.46D-11
 IDIUse=1 WtCom= 1.00D+00 WtEn= 0.00D+00
 Coeff-Com:  0.512D-07-0.846D-05-0.668D-06-0.433D-04 0.154D-05-0.121D-03
 Coeff-Com:  0.300D-03-0.303D-03-0.750D-03 0.640D-02 0.427D-02-0.148D-01
 Coeff-Com:  0.104D-01 0.204D-01-0.499D-01-0.153D+00 0.905D-01 0.109D+01
 Coeff:      0.512D-07-0.846D-05-0.668D-06-0.433D-04 0.154D-05-0.121D-03
 Coeff:      0.300D-03-0.303D-03-0.750D-03 0.640D-02 0.427D-02-0.148D-01
 Coeff:      0.104D-01 0.204D-01-0.499D-01-0.153D+00 0.905D-01 0.109D+01
 Gap=     0.071 Goal=   None    Shift=    0.000
 Gap=     0.145 Goal=   None    Shift=    0.000
 RMSDP=5.36D-08 MaxDP=5.47D-07 DE=-1.66D-11 OVMax= 3.96D-06

 Cycle  19  Pass 1  IDiag  1:
 E= -186.338497318403     Delta-E=       -0.000000000013 Rises=F Damp=F
 DIIS: error= 2.26D-08 at cycle  19 NSaved=  19.
 NSaved=19 IEnMin=19 EnMin= -186.338497318403     IErMin=19 ErrMin= 2.26D-08
 ErrMax= 2.26D-08  0.00D+00 EMaxC= 1.00D-01 BMatC= 2.00D-13 BMatP= 1.46D-11
 IDIUse=1 WtCom= 1.00D+00 WtEn= 0.00D+00
 Coeff-Com:  0.984D-08-0.136D-06-0.778D-06-0.197D-05 0.897D-05-0.135D-04
 Coeff-Com:  0.179D-04 0.107D-03-0.366D-05-0.315D-02 0.319D-02 0.259D-02
 Coeff-Com: -0.551D-02-0.164D-03 0.146D-01-0.186D-01-0.950D-01 0.421D-01
 Coeff-Com:  0.106D+01
 Coeff:      0.984D-08-0.136D-06-0.778D-06-0.197D-05 0.897D-05-0.135D-04
 Coeff:      0.179D-04 0.107D-03-0.366D-05-0.315D-02 0.319D-02 0.259D-02
 Coeff:     -0.551D-02-0.164D-03 0.146D-01-0.186D-01-0.950D-01 0.421D-01
 Coeff:      0.106D+01
 Gap=     0.071 Goal=   None    Shift=    0.000
 Gap=     0.145 Goal=   None    Shift=    0.000
 RMSDP=1.17D-08 MaxDP=1.15D-07 DE=-1.34D-11 OVMax= 9.04D-07

 Cycle  20  Pass 1  IDiag  1:
 E= -186.338497318403     Delta-E=       -0.000000000001 Rises=F Damp=F
 DIIS: error= 1.42D-08 at cycle  20 NSaved=  20.
 NSaved=20 IEnMin=20 EnMin= -186.338497318403     IErMin=20 ErrMin= 1.42D-08
 ErrMax= 1.42D-08  0.00D+00 EMaxC= 1.00D-01 BMatC= 6.65D-14 BMatP= 2.00D-13
 IDIUse=1 WtCom= 1.00D+00 WtEn= 0.00D+00
 Coeff-Com:  0.616D-08 0.139D-06-0.145D-06 0.155D-05 0.437D-05 0.142D-04
 Coeff-Com: -0.183D-04 0.709D-05-0.525D-04-0.606D-03 0.598D-03 0.652D-03
 Coeff-Com: -0.158D-02-0.176D-02 0.773D-02 0.999D-02-0.166D-01-0.742D-01
 Coeff-Com:  0.288D-01 0.105D+01
 Coeff:      0.616D-08 0.139D-06-0.145D-06 0.155D-05 0.437D-05 0.142D-04
 Coeff:     -0.183D-04 0.709D-05-0.525D-04-0.606D-03 0.598D-03 0.652D-03
 Coeff:     -0.158D-02-0.176D-02 0.773D-02 0.999D-02-0.166D-01-0.742D-01
 Coeff:      0.288D-01 0.105D+01
 Gap=     0.071 Goal=   None    Shift=    0.000
 Gap=     0.145 Goal=   None    Shift=    0.000
 RMSDP=3.81D-09 MaxDP=5.17D-08 DE=-5.68D-13 OVMax= 2.69D-07

 SCF Done:  E(UB3LYP) =  -186.338497318     A.U. after   20 cycles
            NFock= 20  Conv=0.38D-08     -V/T= 2.0023
 <Sx>= 0.0000 <Sy>= 0.0000 <Sz>= 0.5000 <S**2>= 1.5822 S= 0.8536
 <L.S>=  0.00000000000    
 KE= 1.859131580817D+02 PE=-5.660300981534D+02 EE= 1.300697941867D+02
 Annihilation of the first spin contaminant:
 S**2 before annihilation     1.5822,   after     0.7640
 Leave Link  502 at Thu Jul 27 12:59:21 2023, MaxMem=  1879048192 cpu:              17.3 elap:               2.4
 (Enter /home/gridsan/groups/GRPAPI/Software/g16/l508.exe)
 QCSCF skips out because SCF is already converged.
 Leave Link  508 at Thu Jul 27 12:59:21 2023, MaxMem=  1879048192 cpu:               0.0 elap:               0.0
 (Enter /home/gridsan/groups/GRPAPI/Software/g16/l801.exe)
 DoSCS=F DFT=T ScalE2(SS,OS)=  1.000000  1.000000
 Range of M.O.s used for correlation:     1    72
 NBasis=    72 NAE=    13 NBE=    12 NFC=     0 NFV=     0
 NROrb=     72 NOA=    13 NOB=    12 NVA=    59 NVB=    60

 **** Warning!!: The smallest alpha delta epsilon is  0.71144114D-01

 Leave Link  801 at Thu Jul 27 12:59:21 2023, MaxMem=  1879048192 cpu:               0.1 elap:               0.0
 (Enter /home/gridsan/groups/GRPAPI/Software/g16/l1101.exe)
 Using compressed storage, NAtomX=     6.
 Will process      7 centers per pass.
 Leave Link 1101 at Thu Jul 27 12:59:22 2023, MaxMem=  1879048192 cpu:               1.3 elap:               0.2
 (Enter /home/gridsan/groups/GRPAPI/Software/g16/l1102.exe)
 Symmetrizing basis deriv contribution to polar:
 IMax=3 JMax=2 DiffMx= 0.00D+00
 Leave Link 1102 at Thu Jul 27 12:59:22 2023, MaxMem=  1879048192 cpu:               0.1 elap:               0.0
 (Enter /home/gridsan/groups/GRPAPI/Software/g16/l1110.exe)
 Forming Gx(P) for the SCF density, NAtomX=     6.
 Integral derivatives from FoFJK, PRISM(SPDF).
 Do as many integral derivatives as possible in FoFJK.
 G2DrvN: MDV=    1879047600.
 G2DrvN: will do     7 centers at a time, making    1 passes.
 Calling FoFCou, ICntrl=  3107 FMM=F I1Cent=   0 AccDes= 1.00D-12.
 FoFJK:  IHMeth= 1 ICntrl=    3107 DoSepK=F KAlg= 0 I1Cent=           0 FoldK=F
 IRaf=         0 NMat=       1 IRICut=       1 DoRegI=T DoRafI=F ISym2E= 0 IDoP0=0 IntGTp=1.
 FoFCou: FMM=F IPFlag=           0 FMFlag=      100000 FMFlg1=           0
         NFxFlg=           0 DoJE=F BraDBF=F KetDBF=F FulRan=T
         wScrn=  0.000000 ICntrl=      3107 IOpCl=  1 I1Cent=           0 NGrid=           0
         NMat0=    1 NMatS0=      1 NMatT0=    0 NMatD0=    1 NMtDS0=    0 NMtDT0=    0
 Symmetry not used in FoFCou.
 End of G2Drv F.D. properties file   721 does not exist.
 End of G2Drv F.D. properties file   722 does not exist.
 End of G2Drv F.D. properties file   788 does not exist.
 Leave Link 1110 at Thu Jul 27 12:59:23 2023, MaxMem=  1879048192 cpu:              11.9 elap:               1.5
 (Enter /home/gridsan/groups/GRPAPI/Software/g16/l1002.exe)
 Minotr:  UHF open shell wavefunction.
          IDoAtm=111111
          Direct CPHF calculation.
          Differentiating once with respect to nuclear coordinates.
          Requested convergence is 1.0D-08 RMS, and 1.0D-07 maximum.
          Secondary convergence is 1.0D-12 RMS, and 1.0D-12 maximum.
          NewPWx=T KeepS1=F KeepF1=F KeepIn=T MapXYZ=F SortEE=F KeepMc=T.
         1796 words used for storage of precomputed grid.
 Keep R1 and R2 ints in memory in canonical form, NReq=14068471.
 FoFCou: FMM=F IPFlag=           0 FMFlag=           0 FMFlg1=           0
         NFxFlg=           0 DoJE=F BraDBF=F KetDBF=F FulRan=T
         wScrn=  0.000000 ICntrl=       600 IOpCl=  0 I1Cent=           0 NGrid=           0
         NMat0=    1 NMatS0=   2628 NMatT0=    0 NMatD0=    1 NMtDS0=    0 NMtDT0=    0
 Symmetry not used in FoFCou.
 Two-electron integral symmetry not used.
          MDV=    1879048192 using IRadAn=       1.
          Solving linear equations simultaneously, MaxMat=       0.
          There are    21 degrees of freedom in the 1st order CPHF.  IDoFFX=6 NUNeed=     0.
     15 vectors produced by pass  0 Test12= 7.08D-15 4.76D-09 XBig12= 2.74D-01 3.33D-01.
 AX will form    15 AO Fock derivatives at one time.
     15 vectors produced by pass  1 Test12= 7.08D-15 4.76D-09 XBig12= 6.02D-02 1.07D-01.
     15 vectors produced by pass  2 Test12= 7.08D-15 4.76D-09 XBig12= 3.05D-03 1.54D-02.
     15 vectors produced by pass  3 Test12= 7.08D-15 4.76D-09 XBig12= 3.77D-05 1.24D-03.
     15 vectors produced by pass  4 Test12= 7.08D-15 4.76D-09 XBig12= 4.14D-07 2.29D-04.
     15 vectors produced by pass  5 Test12= 7.08D-15 4.76D-09 XBig12= 2.42D-09 9.08D-06.
     15 vectors produced by pass  6 Test12= 7.08D-15 4.76D-09 XBig12= 1.45D-11 8.59D-07.
      4 vectors produced by pass  7 Test12= 7.08D-15 4.76D-09 XBig12= 6.35D-14 4.29D-08.
 InvSVY:  IOpt=1 It=  1 EMax= 1.11D-15
 Solved reduced A of dimension   109 with    15 vectors.
 End of Minotr F.D. properties file   721 does not exist.
 End of Minotr F.D. properties file   722 does not exist.
 End of Minotr F.D. properties file   788 does not exist.
 Leave Link 1002 at Thu Jul 27 12:59:25 2023, MaxMem=  1879048192 cpu:              11.4 elap:               1.5
 (Enter /home/gridsan/groups/GRPAPI/Software/g16/l601.exe)
 Copying SCF densities to generalized density rwf, IOpCl= 1 IROHF=0.

 **********************************************************************

            Population analysis using the SCF Density.

 **********************************************************************

 Orbital symmetries:
 Alpha Orbitals:
       Occupied  (A) (A) (A) (A) (A) (A) (A) (A) (A) (A) (A) (A)
                 (A)
       Virtual   (A) (A) (A) (A) (A) (A) (A) (A) (A) (A) (A) (A)
                 (A) (A) (A) (A) (A) (A) (A) (A) (A) (A) (A) (A)
                 (A) (A) (A) (A) (A) (A) (A) (A) (A) (A) (A) (A)
                 (A) (A) (A) (A) (A) (A) (A) (A) (A) (A) (A) (A)
                 (A) (A) (A) (A) (A) (A) (A) (A) (A) (A) (A)
 Beta  Orbitals:
       Occupied  (A) (A) (A) (A) (A) (A) (A) (A) (A) (A) (A) (A)
       Virtual   (A) (A) (A) (A) (A) (A) (A) (A) (A) (A) (A) (A)
                 (A) (A) (A) (A) (A) (A) (A) (A) (A) (A) (A) (A)
                 (A) (A) (A) (A) (A) (A) (A) (A) (A) (A) (A) (A)
                 (A) (A) (A) (A) (A) (A) (A) (A) (A) (A) (A) (A)
                 (A) (A) (A) (A) (A) (A) (A) (A) (A) (A) (A) (A)
 The electronic state is 2-A.
 Alpha  occ. eigenvalues --  -19.19452 -14.37720 -14.37170  -1.12433  -0.81594
 Alpha  occ. eigenvalues --   -0.77682  -0.52685  -0.49867  -0.44585  -0.39911
 Alpha  occ. eigenvalues --   -0.32729  -0.29938  -0.23081
 Alpha virt. eigenvalues --   -0.15967   0.04422   0.05833   0.14732   0.22299
 Alpha virt. eigenvalues --    0.33309   0.37285   0.38759   0.50856   0.55863
 Alpha virt. eigenvalues --    0.57235   0.59846   0.66002   0.69622   0.76794
 Alpha virt. eigenvalues --    0.79270   0.82805   0.90550   0.99508   1.19431
 Alpha virt. eigenvalues --    1.25526   1.26737   1.30641   1.41315   1.46047
 Alpha virt. eigenvalues --    1.56666   1.76678   1.78827   1.79455   1.86679
 Alpha virt. eigenvalues --    1.96989   2.12683   2.17993   2.23139   2.28574
 Alpha virt. eigenvalues --    2.29274   2.34051   2.39965   2.52295   2.63248
 Alpha virt. eigenvalues --    2.86689   2.89655   3.02348   3.08220   3.20440
 Alpha virt. eigenvalues --    3.30620   3.57000   3.62876   3.64280   3.81487
 Alpha virt. eigenvalues --    4.07009   4.29507   4.36071   4.76307   5.24394
 Alpha virt. eigenvalues --    5.72770  35.27658  35.31771  49.76796
  Beta  occ. eigenvalues --  -19.19199 -14.36761 -14.36193  -1.11367  -0.80216
  Beta  occ. eigenvalues --   -0.75315  -0.52297  -0.49393  -0.39883  -0.39304
  Beta  occ. eigenvalues --   -0.31909  -0.27963
  Beta virt. eigenvalues --   -0.13417  -0.07709   0.04578   0.06325   0.15029
  Beta virt. eigenvalues --    0.23215   0.33801   0.37181   0.39530   0.54021
  Beta virt. eigenvalues --    0.55584   0.58198   0.62576   0.68283   0.69643
  Beta virt. eigenvalues --    0.77525   0.80297   0.84358   0.90899   1.00552
  Beta virt. eigenvalues --    1.20421   1.26894   1.28347   1.29854   1.41648
  Beta virt. eigenvalues --    1.46182   1.56867   1.76695   1.80068   1.80710
  Beta virt. eigenvalues --    1.90311   1.98491   2.13296   2.19396   2.24516
  Beta virt. eigenvalues --    2.32207   2.33972   2.34358   2.41088   2.52953
  Beta virt. eigenvalues --    2.61820   2.87982   2.89939   3.03767   3.09930
  Beta virt. eigenvalues --    3.21681   3.30930   3.60483   3.65501   3.70885
  Beta virt. eigenvalues --    3.78429   4.08156   4.30039   4.36816   4.78472
  Beta virt. eigenvalues --    5.24264   5.73167  35.28293  35.33201  49.77041
          Condensed to atoms (all electrons):
               1          2          3          4          5          6
     1  N    6.735559   0.143604   0.300801  -0.026944  -0.001354  -0.000037
     2  O    0.143604   7.908550  -0.042837   0.280523  -0.038500   0.005319
     3  H    0.300801  -0.042837   0.544085   0.001350  -0.000194   0.000094
     4  H   -0.026944   0.280523   0.001350   0.356056   0.108518  -0.015697
     5  N   -0.001354  -0.038500  -0.000194   0.108518   6.955210   0.262750
     6  H   -0.000037   0.005319   0.000094  -0.015697   0.262750   0.545748
          Atomic-Atomic Spin Densities.
               1          2          3          4          5          6
     1  N    0.861344  -0.125536  -0.003163  -0.004962  -0.006065  -0.000172
     2  O   -0.125536   0.164983   0.002784  -0.000608   0.029591  -0.000176
     3  H   -0.003163   0.002784  -0.028987   0.000679   0.000299  -0.000011
     4  H   -0.004962  -0.000608   0.000679   0.009821  -0.009369   0.001224
     5  N   -0.006065   0.029591   0.000299  -0.009369   0.231597  -0.000185
     6  H   -0.000172  -0.000176  -0.000011   0.001224  -0.000185  -0.007419
 Mulliken charges and spin densities:
               1          2
     1  N   -0.151629   0.721446
     2  O   -0.256660   0.071038
     3  H    0.196702  -0.028398
     4  H    0.296193  -0.003215
     5  N   -0.286430   0.245868
     6  H    0.201823  -0.006739
 Sum of Mulliken charges =  -0.00000   1.00000
 Mulliken charges and spin densities with hydrogens summed into heavy atoms:
               1          2
     1  N    0.045073   0.693049
     2  O    0.039534   0.067823
     5  N   -0.084607   0.239129
 APT charges:
               1
     1  N   -0.527066
     2  O   -0.202096
     3  H    0.520131
     4  H    0.255377
     5  N   -0.495043
     6  H    0.448698
 Sum of APT charges =  -0.00000
 APT charges with hydrogens summed into heavy atoms:
               1
     1  N   -0.006935
     2  O    0.053281
     5  N   -0.046346
 Electronic spatial extent (au):  <R**2>=            236.6740
 Charge=             -0.0000 electrons
 Dipole moment (field-independent basis, Debye):
    X=             -0.1941    Y=              0.1808    Z=              1.7640  Tot=              1.7839
 Quadrupole moment (field-independent basis, Debye-Ang):
   XX=            -13.3370   YY=            -20.2445   ZZ=            -17.7809
   XY=              0.9470   XZ=             -1.5175   YZ=             -1.0926
 Traceless Quadrupole moment (field-independent basis, Debye-Ang):
   XX=              3.7838   YY=             -3.1237   ZZ=             -0.6601
   XY=              0.9470   XZ=             -1.5175   YZ=             -1.0926
 Octapole moment (field-independent basis, Debye-Ang**2):
  XXX=              8.2864  YYY=              2.6583  ZZZ=              2.2254  XYY=             -1.6300
  XXY=              0.0270  XXZ=             10.4663  XZZ=             -0.2462  YZZ=              0.5311
  YYZ=              0.7144  XYZ=              0.1835
 Hexadecapole moment (field-independent basis, Debye-Ang**3):
 XXXX=           -201.0040 YYYY=            -38.2535 ZZZZ=            -18.7792 XXXY=              4.5422
 XXXZ=             -9.6163 YYYX=              2.3131 YYYZ=             -0.9720 ZZZX=             -2.5908
 ZZZY=             -1.0356 XXYY=            -46.8991 XXZZ=            -39.3455 YYZZ=             -9.5604
 XXYZ=             -3.0735 YYXZ=             -0.1594 ZZXY=              1.2604
 N-N= 6.370864856665D+01 E-N=-5.660300982800D+02  KE= 1.859131580817D+02
  Exact polarizability:   0.000   0.000   0.000   0.000   0.000   0.000
 Approx polarizability: 143.232  -1.452  23.658   4.055  -0.183  20.074
                          Isotropic Fermi Contact Couplings
        Atom                 a.u.       MegaHertz       Gauss      10(-4) cm-1
     1  N(14)              0.06231      20.13109       7.18327       6.71501
     2  O(17)              0.01202      -7.28375      -2.59902      -2.42960
     3  H(1)              -0.01315     -58.76944     -20.97040     -19.60337
     4  H(1)               0.00766      34.22797      12.21339      11.41722
     5  N(14)              0.01293       4.17682       1.49039       1.39324
     6  H(1)              -0.00318     -14.19713      -5.06589      -4.73565
 --------------------------------------------------------
       Center         ----  Spin Dipole Couplings  ----
                      3XX-RR        3YY-RR        3ZZ-RR
 --------------------------------------------------------
     1   Atom       -0.618174     -0.681964      1.300139
     2   Atom       -0.751383     -0.425809      1.177192
     3   Atom        0.051097     -0.051836      0.000739
     4   Atom       -0.012295      0.012740     -0.000445
     5   Atom       -1.975154      2.798192     -0.823038
     6   Atom       -0.051627      0.046842      0.004784
 --------------------------------------------------------
                        XY            XZ            YZ
 --------------------------------------------------------
     1   Atom        0.243073     -0.775279     -0.726536
     2   Atom       -0.323978     -0.118099     -0.248222
     3   Atom        0.051564      0.043398      0.005053
     4   Atom       -0.012178     -0.000696     -0.001272
     5   Atom       -1.695544     -1.213479     -0.127226
     6   Atom       -0.036036     -0.040106     -0.008832
 --------------------------------------------------------


 ---------------------------------------------------------------------------------
              Anisotropic Spin Dipole Couplings in Principal Axis System
 ---------------------------------------------------------------------------------

       Atom             a.u.   MegaHertz   Gauss  10(-4) cm-1        Axes

              Baa    -0.9226   -35.582   -12.697   -11.869  0.2688  0.8839  0.3827
     1 N(14)  Bbb    -0.8872   -34.217   -12.209   -11.414  0.9094 -0.3638  0.2015
              Bcc     1.8098    69.799    24.906    23.282 -0.3173 -0.2939  0.9016
 
              Baa    -0.9763    70.641    25.207    23.563  0.8347  0.5400  0.1080
     2 O(17)  Bbb    -0.2409    17.435     6.221     5.816 -0.5495  0.8295  0.0994
              Bcc     1.2172   -88.076   -31.428   -29.379 -0.0359 -0.1424  0.9892
 
              Baa    -0.0754   -40.256   -14.364   -13.428 -0.4241  0.8870  0.1827
     3 H(1)   Bbb    -0.0166    -8.839    -3.154    -2.948 -0.3154 -0.3338  0.8883
              Bcc     0.0920    49.095    17.518    16.376  0.8489  0.3191  0.4213
 
              Baa    -0.0173    -9.239    -3.297    -3.082  0.9238  0.3771  0.0665
     4 H(1)   Bbb    -0.0004    -0.222    -0.079    -0.074 -0.0806  0.0217  0.9965
              Bcc     0.0177     9.461     3.376     3.156 -0.3743  0.9259 -0.0505
 
              Baa    -3.1358  -120.942   -43.155   -40.342  0.8509  0.2530  0.4604
     5 N(14)  Bbb    -0.2189    -8.443    -3.013    -2.816 -0.4200 -0.1987  0.8855
              Bcc     3.3547   129.385    46.168    43.158 -0.3155  0.9468  0.0628
 
              Baa    -0.0826   -44.046   -15.717   -14.692  0.8645  0.2697  0.4242
     6 H(1)   Bbb     0.0235    12.551     4.479     4.187 -0.3698 -0.2306  0.9001
              Bcc     0.0590    31.495    11.238    10.506 -0.3406  0.9349  0.0996
 

 ---------------------------------------------------------------------------------

 No NMR shielding tensors so no spin-rotation constants.
 Leave Link  601 at Thu Jul 27 12:59:25 2023, MaxMem=  1879048192 cpu:               1.1 elap:               0.2
 (Enter /home/gridsan/groups/GRPAPI/Software/g16/l701.exe)
 ... and contract with generalized density number  0.
 Compute integral second derivatives.
 Leave Link  701 at Thu Jul 27 12:59:25 2023, MaxMem=  1879048192 cpu:               1.5 elap:               0.2
 (Enter /home/gridsan/groups/GRPAPI/Software/g16/l702.exe)
 L702 exits ... SP integral derivatives will be done elsewhere.
 Leave Link  702 at Thu Jul 27 12:59:25 2023, MaxMem=  1879048192 cpu:               0.1 elap:               0.0
 (Enter /home/gridsan/groups/GRPAPI/Software/g16/l703.exe)
 Integral derivatives from FoFJK, PRISM(SPDF).
 Compute integral second derivatives, UseDBF=F ICtDFT=           0.
 Calling FoFJK, ICntrl=    100147 FMM=F ISym2X=0 I1Cent= 0 IOpClX= 1 NMat=1 NMatS=1 NMatT=0.
 FoFJK:  IHMeth= 1 ICntrl=  100147 DoSepK=F KAlg= 0 I1Cent=           0 FoldK=F
 IRaf=         0 NMat=       1 IRICut=       1 DoRegI=T DoRafI=F ISym2E= 0 IDoP0=0 IntGTp=1.
 FoFCou: FMM=F IPFlag=           0 FMFlag=      100000 FMFlg1=         800
         NFxFlg=           0 DoJE=F BraDBF=F KetDBF=F FulRan=T
         wScrn=  0.000000 ICntrl=    100147 IOpCl=  1 I1Cent=           0 NGrid=           0
         NMat0=    1 NMatS0=      1 NMatT0=    0 NMatD0=    1 NMtDS0=    0 NMtDT0=    0
 Symmetry not used in FoFCou.
 Leave Link  703 at Thu Jul 27 12:59:28 2023, MaxMem=  1879048192 cpu:              22.5 elap:               2.9
 (Enter /home/gridsan/groups/GRPAPI/Software/g16/l716.exe)
 Dipole        =-7.63612637D-02 7.11483745D-02 6.94023439D-01
 Polarizability= 0.00000000D+00 0.00000000D+00 0.00000000D+00
                 0.00000000D+00 0.00000000D+00 0.00000000D+00
 ***** Axes restored to original set *****
 -------------------------------------------------------------------
 Center     Atomic                   Forces (Hartrees/Bohr)
 Number     Number              X              Y              Z
 -------------------------------------------------------------------
      1        7          -0.000000363   -0.000000483    0.000000303
      2        8          -0.000000255   -0.000000580    0.000000194
      3        1           0.000000433    0.000000354   -0.000000266
      4        1           0.000000634    0.000001228   -0.000000207
      5        7          -0.000000579   -0.000000839    0.000000027
      6        1           0.000000130    0.000000319   -0.000000050
 -------------------------------------------------------------------
 Cartesian Forces:  Max     0.000001228 RMS     0.000000494
 Force constants in Cartesian coordinates: 
                1             2             3             4             5 
      1  0.434213D+00
      2  0.514155D-01  0.343406D+00
      3 -0.996501D-01 -0.146971D+00  0.876023D-01
      4 -0.246221D+00  0.522575D-01  0.189141D-01  0.397627D+00
      5  0.117896D+00 -0.136993D+00  0.223378D-01  0.316642D-01  0.339475D+00
      6  0.201497D-01  0.275381D-01 -0.178209D-02 -0.750909D-01 -0.669635D-01
      7 -0.120419D+00 -0.100220D+00  0.644931D-01 -0.532948D-01 -0.330257D-01
      8 -0.161190D+00 -0.241944D+00  0.129377D+00  0.320376D-01  0.168439D-01
      9  0.818902D-01  0.122279D+00 -0.754112D-01  0.106496D-01 -0.447509D-02
     10 -0.863997D-01  0.101851D-01  0.198161D-01 -0.410848D-01 -0.882418D-01
     11 -0.265035D-01  0.493015D-01 -0.292969D-02 -0.576565D-01 -0.198604D+00
     12 -0.920195D-02  0.873576D-03 -0.964304D-02  0.645033D-01  0.581880D-01
     13  0.182145D-01 -0.123141D-01 -0.326320D-02 -0.514002D-01 -0.263143D-01
     14  0.159764D-01 -0.131102D-01 -0.108168D-02 -0.521523D-01 -0.162172D-01
     15  0.277147D-02 -0.141389D-02 -0.101379D-02 -0.140959D-01 -0.105473D-01
     16  0.612218D-03 -0.132371D-02 -0.310033D-03 -0.562702D-02 -0.197872D-02
     17  0.240562D-02 -0.659596D-03 -0.732085D-03 -0.615036D-02 -0.450439D-02
     18  0.404063D-02 -0.230619D-02  0.247745D-03 -0.488029D-02  0.146018D-02
                6             7             8             9            10 
      6  0.469828D-01
      7  0.182992D-01  0.178025D+00
      8 -0.178560D-01  0.126344D+00  0.225269D+00
      9 -0.106748D-01 -0.864425D-01 -0.114847D+00  0.751493D-01
     10  0.303995D-01 -0.340939D-02  0.164125D-02 -0.927978D-02  0.104627D+00
     11  0.538976D-01  0.836592D-02 -0.158405D-02 -0.622958D-02  0.446233D-01
     12 -0.409562D-01  0.396403D-02  0.290729D-02  0.951377D-02 -0.550321D-01
     13  0.433699D-02 -0.896819D-03  0.994275D-03  0.273856D-02  0.181271D-01
     14  0.212301D-02 -0.166348D-02  0.128808D-02  0.216475D-02  0.254591D-01
     15  0.567034D-02  0.785521D-04  0.470520D-03  0.165095D-02  0.105936D-01
     16  0.190553D-02 -0.478143D-05  0.173711D-03  0.443900D-03  0.813977D-02
     17  0.126079D-02  0.199807D-03  0.127938D-03  0.110743D-02  0.633317D-02
     18  0.759889D-03 -0.392342D-03 -0.516144D-04 -0.228028D-03  0.350267D-02
               11            12            13            14            15 
     11  0.130803D+00
     12 -0.581654D-01  0.541613D-01
     13  0.255791D-01  0.111535D-02  0.533868D-01
     14  0.119721D-01  0.131742D-02  0.415911D-01  0.413479D-01
     15  0.101970D-01 -0.122613D-01  0.100103D+00  0.777280D-01  0.350968D+00
     16  0.559169D-02 -0.534863D-02 -0.374313D-01 -0.292108D-01 -0.994505D-01
     17  0.811131D-02 -0.512088D-02 -0.295361D-01 -0.252806D-01 -0.764343D-01
     18  0.323012D-02 -0.814548D-03 -0.105030D+00 -0.822515D-01 -0.345015D+00
               16            17            18 
     16  0.343111D-01
     17  0.267479D-01  0.222054D-01
     18  0.102760D+00  0.799190D-01  0.345050D+00
 FormGI is forming the generalized inverse of G from B-inverse, IUseBI=4.
 Force constants in internal coordinates: 
                1             2             3             4             5 
      1  0.384193D+00
      2  0.876797D-02  0.394663D+00
      3  0.552599D-01 -0.497193D-02  0.310868D+00
      4 -0.305740D-01  0.157614D-02  0.789724D-01  0.214564D-01
      5 -0.487585D-02  0.225870D-03  0.455530D-02 -0.469690D-02  0.394971D+00
      6  0.917178D-01  0.778567D-02  0.315204D-03  0.425526D-02  0.520546D-03
      7  0.706178D-01  0.315137D-02 -0.128810D-02  0.869482D-02  0.104533D-02
      8  0.500072D-02 -0.239855D-03 -0.307948D-02  0.643074D-02 -0.163915D-02
      9 -0.171449D-02  0.294500D-03  0.148743D-01 -0.675998D-02  0.569282D-02
     10  0.135856D-01 -0.176686D-02 -0.134726D-01  0.881360D-02  0.148824D-03
     11  0.309359D-02 -0.494165D-03 -0.771367D-03  0.336516D-03 -0.243833D-03
     12  0.221358D-02 -0.250003D-03 -0.810521D-03  0.591514D-03 -0.172226D-03
                6             7             8             9            10 
      6  0.279503D+00
      7  0.263646D-01  0.194024D+00
      8 -0.539334D-03  0.475161D-02  0.237254D-01
      9 -0.559979D-03  0.243844D-03 -0.684007D-02  0.223949D-01
     10 -0.582613D-02 -0.109772D-01  0.880627D-03  0.423143D-02  0.364304D-01
     11 -0.483220D-03  0.344168D-02  0.192298D-02 -0.139878D-02 -0.209749D-02
     12  0.503051D-03  0.350393D-02  0.127483D-02 -0.484069D-03 -0.149452D-02
               11            12 
     11  0.501958D-02
     12  0.167363D-02  0.218128D-02
 Leave Link  716 at Thu Jul 27 12:59:28 2023, MaxMem=  1879048192 cpu:               0.2 elap:               0.0
 (Enter /home/gridsan/groups/GRPAPI/Software/g16/l103.exe)

 GradGradGradGradGradGradGradGradGradGradGradGradGradGradGradGradGradGrad
 Berny optimization.
 Red2BG is reusing G-inverse.
 Internal  Forces:  Max     0.000000700 RMS     0.000000369
 Search for a saddle point.
 Step number   1 out of a maximum of   22 on scan point     1 out of    46
 All quantities printed in internal units (Hartrees-Bohrs-Radians)
 Swapping is turned off.
 Second derivative matrix not updated -- analytic derivatives used.
 The second derivative matrix:
                          R1        R2        R3        R4        R5
           R1           0.38419
           R2           0.00877   0.39466
           R3           0.05526  -0.00497   0.31087
           R4          -0.03057   0.00158   0.07897   0.02146
           R5          -0.00488   0.00023   0.00456  -0.00470   0.39497
           A1           0.09172   0.00779   0.00032   0.00426   0.00052
           A2           0.07062   0.00315  -0.00129   0.00869   0.00105
           A3           0.00500  -0.00024  -0.00308   0.00643  -0.00164
           A4          -0.00171   0.00029   0.01487  -0.00676   0.00569
           D1           0.01359  -0.00177  -0.01347   0.00881   0.00015
           D2           0.00309  -0.00049  -0.00077   0.00034  -0.00024
           D3           0.00221  -0.00025  -0.00081   0.00059  -0.00017
                          A1        A2        A3        A4        D1
           A1           0.27950
           A2           0.02636   0.19402
           A3          -0.00054   0.00475   0.02373
           A4          -0.00056   0.00024  -0.00684   0.02239
           D1          -0.00583  -0.01098   0.00088   0.00423   0.03643
           D2          -0.00048   0.00344   0.00192  -0.00140  -0.00210
           D3           0.00050   0.00350   0.00127  -0.00048  -0.00149
                          D2        D3
           D2           0.00502
           D3           0.00167   0.00218
 ITU=  0
     Eigenvalues ---   -0.01011   0.00139   0.00539   0.01618   0.03359
     Eigenvalues ---    0.17234   0.22730   0.32387   0.39433   0.39535
     Eigenvalues ---    0.473351000.00000
 Eigenvectors required to have negative eigenvalues:
                          R4        A4        R3        A3        R1
   1                    0.89780   0.27918  -0.25898  -0.14607   0.13431
                          A2        A1        D3        R5        R2
   1                   -0.07646  -0.04794  -0.03506   0.01068  -0.00838
 RFO step:  Lambda0=3.900810491D-11 Lambda= 0.00000000D+00.
 Linear search not attempted -- option 19 set.
 Iteration  1 RMS(Cart)=  0.00003387 RMS(Int)=  0.00000000
 Iteration  2 RMS(Cart)=  0.00000000 RMS(Int)=  0.00000000
 Iteration  1 RMS(Cart)=  0.00000000 RMS(Int)=  0.00000000
 ITry= 1 IFail=0 DXMaxC= 6.56D-05 DCOld= 1.00D+10 DXMaxT= 5.00D-02 DXLimC= 3.00D+00 Rises=F
 Variable       Old X    -DE/DX   Delta X   Delta X   Delta X     New X
                                 (Linear)    (Quad)   (Total)
    R1        2.51285  -0.00000   0.00000   0.00001   0.00001   2.51285
    R2        1.94713  -0.00000   0.00000  -0.00000  -0.00000   1.94713
    R3        1.93115   0.00000   0.00000  -0.00001  -0.00001   1.93114
    R4        2.95004  -0.00000   0.00000   0.00004   0.00004   2.95009
    R5        1.95856   0.00000   0.00000   0.00000   0.00000   1.95856
    A1        1.78288  -0.00000   0.00000  -0.00000  -0.00000   1.78288
    A2        1.87871   0.00000   0.00000  -0.00000  -0.00000   1.87870
    A3        2.76448  -0.00000   0.00000  -0.00000  -0.00000   2.76448
    A4        2.08930   0.00000   0.00000   0.00005   0.00005   2.08935
    D1       -2.92471  -0.00000   0.00000   0.00000  -0.00000  -2.92471
    D2        1.76392   0.00000   0.00000   0.00005   0.00005   1.76398
    D3       -0.11671  -0.00000   0.00000  -0.00011  -0.00011  -0.11682
         Item               Value     Threshold  Converged?
 Maximum Force            0.000001     0.000450     YES
 RMS     Force            0.000000     0.000300     YES
 Maximum Displacement     0.000066     0.001800     YES
 RMS     Displacement     0.000034     0.001200     YES
 Predicted change in Energy=-2.638189D-12
 Optimization completed.
    -- Stationary point found.
                           ----------------------------
                           !   Optimized Parameters   !
                           ! (Angstroms and Degrees)  !
 --------------------------                            --------------------------
 ! Name  Definition              Value          Derivative Info.                !
 --------------------------------------------------------------------------------
 ! R1    R(1,2)                  1.3297         -DE/DX =    0.0                 !
 ! R2    R(1,3)                  1.0304         -DE/DX =    0.0                 !
 ! R3    R(2,4)                  1.0219         -DE/DX =    0.0                 !
 ! R4    R(4,5)                  1.5611         -DE/DX =    0.0                 !
 ! R5    R(5,6)                  1.0364         -DE/DX =    0.0                 !
 ! A1    A(2,1,3)              102.1514         -DE/DX =    0.0                 !
 ! A2    A(1,2,4)              107.6419         -DE/DX =    0.0                 !
 ! A3    A(2,4,5)              158.393          -DE/DX =    0.0                 !
 ! A4    A(4,5,6)              119.7082         -DE/DX =    0.0                 !
 ! D1    D(3,1,2,4)           -167.5736         -DE/DX =    0.0                 !
 ! D2    D(1,2,4,5)            101.0654         -DE/DX =    0.0                 !
 ! D3    D(2,4,5,6)             -6.6868         -DE/DX =    0.0                 !
 --------------------------------------------------------------------------------
 Lowest energy point so far.  Saving SCF results.
 Iteration  1 RMS(Cart)=  0.05604309 RMS(Int)=  0.00410296
 Iteration  2 RMS(Cart)=  0.00344610 RMS(Int)=  0.00000368
 Iteration  3 RMS(Cart)=  0.00000548 RMS(Int)=  0.00000000
 Iteration  4 RMS(Cart)=  0.00000000 RMS(Int)=  0.00000000
 Iteration  1 RMS(Cart)=  0.00000000 RMS(Int)=  0.00000000
 GradGradGradGradGradGradGradGradGradGradGradGradGradGradGradGradGradGrad

 Leave Link  103 at Thu Jul 27 12:59:28 2023, MaxMem=  1879048192 cpu:               0.2 elap:               0.1
 (Enter /home/gridsan/groups/GRPAPI/Software/g16/l202.exe)
                          Input orientation:                          
 ---------------------------------------------------------------------
 Center     Atomic      Atomic             Coordinates (Angstroms)
 Number     Number       Type             X           Y           Z
 ---------------------------------------------------------------------
      1          7           0       -1.723379   -1.530020   -0.072183
      2          8           0       -0.523122   -2.101783   -0.098488
      3          1           0       -2.278104   -2.214667    0.461867
      4          1           0        0.163697   -1.371209   -0.295586
      5          7           0        1.277596   -0.313271   -0.017942
      6          1           0        1.549522   -0.097897    0.958710
 ---------------------------------------------------------------------
                    Distance matrix (angstroms):
                    1          2          3          4          5
     1  N    0.000000
     2  O    1.329745   0.000000
     3  H    1.030375   1.845726   0.000000
     4  H    1.906879   1.021913   2.692128   0.000000
     5  N    3.238715   2.539261   4.060607   1.561118   0.000000
     6  H    3.718279   3.070680   4.402078   2.261657   1.036426
                    6
     6  H    0.000000
 Stoichiometry    H3N2O(2)
 Framework group  C1[X(H3N2O)]
 Deg. of freedom    12
 Full point group                 C1      NOp   1
 RotChk:  IX=0 Diff= 2.88D-02
 Largest Abelian subgroup         C1      NOp   1
 Largest concise Abelian subgroup C1      NOp   1
                         Standard orientation:                         
 ---------------------------------------------------------------------
 Center     Atomic      Atomic             Coordinates (Angstroms)
 Number     Number       Type             X           Y           Z
 ---------------------------------------------------------------------
      1          7           0        1.335245   -0.485339   -0.083092
      2          8           0        0.547406    0.580576    0.023479
      3          1           0        2.125504   -0.232910    0.528007
      4          1           0       -0.394109    0.299079   -0.256906
      5          7           0       -1.884753   -0.138180   -0.102389
      6          1           0       -2.264084   -0.346148    0.839437
 ---------------------------------------------------------------------
 Rotational constants (GHZ):          48.1329147           5.5765633           5.1240454
 Leave Link  202 at Thu Jul 27 12:59:28 2023, MaxMem=  1879048192 cpu:               0.1 elap:               0.0
 (Enter /home/gridsan/groups/GRPAPI/Software/g16/l301.exe)
 Standard basis: 6-311G(2d,d,p) (5D, 7F)
 Ernie: Thresh=  0.10000D-02 Tol=  0.10000D-05 Strict=F.
 There are    75 symmetry adapted cartesian basis functions of A   symmetry.
 There are    72 symmetry adapted basis functions of A   symmetry.
    72 basis functions,   120 primitive gaussians,    75 cartesian basis functions
    13 alpha electrons       12 beta electrons
       nuclear repulsion energy        63.7204912156 Hartrees.
 IExCor=  402 DFT=T Ex+Corr=B3LYP ExCW=0 ScaHFX=  0.200000
 ScaDFX=  0.800000  0.720000  1.000000  0.810000 ScalE2=  1.000000  1.000000
 IRadAn=      5 IRanWt=     -1 IRanGd=            0 ICorTp=0 IEmpDi=  4
 NAtoms=    6 NActive=    6 NUniq=    6 SFac= 1.00D+00 NAtFMM=   60 NAOKFM=F Big=F
 Integral buffers will be    131072 words long.
 Raffenetti 2 integral format.
 Two-electron integral symmetry is turned on.
 Leave Link  301 at Thu Jul 27 12:59:28 2023, MaxMem=  1879048192 cpu:               0.4 elap:               0.1
 (Enter /home/gridsan/groups/GRPAPI/Software/g16/l302.exe)
 NPDir=0 NMtPBC=     1 NCelOv=     1 NCel=       1 NClECP=     1 NCelD=      1
         NCelK=      1 NCelE2=     1 NClLst=     1 CellRange=     0.0.
 One-electron integrals computed using PRISM.
 One-electron integral symmetry used in STVInt
 NBasis=    72 RedAO= T EigKep=  1.12D-02  NBF=    72
 NBsUse=    72 1.00D-06 EigRej= -1.00D+00 NBFU=    72
 Precomputing XC quadrature grid using
 IXCGrd= 4 IRadAn=           5 IRanWt=          -1 IRanGd=           0 AccXCQ= 1.00D-12.
 Generated NRdTot=       0 NPtTot=           0 NUsed=           0 NTot=          32
 NSgBfM=    75    75    75    75    75 MxSgAt=     6 MxSgA2=     6.
 Leave Link  302 at Thu Jul 27 12:59:28 2023, MaxMem=  1879048192 cpu:               0.7 elap:               0.1
 (Enter /home/gridsan/groups/GRPAPI/Software/g16/l303.exe)
 DipDrv:  MaxL=1.
 Leave Link  303 at Thu Jul 27 12:59:28 2023, MaxMem=  1879048192 cpu:               0.2 elap:               0.0
 (Enter /home/gridsan/groups/GRPAPI/Software/g16/l401.exe)
 Initial guess from the checkpoint file:  "check.chk"
 B after Tr=    -0.000000    0.000000    0.000000
         Rot=    0.999975   -0.007081    0.000460    0.000022 Ang=  -0.81 deg.
 Guess basis will be translated and rotated to current coordinates.
 JPrj=2 DoOrth=T DoCkMO=T.
 Initial guess <Sx>= 0.0000 <Sy>= 0.0000 <Sz>= 0.5000 <S**2>= 1.5789 S= 0.8524
 Generating alternative initial guess.
 ExpMin= 1.03D-01 ExpMax= 8.59D+03 ExpMxC= 1.30D+03 IAcc=3 IRadAn=         5 AccDes= 0.00D+00
 Harris functional with IExCor=  402 and IRadAn=       5 diagonalized for initial guess.
 HarFok:  IExCor=  402 AccDes= 0.00D+00 IRadAn=         5 IDoV= 1 UseB2=F ITyADJ=14
 ICtDFT=  3500011 ScaDFX=  1.000000  1.000000  1.000000  1.000000
 FoFCou: FMM=F IPFlag=           0 FMFlag=      100000 FMFlg1=           0
         NFxFlg=           0 DoJE=T BraDBF=F KetDBF=T FulRan=T
         wScrn=  0.000000 ICntrl=       500 IOpCl=  0 I1Cent=   200000004 NGrid=           0
         NMat0=    1 NMatS0=      1 NMatT0=    0 NMatD0=    1 NMtDS0=    0 NMtDT0=    0
 Petite list used in FoFCou.
 Harris En= -186.311769517809    
 Leave Link  401 at Thu Jul 27 12:59:29 2023, MaxMem=  1879048192 cpu:               1.7 elap:               0.2
 (Enter /home/gridsan/groups/GRPAPI/Software/g16/l502.exe)
 Keep R1 and R2 ints in memory in canonical form, NReq=14090793.
 FoFCou: FMM=F IPFlag=           0 FMFlag=           0 FMFlg1=           0
         NFxFlg=           0 DoJE=F BraDBF=F KetDBF=F FulRan=T
         wScrn=  0.000000 ICntrl=       600 IOpCl=  0 I1Cent=           0 NGrid=           0
         NMat0=    1 NMatS0=   2628 NMatT0=    0 NMatD0=    1 NMtDS0=    0 NMtDT0=    0
 Symmetry not used in FoFCou.
 Two-electron integral symmetry not used.
 UHF open shell SCF:
 Using DIIS extrapolation, IDIIS=  1040.
 NGot=  1879048192 LenX=  1872126453 LenY=  1872120387
 Requested convergence on RMS density matrix=1.00D-08 within  32 cycles.
 Requested convergence on MAX density matrix=1.00D-06.
 Requested convergence on             energy=1.00D-06.
 No special actions if energy rises.
 Integral accuracy reduced to 1.0D-05 until final iterations.

 Cycle   1  Pass 0  IDiag  1:
 E= -186.335884876797    
 DIIS: error= 3.67D-03 at cycle   1 NSaved=   1.
 NSaved= 1 IEnMin= 1 EnMin= -186.335884876797     IErMin= 1 ErrMin= 3.67D-03
 ErrMax= 3.67D-03  0.00D+00 EMaxC= 1.00D-01 BMatC= 4.44D-03 BMatP= 4.44D-03
 IDIUse=3 WtCom= 9.63D-01 WtEn= 3.67D-02
 Coeff-Com:  0.100D+01
 Coeff-En:   0.100D+01
 Coeff:      0.100D+01
 Gap=     0.575 Goal=   None    Shift=    0.000
 Gap=     0.683 Goal=   None    Shift=    0.000
 GapD=    0.575 DampG=2.000 DampE=1.000 DampFc=2.0000 IDamp=-1.
 RMSDP=7.25D-04 MaxDP=1.35D-02              OVMax= 3.51D-02

 Cycle   2  Pass 0  IDiag  1:
 E= -186.337921934905     Delta-E=       -0.002037058108 Rises=F Damp=F
 DIIS: error= 1.17D-03 at cycle   2 NSaved=   2.
 NSaved= 2 IEnMin= 2 EnMin= -186.337921934905     IErMin= 2 ErrMin= 1.17D-03
 ErrMax= 1.17D-03  0.00D+00 EMaxC= 1.00D-01 BMatC= 2.42D-04 BMatP= 4.44D-03
 IDIUse=3 WtCom= 9.88D-01 WtEn= 1.17D-02
 Coeff-Com: -0.558D-01 0.106D+01
 Coeff-En:   0.000D+00 0.100D+01
 Coeff:     -0.551D-01 0.106D+01
 Gap=     0.079 Goal=   None    Shift=    0.000
 Gap=     0.153 Goal=   None    Shift=    0.000
 RMSDP=3.17D-04 MaxDP=3.74D-03 DE=-2.04D-03 OVMax= 2.83D-02

 Cycle   3  Pass 0  IDiag  1:
 E= -186.337867275501     Delta-E=        0.000054659404 Rises=F Damp=F
 DIIS: error= 1.95D-03 at cycle   3 NSaved=   3.
 NSaved= 3 IEnMin= 2 EnMin= -186.337921934905     IErMin= 2 ErrMin= 1.17D-03
 ErrMax= 1.95D-03  0.00D+00 EMaxC= 1.00D-01 BMatC= 8.81D-04 BMatP= 2.42D-04
 IDIUse=3 WtCom= 1.85D-01 WtEn= 8.15D-01
 Coeff-Com: -0.687D-01 0.755D+00 0.313D+00
 Coeff-En:   0.000D+00 0.603D+00 0.397D+00
 Coeff:     -0.127D-01 0.632D+00 0.381D+00
 Gap=     0.074 Goal=   None    Shift=    0.000
 Gap=     0.145 Goal=   None    Shift=    0.000
 RMSDP=2.72D-04 MaxDP=3.63D-03 DE= 5.47D-05 OVMax= 2.86D-02

 Cycle   4  Pass 0  IDiag  1:
 E= -186.338067296623     Delta-E=       -0.000200021122 Rises=F Damp=F
 DIIS: error= 9.08D-04 at cycle   4 NSaved=   4.
 NSaved= 4 IEnMin= 4 EnMin= -186.338067296623     IErMin= 4 ErrMin= 9.08D-04
 ErrMax= 9.08D-04  0.00D+00 EMaxC= 1.00D-01 BMatC= 1.65D-04 BMatP= 2.42D-04
 IDIUse=3 WtCom= 9.91D-01 WtEn= 9.08D-03
 Coeff-Com:  0.192D-02-0.218D+00 0.306D+00 0.910D+00
 Coeff-En:   0.000D+00 0.000D+00 0.210D+00 0.790D+00
 Coeff:      0.190D-02-0.216D+00 0.305D+00 0.909D+00
 Gap=     0.075 Goal=   None    Shift=    0.000
 Gap=     0.147 Goal=   None    Shift=    0.000
 RMSDP=1.21D-04 MaxDP=1.27D-03 DE=-2.00D-04 OVMax= 9.73D-03

 Cycle   5  Pass 0  IDiag  1:
 E= -186.338129831464     Delta-E=       -0.000062534841 Rises=F Damp=F
 DIIS: error= 1.49D-04 at cycle   5 NSaved=   5.
 NSaved= 5 IEnMin= 5 EnMin= -186.338129831464     IErMin= 5 ErrMin= 1.49D-04
 ErrMax= 1.49D-04  0.00D+00 EMaxC= 1.00D-01 BMatC= 9.26D-06 BMatP= 1.65D-04
 IDIUse=3 WtCom= 9.99D-01 WtEn= 1.49D-03
 Coeff-Com:  0.100D-01-0.224D+00 0.105D+00 0.486D+00 0.623D+00
 Coeff-En:   0.000D+00 0.000D+00 0.000D+00 0.000D+00 0.100D+01
 Coeff:      0.100D-01-0.224D+00 0.105D+00 0.485D+00 0.624D+00
 Gap=     0.075 Goal=   None    Shift=    0.000
 Gap=     0.147 Goal=   None    Shift=    0.000
 RMSDP=3.04D-05 MaxDP=4.25D-04 DE=-6.25D-05 OVMax= 2.59D-03

 Cycle   6  Pass 0  IDiag  1:
 E= -186.338133979377     Delta-E=       -0.000004147913 Rises=F Damp=F
 DIIS: error= 1.22D-04 at cycle   6 NSaved=   6.
 NSaved= 6 IEnMin= 6 EnMin= -186.338133979377     IErMin= 6 ErrMin= 1.22D-04
 ErrMax= 1.22D-04  0.00D+00 EMaxC= 1.00D-01 BMatC= 3.16D-06 BMatP= 9.26D-06
 IDIUse=3 WtCom= 9.99D-01 WtEn= 1.22D-03
 Coeff-Com:  0.673D-02-0.107D+00-0.101D-01 0.117D+00 0.407D+00 0.586D+00
 Coeff-En:   0.000D+00 0.000D+00 0.000D+00 0.000D+00 0.000D+00 0.100D+01
 Coeff:      0.672D-02-0.107D+00-0.101D-01 0.117D+00 0.407D+00 0.587D+00
 Gap=     0.075 Goal=   None    Shift=    0.000
 Gap=     0.147 Goal=   None    Shift=    0.000
 RMSDP=1.89D-05 MaxDP=2.21D-04 DE=-4.15D-06 OVMax= 1.52D-03

 Cycle   7  Pass 0  IDiag  1:
 E= -186.338135544083     Delta-E=       -0.000001564706 Rises=F Damp=F
 DIIS: error= 4.70D-05 at cycle   7 NSaved=   7.
 NSaved= 7 IEnMin= 7 EnMin= -186.338135544083     IErMin= 7 ErrMin= 4.70D-05
 ErrMax= 4.70D-05  0.00D+00 EMaxC= 1.00D-01 BMatC= 7.64D-07 BMatP= 3.16D-06
 IDIUse=1 WtCom= 1.00D+00 WtEn= 0.00D+00
 Coeff-Com: -0.670D-03 0.357D-01-0.455D-01-0.117D+00-0.864D-01 0.312D+00
 Coeff-Com:  0.902D+00
 Coeff:     -0.670D-03 0.357D-01-0.455D-01-0.117D+00-0.864D-01 0.312D+00
 Coeff:      0.902D+00
 Gap=     0.075 Goal=   None    Shift=    0.000
 Gap=     0.147 Goal=   None    Shift=    0.000
 RMSDP=1.56D-05 MaxDP=1.76D-04 DE=-1.56D-06 OVMax= 1.18D-03

 Cycle   8  Pass 0  IDiag  1:
 E= -186.338136213640     Delta-E=       -0.000000669558 Rises=F Damp=F
 DIIS: error= 2.96D-05 at cycle   8 NSaved=   8.
 NSaved= 8 IEnMin= 8 EnMin= -186.338136213640     IErMin= 8 ErrMin= 2.96D-05
 ErrMax= 2.96D-05  0.00D+00 EMaxC= 1.00D-01 BMatC= 1.46D-07 BMatP= 7.64D-07
 IDIUse=1 WtCom= 1.00D+00 WtEn= 0.00D+00
 Coeff-Com: -0.170D-02 0.364D-01-0.123D-01-0.536D-01-0.139D+00-0.963D-02
 Coeff-Com:  0.316D+00 0.864D+00
 Coeff:     -0.170D-02 0.364D-01-0.123D-01-0.536D-01-0.139D+00-0.963D-02
 Coeff:      0.316D+00 0.864D+00
 Gap=     0.075 Goal=   None    Shift=    0.000
 Gap=     0.147 Goal=   None    Shift=    0.000
 RMSDP=7.27D-06 MaxDP=7.33D-05 DE=-6.70D-07 OVMax= 4.65D-04

 Initial convergence to 1.0D-05 achieved.  Increase integral accuracy.
 Cycle   9  Pass 1  IDiag  1:
 E= -186.338134937869     Delta-E=        0.000001275771 Rises=F Damp=F
 DIIS: error= 2.88D-05 at cycle   1 NSaved=   1.
 NSaved= 1 IEnMin= 1 EnMin= -186.338134937869     IErMin= 1 ErrMin= 2.88D-05
 ErrMax= 2.88D-05  0.00D+00 EMaxC= 1.00D-01 BMatC= 3.95D-08 BMatP= 3.95D-08
 IDIUse=1 WtCom= 1.00D+00 WtEn= 0.00D+00
 Coeff-Com:  0.100D+01
 Coeff:      0.100D+01
 Gap=     0.075 Goal=   None    Shift=    0.000
 Gap=     0.147 Goal=   None    Shift=    0.000
 RMSDP=7.27D-06 MaxDP=7.33D-05 DE= 1.28D-06 OVMax= 3.78D-04

 Cycle  10  Pass 1  IDiag  1:
 E= -186.338135058370     Delta-E=       -0.000000120501 Rises=F Damp=F
 DIIS: error= 2.76D-05 at cycle   2 NSaved=   2.
 NSaved= 2 IEnMin= 2 EnMin= -186.338135058370     IErMin= 2 ErrMin= 2.76D-05
 ErrMax= 2.76D-05  0.00D+00 EMaxC= 1.00D-01 BMatC= 3.52D-08 BMatP= 3.95D-08
 IDIUse=1 WtCom= 1.00D+00 WtEn= 0.00D+00
 Coeff-Com:  0.329D+00 0.671D+00
 Coeff:      0.329D+00 0.671D+00
 Gap=     0.075 Goal=   None    Shift=    0.000
 Gap=     0.147 Goal=   None    Shift=    0.000
 RMSDP=2.72D-06 MaxDP=4.03D-05 DE=-1.21D-07 OVMax= 2.50D-04

 Cycle  11  Pass 1  IDiag  1:
 E= -186.338135133503     Delta-E=       -0.000000075133 Rises=F Damp=F
 DIIS: error= 2.73D-05 at cycle   3 NSaved=   3.
 NSaved= 3 IEnMin= 3 EnMin= -186.338135133503     IErMin= 3 ErrMin= 2.73D-05
 ErrMax= 2.73D-05  0.00D+00 EMaxC= 1.00D-01 BMatC= 3.40D-08 BMatP= 3.52D-08
 IDIUse=1 WtCom= 1.00D+00 WtEn= 0.00D+00
 Coeff-Com: -0.375D+00 0.509D+00 0.866D+00
 Coeff:     -0.375D+00 0.509D+00 0.866D+00
 Gap=     0.075 Goal=   None    Shift=    0.000
 Gap=     0.147 Goal=   None    Shift=    0.000
 RMSDP=5.10D-06 MaxDP=7.70D-05 DE=-7.51D-08 OVMax= 4.70D-04

 Cycle  12  Pass 1  IDiag  1:
 E= -186.338135271120     Delta-E=       -0.000000137616 Rises=F Damp=F
 DIIS: error= 2.62D-05 at cycle   4 NSaved=   4.
 NSaved= 4 IEnMin= 4 EnMin= -186.338135271120     IErMin= 4 ErrMin= 2.62D-05
 ErrMax= 2.62D-05  0.00D+00 EMaxC= 1.00D-01 BMatC= 2.98D-08 BMatP= 3.40D-08
 IDIUse=1 WtCom= 1.00D+00 WtEn= 0.00D+00
 Coeff-Com: -0.991D+00-0.632D+00 0.901D+00 0.172D+01
 Coeff:     -0.991D+00-0.632D+00 0.901D+00 0.172D+01
 Gap=     0.075 Goal=   None    Shift=    0.000
 Gap=     0.147 Goal=   None    Shift=    0.000
 RMSDP=1.55D-05 MaxDP=2.36D-04 DE=-1.38D-07 OVMax= 1.45D-03

 Cycle  13  Pass 1  IDiag  1:
 E= -186.338135658235     Delta-E=       -0.000000387115 Rises=F Damp=F
 DIIS: error= 2.33D-05 at cycle   5 NSaved=   5.
 NSaved= 5 IEnMin= 5 EnMin= -186.338135658235     IErMin= 5 ErrMin= 2.33D-05
 ErrMax= 2.33D-05  0.00D+00 EMaxC= 1.00D-01 BMatC= 2.39D-08 BMatP= 2.98D-08
 IDIUse=1 WtCom= 1.00D+00 WtEn= 0.00D+00
 Coeff-Com:  0.450D-01-0.726D+00-0.467D+00 0.608D+00 0.154D+01
 Coeff:      0.450D-01-0.726D+00-0.467D+00 0.608D+00 0.154D+01
 Gap=     0.075 Goal=   None    Shift=    0.000
 Gap=     0.147 Goal=   None    Shift=    0.000
 RMSDP=1.87D-05 MaxDP=2.82D-04 DE=-3.87D-07 OVMax= 1.75D-03

 Cycle  14  Pass 1  IDiag  1:
 E= -186.338136062486     Delta-E=       -0.000000404250 Rises=F Damp=F
 DIIS: error= 1.96D-05 at cycle   6 NSaved=   6.
 NSaved= 6 IEnMin= 6 EnMin= -186.338136062486     IErMin= 6 ErrMin= 1.96D-05
 ErrMax= 1.96D-05  0.00D+00 EMaxC= 1.00D-01 BMatC= 2.50D-08 BMatP= 2.39D-08
 IDIUse=1 WtCom= 1.00D+00 WtEn= 0.00D+00
 Coeff-Com:  0.150D+01-0.302D+00-0.196D+01-0.162D+01 0.238D+01 0.999D+00
 Coeff:      0.150D+01-0.302D+00-0.196D+01-0.162D+01 0.238D+01 0.999D+00
 Gap=     0.075 Goal=   None    Shift=    0.000
 Gap=     0.147 Goal=   None    Shift=    0.000
 RMSDP=3.34D-05 MaxDP=5.04D-04 DE=-4.04D-07 OVMax= 3.12D-03

 Cycle  15  Pass 1  IDiag  1:
 E= -186.338136622568     Delta-E=       -0.000000560082 Rises=F Damp=F
 DIIS: error= 1.36D-05 at cycle   7 NSaved=   7.
 NSaved= 7 IEnMin= 7 EnMin= -186.338136622568     IErMin= 7 ErrMin= 1.36D-05
 ErrMax= 1.36D-05  0.00D+00 EMaxC= 1.00D-01 BMatC= 1.66D-08 BMatP= 2.39D-08
 IDIUse=1 WtCom= 1.00D+00 WtEn= 0.00D+00
 Coeff-Com:  0.204D+01 0.625D+00-0.191D+01-0.306D+01 0.104D+01 0.122D+01
 Coeff-Com:  0.104D+01
 Coeff:      0.204D+01 0.625D+00-0.191D+01-0.306D+01 0.104D+01 0.122D+01
 Coeff:      0.104D+01
 Gap=     0.075 Goal=   None    Shift=    0.000
 Gap=     0.146 Goal=   None    Shift=    0.000
 RMSDP=4.20D-05 MaxDP=6.32D-04 DE=-5.60D-07 OVMax= 3.94D-03

 Cycle  16  Pass 1  IDiag  1:
 E= -186.338137030212     Delta-E=       -0.000000407643 Rises=F Damp=F
 DIIS: error= 5.68D-06 at cycle   8 NSaved=   8.
 NSaved= 8 IEnMin= 8 EnMin= -186.338137030212     IErMin= 8 ErrMin= 5.68D-06
 ErrMax= 5.68D-06  0.00D+00 EMaxC= 1.00D-01 BMatC= 2.20D-09 BMatP= 1.66D-08
 IDIUse=1 WtCom= 1.00D+00 WtEn= 0.00D+00
 Coeff-Com: -0.590D+00 0.984D-01 0.793D+00 0.642D+00-0.966D+00-0.415D+00
 Coeff-Com: -0.937D-01 0.153D+01
 Coeff:     -0.590D+00 0.984D-01 0.793D+00 0.642D+00-0.966D+00-0.415D+00
 Coeff:     -0.937D-01 0.153D+01
 Gap=     0.075 Goal=   None    Shift=    0.000
 Gap=     0.146 Goal=   None    Shift=    0.000
 RMSDP=2.50D-05 MaxDP=3.74D-04 DE=-4.08D-07 OVMax= 2.34D-03

 Cycle  17  Pass 1  IDiag  1:
 E= -186.338137112365     Delta-E=       -0.000000082154 Rises=F Damp=F
 DIIS: error= 1.27D-06 at cycle   9 NSaved=   9.
 NSaved= 9 IEnMin= 9 EnMin= -186.338137112365     IErMin= 9 ErrMin= 1.27D-06
 ErrMax= 1.27D-06  0.00D+00 EMaxC= 1.00D-01 BMatC= 5.13D-10 BMatP= 2.20D-09
 IDIUse=1 WtCom= 1.00D+00 WtEn= 0.00D+00
 Coeff-Com: -0.269D-01-0.137D+00-0.419D-02 0.147D+00 0.231D+00-0.196D+00
 Coeff-Com:  0.851D-02-0.319D+00 0.130D+01
 Coeff:     -0.269D-01-0.137D+00-0.419D-02 0.147D+00 0.231D+00-0.196D+00
 Coeff:      0.851D-02-0.319D+00 0.130D+01
 Gap=     0.075 Goal=   None    Shift=    0.000
 Gap=     0.146 Goal=   None    Shift=    0.000
 RMSDP=3.85D-06 MaxDP=5.77D-05 DE=-8.22D-08 OVMax= 3.59D-04

 Cycle  18  Pass 1  IDiag  1:
 E= -186.338137114386     Delta-E=       -0.000000002021 Rises=F Damp=F
 DIIS: error= 4.22D-07 at cycle  10 NSaved=  10.
 NSaved=10 IEnMin=10 EnMin= -186.338137114386     IErMin=10 ErrMin= 4.22D-07
 ErrMax= 4.22D-07  0.00D+00 EMaxC= 1.00D-01 BMatC= 6.54D-11 BMatP= 5.13D-10
 IDIUse=1 WtCom= 1.00D+00 WtEn= 0.00D+00
 Coeff-Com:  0.391D-01-0.502D-01-0.444D-01-0.608D-02 0.138D+00-0.594D-01
 Coeff-Com:  0.268D-01-0.193D+00 0.299D+00 0.851D+00
 Coeff:      0.391D-01-0.502D-01-0.444D-01-0.608D-02 0.138D+00-0.594D-01
 Coeff:      0.268D-01-0.193D+00 0.299D+00 0.851D+00
 Gap=     0.075 Goal=   None    Shift=    0.000
 Gap=     0.146 Goal=   None    Shift=    0.000
 RMSDP=4.44D-07 MaxDP=6.55D-06 DE=-2.02D-09 OVMax= 4.10D-05

 Cycle  19  Pass 1  IDiag  1:
 E= -186.338137114433     Delta-E=       -0.000000000046 Rises=F Damp=F
 DIIS: error= 1.78D-07 at cycle  11 NSaved=  11.
 NSaved=11 IEnMin=11 EnMin= -186.338137114433     IErMin=11 ErrMin= 1.78D-07
 ErrMax= 1.78D-07  0.00D+00 EMaxC= 1.00D-01 BMatC= 1.16D-11 BMatP= 6.54D-11
 IDIUse=1 WtCom= 1.00D+00 WtEn= 0.00D+00
 Coeff-Com: -0.195D-01 0.158D-01 0.245D-01 0.135D-01-0.501D-01-0.727D-02
 Coeff-Com:  0.356D-02 0.931D-01-0.187D+00-0.191D+00 0.130D+01
 Coeff:     -0.195D-01 0.158D-01 0.245D-01 0.135D-01-0.501D-01-0.727D-02
 Coeff:      0.356D-02 0.931D-01-0.187D+00-0.191D+00 0.130D+01
 Gap=     0.075 Goal=   None    Shift=    0.000
 Gap=     0.146 Goal=   None    Shift=    0.000
 RMSDP=8.17D-08 MaxDP=1.11D-06 DE=-4.63D-11 OVMax= 7.11D-06

 Cycle  20  Pass 1  IDiag  1:
 E= -186.338137114437     Delta-E=       -0.000000000005 Rises=F Damp=F
 DIIS: error= 3.18D-08 at cycle  12 NSaved=  12.
 NSaved=12 IEnMin=12 EnMin= -186.338137114437     IErMin=12 ErrMin= 3.18D-08
[...]
 IDIUse=1 WtCom= 1.00D+00 WtEn= 0.00D+00
 Large coefficients: NSaved=  7 BigCof=   17.76 CofMax=   10.00 Det=-5.42D-16
 Inversion failed.  Reducing to  6 matrices.
 Large coefficients: NSaved=  6 BigCof=   16.39 CofMax=   10.00 Det=-6.29D-16
 Inversion failed.  Reducing to  5 matrices.
 Large coefficients: NSaved=  5 BigCof=   16.35 CofMax=   10.00 Det=-9.96D-16
 Inversion failed.  Reducing to  4 matrices.
 Coeff-Com: -0.201D+01-0.171D+01 0.363D+01 0.109D+01
 Coeff:     -0.201D+01-0.171D+01 0.363D+01 0.109D+01
 Gap=     0.078 Goal=   None    Shift=    0.000
 Gap=     0.089 Goal=   None    Shift=    0.000
 RMSDP=1.23D-05 MaxDP=2.52D-04 DE=-1.99D-09 OVMax= 1.25D-03

 Cycle  17  Pass 1  IDiag  1:
 E= -186.326850595749     Delta-E=       -0.000000002282 Rises=F Damp=F
 DIIS: error= 1.66D-07 at cycle  17 NSaved=   5.
 NSaved= 5 IEnMin= 5 EnMin= -186.326850595749     IErMin= 5 ErrMin= 1.66D-07
 ErrMax= 1.66D-07  0.00D+00 EMaxC= 1.00D-01 BMatC= 2.19D-12 BMatP= 2.33D-12
 IDIUse=1 WtCom= 1.00D+00 WtEn= 0.00D+00
 Coeff-Com: -0.133D+01-0.164D+01 0.282D+01 0.923D+00 0.233D+00
 Coeff:     -0.133D+01-0.164D+01 0.282D+01 0.923D+00 0.233D+00
 Gap=     0.078 Goal=   None    Shift=    0.000
 Gap=     0.089 Goal=   None    Shift=    0.000
 RMSDP=9.65D-07 MaxDP=1.97D-05 DE=-2.28D-09 OVMax= 9.80D-05

 Cycle  18  Pass 1  IDiag  1:
 E= -186.326850595890     Delta-E=       -0.000000000141 Rises=F Damp=F
 DIIS: error= 1.60D-07 at cycle  18 NSaved=   6.
 NSaved= 6 IEnMin= 6 EnMin= -186.326850595890     IErMin= 6 ErrMin= 1.60D-07
 ErrMax= 1.60D-07  0.00D+00 EMaxC= 1.00D-01 BMatC= 1.69D-12 BMatP= 2.19D-12
 IDIUse=1 WtCom= 1.00D+00 WtEn= 0.00D+00
 Coeff-Com: -0.158D+01 0.351D+00 0.127D+01-0.191D+00-0.409D+01 0.524D+01
 Coeff:     -0.158D+01 0.351D+00 0.127D+01-0.191D+00-0.409D+01 0.524D+01
 Gap=     0.078 Goal=   None    Shift=    0.000
 Gap=     0.089 Goal=   None    Shift=    0.000
 RMSDP=9.78D-06 MaxDP=2.00D-04 DE=-1.41D-10 OVMax= 9.93D-04

 Cycle  19  Pass 1  IDiag  1:
 E= -186.326850597008     Delta-E=       -0.000000001118 Rises=F Damp=F
 DIIS: error= 1.27D-07 at cycle  19 NSaved=   7.
 NSaved= 7 IEnMin= 7 EnMin= -186.326850597008     IErMin= 7 ErrMin= 1.27D-07
 ErrMax= 1.27D-07  0.00D+00 EMaxC= 1.00D-01 BMatC= 1.74D-12 BMatP= 1.69D-12
 IDIUse=1 WtCom= 1.00D+00 WtEn= 0.00D+00
 Coeff-Com: -0.493D+01 0.457D+01 0.953D+00-0.810D+00-0.669D+01 0.633D+01
 Coeff-Com:  0.158D+01
 Coeff:     -0.493D+01 0.457D+01 0.953D+00-0.810D+00-0.669D+01 0.633D+01
 Coeff:      0.158D+01
 Gap=     0.078 Goal=   None    Shift=    0.000
 Gap=     0.089 Goal=   None    Shift=    0.000
 RMSDP=1.29D-05 MaxDP=2.63D-04 DE=-1.12D-09 OVMax= 1.31D-03

 Cycle  20  Pass 1  IDiag  1:
 E= -186.326850597613     Delta-E=       -0.000000000605 Rises=F Damp=F
 DIIS: error= 1.34D-07 at cycle  20 NSaved=   8.
 NSaved= 8 IEnMin= 8 EnMin= -186.326850597613     IErMin= 7 ErrMin= 1.27D-07
 ErrMax= 1.34D-07  0.00D+00 EMaxC= 1.00D-01 BMatC= 1.21D-12 BMatP= 1.69D-12
 IDIUse=1 WtCom= 1.00D+00 WtEn= 0.00D+00
 Coeff-Com: -0.507D+01 0.462D+01 0.110D+01-0.719D+00-0.602D+01 0.551D+01
 Coeff-Com:  0.137D+01 0.214D+00
 Coeff:     -0.507D+01 0.462D+01 0.110D+01-0.719D+00-0.602D+01 0.551D+01
 Coeff:      0.137D+01 0.214D+00
 Gap=     0.078 Goal=   None    Shift=    0.000
 Gap=     0.089 Goal=   None    Shift=    0.000
 RMSDP=4.26D-08 MaxDP=9.14D-07 DE=-6.05D-10 OVMax= 4.32D-06

 Cycle  21  Pass 1  IDiag  1:
 E= -186.326850597614     Delta-E=       -0.000000000001 Rises=F Damp=F
 DIIS: error= 9.27D-08 at cycle  21 NSaved=   9.
 NSaved= 9 IEnMin= 9 EnMin= -186.326850597614     IErMin= 9 ErrMin= 9.27D-08
 ErrMax= 9.27D-08  0.00D+00 EMaxC= 1.00D-01 BMatC= 5.65D-13 BMatP= 1.21D-12
 IDIUse=1 WtCom= 1.00D+00 WtEn= 0.00D+00
 Coeff-Com: -0.185D+01 0.118D+01 0.894D+00 0.606D-01-0.763D+00 0.303D+00
 Coeff-Com:  0.674D-01-0.107D+01 0.219D+01
 Coeff:     -0.185D+01 0.118D+01 0.894D+00 0.606D-01-0.763D+00 0.303D+00
 Coeff:      0.674D-01-0.107D+01 0.219D+01
 Gap=     0.078 Goal=   None    Shift=    0.000
 Gap=     0.089 Goal=   None    Shift=    0.000
 RMSDP=1.29D-06 MaxDP=2.64D-05 DE=-8.53D-13 OVMax= 1.31D-04

 Cycle  22  Pass 1  IDiag  1:
 E= -186.326850597620     Delta-E=       -0.000000000006 Rises=F Damp=F
 DIIS: error= 2.27D-09 at cycle  22 NSaved=  10.
 NSaved=10 IEnMin=10 EnMin= -186.326850597620     IErMin=10 ErrMin= 2.27D-09
 ErrMax= 2.27D-09  0.00D+00 EMaxC= 1.00D-01 BMatC= 3.80D-15 BMatP= 5.65D-13
 IDIUse=1 WtCom= 1.00D+00 WtEn= 0.00D+00
 Coeff-Com:  0.971D+00-0.904D+00-0.172D+00-0.457D-02 0.703D-01 0.929D-01
 Coeff-Com:  0.428D-01-0.178D+00-0.403D-01 0.112D+01
 Coeff:      0.971D+00-0.904D+00-0.172D+00-0.457D-02 0.703D-01 0.929D-01
 Coeff:      0.428D-01-0.178D+00-0.403D-01 0.112D+01
 Gap=     0.078 Goal=   None    Shift=    0.000
 Gap=     0.089 Goal=   None    Shift=    0.000
 RMSDP=1.36D-07 MaxDP=2.81D-06 DE=-5.91D-12 OVMax= 1.38D-05

 Cycle  23  Pass 1  IDiag  1:
 E= -186.326850597620     Delta-E=       -0.000000000000 Rises=F Damp=F
 DIIS: error= 2.48D-08 at cycle  23 NSaved=  11.
 NSaved=11 IEnMin=11 EnMin= -186.326850597620     IErMin=10 ErrMin= 2.27D-09
 ErrMax= 2.48D-08  0.00D+00 EMaxC= 1.00D-01 BMatC= 4.25D-14 BMatP= 3.80D-15
 IDIUse=1 WtCom= 1.00D+00 WtEn= 0.00D+00
 Coeff-Com:  0.854D+00-0.739D+00-0.182D+00 0.247D-01 0.429D+00-0.321D+00
 Coeff-Com: -0.841D-01-0.229D+00-0.161D-01 0.425D+00 0.839D+00
 Coeff:      0.854D+00-0.739D+00-0.182D+00 0.247D-01 0.429D+00-0.321D+00
 Coeff:     -0.841D-01-0.229D+00-0.161D-01 0.425D+00 0.839D+00
 Gap=     0.078 Goal=   None    Shift=    0.000
 Gap=     0.089 Goal=   None    Shift=    0.000
 RMSDP=5.56D-09 MaxDP=1.44D-07 DE=-1.14D-13 OVMax= 5.34D-07

 SCF Done:  E(UB3LYP) =  -186.326850598     A.U. after   23 cycles
            NFock= 23  Conv=0.56D-08     -V/T= 2.0022
 <Sx>= 0.0000 <Sy>= 0.0000 <Sz>= 0.5000 <S**2>= 1.7504 S= 0.9143
 <L.S>=  0.00000000000    
 KE= 1.859154358840D+02 PE=-5.585633282092D+02 EE= 1.265166700308D+02
 Annihilation of the first spin contaminant:
 S**2 before annihilation     1.7504,   after     0.7680
 Leave Link  502 at Thu Jul 27 13:04:43 2023, MaxMem=  1879048192 cpu:              18.9 elap:               2.6
 (Enter /home/gridsan/groups/GRPAPI/Software/g16/l508.exe)
 QCSCF skips out because SCF is already converged.
 Leave Link  508 at Thu Jul 27 13:04:43 2023, MaxMem=  1879048192 cpu:               0.0 elap:               0.0
 (Enter /home/gridsan/groups/GRPAPI/Software/g16/l701.exe)
 ... and contract with generalized density number  0.
 Compute integral first derivatives.
 Leave Link  701 at Thu Jul 27 13:04:43 2023, MaxMem=  1879048192 cpu:               1.3 elap:               0.2
 (Enter /home/gridsan/groups/GRPAPI/Software/g16/l702.exe)
 L702 exits ... SP integral derivatives will be done elsewhere.
 Leave Link  702 at Thu Jul 27 13:04:43 2023, MaxMem=  1879048192 cpu:               0.1 elap:               0.0
 (Enter /home/gridsan/groups/GRPAPI/Software/g16/l703.exe)
 Integral derivatives from FoFJK, PRISM(SPDF).
 Compute integral first derivatives, UseDBF=F ICtDFT=           0.
 Calling FoFJK, ICntrl=      2127 FMM=F ISym2X=0 I1Cent= 0 IOpClX= 1 NMat=1 NMatS=1 NMatT=0.
 FoFJK:  IHMeth= 1 ICntrl=    2127 DoSepK=F KAlg= 0 I1Cent=           0 FoldK=F
 IRaf=         0 NMat=       1 IRICut=       1 DoRegI=T DoRafI=F ISym2E= 0 IDoP0=0 IntGTp=1.
 FoFCou: FMM=F IPFlag=           0 FMFlag=      100000 FMFlg1=         800
         NFxFlg=           0 DoJE=F BraDBF=F KetDBF=F FulRan=T
         wScrn=  0.000000 ICntrl=      2127 IOpCl=  1 I1Cent=           0 NGrid=           0
         NMat0=    1 NMatS0=      1 NMatT0=    0 NMatD0=    1 NMtDS0=    0 NMtDT0=    0
 Symmetry not used in FoFCou.
 Leave Link  703 at Thu Jul 27 13:04:44 2023, MaxMem=  1879048192 cpu:               2.8 elap:               0.4
 (Enter /home/gridsan/groups/GRPAPI/Software/g16/l716.exe)
 Dipole        =-1.20360406D+00-1.81127507D-01 4.62663660D-01
 ***** Axes restored to original set *****
 -------------------------------------------------------------------
 Center     Atomic                   Forces (Hartrees/Bohr)
 Number     Number              X              Y              Z
 -------------------------------------------------------------------
      1        7           0.006174041    0.006519945    0.009980194
      2        8          -0.000276126   -0.007494069    0.013008784
      3        1          -0.005627737   -0.004717617   -0.010507320
      4        1          -0.000116321    0.005708894   -0.012477139
      5        7          -0.000212606   -0.000010606    0.000041372
      6        1           0.000058750   -0.000006546   -0.000045891
 -------------------------------------------------------------------
 Cartesian Forces:  Max     0.013008784 RMS     0.006490875
 Leave Link  716 at Thu Jul 27 13:04:44 2023, MaxMem=  1879048192 cpu:               0.1 elap:               0.0
 (Enter /home/gridsan/groups/GRPAPI/Software/g16/l103.exe)

 GradGradGradGradGradGradGradGradGradGradGradGradGradGradGradGradGradGrad
 Berny optimization.
 FormGI is forming the generalized inverse of G from B-inverse, IUseBI=4.
 Internal  Forces:  Max     0.024460137 RMS     0.007061776
 Search for a saddle point.
 Step number   5 out of a maximum of   22 on scan point     6 out of    46
 All quantities printed in internal units (Hartrees-Bohrs-Radians)
 Swapping is turned off.
 Update second derivatives using D2CorX and points    1    2    3    4    5
 The second derivative matrix:
                          R1        R2        R3        R4        R5
           R1           0.38895
           R2           0.00829   0.39467
           R3           0.03694  -0.00377   0.36069
           R4          -0.01619   0.00016   0.01598   0.01873
           R5          -0.00463   0.00019   0.00282  -0.00452   0.39484
           A1           0.09048   0.00785   0.00443   0.00161   0.00049
           A2           0.06884   0.00340   0.00537   0.00547   0.00106
           A3           0.00106   0.00000   0.00784   0.00672  -0.00320
           A4          -0.00133  -0.00002  -0.00144  -0.00530   0.00183
           D1           0.01124  -0.00173  -0.00941  -0.00019  -0.00010
           D2          -0.00006  -0.00019  -0.00065   0.00033   0.00003
           D3           0.00002  -0.00024  -0.00174   0.00110  -0.00011
                          A1        A2        A3        A4        D1
           A1           0.27969
           A2           0.02679   0.19320
           A3           0.00020   0.00309   0.02064
           A4          -0.00062  -0.00088  -0.00708   0.00342
           D1          -0.00547  -0.00964   0.00055  -0.00068   0.03646
           D2          -0.00018   0.00024   0.00013   0.00012  -0.00084
           D3          -0.00020  -0.00025   0.00049  -0.00019  -0.00132
                          D2        D3
           D2           0.00006
           D3           0.00003   0.00007
 ITU=  0  0  0  0  0
     Eigenvalues ---   -0.00016   0.00001   0.00048   0.01202   0.02800
     Eigenvalues ---    0.17197   0.22939   0.35086   0.39471   0.39515
     Eigenvalues ---    0.472531000.00000
 Eigenvectors required to have negative eigenvalues:
                          D3        D2        A4        R4        A3
   1                    0.68843   0.49407  -0.48660  -0.15955  -0.13905
                          R3        R1        A2        A1        R2
   1                    0.01336  -0.01139   0.00798   0.00341   0.00092
 RFO step:  Lambda0=6.492613789D-08 Lambda=-1.07169986D-05.
 Linear search not attempted -- option 19 set.
 Maximum step size (   0.050) exceeded in Quadratic search.
    -- Step size scaled by   0.403
 New curvilinear step failed, DQL= 2.93D+00 SP=-5.99D-01.
 ITry= 1 IFail=1 DXMaxC= 0.00D+00 DCOld= 1.00D+10 DXMaxT= 5.00D-02 DXLimC= 3.00D+00 Rises=F
 New curvilinear step failed, DQL= 2.93D+00 SP=-5.59D-01.
 ITry= 2 IFail=1 DXMaxC= 0.00D+00 DCOld= 1.00D+10 DXMaxT= 5.00D-02 DXLimC= 3.00D+00 Rises=F
 New curvilinear step failed, DQL= 2.96D+00 SP=-5.64D-01.
 ITry= 3 IFail=1 DXMaxC= 0.00D+00 DCOld= 1.00D+10 DXMaxT= 5.00D-02 DXLimC= 3.00D+00 Rises=F
 New curvilinear step failed, DQL= 2.98D+00 SP=-5.72D-01.
 ITry= 4 IFail=1 DXMaxC= 0.00D+00 DCOld= 1.00D+10 DXMaxT= 5.00D-02 DXLimC= 3.00D+00 Rises=F
 New curvilinear step failed, DQL= 3.01D+00 SP=-5.80D-01.
 ITry= 5 IFail=1 DXMaxC= 0.00D+00 DCOld= 1.00D+10 DXMaxT= 5.00D-02 DXLimC= 3.00D+00 Rises=F
 New curvilinear step failed, DQL= 3.03D+00 SP=-5.87D-01.
 ITry= 6 IFail=1 DXMaxC= 0.00D+00 DCOld= 1.00D+10 DXMaxT= 5.00D-02 DXLimC= 3.00D+00 Rises=F
 New curvilinear step failed, DQL= 3.05D+00 SP=-5.93D-01.
 ITry= 7 IFail=1 DXMaxC= 0.00D+00 DCOld= 1.00D+10 DXMaxT= 5.00D-02 DXLimC= 3.00D+00 Rises=F
 New curvilinear step failed, DQL= 3.07D+00 SP=-6.00D-01.
 ITry= 8 IFail=1 DXMaxC= 0.00D+00 DCOld= 1.00D+10 DXMaxT= 5.00D-02 DXLimC= 3.00D+00 Rises=F
 New curvilinear step failed, DQL= 3.10D+00 SP=-6.06D-01.
 ITry= 9 IFail=1 DXMaxC= 0.00D+00 DCOld= 1.00D+10 DXMaxT= 5.00D-02 DXLimC= 3.00D+00 Rises=F
 New curvilinear step failed, DQL= 3.12D+00 SP=-6.12D-01.
 ITry=10 IFail=1 DXMaxC= 0.00D+00 DCOld= 1.00D+10 DXMaxT= 5.00D-02 DXLimC= 3.00D+00 Rises=F
 RedQX1 iteration     1 Try  1 RMS(Cart)=  0.00357273 RMS(Int)=  0.94690088 XScale=  0.09332459
 RedQX1 iteration     2 Try  1 RMS(Cart)=  0.00071455 RMS(Int)=  0.86665816 XScale=  0.10264171
 RedQX1 iteration     3 Try  1 RMS(Cart)=  0.00014291 RMS(Int)=  0.08277707 XScale=126.95175771
 RedQX1 iteration     3 Try  2 RMS(Cart)=  0.00014291 RMS(Int)=  0.08215590 XScale= 65.15573751
 RedQX1 iteration     3 Try  3 RMS(Cart)=  0.00014291 RMS(Int)=  0.08162713 XScale= 45.70053938
 RedQX1 iteration     3 Try  4 RMS(Cart)=  0.00014291 RMS(Int)=  0.08147784 XScale= 38.51819256
 RedQX1 iteration     3 Try  5 RMS(Cart)=  0.00014291 RMS(Int)=  0.86978553 XScale=  0.10224729
 RedQX1 iteration     4 Try  1 RMS(Cart)=  0.00013834 RMS(Int)=  0.18656081 XScale=  0.67219838
 RedQX1 iteration     5 Try  1 RMS(Cart)=  0.00002767 RMS(Int)=  0.08161266 XScale= 37.61842201
 RedQX1 iteration     5 Try  2 RMS(Cart)=  0.00002767 RMS(Int)=  0.08192565 XScale= 35.29128509
 RedQX1 iteration     5 Try  3 RMS(Cart)=  0.00002767 RMS(Int)=  0.08267814 XScale= 27.80609497
 RedQX1 iteration     5 Try  4 RMS(Cart)=  0.00002767 RMS(Int)=  0.08514185 XScale= 13.50903880
 RedQX1 iteration     5 Try  5 RMS(Cart)=  0.00002767 RMS(Int)=  0.18146515 XScale=  0.70290589
 RedQX1 iteration     6 Try  1 RMS(Cart)=  0.00002749 RMS(Int)=  0.17251254 XScale=  0.76460778
 RedQX1 iteration     7 Try  1 RMS(Cart)=  0.00000550 RMS(Int)=  0.08635582 XScale= 10.59474743
 RedQX1 iteration     7 Try  2 RMS(Cart)=  0.00000550 RMS(Int)=  0.08833326 XScale=  7.83597498
 RedQX1 iteration     7 Try  3 RMS(Cart)=  0.00000550 RMS(Int)=  0.09208865 XScale=  5.27350012
 RedQX1 iteration     7 Try  4 RMS(Cart)=  0.00000550 RMS(Int)=  0.10178656 XScale=  2.92406000
 RedQX1 iteration     7 Try  5 RMS(Cart)=  0.00000550 RMS(Int)=  0.16893262 XScale=  0.79257771
 RedQX1 iteration     8 Try  1 RMS(Cart)=  0.00000549 RMS(Int)=  0.16861858 XScale=  0.79513399
 RedQX1 iteration     9 Try  1 RMS(Cart)=  0.00000110 RMS(Int)=  0.10581215 XScale=  2.48412111
 RedQX1 iteration     9 Try  2 RMS(Cart)=  0.00000110 RMS(Int)=  0.11158184 XScale=  2.05217576
 RedQX1 iteration     9 Try  3 RMS(Cart)=  0.00000110 RMS(Int)=  0.12047867 XScale=  1.62820290
 RedQX1 iteration     9 Try  4 RMS(Cart)=  0.00000110 RMS(Int)=  0.13577328 XScale=  1.21255497
 RedQX1 iteration     9 Try  5 RMS(Cart)=  0.00000110 RMS(Int)=  0.16715755 XScale=  0.80725687
 RedQX1 iteration    10 Try  1 RMS(Cart)=  0.00000110 RMS(Int)=  0.16714541 XScale=  0.80735929
 RedQX1 iteration    11 Try  1 RMS(Cart)=  0.00000022 RMS(Int)=  0.14019279 XScale=  1.13094545
 RedQX1 iteration    11 Try  2 RMS(Cart)=  0.00000022 RMS(Int)=  0.14531527 XScale=  1.04974910
 RedQX1 iteration    11 Try  3 RMS(Cart)=  0.00000022 RMS(Int)=  0.15131263 XScale=  0.96900707
 RedQX1 iteration    12 Try  1 RMS(Cart)=  0.00000022 RMS(Int)=  0.15131247 XScale=  0.96900913
 RedQX1 iteration    13 Try  1 RMS(Cart)=  0.00000004 RMS(Int)=  0.14643695 XScale=  1.03358284
 RedQX1 iteration     1 Try  1 RMS(Cart)=  0.00000001 RMS(Int)=  0.00000005 XScale=  0.36639241
 RedQX1 iteration     2 Try  1 RMS(Cart)=  0.00000000 RMS(Int)=  0.00000002 XScale=  1.83218258
 B after Tr=     0.000000    0.000000   -0.000000
         Rot=    1.000000    0.000000    0.000000    0.000000 Ang=   0.00 deg.
 Variable       Old X    -DE/DX   Delta X   Delta X   Delta X     New X
                                 (Linear)    (Quad)   (Total)
    R1        2.60423   0.00023   0.00000   0.00000   0.00000   2.60423
    R2        1.95035   0.00007   0.00000   0.00007   0.00000   1.95035
    R3        1.83853   0.00013   0.00000   0.00064   0.00003   1.83856
    R4        3.71810  -0.00012   0.00000  -0.00187  -0.00007   3.71803
    R5        1.96270   0.00002   0.00000  -0.00005  -0.00000   1.96270
    A1        1.77920   0.00014   0.00000   0.00020   0.00001   1.77921
    A2        1.82778   0.00006   0.00000   0.00068   0.00003   1.82780
    A3        3.08660  -0.00010   0.00000   0.00908   0.00036   3.08695
    A4        3.14000   0.00005   0.00000   0.03993   0.00159   3.14159
    D1       -2.22658  -0.02446   0.00000   0.00000   0.00000  -2.22658
    D2        0.90266  -0.00001   0.00000  -0.22366  -0.00893   0.89373
    D3        0.86612   0.00000   0.00000   0.17841  -0.27949   0.58663
         Item               Value     Threshold  Converged?
 Maximum Force            0.000232     0.000450     YES
 RMS     Force            0.000107     0.000300     YES
 Maximum Displacement     0.001187     0.001800     YES
 RMS     Displacement     0.000709     0.001200     YES
 Predicted change in Energy= 2.776395D-06
 Optimization completed.
    -- Stationary point found.
                           ----------------------------
                           !   Optimized Parameters   !
                           ! (Angstroms and Degrees)  !
 --------------------------                            --------------------------
 ! Name  Definition              Value          Derivative Info.                !
 --------------------------------------------------------------------------------
 ! R1    R(1,2)                  1.3781         -DE/DX =    0.0002              !
 ! R2    R(1,3)                  1.0321         -DE/DX =    0.0001              !
 ! R3    R(2,4)                  0.9729         -DE/DX =    0.0001              !
 ! R4    R(4,5)                  1.9675         -DE/DX =   -0.0001              !
 ! R5    R(5,6)                  1.0386         -DE/DX =    0.0                 !
 ! A1    A(2,1,3)              101.9407         -DE/DX =    0.0001              !
 ! A2    A(1,2,4)              104.7239         -DE/DX =    0.0001              !
 ! A3    A(2,4,5)              176.8489         -DE/DX =   -0.0001              !
 ! A4    A(4,5,6)              179.9088         -DE/DX =    0.0                 !
 ! D1    D(3,1,2,4)           -127.5736         -DE/DX =   -0.0245              !
 ! D2    D(1,2,4,5)             51.7186         -DE/DX =    0.0                 !
 ! D3    D(2,4,5,6)             49.6248         -DE/DX =    0.0                 !
 --------------------------------------------------------------------------------
 Lowest energy point so far.  Saving SCF results.
 SLEqS3 Cycle:   181 Max:0.565126E-02 RMS:0.232496E-02 Conv:0.747474E-07
 SLEqS3 Cycle:   181 Max:0.565126E-02 RMS:0.232496E-02 Conv:0.747474E-07
 Iteration  1 RMS(Cart)=  0.04828184 RMS(Int)=  0.00686158
 SLEqS3 Cycle:    60 Max:0.332908E-02 RMS: 70.5832     Conv:0.172372E-03
 New curvilinear step failed, DQL= 3.14D+00 SP=-1.13D-01.
 RedCar failed.
 Error termination via Lnk1e in /home/gridsan/groups/GRPAPI/Software/g16/l103.exe at Thu Jul 27 13:04:44 2023.
 Job cpu time:       0 days  0 hours 38 minutes 14.5 seconds.
 Elapsed time:       0 days  0 hours  5 minutes 21.9 seconds.
 File lengths (MBytes):  RWF=     12 Int=      0 D2E=      0 Chk=      4 Scr=      1
