 Entering Gaussian System, Link 0=g09
 Initial command:
 /cm/shared/c3ddb/gaussian/09.d01/g09/l1.exe "/scratch/users/alongd/g09/a16431-7309004/Gau-3223.inp" -scrdir="/scratch/users/alongd/g09/a16431-7309004/"
 Entering Link 1 = /cm/shared/c3ddb/gaussian/09.d01/g09/l1.exe PID=      3224.
  
 Copyright (c) 1988,1990,1992,1993,1995,1998,2003,2009,2013,
            Gaussian, Inc.  All Rights Reserved.
  
 This is part of the Gaussian(R) 09 program.  It is based on
 the Gaussian(R) 03 system (copyright 2003, Gaussian, Inc.),
 the Gaussian(R) 98 system (copyright 1998, Gaussian, Inc.),
 the Gaussian(R) 94 system (copyright 1995, Gaussian, Inc.),
 the Gaussian 92(TM) system (copyright 1992, Gaussian, Inc.),
 the Gaussian 90(TM) system (copyright 1990, Gaussian, Inc.),
 the Gaussian 88(TM) system (copyright 1988, Gaussian, Inc.),
 the Gaussian 86(TM) system (copyright 1986, Carnegie Mellon
 University), and the Gaussian 82(TM) system (copyright 1983,
 Carnegie Mellon University). Gaussian is a federally registered
 trademark of Gaussian, Inc.
  
 This software contains proprietary and confidential information,
 including trade secrets, belonging to Gaussian, Inc.
  
 This software is provided under written license and may be
 used, copied, transmitted, or stored only in accord with that
 written license.
  
 The following legend is applicable only to US Government
 contracts under FAR:
  
                    RESTRICTED RIGHTS LEGEND
  
 Use, reproduction and disclosure by the US Government is
 subject to restrictions as set forth in subparagraphs (a)
 and (c) of the Commercial Computer Software - Restricted
 Rights clause in FAR 52.227-19.
  
 Gaussian, Inc.
 340 Quinnipiac St., Bldg. 40, Wallingford CT 06492
  
  
 ---------------------------------------------------------------
 Warning -- This program may not be used in any manner that
 competes with the business of Gaussian, Inc. or will provide
 assistance to any competitor of Gaussian, Inc.  The licensee
 of this program is prohibited from giving any competitor of
 Gaussian, Inc. access to this program.  By using this program,
 the user acknowledges that Gaussian, Inc. is engaged in the
 business of creating and licensing software in the field of
 computational chemistry and represents and warrants to the
 licensee that it is not a competitor of Gaussian, Inc. and that
 it will not use this program in any manner prohibited above.
 ---------------------------------------------------------------
  

 Cite this work as:
 Gaussian 09, Revision D.01,
 M. J. Frisch, G. W. Trucks, H. B. Schlegel, G. E. Scuseria, 
 M. A. Robb, J. R. Cheeseman, G. Scalmani, V. Barone, B. Mennucci, 
 G. A. Petersson, H. Nakatsuji, M. Caricato, X. Li, H. P. Hratchian, 
 A. F. Izmaylov, J. Bloino, G. Zheng, J. L. Sonnenberg, M. Hada, 
 M. Ehara, K. Toyota, R. Fukuda, J. Hasegawa, M. Ishida, T. Nakajima, 
 Y. Honda, O. Kitao, H. Nakai, T. Vreven, J. A. Montgomery, Jr., 
 J. E. Peralta, F. Ogliaro, M. Bearpark, J. J. Heyd, E. Brothers, 
 K. N. Kudin, V. N. Staroverov, T. Keith, R. Kobayashi, J. Normand, 
 K. Raghavachari, A. Rendell, J. C. Burant, S. S. Iyengar, J. Tomasi, 
 M. Cossi, N. Rega, J. M. Millam, M. Klene, J. E. Knox, J. B. Cross, 
 V. Bakken, C. Adamo, J. Jaramillo, R. Gomperts, R. E. Stratmann, 
 O. Yazyev, A. J. Austin, R. Cammi, C. Pomelli, J. W. Ochterski, 
 R. L. Martin, K. Morokuma, V. G. Zakrzewski, G. A. Voth, 
 P. Salvador, J. J. Dannenberg, S. Dapprich, A. D. Daniels, 
 O. Farkas, J. B. Foresman, J. V. Ortiz, J. Cioslowski, 
 and D. J. Fox, Gaussian, Inc., Wallingford CT, 2013.
 
 ******************************************
 Gaussian 09:  AS64L-G09RevD.01 24-Apr-2013
                15-Feb-2019 
 ******************************************
 %chk=check.chk
 %mem=1500mb
 %nproc=8
 Will use up to    8 processors via shared memory.
 ---------------------------------------------------------------------
 #P opt=(modredundant, calcfc, noeigentest) b3lyp/6-311+g(d,p) scf=xqc
 ---------------------------------------------------------------------
 1/10=4,11=1,14=-1,18=120,19=15,26=3,38=1/1,3;
 2/9=110,12=2,17=6,18=5,40=1/2;
 3/5=4,6=6,7=111,11=2,16=1,25=1,30=1,71=2,74=-5,140=1/1,2,3;
 4//1;
 5/5=2,8=3,13=1,38=5/2,8;
 8/6=4,10=90,11=11/1;
 11/6=1,8=1,9=11,15=111,16=1/1,2,10;
 10/6=1,13=1/2;
 6/7=2,8=2,9=2,10=2,28=1/1;
 7/10=1,18=20,25=1/1,2,3,16;
 1/10=4,11=1,14=-1,18=20,19=15,26=3/3(2);
 2/9=110/2;
 99//99;
 2/9=110/2;
 3/5=4,6=6,7=111,11=2,16=1,25=1,30=1,71=1,74=-5/1,2,3;
 4/5=5,16=3,69=1/1;
 5/5=2,8=3,13=1,38=5/2,8;
 7//1,2,3,16;
 1/11=1,14=-1,18=20,19=15,26=3/3(-5);
 2/9=110/2;
 6/7=2,8=2,9=2,10=2,19=2,28=1/1;
 99/9=1/99;
 Leave Link    1 at Fri Feb 15 20:13:30 2019, MaxMem=   196608000 cpu:         0.8
 (Enter /cm/shared/c3ddb/gaussian/09.d01/g09/l101.exe)
 ----
 name
 ----
 Symbolic Z-matrix:
 Charge =  0 Multiplicity = 1
 O                     1.58288  -0.6158    0. 
 O                     0.4879    1.26488   0. 
 O                    -1.76438  -0.01398   0. 
 N                     0.61158   0.07783   0. 
 N                    -0.94766  -0.79766   0. 
 
 Add virtual bond connecting atoms N5         and N4         Dist= 3.38D+00.
 The following ModRedundant input section has been read:
 D       1       4       5       3 S  45 8.0000                                
 
 Add atom      4 valence  3 ND=      2 dihedral       5      2      4      1
 NAtoms=      5 NQM=        5 NQMF=       0 NMMI=      0 NMMIF=      0
                NMic=       0 NMicF=      0.
                    Isotopes and Nuclear Properties:
 (Nuclear quadrupole moments (NQMom) in fm**2, nuclear magnetic moments (NMagM)
  in nuclear magnetons)

  Atom         1           2           3           4           5
 IAtWgt=          16          16          16          14          14
 AtmWgt=  15.9949146  15.9949146  15.9949146  14.0030740  14.0030740
 NucSpn=           0           0           0           2           2
 AtZEff=   0.0000000   0.0000000   0.0000000   0.0000000   0.0000000
 NQMom=    0.0000000   0.0000000   0.0000000   2.0440000   2.0440000
 NMagM=    0.0000000   0.0000000   0.0000000   0.4037610   0.4037610
 AtZNuc=   8.0000000   8.0000000   8.0000000   7.0000000   7.0000000
 Leave Link  101 at Fri Feb 15 20:13:30 2019, MaxMem=   196608000 cpu:         0.8
 (Enter /cm/shared/c3ddb/gaussian/09.d01/g09/l103.exe)

 GradGradGradGradGradGradGradGradGradGradGradGradGradGradGradGradGradGrad
 Berny optimization.
 Initialization pass.
                           ----------------------------
                           !    Initial Parameters    !
                           ! (Angstroms and Degrees)  !
 --------------------------                            --------------------------
 ! Name  Definition              Value          Derivative Info.                !
 --------------------------------------------------------------------------------
 ! R1    R(1,4)                  1.1935         calculate D2E/DX2 analytically  !
 ! R2    R(2,4)                  1.1935         calculate D2E/DX2 analytically  !
 ! R3    R(3,5)                  1.1319         calculate D2E/DX2 analytically  !
 ! R4    R(4,5)                  1.7882         calculate D2E/DX2 analytically  !
 ! A1    A(1,4,2)              131.4799         calculate D2E/DX2 analytically  !
 ! A2    A(1,4,5)              115.1552         calculate D2E/DX2 analytically  !
 ! A3    A(2,4,5)              113.365          calculate D2E/DX2 analytically  !
 ! A4    A(3,5,4)              106.869          calculate D2E/DX2 analytically  !
 ! D1    D(5,2,4,1)            180.0            calculate D2E/DX2 analytically  !
 ! D2    D(1,4,5,3)            180.0            Scan                            !
 ! D3    D(2,4,5,3)              0.0            calculate D2E/DX2 analytically  !
 --------------------------------------------------------------------------------
 Trust Radius=3.00D-01 FncErr=1.00D-07 GrdErr=1.00D-06
 Number of optimizations in scan=  46
 Number of steps in this run=     21 maximum allowed number of steps=    100.
 GradGradGradGradGradGradGradGradGradGradGradGradGradGradGradGradGradGrad

 Leave Link  103 at Fri Feb 15 20:13:30 2019, MaxMem=   196608000 cpu:         0.1
 (Enter /cm/shared/c3ddb/gaussian/09.d01/g09/l202.exe)
                          Input orientation:                          
 ---------------------------------------------------------------------
 Center     Atomic      Atomic             Coordinates (Angstroms)
 Number     Number       Type             X           Y           Z
 ---------------------------------------------------------------------
      1          8           0        1.582883   -0.615798    0.000000
      2          8           0        0.487897    1.264877    0.000000
      3          8           0       -1.764376   -0.013982    0.000000
      4          7           0        0.611582    0.077827    0.000000
      5          7           0       -0.947664   -0.797662    0.000000
 ---------------------------------------------------------------------
                    Distance matrix (angstroms):
                    1          2          3          4          5
     1  O    0.000000
     2  O    2.176220   0.000000
     3  O    3.400930   2.590022   0.000000
     4  N    1.193541   1.193476   2.377731   0.000000
     5  N    2.537074   2.512947   1.131889   1.788220   0.000000
 Stoichiometry    N2O3
 Framework group  CS[SG(N2O3)]
 Deg. of freedom     7
 Full point group                 CS      NOp   2
 Largest Abelian subgroup         CS      NOp   2
 Largest concise Abelian subgroup C1      NOp   1
                         Standard orientation:                         
 ---------------------------------------------------------------------
 Center     Atomic      Atomic             Coordinates (Angstroms)
 Number     Number       Type             X           Y           Z
 ---------------------------------------------------------------------
      1          8           0       -0.809595    1.490781    0.000000
      2          8           0        1.193200    0.639463    0.000000
      3          8           0        0.205900   -1.755000    0.000000
      4          7           0        0.000000    0.613800    0.000000
      5          7           0       -0.673720   -1.042651    0.000000
 ---------------------------------------------------------------------
 Rotational constants (GHZ):     12.5838165      4.5130884      3.3217636
 Leave Link  202 at Fri Feb 15 20:13:30 2019, MaxMem=   196608000 cpu:         0.6
 (Enter /cm/shared/c3ddb/gaussian/09.d01/g09/l301.exe)
 Standard basis: 6-311+G(d,p) (5D, 7F)
 Ernie: Thresh=  0.10000D-02 Tol=  0.10000D-05 Strict=F.
 There are    85 symmetry adapted cartesian basis functions of A'  symmetry.
 There are    30 symmetry adapted cartesian basis functions of A"  symmetry.
 There are    80 symmetry adapted basis functions of A'  symmetry.
 There are    30 symmetry adapted basis functions of A"  symmetry.
   110 basis functions,   180 primitive gaussians,   115 cartesian basis functions
    19 alpha electrons       19 beta electrons
       nuclear repulsion energy       164.8724805054 Hartrees.
 IExCor=  402 DFT=T Ex+Corr=B3LYP ExCW=0 ScaHFX=  0.200000
 ScaDFX=  0.800000  0.720000  1.000000  0.810000 ScalE2=  1.000000  1.000000
 IRadAn=      0 IRanWt=     -1 IRanGd=            0 ICorTp=0 IEmpDi=  4
 NAtoms=    5 NActive=    5 NUniq=    5 SFac= 1.00D+00 NAtFMM=   60 NAOKFM=F Big=F
 Integral buffers will be    131072 words long.
 Raffenetti 2 integral format.
 Two-electron integral symmetry is turned on.
 Leave Link  301 at Fri Feb 15 20:13:30 2019, MaxMem=   196608000 cpu:         0.6
 (Enter /cm/shared/c3ddb/gaussian/09.d01/g09/l302.exe)
 NPDir=0 NMtPBC=     1 NCelOv=     1 NCel=       1 NClECP=     1 NCelD=      1
         NCelK=      1 NCelE2=     1 NClLst=     1 CellRange=     0.0.
 One-electron integrals computed using PRISM.
 NBasis=   110 RedAO= T EigKep=  4.69D-04  NBF=    80    30
 NBsUse=   110 1.00D-06 EigRej= -1.00D+00 NBFU=    80    30
 Precomputing XC quadrature grid using
 IXCGrd= 4 IRadAn=           0 IRanWt=          -1 IRanGd=           0 AccXCQ= 0.00D+00.
 Generated NRdTot=       0 NPtTot=           0 NUsed=           0 NTot=          32
 NSgBfM=   115   115   115   115   115 MxSgAt=     5 MxSgA2=     5.
 Leave Link  302 at Fri Feb 15 20:13:31 2019, MaxMem=   196608000 cpu:         4.5
 (Enter /cm/shared/c3ddb/gaussian/09.d01/g09/l303.exe)
 DipDrv:  MaxL=1.
 Leave Link  303 at Fri Feb 15 20:13:31 2019, MaxMem=   196608000 cpu:         1.2
 (Enter /cm/shared/c3ddb/gaussian/09.d01/g09/l401.exe)
 ExpMin= 6.39D-02 ExpMax= 8.59D+03 ExpMxC= 1.30D+03 IAcc=2 IRadAn=         4 AccDes= 0.00D+00
 Harris functional with IExCor=  402 and IRadAn=       4 diagonalized for initial guess.
 HarFok:  IExCor=  402 AccDes= 0.00D+00 IRadAn=         4 IDoV= 1 UseB2=F ITyADJ=14
 ICtDFT=  3500011 ScaDFX=  1.000000  1.000000  1.000000  1.000000
 FoFCou: FMM=F IPFlag=           0 FMFlag=      100000 FMFlg1=           0
         NFxFlg=           0 DoJE=T BraDBF=F KetDBF=T FulRan=T
         wScrn=  0.000000 ICntrl=     500 IOpCl=  0 I1Cent=   200000004 NGrid=           0
         NMat0=    1 NMatS0=      1 NMatT0=    0 NMatD0=    1 NMtDS0=    0 NMtDT0=    0
 Petite list used in FoFCou.
 Harris En= -335.123247091973    
 JPrj=0 DoOrth=F DoCkMO=F.
 Initial guess orbital symmetries:
       Occupied  (A') (A') (A') (A') (A') (A') (A') (A') (A') (A')
                 (A') (A') (A") (A") (A') (A') (A") (A') (A')
       Virtual   (A") (A") (A') (A') (A') (A') (A") (A') (A") (A')
                 (A') (A") (A') (A') (A') (A") (A') (A') (A") (A')
                 (A') (A') (A') (A') (A') (A') (A") (A') (A') (A")
                 (A') (A') (A') (A") (A') (A") (A') (A') (A") (A')
                 (A') (A') (A') (A') (A') (A') (A') (A") (A") (A")
                 (A') (A") (A') (A') (A') (A') (A") (A') (A") (A')
                 (A") (A') (A") (A') (A") (A') (A') (A") (A') (A')
                 (A') (A") (A") (A') (A') (A') (A') (A") (A') (A")
                 (A") (A') (A') (A') (A') (A') (A') (A') (A') (A')
                 (A')
 The electronic state of the initial guess is 1-A'.
 Leave Link  401 at Fri Feb 15 20:13:33 2019, MaxMem=   196608000 cpu:         7.7
 (Enter /cm/shared/c3ddb/gaussian/09.d01/g09/l502.exe)
 Closed shell SCF:
 Using DIIS extrapolation, IDIIS=  1040.
 Integral symmetry usage will be decided dynamically.
 Keep R1 ints in memory in symmetry-blocked form, NReq=28446291.
 IVT=       47411 IEndB=       47411 NGot=   196608000 MDV=   186800385
 LenX=   186800385 LenY=   186786719
 Requested convergence on RMS density matrix=1.00D-08 within  64 cycles.
 Requested convergence on MAX density matrix=1.00D-06.
 Requested convergence on             energy=1.00D-06.
 No special actions if energy rises.
 FoFCou: FMM=F IPFlag=           0 FMFlag=           0 FMFlg1=           0
         NFxFlg=           0 DoJE=F BraDBF=F KetDBF=F FulRan=T
         wScrn=  0.000000 ICntrl=     600 IOpCl=  0 I1Cent=           0 NGrid=           0
         NMat0=    1 NMatS0=   6105 NMatT0=    0 NMatD0=    1 NMtDS0=    0 NMtDT0=    0
 Petite list used in FoFCou.
 Integral accuracy reduced to 1.0D-05 until final iterations.

 Cycle   1  Pass 0  IDiag  1:
 E= -334.918024314314    
 DIIS: error= 6.60D-02 at cycle   1 NSaved=   1.
 NSaved= 1 IEnMin= 1 EnMin= -334.918024314314     IErMin= 1 ErrMin= 6.60D-02
 ErrMax= 6.60D-02  0.00D+00 EMaxC= 1.00D-01 BMatC= 2.58D-01 BMatP= 2.58D-01
 IDIUse=3 WtCom= 3.40D-01 WtEn= 6.60D-01
 Coeff-Com:  0.100D+01
 Coeff-En:   0.100D+01
 Coeff:      0.100D+01
 Gap=     0.030 Goal=   None    Shift=    0.000
 GapD=    0.030 DampG=0.250 DampE=0.500 DampFc=0.2500 IDamp=-1.
 Damping current iteration by 2.50D-01
 RMSDP=1.04D-02 MaxDP=1.77D-01              OVMax= 3.42D-01

 Cycle   2  Pass 0  IDiag  1:
 E= -334.967640474147     Delta-E=       -0.049616159833 Rises=F Damp=T
 DIIS: error= 1.34D-02 at cycle   2 NSaved=   2.
 NSaved= 2 IEnMin= 2 EnMin= -334.967640474147     IErMin= 2 ErrMin= 1.34D-02
 ErrMax= 1.34D-02  0.00D+00 EMaxC= 1.00D-01 BMatC= 2.30D-02 BMatP= 2.58D-01
 IDIUse=3 WtCom= 8.66D-01 WtEn= 1.34D-01
 Coeff-Com: -0.203D+00 0.120D+01
 Coeff-En:   0.206D+00 0.794D+00
 Coeff:     -0.148D+00 0.115D+01
 Gap=     0.175 Goal=   None    Shift=    0.000
 RMSDP=2.18D-03 MaxDP=6.59D-02 DE=-4.96D-02 OVMax= 2.60D-01

 Cycle   3  Pass 0  IDiag  1:
 E= -335.074276367351     Delta-E=       -0.106635893204 Rises=F Damp=F
 DIIS: error= 1.44D-02 at cycle   3 NSaved=   3.
 NSaved= 3 IEnMin= 3 EnMin= -335.074276367351     IErMin= 2 ErrMin= 1.34D-02
 ErrMax= 1.44D-02  0.00D+00 EMaxC= 1.00D-01 BMatC= 1.40D-02 BMatP= 2.30D-02
 IDIUse=3 WtCom= 8.56D-01 WtEn= 1.44D-01
 Coeff-Com: -0.120D+00 0.593D+00 0.528D+00
 Coeff-En:   0.000D+00 0.000D+00 0.100D+01
 Coeff:     -0.103D+00 0.507D+00 0.596D+00
 Gap=     0.115 Goal=   None    Shift=    0.000
 RMSDP=1.55D-03 MaxDP=3.70D-02 DE=-1.07D-01 OVMax= 7.07D-02

 Cycle   4  Pass 0  IDiag  1:
 E= -335.075762823166     Delta-E=       -0.001486455815 Rises=F Damp=F
 DIIS: error= 1.44D-02 at cycle   4 NSaved=   4.
 NSaved= 4 IEnMin= 4 EnMin= -335.075762823166     IErMin= 2 ErrMin= 1.34D-02
 ErrMax= 1.44D-02  0.00D+00 EMaxC= 1.00D-01 BMatC= 1.33D-02 BMatP= 1.40D-02
 IDIUse=3 WtCom= 8.56D-01 WtEn= 1.44D-01
 Coeff-Com: -0.493D-01 0.176D+00 0.462D+00 0.411D+00
 Coeff-En:   0.000D+00 0.000D+00 0.474D+00 0.526D+00
 Coeff:     -0.422D-01 0.151D+00 0.464D+00 0.428D+00
 Gap=     0.119 Goal=   None    Shift=    0.000
 RMSDP=6.83D-04 MaxDP=1.19D-02 DE=-1.49D-03 OVMax= 3.33D-02

 Cycle   5  Pass 0  IDiag  1:
 E= -335.085171844192     Delta-E=       -0.009409021027 Rises=F Damp=F
 DIIS: error= 5.72D-03 at cycle   5 NSaved=   5.
 NSaved= 5 IEnMin= 5 EnMin= -335.085171844192     IErMin= 5 ErrMin= 5.72D-03
 ErrMax= 5.72D-03  0.00D+00 EMaxC= 1.00D-01 BMatC= 7.99D-04 BMatP= 1.33D-02
 IDIUse=3 WtCom= 9.43D-01 WtEn= 5.72D-02
 Coeff-Com: -0.248D-01 0.809D-01 0.278D+00 0.282D+00 0.384D+00
 Coeff-En:   0.000D+00 0.000D+00 0.000D+00 0.000D+00 0.100D+01
 Coeff:     -0.234D-01 0.763D-01 0.262D+00 0.266D+00 0.419D+00
 Gap=     0.121 Goal=   None    Shift=    0.000
 RMSDP=2.50D-04 MaxDP=3.91D-03 DE=-9.41D-03 OVMax= 1.85D-02

 Cycle   6  Pass 0  IDiag  1:
 E= -335.085546459285     Delta-E=       -0.000374615092 Rises=F Damp=F
 DIIS: error= 3.45D-03 at cycle   6 NSaved=   6.
 NSaved= 6 IEnMin= 6 EnMin= -335.085546459285     IErMin= 6 ErrMin= 3.45D-03
 ErrMax= 3.45D-03  0.00D+00 EMaxC= 1.00D-01 BMatC= 2.99D-04 BMatP= 7.99D-04
 IDIUse=3 WtCom= 9.65D-01 WtEn= 3.45D-02
 Coeff-Com: -0.286D-02 0.199D-02 0.510D-01 0.675D-01 0.374D+00 0.509D+00
 Coeff-En:   0.000D+00 0.000D+00 0.000D+00 0.000D+00 0.337D+00 0.663D+00
 Coeff:     -0.276D-02 0.192D-02 0.492D-01 0.651D-01 0.372D+00 0.514D+00
 Gap=     0.121 Goal=   None    Shift=    0.000
 RMSDP=1.02D-04 MaxDP=1.55D-03 DE=-3.75D-04 OVMax= 6.91D-03

 Cycle   7  Pass 0  IDiag  1:
 E= -335.085773174970     Delta-E=       -0.000226715685 Rises=F Damp=F
 DIIS: error= 1.08D-04 at cycle   7 NSaved=   7.
 NSaved= 7 IEnMin= 7 EnMin= -335.085773174970     IErMin= 7 ErrMin= 1.08D-04
 ErrMax= 1.08D-04  0.00D+00 EMaxC= 1.00D-01 BMatC= 1.71D-06 BMatP= 2.99D-04
 IDIUse=3 WtCom= 9.99D-01 WtEn= 1.08D-03
 Coeff-Com: -0.943D-03-0.248D-03 0.127D-01 0.176D-01 0.139D+00 0.214D+00
 Coeff-Com:  0.618D+00
 Coeff-En:   0.000D+00 0.000D+00 0.000D+00 0.000D+00 0.000D+00 0.000D+00
 Coeff-En:   0.100D+01
 Coeff:     -0.942D-03-0.248D-03 0.127D-01 0.176D-01 0.139D+00 0.214D+00
 Coeff:      0.618D+00
 Gap=     0.121 Goal=   None    Shift=    0.000
 RMSDP=1.28D-05 MaxDP=2.38D-04 DE=-2.27D-04 OVMax= 5.19D-04

 Cycle   8  Pass 0  IDiag  1:
 E= -335.085774192859     Delta-E=       -0.000001017889 Rises=F Damp=F
 DIIS: error= 7.93D-05 at cycle   8 NSaved=   8.
 NSaved= 8 IEnMin= 8 EnMin= -335.085774192859     IErMin= 8 ErrMin= 7.93D-05
 ErrMax= 7.93D-05  0.00D+00 EMaxC= 1.00D-01 BMatC= 3.16D-07 BMatP= 1.71D-06
 IDIUse=1 WtCom= 1.00D+00 WtEn= 0.00D+00
 Coeff-Com: -0.458D-03 0.577D-04 0.215D-02 0.312D-02 0.417D-01 0.709D-01
 Coeff-Com:  0.338D+00 0.545D+00
 Coeff:     -0.458D-03 0.577D-04 0.215D-02 0.312D-02 0.417D-01 0.709D-01
 Coeff:      0.338D+00 0.545D+00
 Gap=     0.121 Goal=   None    Shift=    0.000
 RMSDP=7.21D-06 MaxDP=1.36D-04 DE=-1.02D-06 OVMax= 4.81D-04

 Initial convergence to 1.0D-05 achieved.  Increase integral accuracy.
 Cycle   9  Pass 1  IDiag  1:
 E= -335.085789468485     Delta-E=       -0.000015275626 Rises=F Damp=F
 DIIS: error= 5.32D-05 at cycle   1 NSaved=   1.
 NSaved= 1 IEnMin= 1 EnMin= -335.085789468485     IErMin= 1 ErrMin= 5.32D-05
 ErrMax= 5.32D-05  0.00D+00 EMaxC= 1.00D-01 BMatC= 1.65D-07 BMatP= 1.65D-07
 IDIUse=1 WtCom= 1.00D+00 WtEn= 0.00D+00
 Coeff-Com:  0.100D+01
 Coeff:      0.100D+01
 Gap=     0.121 Goal=   None    Shift=    0.000
 RMSDP=7.21D-06 MaxDP=1.36D-04 DE=-1.53D-05 OVMax= 6.77D-04

 Cycle  10  Pass 1  IDiag  1:
 E= -335.085788903475     Delta-E=        0.000000565009 Rises=F Damp=F
 DIIS: error= 1.31D-04 at cycle   2 NSaved=   2.
 NSaved= 2 IEnMin= 1 EnMin= -335.085789468485     IErMin= 1 ErrMin= 5.32D-05
 ErrMax= 1.31D-04  0.00D+00 EMaxC= 1.00D-01 BMatC= 8.38D-07 BMatP= 1.65D-07
 IDIUse=3 WtCom= 4.66D-01 WtEn= 5.34D-01
 Coeff-Com:  0.701D+00 0.299D+00
 Coeff-En:   0.778D+00 0.222D+00
 Coeff:      0.742D+00 0.258D+00
 Gap=     0.121 Goal=   None    Shift=    0.000
 RMSDP=6.01D-06 MaxDP=1.17D-04 DE= 5.65D-07 OVMax= 3.90D-04

 Cycle  11  Pass 1  IDiag  1:
 E= -335.085789612735     Delta-E=       -0.000000709260 Rises=F Damp=F
 DIIS: error= 1.67D-05 at cycle   3 NSaved=   3.
 NSaved= 3 IEnMin= 3 EnMin= -335.085789612735     IErMin= 3 ErrMin= 1.67D-05
 ErrMax= 1.67D-05  0.00D+00 EMaxC= 1.00D-01 BMatC= 1.37D-08 BMatP= 1.65D-07
 IDIUse=1 WtCom= 1.00D+00 WtEn= 0.00D+00
 Coeff-Com:  0.245D+00 0.309D-01 0.724D+00
 Coeff:      0.245D+00 0.309D-01 0.724D+00
 Gap=     0.121 Goal=   None    Shift=    0.000
 RMSDP=1.46D-06 MaxDP=1.94D-05 DE=-7.09D-07 OVMax= 8.69D-05

 Cycle  12  Pass 1  IDiag  1:
 E= -335.085789618671     Delta-E=       -0.000000005936 Rises=F Damp=F
 DIIS: error= 1.09D-05 at cycle   4 NSaved=   4.
 NSaved= 4 IEnMin= 4 EnMin= -335.085789618671     IErMin= 4 ErrMin= 1.09D-05
 ErrMax= 1.09D-05  0.00D+00 EMaxC= 1.00D-01 BMatC= 8.63D-09 BMatP= 1.37D-08
 IDIUse=1 WtCom= 1.00D+00 WtEn= 0.00D+00
 Coeff-Com:  0.227D-01-0.494D-01 0.575D+00 0.452D+00
 Coeff:      0.227D-01-0.494D-01 0.575D+00 0.452D+00
 Gap=     0.121 Goal=   None    Shift=    0.000
 RMSDP=6.66D-07 MaxDP=1.07D-05 DE=-5.94D-09 OVMax= 3.04D-05

 Cycle  13  Pass 1  IDiag  1:
 E= -335.085789624579     Delta-E=       -0.000000005908 Rises=F Damp=F
 DIIS: error= 4.49D-06 at cycle   5 NSaved=   5.
 NSaved= 5 IEnMin= 5 EnMin= -335.085789624579     IErMin= 5 ErrMin= 4.49D-06
 ErrMax= 4.49D-06  0.00D+00 EMaxC= 1.00D-01 BMatC= 6.31D-10 BMatP= 8.63D-09
 IDIUse=1 WtCom= 1.00D+00 WtEn= 0.00D+00
 Coeff-Com: -0.577D-02-0.355D-01 0.322D+00 0.305D+00 0.414D+00
 Coeff:     -0.577D-02-0.355D-01 0.322D+00 0.305D+00 0.414D+00
 Gap=     0.121 Goal=   None    Shift=    0.000
 RMSDP=1.96D-07 MaxDP=3.22D-06 DE=-5.91D-09 OVMax= 1.25D-05

 Cycle  14  Pass 1  IDiag  1:
 E= -335.085789624951     Delta-E=       -0.000000000372 Rises=F Damp=F
 DIIS: error= 2.17D-06 at cycle   6 NSaved=   6.
 NSaved= 6 IEnMin= 6 EnMin= -335.085789624951     IErMin= 6 ErrMin= 2.17D-06
 ErrMax= 2.17D-06  0.00D+00 EMaxC= 1.00D-01 BMatC= 1.40D-10 BMatP= 6.31D-10
 IDIUse=1 WtCom= 1.00D+00 WtEn= 0.00D+00
 Coeff-Com: -0.714D-02-0.193D-01 0.159D+00 0.166D+00 0.320D+00 0.382D+00
 Coeff:     -0.714D-02-0.193D-01 0.159D+00 0.166D+00 0.320D+00 0.382D+00
 Gap=     0.121 Goal=   None    Shift=    0.000
 RMSDP=8.01D-08 MaxDP=1.21D-06 DE=-3.72D-10 OVMax= 5.25D-06

 Cycle  15  Pass 1  IDiag  1:
 E= -335.085789625055     Delta-E=       -0.000000000103 Rises=F Damp=F
 DIIS: error= 2.73D-07 at cycle   7 NSaved=   7.
 NSaved= 7 IEnMin= 7 EnMin= -335.085789625055     IErMin= 7 ErrMin= 2.73D-07
 ErrMax= 2.73D-07  0.00D+00 EMaxC= 1.00D-01 BMatC= 3.99D-12 BMatP= 1.40D-10
 IDIUse=1 WtCom= 1.00D+00 WtEn= 0.00D+00
 Coeff-Com: -0.285D-02-0.685D-02 0.551D-01 0.588D-01 0.123D+00 0.207D+00
 Coeff-Com:  0.566D+00
 Coeff:     -0.285D-02-0.685D-02 0.551D-01 0.588D-01 0.123D+00 0.207D+00
 Coeff:      0.566D+00
 Gap=     0.121 Goal=   None    Shift=    0.000
 RMSDP=1.92D-08 MaxDP=3.38D-07 DE=-1.03D-10 OVMax= 1.01D-06

 Cycle  16  Pass 1  IDiag  1:
 E= -335.085789625058     Delta-E=       -0.000000000003 Rises=F Damp=F
 DIIS: error= 1.56D-07 at cycle   8 NSaved=   8.
 NSaved= 8 IEnMin= 8 EnMin= -335.085789625058     IErMin= 8 ErrMin= 1.56D-07
 ErrMax= 1.56D-07  0.00D+00 EMaxC= 1.00D-01 BMatC= 1.51D-12 BMatP= 3.99D-12
 IDIUse=1 WtCom= 1.00D+00 WtEn= 0.00D+00
 Coeff-Com: -0.231D-03 0.162D-03-0.320D-02-0.259D-02 0.940D-03 0.567D-01
 Coeff-Com:  0.423D+00 0.526D+00
 Coeff:     -0.231D-03 0.162D-03-0.320D-02-0.259D-02 0.940D-03 0.567D-01
 Coeff:      0.423D+00 0.526D+00
 Gap=     0.121 Goal=   None    Shift=    0.000
 RMSDP=7.14D-09 MaxDP=1.89D-07 DE=-3.47D-12 OVMax= 2.82D-07

 SCF Done:  E(RB3LYP) =  -335.085789625     A.U. after   16 cycles
            NFock= 16  Conv=0.71D-08     -V/T= 2.0025
 KE= 3.342643481338D+02 PE=-1.118673336628D+03 EE= 2.844507183638D+02
 Leave Link  502 at Fri Feb 15 20:13:47 2019, MaxMem=   196608000 cpu:        97.1
 (Enter /cm/shared/c3ddb/gaussian/09.d01/g09/l508.exe)
 QCSCF skips out because SCF is already converged.
 Leave Link  508 at Fri Feb 15 20:13:47 2019, MaxMem=   196608000 cpu:         0.0
 (Enter /cm/shared/c3ddb/gaussian/09.d01/g09/l801.exe)
 DoSCS=F DFT=T ScalE2(SS,OS)=  1.000000  1.000000
 Range of M.O.s used for correlation:     1   110
 NBasis=   110 NAE=    19 NBE=    19 NFC=     0 NFV=     0
 NROrb=    110 NOA=    19 NOB=    19 NVA=    91 NVB=    91

 **** Warning!!: The largest alpha MO coefficient is  0.15779452D+02

 Leave Link  801 at Fri Feb 15 20:13:47 2019, MaxMem=   196608000 cpu:         0.2
 (Enter /cm/shared/c3ddb/gaussian/09.d01/g09/l1101.exe)
 Using compressed storage, NAtomX=     5.
 Will process      6 centers per pass.
 Leave Link 1101 at Fri Feb 15 20:13:48 2019, MaxMem=   196608000 cpu:         5.0
 (Enter /cm/shared/c3ddb/gaussian/09.d01/g09/l1102.exe)
 Symmetrizing basis deriv contribution to polar:
 IMax=3 JMax=2 DiffMx= 0.00D+00
 Leave Link 1102 at Fri Feb 15 20:13:48 2019, MaxMem=   196608000 cpu:         1.0
 (Enter /cm/shared/c3ddb/gaussian/09.d01/g09/l1110.exe)
 Forming Gx(P) for the SCF density, NAtomX=     5.
 Integral derivatives from FoFJK, PRISM(SPDF).
 Do as many integral derivatives as possible in FoFJK.
 G2DrvN: MDV=     196607856.
 G2DrvN: will do     6 centers at a time, making    1 passes.
 Calling FoFCou, ICntrl=  3107 FMM=F I1Cent=   0 AccDes= 0.00D+00.
 FoFJK:  IHMeth= 1 ICntrl=    3107 DoSepK=F KAlg= 0 I1Cent=   0 FoldK=F
 IRaf=         0 NMat=   1 IRICut=       1 DoRegI=T DoRafI=F ISym2E= 1.
 FoFCou: FMM=F IPFlag=           0 FMFlag=      100000 FMFlg1=           0
         NFxFlg=           0 DoJE=F BraDBF=F KetDBF=F FulRan=T
         wScrn=  0.000000 ICntrl=    3107 IOpCl=  0 I1Cent=           0 NGrid=           0
         NMat0=    1 NMatS0=      1 NMatT0=    0 NMatD0=    1 NMtDS0=    0 NMtDT0=    0
 Petite list used in FoFCou.
 End of G2Drv F.D. properties file   721 does not exist.
 End of G2Drv F.D. properties file   722 does not exist.
 End of G2Drv F.D. properties file   788 does not exist.
 Leave Link 1110 at Fri Feb 15 20:13:52 2019, MaxMem=   196608000 cpu:        25.5
 (Enter /cm/shared/c3ddb/gaussian/09.d01/g09/l1002.exe)
 Minotr:  Closed shell wavefunction.
          IDoAtm=11111
          Direct CPHF calculation.
          Differentiating once with respect to nuclear coordinates.
          Using symmetry in CPHF.
          Requested convergence is 1.0D-08 RMS, and 1.0D-07 maximum.
          Secondary convergence is 1.0D-12 RMS, and 1.0D-12 maximum.
          NewPWx=T KeepS1=F KeepF1=F KeepIn=T MapXYZ=F SortEE=F KeepMc=T.
          MDV=     196607836 using IRadAn=       2.
 Generate precomputed XC quadrature information.
 Keep R1 ints in memory in symmetry-blocked form, NReq=28401148.
 FoFCou: FMM=F IPFlag=           0 FMFlag=           0 FMFlg1=           0
         NFxFlg=           0 DoJE=F BraDBF=F KetDBF=F FulRan=T
         wScrn=  0.000000 ICntrl=     600 IOpCl=  0 I1Cent=           0 NGrid=           0
         NMat0=    1 NMatS0=   6105 NMatT0=    0 NMatD0=    1 NMtDS0=    0 NMtDT0=    0
 Petite list used in FoFCou.
          Solving linear equations simultaneously, MaxMat=       0.
          There are    18 degrees of freedom in the 1st order CPHF.  IDoFFX=6 NUNeed=     0.
     12 vectors produced by pass  0 Test12= 9.61D-15 5.56D-09 XBig12= 1.43D-01 1.57D-01.
 AX will form    12 AO Fock derivatives at one time.
     12 vectors produced by pass  1 Test12= 9.61D-15 5.56D-09 XBig12= 1.23D-01 1.66D-01.
     12 vectors produced by pass  2 Test12= 9.61D-15 5.56D-09 XBig12= 8.91D-03 1.94D-02.
     12 vectors produced by pass  3 Test12= 9.61D-15 5.56D-09 XBig12= 2.93D-04 4.27D-03.
     12 vectors produced by pass  4 Test12= 9.61D-15 5.56D-09 XBig12= 1.92D-06 2.84D-04.
     12 vectors produced by pass  5 Test12= 9.61D-15 5.56D-09 XBig12= 1.02D-08 1.72D-05.
     12 vectors produced by pass  6 Test12= 9.61D-15 5.56D-09 XBig12= 3.07D-11 1.09D-06.
      2 vectors produced by pass  7 Test12= 9.61D-15 5.56D-09 XBig12= 5.29D-14 5.16D-08.
      1 vectors produced by pass  8 Test12= 9.61D-15 5.56D-09 XBig12= 6.87D-16 7.78D-09.
 InvSVY:  IOpt=1 It=  1 EMax= 8.88D-16
 Solved reduced A of dimension    87 with    12 vectors.
 End of Minotr F.D. properties file   721 does not exist.
 End of Minotr F.D. properties file   722 does not exist.
 End of Minotr F.D. properties file   788 does not exist.
 Leave Link 1002 at Fri Feb 15 20:14:03 2019, MaxMem=   196608000 cpu:        72.8
 (Enter /cm/shared/c3ddb/gaussian/09.d01/g09/l601.exe)
 Copying SCF densities to generalized density rwf, IOpCl= 0 IROHF=0.

 **********************************************************************

            Population analysis using the SCF density.

 **********************************************************************

 Orbital symmetries:
       Occupied  (A') (A') (A') (A') (A') (A') (A') (A') (A') (A')
                 (A') (A") (A') (A") (A') (A') (A") (A') (A')
       Virtual   (A") (A") (A') (A') (A') (A') (A") (A') (A") (A')
                 (A') (A") (A') (A') (A') (A") (A') (A") (A') (A')
                 (A') (A') (A') (A') (A') (A') (A") (A') (A') (A")
                 (A') (A') (A') (A") (A') (A") (A') (A') (A") (A')
                 (A') (A') (A') (A') (A') (A') (A') (A") (A") (A")
                 (A") (A') (A') (A') (A') (A') (A") (A') (A") (A')
                 (A") (A') (A") (A') (A") (A') (A') (A") (A') (A')
                 (A") (A') (A") (A') (A') (A') (A') (A") (A') (A")
                 (A") (A') (A') (A') (A') (A') (A') (A') (A') (A')
                 (A')
 The electronic state is 1-A'.
 Alpha  occ. eigenvalues --  -19.31181 -19.20858 -19.20536 -14.56125 -14.53700
 Alpha  occ. eigenvalues --   -1.32740  -1.27649  -1.12162  -0.76808  -0.66771
 Alpha  occ. eigenvalues --   -0.61175  -0.58989  -0.56180  -0.55308  -0.54422
 Alpha  occ. eigenvalues --   -0.46822  -0.36219  -0.34939  -0.28603
 Alpha virt. eigenvalues --   -0.16530  -0.07569  -0.06205   0.02593   0.05676
 Alpha virt. eigenvalues --    0.06887   0.07334   0.11673   0.12943   0.13923
 Alpha virt. eigenvalues --    0.14592   0.16913   0.18699   0.20809   0.22311
 Alpha virt. eigenvalues --    0.23335   0.25443   0.27237   0.28377   0.29352
 Alpha virt. eigenvalues --    0.30343   0.31639   0.33400   0.40622   0.42147
 Alpha virt. eigenvalues --    0.46828   0.64660   0.71596   0.73325   0.75524
 Alpha virt. eigenvalues --    0.78170   0.86812   0.94110   0.96421   1.01141
 Alpha virt. eigenvalues --    1.02571   1.04732   1.07185   1.09005   1.10406
 Alpha virt. eigenvalues --    1.13933   1.15666   1.19894   1.44327   1.53914
 Alpha virt. eigenvalues --    1.60523   1.62141   1.66113   1.69443   1.76702
 Alpha virt. eigenvalues --    1.93623   1.95172   2.23930   2.35038   2.41082
 Alpha virt. eigenvalues --    2.57303   2.71398   2.72711   2.74484   2.76351
 Alpha virt. eigenvalues --    2.77113   2.84719   3.01723   3.16748   3.21075
 Alpha virt. eigenvalues --    3.29466   3.37177   3.43432   3.56671   3.58568
 Alpha virt. eigenvalues --    3.73560   3.75835   3.77671   3.85082   4.06819
 Alpha virt. eigenvalues --    4.31679   4.48917   4.85644   4.90056   4.95158
 Alpha virt. eigenvalues --    4.97608   5.02481   5.08805   5.50547   5.72382
 Alpha virt. eigenvalues --    6.20903  35.39775  35.42400  49.80228  49.84325
 Alpha virt. eigenvalues --   49.93416
          Condensed to atoms (all electrons):
               1          2          3          4          5
     1  O    8.057489  -0.149389   0.019313   0.187013  -0.097226
     2  O   -0.149389   8.041001   0.058051   0.209944  -0.145434
     3  O    0.019313   0.058051   7.625116  -0.127383   0.222072
     4  N    0.187013   0.209944  -0.127383   6.845708  -0.007827
     5  N   -0.097226  -0.145434   0.222072  -0.007827   7.092421
 Mulliken charges:
               1
     1  O   -0.017199
     2  O   -0.014172
     3  O    0.202831
     4  N   -0.107454
     5  N   -0.064006
 Sum of Mulliken charges =   0.00000
 Mulliken charges with hydrogens summed into heavy atoms:
               1
     1  O   -0.017199
     2  O   -0.014172
     3  O    0.202831
     4  N   -0.107454
     5  N   -0.064006
 APT charges:
               1
     1  O    0.018111
     2  O   -0.075315
     3  O    0.272929
     4  N   -0.062963
     5  N   -0.152762
 Sum of APT charges =   0.00000
 APT charges with hydrogens summed into heavy atoms:
               1
     1  O    0.018111
     2  O   -0.075315
     3  O    0.272929
     4  N   -0.062963
     5  N   -0.152762
 Electronic spatial extent (au):  <R**2>=            333.5914
 Charge=              0.0000 electrons
 Dipole moment (field-independent basis, Debye):
    X=             -0.5061    Y=             -2.1452    Z=              0.0000  Tot=              2.2041
 Quadrupole moment (field-independent basis, Debye-Ang):
   XX=            -30.3342   YY=            -28.4027   ZZ=            -24.4893
   XY=              0.9232   XZ=              0.0000   YZ=              0.0000
 Traceless Quadrupole moment (field-independent basis, Debye-Ang):
   XX=             -2.5921   YY=             -0.6607   ZZ=              3.2527
   XY=              0.9232   XZ=              0.0000   YZ=              0.0000
 Octapole moment (field-independent basis, Debye-Ang**2):
  XXX=              1.5037  YYY=             -6.5072  ZZZ=              0.0000  XYY=              1.5523
  XXY=             -2.2942  XXZ=              0.0000  XZZ=              0.2691  YZZ=             -1.1150
  YYZ=              0.0000  XYZ=              0.0000
 Hexadecapole moment (field-independent basis, Debye-Ang**3):
 XXXX=           -112.9287 YYYY=           -256.2647 ZZZZ=            -18.9984 XXXY=             -0.2600
 XXXZ=              0.0000 YYYX=              4.5136 YYYZ=              0.0000 ZZZX=              0.0000
 ZZZY=              0.0000 XXYY=            -62.3433 XXZZ=            -20.9428 YYZZ=            -42.1162
 XXYZ=              0.0000 YYXZ=              0.0000 ZZXY=              0.6662
 N-N= 1.648724805054D+02 E-N=-1.118673342103D+03  KE= 3.342643481338D+02
 Symmetry A'   KE= 3.212346791936D+02
 Symmetry A"   KE= 1.302966894026D+01
  Exact polarizability:   0.000   0.000   0.000   0.000   0.000   0.000
 Approx polarizability:  70.178 -10.105  88.298   0.000   0.000  20.948
 No NMR shielding tensors so no spin-rotation constants.
 Leave Link  601 at Fri Feb 15 20:14:05 2019, MaxMem=   196608000 cpu:         9.3
 (Enter /cm/shared/c3ddb/gaussian/09.d01/g09/l701.exe)
 Compute integral second derivatives.
 ... and contract with generalized density number  0.
 Leave Link  701 at Fri Feb 15 20:14:06 2019, MaxMem=   196608000 cpu:         7.3
 (Enter /cm/shared/c3ddb/gaussian/09.d01/g09/l702.exe)
 L702 exits ... SP integral derivatives will be done elsewhere.
 Leave Link  702 at Fri Feb 15 20:14:06 2019, MaxMem=   196608000 cpu:         0.2
 (Enter /cm/shared/c3ddb/gaussian/09.d01/g09/l703.exe)
 Compute integral second derivatives, UseDBF=F ICtDFT=           0.
 Integral derivatives from FoFJK, PRISM(SPDF).
 Calling FoFJK, ICntrl=    100147 FMM=F ISym2X=1 I1Cent= 0 IOpClX= 0 NMat=1 NMatS=1 NMatT=0.
 FoFJK:  IHMeth= 1 ICntrl=  100147 DoSepK=F KAlg= 0 I1Cent=   0 FoldK=F
 IRaf=         0 NMat=   1 IRICut=       1 DoRegI=T DoRafI=F ISym2E= 1.
 FoFCou: FMM=F IPFlag=           0 FMFlag=      100000 FMFlg1=         800
         NFxFlg=           0 DoJE=F BraDBF=F KetDBF=F FulRan=T
         wScrn=  0.000000 ICntrl=  100147 IOpCl=  0 I1Cent=           0 NGrid=           0
         NMat0=    1 NMatS0=      1 NMatT0=    0 NMatD0=    1 NMtDS0=    0 NMtDT0=    0
 Petite list used in FoFCou.
 Leave Link  703 at Fri Feb 15 20:14:11 2019, MaxMem=   196608000 cpu:        38.3
 (Enter /cm/shared/c3ddb/gaussian/09.d01/g09/l716.exe)
 Dipole        =-1.99121235D-01-8.44001388D-01-3.91179333D-32
 Polarizability= 0.00000000D+00 0.00000000D+00 0.00000000D+00
                 0.00000000D+00 0.00000000D+00 0.00000000D+00
 ***** Axes restored to original set *****
 -------------------------------------------------------------------
 Center     Atomic                   Forces (Hartrees/Bohr)
 Number     Number              X              Y              Z
 -------------------------------------------------------------------
      1        8           0.009972415   -0.007646264    0.000000000
      2        8          -0.001496963    0.012066714    0.000000000
      3        8          -0.010718053    0.007957340    0.000000000
      4        7           0.002019668    0.000396400    0.000000000
      5        7           0.000222933   -0.012774189    0.000000000
 -------------------------------------------------------------------
 Cartesian Forces:  Max     0.012774189 RMS     0.006590006
 Force constants in Cartesian coordinates: 
                1             2             3             4             5 
      1  0.516795D+00
      2 -0.328602D+00  0.341986D+00
      3  0.000000D+00  0.000000D+00  0.973375D-02
      4  0.236530D-02  0.875698D-01  0.000000D+00  0.112777D+00
      5  0.659919D-01 -0.864659D-01  0.000000D+00 -0.924950D-01  0.748993D+00
      6  0.000000D+00  0.000000D+00  0.143037D-01  0.000000D+00  0.000000D+00
      7 -0.479382D-01 -0.397593D-02  0.000000D+00  0.403023D-02 -0.217644D-01
      8  0.221789D-01 -0.173970D-02  0.000000D+00  0.952896D-02  0.439183D-01
      9  0.000000D+00  0.000000D+00  0.100807D-02  0.000000D+00  0.000000D+00
     10 -0.503933D+00  0.240186D+00  0.000000D+00 -0.119969D+00  0.182616D-01
     11  0.237895D+00 -0.269395D+00  0.000000D+00  0.363909D-01 -0.641025D+00
     12  0.000000D+00  0.000000D+00 -0.319016D-01  0.000000D+00  0.000000D+00
     13  0.327113D-01  0.482144D-02  0.000000D+00  0.796764D-03  0.300059D-01
     14  0.253620D-02  0.156144D-01  0.000000D+00 -0.409946D-01 -0.654197D-01
     15  0.000000D+00  0.000000D+00  0.685613D-02  0.000000D+00  0.000000D+00
                6             7             8             9            10 
      6  0.115403D-01
      7  0.000000D+00  0.633988D+00
      8  0.000000D+00 -0.516064D+00  0.545056D+00
      9 -0.287801D-02  0.000000D+00  0.000000D+00 -0.199794D-02
     10  0.000000D+00 -0.350189D-01 -0.186392D-01  0.000000D+00  0.693267D+00
     11  0.000000D+00  0.574075D-01 -0.319572D-02  0.000000D+00 -0.261957D+00
     12 -0.348638D-01  0.000000D+00  0.000000D+00  0.359504D-02  0.000000D+00
     13  0.000000D+00 -0.555061D+00  0.502995D+00  0.000000D+00 -0.343454D-01
     14  0.000000D+00  0.484397D+00 -0.584039D+00  0.000000D+00  0.221480D-01
     15  0.118978D-01  0.000000D+00  0.000000D+00  0.272832D-03  0.000000D+00
               11            12            13            14            15 
     11  0.982739D+00
     12  0.000000D+00  0.851609D-01
     13 -0.697363D-01  0.000000D+00  0.555898D+00
     14 -0.691232D-01  0.000000D+00 -0.468086D+00  0.702967D+00
     15  0.000000D+00 -0.219905D-01  0.000000D+00  0.000000D+00  0.296374D-02
 FormGI is forming the generalized inverse of G from B-inverse, IUseBI=4.
 Force constants in internal coordinates: 
                1             2             3             4             5 
      1  0.768573D+00
      2  0.108471D+00  0.761219D+00
      3  0.396855D-01  0.454806D-01  0.110701D+01
      4  0.534895D-02  0.213556D-02  0.596090D-01  0.825294D-01
      5  0.463878D-01  0.482702D-01 -0.292006D-01 -0.452103D-02  0.191919D+00
      6 -0.725651D-02 -0.405415D-01  0.392471D-01 -0.169201D-01 -0.873352D-01
      7 -0.391312D-01 -0.772866D-02 -0.100465D-01  0.214411D-01 -0.104584D+00
      8  0.249623D-01 -0.332760D-01  0.478464D-01  0.317762D-01 -0.302866D-02
      9  0.000000D+00  0.000000D+00  0.000000D+00  0.000000D+00  0.000000D+00
     10  0.000000D+00  0.000000D+00  0.000000D+00  0.000000D+00  0.000000D+00
     11  0.000000D+00  0.000000D+00  0.000000D+00  0.000000D+00  0.000000D+00
                6             7             8             9            10 
      6  0.120778D+00
      7 -0.334426D-01  0.138027D+00
      8  0.606997D-01 -0.576711D-01  0.357662D+00
      9  0.000000D+00  0.000000D+00  0.000000D+00  0.243040D-01
     10  0.000000D+00  0.000000D+00  0.000000D+00 -0.880101D-02  0.724414D-02
     11  0.000000D+00  0.000000D+00  0.000000D+00  0.113151D-01 -0.403405D-04
               11 
     11  0.932499D-02
 Leave Link  716 at Fri Feb 15 20:14:12 2019, MaxMem=   196608000 cpu:         0.5
 (Enter /cm/shared/c3ddb/gaussian/09.d01/g09/l103.exe)

 GradGradGradGradGradGradGradGradGradGradGradGradGradGradGradGradGradGrad
 Berny optimization.
 Red2BG is reusing G-inverse.
 Internal  Forces:  Max     0.013242688 RMS     0.007548236
 Search for a local minimum.
 Step number   1 out of a maximum of   21 on scan point     1 out of    46
 All quantities printed in internal units (Hartrees-Bohrs-Radians)
 RMS Force = .79167D-02 SwitMx=.10000D-02 MixMth= 1
 Mixed Optimization -- RFO/linear search
 Second derivative matrix not updated -- analytic derivatives used.
 The second derivative matrix:
                          R1        R2        R3        R4        A1
           R1           0.76857
           R2           0.10847   0.76122
           R3           0.03969   0.04548   1.10701
           R4           0.00535   0.00214   0.05961   0.08253
           A1           0.04639   0.04827  -0.02920  -0.00452   0.19192
           A2          -0.00726  -0.04054   0.03925  -0.01692  -0.08734
           A3          -0.03913  -0.00773  -0.01005   0.02144  -0.10458
           A4           0.02496  -0.03328   0.04785   0.03178  -0.00303
           D1           0.00000   0.00000   0.00000   0.00000   0.00000
           D2           0.00000   0.00000   0.00000   0.00000   0.00000
           D3           0.00000   0.00000   0.00000   0.00000   0.00000
                          A2        A3        A4        D1        D2
           A2           0.12078
           A3          -0.03344   0.13803
           A4           0.06070  -0.05767   0.35766
           D1           0.00000   0.00000   0.00000   0.02430
           D2           0.00000   0.00000   0.00000  -0.00880   0.00724
           D3           0.00000   0.00000   0.00000   0.01132  -0.00004
                          D3
           D3           0.00932
 ITU=  0
     Eigenvalues ---    0.02933   0.05886   0.14827   0.27608   0.37631
     Eigenvalues ---    0.66579   0.87281   1.129611000.000001000.00000
     Eigenvalues --- 1000.00000
 RFO step:  Lambda=-1.99324590D-03 EMin= 2.93299517D-02
 Linear search not attempted -- first point.
 Iteration  1 RMS(Cart)=  0.04635720 RMS(Int)=  0.00026888
 Iteration  2 RMS(Cart)=  0.00029034 RMS(Int)=  0.00000004
 Iteration  3 RMS(Cart)=  0.00000006 RMS(Int)=  0.00000000
 Iteration  1 RMS(Cart)=  0.00000000 RMS(Int)=  0.00000000
 ITry= 1 IFail=0 DXMaxC= 9.22D-02 DCOld= 1.00D+10 DXMaxT= 3.00D-01 DXLimC= 3.00D+00 Rises=F
 ClnCor:  largest displacement from symmetrization is 2.09D-11 for atom     4.
 Variable       Old X    -DE/DX   Delta X   Delta X   Delta X     New X
                                 (Linear)    (Quad)   (Total)
    R1        2.25547   0.01256   0.00000   0.01281   0.01281   2.26828
    R2        2.25534   0.01216   0.00000   0.01409   0.01409   2.26943
    R3        2.13896   0.01324   0.00000   0.00262   0.00262   2.14158
    R4        3.37925   0.01151   0.00000   0.14485   0.14485   3.52410
    A1        2.29476   0.00050   0.00000  -0.00135  -0.00135   2.29341
    A2        2.00984  -0.00046   0.00000   0.01932   0.01932   2.02915
    A3        1.97859  -0.00004   0.00000  -0.01797  -0.01797   1.96063
    A4        1.86522   0.00359   0.00000  -0.00890  -0.00890   1.85632
    D1        3.14159   0.00000   0.00000   0.00000   0.00000   3.14159
    D2        3.14159   0.00000   0.00000   0.00000   0.00000   3.14159
    D3        0.00000   0.00000   0.00000   0.00000   0.00000   0.00000
         Item               Value     Threshold  Converged?
 Maximum Force            0.013243     0.000450     NO 
 RMS     Force            0.007917     0.000300     NO 
 Maximum Displacement     0.092169     0.001800     NO 
 RMS     Displacement     0.046415     0.001200     NO 
 Predicted change in Energy=-1.018677D-03
 Lowest energy point so far.  Saving SCF results.
 GradGradGradGradGradGradGradGradGradGradGradGradGradGradGradGradGradGrad

 Leave Link  103 at Fri Feb 15 20:14:14 2019, MaxMem=   196608000 cpu:        15.8
 (Enter /cm/shared/c3ddb/gaussian/09.d01/g09/l202.exe)
                          Input orientation:                          
 ---------------------------------------------------------------------
 Center     Atomic      Atomic             Coordinates (Angstroms)
 Number     Number       Type             X           Y           Z
 ---------------------------------------------------------------------
      1          8           0        1.621999   -0.607912    0.000000
      2          8           0        0.505013    1.274113    0.000000
      3          8           0       -1.799069   -0.015769    0.000000
      4          7           0        0.638818    0.080659    0.000000
      5          7           0       -0.996438   -0.815829    0.000000
 ---------------------------------------------------------------------
                    Distance matrix (angstroms):
                    1          2          3          4          5
     1  O    0.000000
     2  O    2.188532   0.000000
     3  O    3.471936   2.640566   0.000000
     4  N    1.200322   1.200931   2.439793   0.000000
     5  N    2.626678   2.573365   1.133276   1.864873   0.000000
 Stoichiometry    N2O3
 Framework group  CS[SG(N2O3)]
 Deg. of freedom     7
 Full point group                 CS      NOp   2
 RotChk:  IX=0 Diff= 2.04D-03
 Largest Abelian subgroup         CS      NOp   2
 Largest concise Abelian subgroup C1      NOp   1
                         Standard orientation:                         
 ---------------------------------------------------------------------
 Center     Atomic      Atomic             Coordinates (Angstroms)
 Number     Number       Type             X           Y           Z
 ---------------------------------------------------------------------
      1          8           0       -0.804781    1.531126    0.000000
      2          8           0        1.200841    0.655254    0.000000
      3          8           0        0.205551   -1.790555    0.000000
      4          7           0        0.000000    0.640564    0.000000
      5          7           0       -0.687556   -1.092935    0.000000
 ---------------------------------------------------------------------
 Rotational constants (GHZ):     12.4354798      4.2756732      3.1817103
 Leave Link  202 at Fri Feb 15 20:14:14 2019, MaxMem=   196608000 cpu:         0.4
 (Enter /cm/shared/c3ddb/gaussian/09.d01/g09/l301.exe)
 Standard basis: 6-311+G(d,p) (5D, 7F)
 Ernie: Thresh=  0.10000D-02 Tol=  0.10000D-05 Strict=F.
 There are    85 symmetry adapted cartesian basis functions of A'  symmetry.
 There are    30 symmetry adapted cartesian basis functions of A"  symmetry.
 There are    80 symmetry adapted basis functions of A'  symmetry.
 There are    30 symmetry adapted basis functions of A"  symmetry.
   110 basis functions,   180 primitive gaussians,   115 cartesian basis functions
    19 alpha electrons       19 beta electrons
       nuclear repulsion energy       162.4161750677 Hartrees.
 IExCor=  402 DFT=T Ex+Corr=B3LYP ExCW=0 ScaHFX=  0.200000
 ScaDFX=  0.800000  0.720000  1.000000  0.810000 ScalE2=  1.000000  1.000000
 IRadAn=      0 IRanWt=     -1 IRanGd=            0 ICorTp=0 IEmpDi=  4
 NAtoms=    5 NActive=    5 NUniq=    5 SFac= 1.00D+00 NAtFMM=   60 NAOKFM=F Big=F
 Integral buffers will be    131072 words long.
 Raffenetti 2 integral format.
 Two-electron integral symmetry is turned on.
 Leave Link  301 at Fri Feb 15 20:14:14 2019, MaxMem=   196608000 cpu:         0.3
 (Enter /cm/shared/c3ddb/gaussian/09.d01/g09/l302.exe)
 NPDir=0 NMtPBC=     1 NCelOv=     1 NCel=       1 NClECP=     1 NCelD=      1
         NCelK=      1 NCelE2=     1 NClLst=     1 CellRange=     0.0.
 One-electron integrals computed using PRISM.
 NBasis=   110 RedAO= T EigKep=  5.46D-04  NBF=    80    30
 NBsUse=   110 1.00D-06 EigRej= -1.00D+00 NBFU=    80    30
 Precomputing XC quadrature grid using
 IXCGrd= 4 IRadAn=           0 IRanWt=          -1 IRanGd=           0 AccXCQ= 0.00D+00.
 Generated NRdTot=       0 NPtTot=           0 NUsed=           0 NTot=          32
 NSgBfM=   115   115   115   115   115 MxSgAt=     5 MxSgA2=     5.
 Leave Link  302 at Fri Feb 15 20:14:15 2019, MaxMem=   196608000 cpu:         4.1
 (Enter /cm/shared/c3ddb/gaussian/09.d01/g09/l303.exe)
 DipDrv:  MaxL=1.
 Leave Link  303 at Fri Feb 15 20:14:16 2019, MaxMem=   196608000 cpu:         1.5
 (Enter /cm/shared/c3ddb/gaussian/09.d01/g09/l401.exe)
 Initial guess from the checkpoint file:  "check.chk"
 B after Tr=     0.000000    0.000000    0.000000
         Rot=    1.000000    0.000000    0.000000    0.000864 Ang=   0.10 deg.
 Guess basis will be translated and rotated to current coordinates.
 JPrj=2 DoOrth=T DoCkMO=T.
 Initial guess orbital symmetries:
       Occupied  (A') (A') (A') (A') (A') (A') (A') (A') (A') (A')
                 (A') (A") (A') (A") (A') (A') (A") (A') (A')
       Virtual   (A') (A') (A') (A') (A') (A') (A') (A') (A') (A')
                 (A') (A') (A') (A') (A') (A') (A') (A') (A') (A')
                 (A') (A') (A') (A') (A') (A') (A') (A') (A') (A')
                 (A') (A') (A') (A') (A') (A') (A') (A') (A') (A')
                 (A') (A') (A') (A') (A') (A') (A') (A') (A') (A')
                 (A') (A') (A') (A') (A') (A') (A') (A') (A') (A')
                 (A') (A') (A') (A') (A") (A") (A") (A") (A") (A")
                 (A") (A") (A") (A") (A") (A") (A") (A") (A") (A")
                 (A") (A") (A") (A") (A") (A") (A") (A") (A") (A")
                 (A")
 The electronic state of the initial guess is 1-A'.
 Generating alternative initial guess.
 ExpMin= 6.39D-02 ExpMax= 8.59D+03 ExpMxC= 1.30D+03 IAcc=2 IRadAn=         4 AccDes= 0.00D+00
 Harris functional with IExCor=  402 and IRadAn=       4 diagonalized for initial guess.
 HarFok:  IExCor=  402 AccDes= 0.00D+00 IRadAn=         4 IDoV= 1 UseB2=F ITyADJ=14
 ICtDFT=  3500011 ScaDFX=  1.000000  1.000000  1.000000  1.000000
 FoFCou: FMM=F IPFlag=           0 FMFlag=      100000 FMFlg1=           0
         NFxFlg=           0 DoJE=T BraDBF=F KetDBF=T FulRan=T
         wScrn=  0.000000 ICntrl=     500 IOpCl=  0 I1Cent=   200000004 NGrid=           0
         NMat0=    1 NMatS0=      1 NMatT0=    0 NMatD0=    1 NMtDS0=    0 NMtDT0=    0
 Petite list used in FoFCou.
 Harris En= -335.125424953938    
 Leave Link  401 at Fri Feb 15 20:14:17 2019, MaxMem=   196608000 cpu:        11.5
 (Enter /cm/shared/c3ddb/gaussian/09.d01/g09/l502.exe)
 Closed shell SCF:
 Using DIIS extrapolation, IDIIS=  1040.
 Integral symmetry usage will be decided dynamically.
 Keep R1 ints in memory in symmetry-blocked form, NReq=28446291.
 IVT=       47411 IEndB=       47411 NGot=   196608000 MDV=   186800385
 LenX=   186800385 LenY=   186786719
 Requested convergence on RMS density matrix=1.00D-08 within  64 cycles.
 Requested convergence on MAX density matrix=1.00D-06.
 Requested convergence on             energy=1.00D-06.
 No special actions if energy rises.
 FoFCou: FMM=F IPFlag=           0 FMFlag=           0 FMFlg1=           0
         NFxFlg=           0 DoJE=F BraDBF=F KetDBF=F FulRan=T
         wScrn=  0.000000 ICntrl=     600 IOpCl=  0 I1Cent=           0 NGrid=           0
         NMat0=    1 NMatS0=   6105 NMatT0=    0 NMatD0=    1 NMtDS0=    0 NMtDT0=    0
 Petite list used in FoFCou.
 Integral accuracy reduced to 1.0D-05 until final iterations.

 Cycle   1  Pass 0  IDiag  1:
 E= -335.085274648895    
 DIIS: error= 2.24D-03 at cycle   1 NSaved=   1.
 NSaved= 1 IEnMin= 1 EnMin= -335.085274648895     IErMin= 1 ErrMin= 2.24D-03
 ErrMax= 2.24D-03  0.00D+00 EMaxC= 1.00D-01 BMatC= 1.13D-03 BMatP= 1.13D-03
 IDIUse=3 WtCom= 9.78D-01 WtEn= 2.24D-02
 Coeff-Com:  0.100D+01
 Coeff-En:   0.100D+01
 Coeff:      0.100D+01
 Gap=     0.444 Goal=   None    Shift=    0.000
 GapD=    0.444 DampG=2.000 DampE=1.000 DampFc=2.0000 IDamp=-1.
 RMSDP=5.47D-04 MaxDP=6.12D-03              OVMax= 1.46D-02

 Cycle   2  Pass 0  IDiag  1:
 E= -335.086620460472     Delta-E=       -0.001345811577 Rises=F Damp=F
 DIIS: error= 2.27D-03 at cycle   2 NSaved=   2.
 NSaved= 2 IEnMin= 2 EnMin= -335.086620460472     IErMin= 1 ErrMin= 2.24D-03
 ErrMax= 2.27D-03  0.00D+00 EMaxC= 1.00D-01 BMatC= 3.16D-04 BMatP= 1.13D-03
 IDIUse=3 WtCom= 9.77D-01 WtEn= 2.27D-02
 Coeff-Com:  0.255D+00 0.745D+00
 Coeff-En:   0.000D+00 0.100D+01
 Coeff:      0.249D+00 0.751D+00
 Gap=     0.115 Goal=   None    Shift=    0.000
 RMSDP=2.37D-04 MaxDP=3.81D-03 DE=-1.35D-03 OVMax= 1.04D-02

 Cycle   3  Pass 0  IDiag  1:
 E= -335.086218774492     Delta-E=        0.000401685979 Rises=F Damp=F
 DIIS: error= 3.86D-03 at cycle   3 NSaved=   3.
 NSaved= 3 IEnMin= 2 EnMin= -335.086620460472     IErMin= 1 ErrMin= 2.24D-03
 ErrMax= 3.86D-03  0.00D+00 EMaxC= 1.00D-01 BMatC= 9.21D-04 BMatP= 3.16D-04
 IDIUse=3 WtCom= 1.39D-01 WtEn= 8.61D-01
 Coeff-Com: -0.336D-01 0.648D+00 0.386D+00
 Coeff-En:   0.000D+00 0.676D+00 0.324D+00
 Coeff:     -0.466D-02 0.672D+00 0.333D+00
 Gap=     0.115 Goal=   None    Shift=    0.000
 RMSDP=1.28D-04 MaxDP=1.87D-03 DE= 4.02D-04 OVMax= 6.08D-03

 Cycle   4  Pass 0  IDiag  1:
 E= -335.086836893897     Delta-E=       -0.000618119405 Rises=F Damp=F
 DIIS: error= 7.10D-04 at cycle   4 NSaved=   4.
 NSaved= 4 IEnMin= 4 EnMin= -335.086836893897     IErMin= 4 ErrMin= 7.10D-04
 ErrMax= 7.10D-04  0.00D+00 EMaxC= 1.00D-01 BMatC= 2.48D-05 BMatP= 3.16D-04
 IDIUse=3 WtCom= 9.93D-01 WtEn= 7.10D-03
 Coeff-Com: -0.248D-01 0.388D+00 0.166D+00 0.471D+00
 Coeff-En:   0.000D+00 0.554D-01 0.000D+00 0.945D+00
 Coeff:     -0.246D-01 0.386D+00 0.165D+00 0.474D+00
 Gap=     0.116 Goal=   None    Shift=    0.000
 RMSDP=3.61D-05 MaxDP=5.12D-04 DE=-6.18D-04 OVMax= 1.30D-03

 Cycle   5  Pass 0  IDiag  1:
 E= -335.086853437989     Delta-E=       -0.000016544092 Rises=F Damp=F
 DIIS: error= 2.09D-04 at cycle   5 NSaved=   5.
 NSaved= 5 IEnMin= 5 EnMin= -335.086853437989     IErMin= 5 ErrMin= 2.09D-04
 ErrMax= 2.09D-04  0.00D+00 EMaxC= 1.00D-01 BMatC= 1.78D-06 BMatP= 2.48D-05
 IDIUse=3 WtCom= 9.98D-01 WtEn= 2.09D-03
 Coeff-Com: -0.894D-02 0.113D+00 0.233D-01 0.327D+00 0.546D+00
 Coeff-En:   0.000D+00 0.000D+00 0.000D+00 0.000D+00 0.100D+01
 Coeff:     -0.892D-02 0.112D+00 0.232D-01 0.326D+00 0.547D+00
 Gap=     0.115 Goal=   None    Shift=    0.000
 RMSDP=1.07D-05 MaxDP=1.91D-04 DE=-1.65D-05 OVMax= 6.41D-04

 Cycle   6  Pass 0  IDiag  1:
 E= -335.086854307051     Delta-E=       -0.000000869062 Rises=F Damp=F
 DIIS: error= 1.42D-04 at cycle   6 NSaved=   6.
 NSaved= 6 IEnMin= 6 EnMin= -335.086854307051     IErMin= 6 ErrMin= 1.42D-04
 ErrMax= 1.42D-04  0.00D+00 EMaxC= 1.00D-01 BMatC= 6.29D-07 BMatP= 1.78D-06
 IDIUse=3 WtCom= 9.99D-01 WtEn= 1.42D-03
 Coeff-Com: -0.375D-02 0.372D-01-0.172D-02 0.183D+00 0.408D+00 0.377D+00
 Coeff-En:   0.000D+00 0.000D+00 0.000D+00 0.000D+00 0.274D+00 0.726D+00
 Coeff:     -0.374D-02 0.371D-01-0.172D-02 0.183D+00 0.407D+00 0.378D+00
 Gap=     0.115 Goal=   None    Shift=    0.000
 RMSDP=5.24D-06 MaxDP=7.82D-05 DE=-8.69D-07 OVMax= 3.32D-04

 Initial convergence to 1.0D-05 achieved.  Increase integral accuracy.
 Cycle   7  Pass 1  IDiag  1:
 E= -335.086875534590     Delta-E=       -0.000021227539 Rises=F Damp=F
 DIIS: error= 3.90D-05 at cycle   1 NSaved=   1.
 NSaved= 1 IEnMin= 1 EnMin= -335.086875534590     IErMin= 1 ErrMin= 3.90D-05
 ErrMax= 3.90D-05  0.00D+00 EMaxC= 1.00D-01 BMatC= 9.67D-08 BMatP= 9.67D-08
 IDIUse=1 WtCom= 1.00D+00 WtEn= 0.00D+00
 Coeff-Com:  0.100D+01
 Coeff:      0.100D+01
 Gap=     0.116 Goal=   None    Shift=    0.000
 RMSDP=5.24D-06 MaxDP=7.82D-05 DE=-2.12D-05 OVMax= 3.13D-04

 Cycle   8  Pass 1  IDiag  1:
 E= -335.086875209279     Delta-E=        0.000000325311 Rises=F Damp=F
 DIIS: error= 1.28D-04 at cycle   2 NSaved=   2.
 NSaved= 2 IEnMin= 1 EnMin= -335.086875534590     IErMin= 1 ErrMin= 3.90D-05
 ErrMax= 1.28D-04  0.00D+00 EMaxC= 1.00D-01 BMatC= 5.48D-07 BMatP= 9.67D-08
 IDIUse=3 WtCom= 4.69D-01 WtEn= 5.31D-01
 Coeff-Com:  0.722D+00 0.278D+00
 Coeff-En:   0.801D+00 0.199D+00
 Coeff:      0.764D+00 0.236D+00
 Gap=     0.115 Goal=   None    Shift=    0.000
 RMSDP=3.99D-06 MaxDP=5.74D-05 DE= 3.25D-07 OVMax= 2.41D-04

 Cycle   9  Pass 1  IDiag  1:
 E= -335.086875609643     Delta-E=       -0.000000400364 Rises=F Damp=F
 DIIS: error= 1.31D-05 at cycle   3 NSaved=   3.
 NSaved= 3 IEnMin= 3 EnMin= -335.086875609643     IErMin= 3 ErrMin= 1.31D-05
 ErrMax= 1.31D-05  0.00D+00 EMaxC= 1.00D-01 BMatC= 7.12D-09 BMatP= 9.67D-08
 IDIUse=1 WtCom= 1.00D+00 WtEn= 0.00D+00
 Coeff-Com:  0.240D+00 0.593D-01 0.701D+00
 Coeff:      0.240D+00 0.593D-01 0.701D+00
 Gap=     0.115 Goal=   None    Shift=    0.000
 RMSDP=8.71D-07 MaxDP=1.82D-05 DE=-4.00D-07 OVMax= 3.62D-05

 Cycle  10  Pass 1  IDiag  1:
 E= -335.086875609856     Delta-E=       -0.000000000212 Rises=F Damp=F
 DIIS: error= 9.85D-06 at cycle   4 NSaved=   4.
 NSaved= 4 IEnMin= 4 EnMin= -335.086875609856     IErMin= 4 ErrMin= 9.85D-06
 ErrMax= 9.85D-06  0.00D+00 EMaxC= 1.00D-01 BMatC= 6.39D-09 BMatP= 7.12D-09
 IDIUse=1 WtCom= 1.00D+00 WtEn= 0.00D+00
 Coeff-Com:  0.316D-01-0.114D-01 0.505D+00 0.475D+00
 Coeff:      0.316D-01-0.114D-01 0.505D+00 0.475D+00
 Gap=     0.115 Goal=   None    Shift=    0.000
 RMSDP=6.60D-07 MaxDP=8.76D-06 DE=-2.12D-10 OVMax= 2.90D-05

 Cycle  11  Pass 1  IDiag  1:
 E= -335.086875613910     Delta-E=       -0.000000004054 Rises=F Damp=F
 DIIS: error= 3.21D-06 at cycle   5 NSaved=   5.
 NSaved= 5 IEnMin= 5 EnMin= -335.086875613910     IErMin= 5 ErrMin= 3.21D-06
 ErrMax= 3.21D-06  0.00D+00 EMaxC= 1.00D-01 BMatC= 6.91D-10 BMatP= 6.39D-09
 IDIUse=1 WtCom= 1.00D+00 WtEn= 0.00D+00
 Coeff-Com: -0.573D-02-0.140D-01 0.242D+00 0.313D+00 0.465D+00
 Coeff:     -0.573D-02-0.140D-01 0.242D+00 0.313D+00 0.465D+00
 Gap=     0.115 Goal=   None    Shift=    0.000
 RMSDP=2.03D-07 MaxDP=3.77D-06 DE=-4.05D-09 OVMax= 1.21D-05

 Cycle  12  Pass 1  IDiag  1:
 E= -335.086875614373     Delta-E=       -0.000000000464 Rises=F Damp=F
 DIIS: error= 1.19D-06 at cycle   6 NSaved=   6.
 NSaved= 6 IEnMin= 6 EnMin= -335.086875614373     IErMin= 6 ErrMin= 1.19D-06
 ErrMax= 1.19D-06  0.00D+00 EMaxC= 1.00D-01 BMatC= 1.05D-10 BMatP= 6.91D-10
 IDIUse=1 WtCom= 1.00D+00 WtEn= 0.00D+00
 Coeff-Com: -0.704D-02-0.970D-02 0.136D+00 0.192D+00 0.337D+00 0.352D+00
 Coeff:     -0.704D-02-0.970D-02 0.136D+00 0.192D+00 0.337D+00 0.352D+00
 Gap=     0.115 Goal=   None    Shift=    0.000
 RMSDP=6.13D-08 MaxDP=1.50D-06 DE=-4.64D-10 OVMax= 2.20D-06

 Cycle  13  Pass 1  IDiag  1:
 E= -335.086875614449     Delta-E=       -0.000000000076 Rises=F Damp=F
 DIIS: error= 1.37D-07 at cycle   7 NSaved=   7.
 NSaved= 7 IEnMin= 7 EnMin= -335.086875614449     IErMin= 7 ErrMin= 1.37D-07
 ErrMax= 1.37D-07  0.00D+00 EMaxC= 1.00D-01 BMatC= 8.94D-13 BMatP= 1.05D-10
 IDIUse=1 WtCom= 1.00D+00 WtEn= 0.00D+00
 Coeff-Com: -0.140D-02-0.175D-02 0.158D-01 0.242D-01 0.448D-01 0.105D+00
 Coeff-Com:  0.813D+00
 Coeff:     -0.140D-02-0.175D-02 0.158D-01 0.242D-01 0.448D-01 0.105D+00
 Coeff:      0.813D+00
 Gap=     0.115 Goal=   None    Shift=    0.000
 RMSDP=1.09D-08 MaxDP=1.78D-07 DE=-7.59D-11 OVMax= 4.14D-07

 Cycle  14  Pass 1  IDiag  1:
 E= -335.086875614450     Delta-E=       -0.000000000001 Rises=F Damp=F
 DIIS: error= 4.97D-08 at cycle   8 NSaved=   8.
 NSaved= 8 IEnMin= 8 EnMin= -335.086875614450     IErMin= 8 ErrMin= 4.97D-08
 ErrMax= 4.97D-08  0.00D+00 EMaxC= 1.00D-01 BMatC= 2.22D-13 BMatP= 8.94D-13
 IDIUse=1 WtCom= 1.00D+00 WtEn= 0.00D+00
 Coeff-Com: -0.343D-03-0.411D-03 0.949D-03 0.240D-02 0.692D-02 0.396D-01
 Coeff-Com:  0.467D+00 0.484D+00
 Coeff:     -0.343D-03-0.411D-03 0.949D-03 0.240D-02 0.692D-02 0.396D-01
 Coeff:      0.467D+00 0.484D+00
 Gap=     0.115 Goal=   None    Shift=    0.000
 RMSDP=5.63D-09 MaxDP=8.20D-08 DE=-5.68D-13 OVMax= 4.18D-07

 SCF Done:  E(RB3LYP) =  -335.086875614     A.U. after   14 cycles
            NFock= 14  Conv=0.56D-08     -V/T= 2.0028
 KE= 3.341544475726D+02 PE=-1.113752994231D+03 EE= 2.820954959760D+02
 Leave Link  502 at Fri Feb 15 20:14:36 2019, MaxMem=   196608000 cpu:       129.3
 (Enter /cm/shared/c3ddb/gaussian/09.d01/g09/l508.exe)
 QCSCF skips out because SCF is already converged.
 Leave Link  508 at Fri Feb 15 20:14:36 2019, MaxMem=   196608000 cpu:         0.0
 (Enter /cm/shared/c3ddb/gaussian/09.d01/g09/l701.exe)
 Compute integral first derivatives.
 ... and contract with generalized density number  0.
 Leave Link  701 at Fri Feb 15 20:14:37 2019, MaxMem=   196608000 cpu:         4.8
 (Enter /cm/shared/c3ddb/gaussian/09.d01/g09/l702.exe)
 L702 exits ... SP integral derivatives will be done elsewhere.
 Leave Link  702 at Fri Feb 15 20:14:37 2019, MaxMem=   196608000 cpu:         0.2
 (Enter /cm/shared/c3ddb/gaussian/09.d01/g09/l703.exe)
 Compute integral first derivatives, UseDBF=F ICtDFT=           0.
 Integral derivatives from FoFJK, PRISM(SPDF).
 Calling FoFJK, ICntrl=      2127 FMM=F ISym2X=1 I1Cent= 0 IOpClX= 0 NMat=1 NMatS=1 NMatT=0.
 FoFJK:  IHMeth= 1 ICntrl=    2127 DoSepK=F KAlg= 0 I1Cent=   0 FoldK=F
 IRaf=         0 NMat=   1 IRICut=       1 DoRegI=T DoRafI=F ISym2E= 1.
 FoFCou: FMM=F IPFlag=           0 FMFlag=      100000 FMFlg1=         800
         NFxFlg=           0 DoJE=F BraDBF=F KetDBF=F FulRan=T
         wScrn=  0.000000 ICntrl=    2127 IOpCl=  0 I1Cent=           0 NGrid=           0
         NMat0=    1 NMatS0=      1 NMatT0=    0 NMatD0=    1 NMtDS0=    0 NMtDT0=    0
 Petite list used in FoFCou.
 Leave Link  703 at Fri Feb 15 20:14:39 2019, MaxMem=   196608000 cpu:        13.2
 (Enter /cm/shared/c3ddb/gaussian/09.d01/g09/l716.exe)
 Dipole        =-2.19807799D-01-9.27509702D-01 4.51778055D-32
 ***** Axes restored to original set *****
 -------------------------------------------------------------------
 Center     Atomic                   Forces (Hartrees/Bohr)
 Number     Number              X              Y              Z
 -------------------------------------------------------------------
      1        8           0.000640705   -0.000175360    0.000000000
      2        8           0.000092608    0.000567253    0.000000000
      3        8          -0.000846790    0.000526949    0.000000000
      4        7           0.000719197    0.000175526    0.000000000
      5        7          -0.000605720   -0.001094369    0.000000000
 -------------------------------------------------------------------
 Cartesian Forces:  Max     0.001094369 RMS     0.000508523
 Leave Link  716 at Fri Feb 15 20:14:39 2019, MaxMem=   196608000 cpu:         0.8
 (Enter /cm/shared/c3ddb/gaussian/09.d01/g09/l103.exe)

 GradGradGradGradGradGradGradGradGradGradGradGradGradGradGradGradGradGrad
 Berny optimization.
 Using GEDIIS/GDIIS optimizer.
 FormGI is forming the generalized inverse of G from B-inverse, IUseBI=4.
 Internal  Forces:  Max     0.001548783 RMS     0.000633431
 Search for a local minimum.
 Step number   2 out of a maximum of   21 on scan point     1 out of    46
 All quantities printed in internal units (Hartrees-Bohrs-Radians)
 RMS Force = .66435D-03 SwitMx=.10000D-02 MixMth= 2
 Mixed Optimization -- En-DIIS/RFO-DIIS
 Update second derivatives using D2CorX and points    1    2
 DE= -1.09D-03 DEPred=-1.02D-03 R= 1.07D+00
 TightC=F SS=  1.41D+00  RLast= 1.49D-01 DXNew= 5.0454D-01 4.4627D-01
 Trust test= 1.07D+00 RLast= 1.49D-01 DXMaxT set to 4.46D-01
 The second derivative matrix:
                          R1        R2        R3        R4        A1
           R1           0.76933
           R2           0.10956   0.76261
           R3           0.03824   0.04444   1.10317
           R4           0.00109  -0.00169   0.05324   0.07460
           A1           0.04853   0.05036  -0.02709  -0.00293   0.19214
           A2          -0.00878  -0.04204   0.03777  -0.01800  -0.08752
           A3          -0.03975  -0.00833  -0.01068   0.02093  -0.10462
           A4           0.02289  -0.03519   0.04507   0.02864  -0.00256
           D1           0.00000   0.00000   0.00000   0.00000   0.00000
           D2           0.00000   0.00000   0.00000   0.00000   0.00000
           D3           0.00000   0.00000   0.00000   0.00000   0.00000
                          A2        A3        A4        D1        D2
           A2           0.12093
           A3          -0.03341   0.13803
           A4           0.06039  -0.05783   0.35647
           D1           0.00000   0.00000   0.00000   0.02430
           D2           0.00000   0.00000   0.00000  -0.00880   0.00724
           D3           0.00000   0.00000   0.00000   0.01132  -0.00004
                          D3
           D3           0.00932
 ITU=  1  0
 Use linear search instead of GDIIS.
     Eigenvalues ---    0.02928   0.05380   0.14658   0.27537   0.37538
     Eigenvalues ---    0.66574   0.87653   1.123891000.000001000.00000
     Eigenvalues --- 1000.00000
 RFO step:  Lambda=-6.76825596D-06 EMin= 2.92751996D-02
 Quartic linear search produced a step of  0.15777.
 Iteration  1 RMS(Cart)=  0.00896334 RMS(Int)=  0.00001430
 Iteration  2 RMS(Cart)=  0.00001278 RMS(Int)=  0.00000000
 Iteration  3 RMS(Cart)=  0.00000000 RMS(Int)=  0.00000000
 Iteration  1 RMS(Cart)=  0.00000000 RMS(Int)=  0.00000000
 ITry= 1 IFail=0 DXMaxC= 1.88D-02 DCOld= 1.00D+10 DXMaxT= 4.46D-01 DXLimC= 3.00D+00 Rises=F
 ClnCor:  largest displacement from symmetrization is 9.02D-13 for atom     4.
 Variable       Old X    -DE/DX   Delta X   Delta X   Delta X     New X
                                 (Linear)    (Quad)   (Total)
    R1        2.26828   0.00062   0.00202  -0.00134   0.00069   2.26897
    R2        2.26943   0.00056   0.00222  -0.00121   0.00102   2.27045
    R3        2.14158   0.00097   0.00041  -0.00112  -0.00071   2.14087
    R4        3.52410   0.00155   0.02285   0.00501   0.02786   3.55196
    A1        2.29341  -0.00029  -0.00021  -0.00120  -0.00141   2.29199
    A2        2.02915   0.00023   0.00305   0.00288   0.00593   2.03508
    A3        1.96063   0.00005  -0.00283  -0.00168  -0.00451   1.95611
    A4        1.85632   0.00049  -0.00140  -0.00110  -0.00250   1.85382
    D1        3.14159   0.00000   0.00000   0.00000   0.00000   3.14159
    D2        3.14159   0.00000   0.00000   0.00000   0.00000   3.14159
    D3        0.00000   0.00000   0.00000   0.00000   0.00000   0.00000
         Item               Value     Threshold  Converged?
 Maximum Force            0.001549     0.000450     NO 
 RMS     Force            0.000664     0.000300     NO 
 Maximum Displacement     0.018824     0.001800     NO 
 RMS     Displacement     0.008965     0.001200     NO 
 Predicted change in Energy=-1.860805D-05
 Lowest energy point so far.  Saving SCF results.
 GradGradGradGradGradGradGradGradGradGradGradGradGradGradGradGradGradGrad

 Leave Link  103 at Fri Feb 15 20:14:41 2019, MaxMem=   196608000 cpu:         9.8
 (Enter /cm/shared/c3ddb/gaussian/09.d01/g09/l202.exe)
                          Input orientation:                          
 ---------------------------------------------------------------------
 Center     Atomic      Atomic             Coordinates (Angstroms)
 Number     Number       Type             X           Y           Z
 ---------------------------------------------------------------------
      1          8           0        1.629862   -0.604907    0.000000
      2          8           0        0.507663    1.274154    0.000000
      3          8           0       -1.804797   -0.015336    0.000000
      4          7           0        0.643993    0.080444    0.000000
      5          7           0       -1.006399   -0.819093    0.000000
 ---------------------------------------------------------------------
                    Distance matrix (angstroms):
                    1          2          3          4          5
     1  O    0.000000
     2  O    2.188654   0.000000
     3  O    3.484893   2.647689   0.000000
     4  N    1.200685   1.201470   2.450663   0.000000
     5  N    2.644947   2.583422   1.132901   1.879617   0.000000
 Stoichiometry    N2O3
 Framework group  CS[SG(N2O3)]
 Deg. of freedom     7
 Full point group                 CS      NOp   2
 RotChk:  IX=0 Diff= 2.03D-03
 Largest Abelian subgroup         CS      NOp   2
 Largest concise Abelian subgroup C1      NOp   1
                         Standard orientation:                         
 ---------------------------------------------------------------------
 Center     Atomic      Atomic             Coordinates (Angstroms)
 Number     Number       Type             X           Y           Z
 ---------------------------------------------------------------------
      1          8           0       -0.800635    1.540316    0.000000
      2          8           0        1.201424    0.656027    0.000000
      3          8           0        0.204032   -1.796617    0.000000
      4          7           0        0.000000    0.645537    0.000000
      5          7           0       -0.691224   -1.102367    0.000000
 ---------------------------------------------------------------------
 Rotational constants (GHZ):     12.4389296      4.2333011      3.1584096
 Leave Link  202 at Fri Feb 15 20:14:41 2019, MaxMem=   196608000 cpu:         0.7
 (Enter /cm/shared/c3ddb/gaussian/09.d01/g09/l301.exe)
 Standard basis: 6-311+G(d,p) (5D, 7F)
 Ernie: Thresh=  0.10000D-02 Tol=  0.10000D-05 Strict=F.
 There are    85 symmetry adapted cartesian basis functions of A'  symmetry.
 There are    30 symmetry adapted cartesian basis functions of A"  symmetry.
 There are    80 symmetry adapted basis functions of A'  symmetry.
 There are    30 symmetry adapted basis functions of A"  symmetry.
   110 basis functions,   180 primitive gaussians,   115 cartesian basis functions
    19 alpha electrons       19 beta electrons
       nuclear repulsion energy       162.0489845481 Hartrees.
 IExCor=  402 DFT=T Ex+Corr=B3LYP ExCW=0 ScaHFX=  0.200000
 ScaDFX=  0.800000  0.720000  1.000000  0.810000 ScalE2=  1.000000  1.000000
 IRadAn=      0 IRanWt=     -1 IRanGd=            0 ICorTp=0 IEmpDi=  4
 NAtoms=    5 NActive=    5 NUniq=    5 SFac= 1.00D+00 NAtFMM=   60 NAOKFM=F Big=F
 Integral buffers will be    131072 words long.
 Raffenetti 2 integral format.
 Two-electron integral symmetry is turned on.
 Leave Link  301 at Fri Feb 15 20:14:41 2019, MaxMem=   196608000 cpu:         0.4
 (Enter /cm/shared/c3ddb/gaussian/09.d01/g09/l302.exe)
 NPDir=0 NMtPBC=     1 NCelOv=     1 NCel=       1 NClECP=     1 NCelD=      1
         NCelK=      1 NCelE2=     1 NClLst=     1 CellRange=     0.0.
 One-electron integrals computed using PRISM.
 NBasis=   110 RedAO= T EigKep=  5.59D-04  NBF=    80    30
 NBsUse=   110 1.00D-06 EigRej= -1.00D+00 NBFU=    80    30
 Precomputing XC quadrature grid using
 IXCGrd= 4 IRadAn=           0 IRanWt=          -1 IRanGd=           0 AccXCQ= 0.00D+00.
 Generated NRdTot=       0 NPtTot=           0 NUsed=           0 NTot=          32
 NSgBfM=   115   115   115   115   115 MxSgAt=     5 MxSgA2=     5.
 Leave Link  302 at Fri Feb 15 20:14:42 2019, MaxMem=   196608000 cpu:         4.3
 (Enter /cm/shared/c3ddb/gaussian/09.d01/g09/l303.exe)
 DipDrv:  MaxL=1.
 Leave Link  303 at Fri Feb 15 20:14:42 2019, MaxMem=   196608000 cpu:         1.0
 (Enter /cm/shared/c3ddb/gaussian/09.d01/g09/l401.exe)
 Initial guess from the checkpoint file:  "check.chk"
 B after Tr=     0.000000    0.000000    0.000000
         Rot=    1.000000    0.000000    0.000000    0.000752 Ang=   0.09 deg.
 Guess basis will be translated and rotated to current coordinates.
 JPrj=2 DoOrth=T DoCkMO=T.
 Initial guess orbital symmetries:
       Occupied  (A') (A') (A') (A') (A') (A') (A') (A') (A') (A')
                 (A') (A") (A') (A") (A') (A') (A") (A') (A')
       Virtual   (A') (A') (A') (A') (A') (A') (A') (A') (A') (A')
                 (A') (A') (A') (A') (A') (A') (A') (A') (A') (A')
                 (A') (A') (A') (A') (A') (A') (A') (A') (A') (A')
                 (A') (A') (A') (A') (A') (A') (A') (A') (A') (A')
                 (A') (A') (A') (A') (A') (A') (A') (A') (A') (A')
                 (A') (A') (A') (A') (A') (A') (A') (A') (A') (A')
                 (A') (A') (A') (A') (A") (A") (A") (A") (A") (A")
                 (A") (A") (A") (A") (A") (A") (A") (A") (A") (A")
                 (A") (A") (A") (A") (A") (A") (A") (A") (A") (A")
                 (A")
 The electronic state of the initial guess is 1-A'.
 Leave Link  401 at Fri Feb 15 20:14:43 2019, MaxMem=   196608000 cpu:         4.8
 (Enter /cm/shared/c3ddb/gaussian/09.d01/g09/l502.exe)
 Closed shell SCF:
 Using DIIS extrapolation, IDIIS=  1040.
 Integral symmetry usage will be decided dynamically.
 Keep R1 ints in memory in symmetry-blocked form, NReq=28446291.
 IVT=       47411 IEndB=       47411 NGot=   196608000 MDV=   186800385
 LenX=   186800385 LenY=   186786719
 Requested convergence on RMS density matrix=1.00D-08 within  64 cycles.
 Requested convergence on MAX density matrix=1.00D-06.
 Requested convergence on             energy=1.00D-06.
 No special actions if energy rises.
 FoFCou: FMM=F IPFlag=           0 FMFlag=           0 FMFlg1=           0
         NFxFlg=           0 DoJE=F BraDBF=F KetDBF=F FulRan=T
         wScrn=  0.000000 ICntrl=     600 IOpCl=  0 I1Cent=           0 NGrid=           0
         NMat0=    1 NMatS0=   6105 NMatT0=    0 NMatD0=    1 NMtDS0=    0 NMtDT0=    0
 Petite list used in FoFCou.

 Cycle   1  Pass 1  IDiag  1:
 E= -335.086827323430    
 DIIS: error= 4.78D-04 at cycle   1 NSaved=   1.
 NSaved= 1 IEnMin= 1 EnMin= -335.086827323430     IErMin= 1 ErrMin= 4.78D-04
 ErrMax= 4.78D-04  0.00D+00 EMaxC= 1.00D-01 BMatC= 4.90D-05 BMatP= 4.90D-05
 IDIUse=3 WtCom= 9.95D-01 WtEn= 4.78D-03
 Coeff-Com:  0.100D+01
 Coeff-En:   0.100D+01
 Coeff:      0.100D+01
 Gap=     0.442 Goal=   None    Shift=    0.000
 RMSDP=1.03D-04 MaxDP=9.54D-04              OVMax= 2.97D-03

 Cycle   2  Pass 1  IDiag  1:
 E= -335.086890059864     Delta-E=       -0.000062736434 Rises=F Damp=F
 DIIS: error= 3.59D-04 at cycle   2 NSaved=   2.
 NSaved= 2 IEnMin= 2 EnMin= -335.086890059864     IErMin= 2 ErrMin= 3.59D-04
 ErrMax= 3.59D-04  0.00D+00 EMaxC= 1.00D-01 BMatC= 9.98D-06 BMatP= 4.90D-05
 IDIUse=3 WtCom= 9.96D-01 WtEn= 3.59D-03
 Coeff-Com:  0.189D+00 0.811D+00
 Coeff-En:   0.000D+00 0.100D+01
 Coeff:      0.188D+00 0.812D+00
 Gap=     0.114 Goal=   None    Shift=    0.000
 RMSDP=4.60D-05 MaxDP=6.54D-04 DE=-6.27D-05 OVMax= 2.09D-03

 Cycle   3  Pass 1  IDiag  1:
 E= -335.086870957940     Delta-E=        0.000019101925 Rises=F Damp=F
 DIIS: error= 7.04D-04 at cycle   3 NSaved=   3.
 NSaved= 3 IEnMin= 2 EnMin= -335.086890059864     IErMin= 2 ErrMin= 3.59D-04
 ErrMax= 7.04D-04  0.00D+00 EMaxC= 1.00D-01 BMatC= 3.78D-05 BMatP= 9.98D-06
 IDIUse=3 WtCom= 2.74D-01 WtEn= 7.26D-01
 Coeff-Com: -0.406D-01 0.684D+00 0.356D+00
 Coeff-En:   0.000D+00 0.719D+00 0.281D+00
 Coeff:     -0.111D-01 0.710D+00 0.301D+00
 Gap=     0.114 Goal=   None    Shift=    0.000
 RMSDP=2.55D-05 MaxDP=3.81D-04 DE= 1.91D-05 OVMax= 1.37D-03

 Cycle   4  Pass 1  IDiag  1:
 E= -335.086896811242     Delta-E=       -0.000025853303 Rises=F Damp=F
 DIIS: error= 1.40D-04 at cycle   4 NSaved=   4.
 NSaved= 4 IEnMin= 4 EnMin= -335.086896811242     IErMin= 4 ErrMin= 1.40D-04
 ErrMax= 1.40D-04  0.00D+00 EMaxC= 1.00D-01 BMatC= 1.05D-06 BMatP= 9.98D-06
 IDIUse=3 WtCom= 9.99D-01 WtEn= 1.40D-03
 Coeff-Com: -0.275D-01 0.408D+00 0.143D+00 0.477D+00
 Coeff-En:   0.000D+00 0.896D-01 0.000D+00 0.910D+00
 Coeff:     -0.274D-01 0.407D+00 0.142D+00 0.478D+00
 Gap=     0.115 Goal=   None    Shift=    0.000
 RMSDP=6.84D-06 MaxDP=8.75D-05 DE=-2.59D-05 OVMax= 2.68D-04

 Cycle   5  Pass 1  IDiag  1:
 E= -335.086897466615     Delta-E=       -0.000000655373 Rises=F Damp=F
 DIIS: error= 5.94D-05 at cycle   5 NSaved=   5.
 NSaved= 5 IEnMin= 5 EnMin= -335.086897466615     IErMin= 5 ErrMin= 5.94D-05
 ErrMax= 5.94D-05  0.00D+00 EMaxC= 1.00D-01 BMatC= 1.13D-07 BMatP= 1.05D-06
 IDIUse=1 WtCom= 1.00D+00 WtEn= 0.00D+00
 Coeff-Com: -0.669D-02 0.836D-01-0.142D-01 0.401D+00 0.536D+00
 Coeff:     -0.669D-02 0.836D-01-0.142D-01 0.401D+00 0.536D+00
 Gap=     0.115 Goal=   None    Shift=    0.000
 RMSDP=2.26D-06 MaxDP=2.95D-05 DE=-6.55D-07 OVMax= 1.32D-04

 Cycle   6  Pass 1  IDiag  1:
 E= -335.086897536098     Delta-E=       -0.000000069483 Rises=F Damp=F
 DIIS: error= 1.81D-05 at cycle   6 NSaved=   6.
 NSaved= 6 IEnMin= 6 EnMin= -335.086897536098     IErMin= 6 ErrMin= 1.81D-05
 ErrMax= 1.81D-05  0.00D+00 EMaxC= 1.00D-01 BMatC= 2.06D-08 BMatP= 1.13D-07
 IDIUse=1 WtCom= 1.00D+00 WtEn= 0.00D+00
 Coeff-Com: -0.341D-02 0.357D-01-0.181D-01 0.254D+00 0.385D+00 0.347D+00
 Coeff:     -0.341D-02 0.357D-01-0.181D-01 0.254D+00 0.385D+00 0.347D+00
 Gap=     0.115 Goal=   None    Shift=    0.000
 RMSDP=8.95D-07 MaxDP=1.12D-05 DE=-6.95D-08 OVMax= 4.08D-05

 Cycle   7  Pass 1  IDiag  1:
 E= -335.086897550364     Delta-E=       -0.000000014266 Rises=F Damp=F
 DIIS: error= 2.84D-06 at cycle   7 NSaved=   7.
 NSaved= 7 IEnMin= 7 EnMin= -335.086897550364     IErMin= 7 ErrMin= 2.84D-06
 ErrMax= 2.84D-06  0.00D+00 EMaxC= 1.00D-01 BMatC= 5.52D-10 BMatP= 2.06D-08
 IDIUse=1 WtCom= 1.00D+00 WtEn= 0.00D+00
 Coeff-Com:  0.325D-03-0.747D-02-0.895D-02 0.331D-01 0.633D-01 0.149D+00
 Coeff-Com:  0.770D+00
 Coeff:      0.325D-03-0.747D-02-0.895D-02 0.331D-01 0.633D-01 0.149D+00
 Coeff:      0.770D+00
 Gap=     0.115 Goal=   None    Shift=    0.000
 RMSDP=3.96D-07 MaxDP=6.80D-06 DE=-1.43D-08 OVMax= 2.46D-05

 Cycle   8  Pass 1  IDiag  1:
 E= -335.086897550450     Delta-E=       -0.000000000087 Rises=F Damp=F
 DIIS: error= 3.28D-06 at cycle   8 NSaved=   8.
 NSaved= 8 IEnMin= 8 EnMin= -335.086897550450     IErMin= 7 ErrMin= 2.84D-06
 ErrMax= 3.28D-06  0.00D+00 EMaxC= 1.00D-01 BMatC= 3.98D-10 BMatP= 5.52D-10
 IDIUse=1 WtCom= 1.00D+00 WtEn= 0.00D+00
 Coeff-Com:  0.340D-03-0.696D-02-0.465D-02 0.527D-02 0.157D-01 0.808D-01
 Coeff-Com:  0.585D+00 0.325D+00
 Coeff:      0.340D-03-0.696D-02-0.465D-02 0.527D-02 0.157D-01 0.808D-01
 Coeff:      0.585D+00 0.325D+00
 Gap=     0.115 Goal=   None    Shift=    0.000
 RMSDP=1.73D-07 MaxDP=3.07D-06 DE=-8.65D-11 OVMax= 1.33D-05

 Cycle   9  Pass 1  IDiag  1:
 E= -335.086897550865     Delta-E=       -0.000000000415 Rises=F Damp=F
 DIIS: error= 1.73D-07 at cycle   9 NSaved=   9.
 NSaved= 9 IEnMin= 9 EnMin= -335.086897550865     IErMin= 9 ErrMin= 1.73D-07
 ErrMax= 1.73D-07  0.00D+00 EMaxC= 1.00D-01 BMatC= 2.54D-12 BMatP= 3.98D-10
 IDIUse=1 WtCom= 1.00D+00 WtEn= 0.00D+00
 Coeff-Com:  0.767D-04-0.116D-02-0.255D-03-0.308D-02-0.490D-02 0.186D-02
 Coeff-Com:  0.881D-01 0.719D-01 0.847D+00
[...]
                           !   Optimized Parameters   !
                           ! (Angstroms and Degrees)  !
 --------------------------                            --------------------------
 ! Name  Definition              Value          Derivative Info.                !
 --------------------------------------------------------------------------------
 ! R1    R(1,4)                  1.2008         -DE/DX =    0.0                 !
 ! R2    R(2,4)                  1.2014         -DE/DX =    0.0                 !
 ! R3    R(3,5)                  1.1329         -DE/DX =    0.0002              !
 ! R4    R(4,5)                  1.8808         -DE/DX =   -0.0001              !
 ! A1    A(1,4,2)              131.3136         -DE/DX =    0.0                 !
 ! A2    A(1,4,5)              116.6307         -DE/DX =    0.0001              !
 ! A3    A(2,4,5)              112.0557         -DE/DX =   -0.0001              !
 ! A4    A(3,5,4)              106.1265         -DE/DX =    0.0004              !
 ! D1    D(5,2,4,1)            180.0312         -DE/DX =    0.0                 !
 ! D2    D(1,4,5,3)           -179.9999         -DE/DX =    0.0                 !
 ! D3    D(2,4,5,3)              0.0263         -DE/DX =    0.0                 !
 --------------------------------------------------------------------------------
 Lowest energy point so far.  Saving SCF results.
 GradGradGradGradGradGradGradGradGradGradGradGradGradGradGradGradGradGrad

 Summary of Optimized Potential Surface Scan
                           1         2         3         4         5
     Eigenvalues --  -335.08690-335.08675-335.08633-335.08566-335.08481
           R1           1.20068   1.20081   1.20088   1.20112   1.20136
           R2           1.20147   1.20152   1.20165   1.20183   1.20208
           R3           1.13290   1.13294   1.13322   1.13346   1.13397
           R4           1.87962   1.87984   1.87771   1.87642   1.87286
           A1         131.32147 131.28518 131.22446 131.10880 131.00835
           A2         116.60155 116.54614 116.19669 115.70579 115.00733
           A3         112.07699 112.13896 112.48823 113.00825 113.75616
           A4         106.21601 106.23480 106.50018 106.84600 107.41375
           D1         180.00000 177.90789 176.33836 174.86439 174.14311
           D2         180.00000-171.99990-163.99994-155.99995-147.99992
           D3           0.00000   6.24286  12.93138  19.70728  27.12581
                           6         7         8         9        10
     Eigenvalues --  -335.08385-335.08286-335.08193-335.08112-335.08049
           R1           1.20167   1.20208   1.20240   1.20282   1.20305
           R2           1.20232   1.20252   1.20275   1.20288   1.20307
           R3           1.13446   1.13494   1.13545   1.13572   1.13608
           R4           1.87009   1.86793   1.86544   1.86502   1.86299
           A1         130.87971 130.74847 130.63560 130.51624 130.41469
           A2         114.35269 113.66774 113.29769 113.03916 113.28836
           A3         114.53335 115.38690 115.95150 116.40294 116.29367
           A4         108.04578 108.68696 109.39759 110.02659 110.48294
           D1         174.03744 174.50515 175.78454 177.45992 179.28921
           D2        -139.99994-131.99996-123.99995-115.99999-107.99992
           D3          35.05434  43.45715  52.51808  61.90183  71.41091
                          11        12        13        14        15
     Eigenvalues --  -335.08009-335.07994-335.08004-335.08036-335.08087
           R1           1.20323   1.20327   1.20311   1.20319   1.20319
           R2           1.20318   1.20327   1.20336   1.20306   1.20269
           R3           1.13609   1.13618   1.13620   1.13611   1.13597
           R4           1.86416   1.86284   1.86197   1.86116   1.86097
           A1         130.33612 130.31010 130.30189 130.37827 130.47435
           A2         113.90548 114.72200 115.58755 116.11893 116.20392
           A3         115.74900 114.91843 114.00913 113.38500 113.20240
           A4         110.92846 111.19163 111.35453 111.34937 111.08224
           D1        -178.80260-177.27118-176.12091-175.83674-175.81108
           D2        -100.00000 -91.99996 -84.00007 -75.99995 -68.00001
           D3          80.99835  90.29062  99.27928 107.53139 115.55059
                          16        17        18        19        20
     Eigenvalues --  -335.08154-335.08234-335.08324-335.08418-335.08510
           R1           1.20312   1.20300   1.20280   1.20252   1.20221
           R2           1.20228   1.20183   1.20145   1.20114   1.20091
           R3           1.13576   1.13545   1.13505   1.13458   1.13407
           R4           1.86136   1.86259   1.86447   1.86718   1.87076
           A1         130.59555 130.72600 130.86545 131.00321 131.12267
           A2         115.99494 115.53838 114.91858 114.20361 113.44751
           A3         113.30351 113.64824 114.14670 114.73940 115.39348
           A4         110.67665 110.07585 109.35716 108.58465 107.77902
           D1        -176.04345-176.39263-176.77016-177.13632-177.63051
           D2         -59.99998 -51.99996 -43.99994 -35.99996 -28.00004
           D3         123.34170 131.02928 138.69291 146.36916 153.94538
                          21        22        23        24        25
     Eigenvalues --  -335.08592-335.08653-335.08685-335.08685-335.08653
           R1           1.20192   1.20166   1.20148   1.20149   1.20165
           R2           1.20075   1.20068   1.20072   1.20073   1.20075
           R3           1.13357   1.13321   1.13301   1.13294   1.13316
           R4           1.87441   1.87735   1.87919   1.88015   1.87808
           A1         131.24328 131.29637 131.30464 131.30193 131.27432
           A2         112.74298 112.27235 112.11033 112.04619 112.29300
           A3         115.99424 116.42357 116.58404 116.65097 116.42451
           A4         107.12802 106.57482 106.22714 106.26994 106.55501
           D1        -178.25368-178.89832-179.60575 179.61884 178.86515
           D2         -19.99994 -11.99996  -3.99997   4.00005  12.00005
           D3         161.42377 168.89446 176.31970-176.30888-168.92174
                          26        27        28        29        30
     Eigenvalues --  -335.08592-335.08510-335.08418-335.08324-335.08234
           R1           1.20193   1.20227   1.20260   1.20287   1.20301
           R2           1.20078   1.20088   1.20109   1.20141   1.20184
           R3           1.13357   1.13410   1.13464   1.13511   1.13543
           R4           1.87446   1.87008   1.86608   1.86330   1.86266
           A1         131.21167 131.11829 130.99509 130.85286 130.72688
           A2         112.77064 113.44393 114.20890 114.95755 115.53856
           A3         115.99778 115.40448 114.74793 114.12584 113.64705
           A4         107.09047 107.82700 108.65024 109.44817 110.07792
           D1         178.23586 177.73203 177.29258 176.90266 176.38974
           D2          19.99993  27.99989  35.99994  43.99993  52.00002
           D3        -161.43930-153.86227-146.24030-138.58379-131.03161
                          31        32        33        34        35
     Eigenvalues --  -335.08154-335.08087-335.08036-335.08004-335.07994
           R1           1.20312   1.20317   1.20322   1.20324   1.20326
           R2           1.20230   1.20271   1.20306   1.20324   1.20328
           R3           1.13572   1.13598   1.13605   1.13618   1.13615
           R4           1.86176   1.86093   1.86170   1.86190   1.86314
           A1         130.59255 130.47486 130.38211 130.32264 130.31321
           A2         116.04619 116.22644 116.05961 115.53187 114.70135
           A3         113.25662 113.18213 113.43662 114.05179 114.93473
           A4         110.66457 111.05861 111.33300 111.31934 111.20971
           D1         176.07038 175.86060 175.76715 176.26964 177.23696
           D2          59.99998  68.00000  76.00009  84.00010  92.00004
           D3        -123.32056-115.50930-107.58822 -99.15113 -90.31877
                          36        37        38        39        40
     Eigenvalues --  -335.08009-335.08050-335.08112-335.08193-335.08286
           R1           1.20324   1.20297   1.20282   1.20248   1.20210
           R2           1.20316   1.20308   1.20287   1.20271   1.20251
           R3           1.13617   1.13605   1.13576   1.13542   1.13496
           R4           1.86295   1.86365   1.86480   1.86551   1.86753
           A1         130.34023 130.41756 130.51792 130.62993 130.75033
           A2         113.95031 113.22302 113.05035 113.16463 113.73846
           A3         115.70089 116.35668 116.38845 116.08823 115.32241
           A4         110.85926 110.56098 109.99109 109.40520 108.73611
           D1         178.85644-179.35017-177.41129-175.74357-174.62219
           D2         100.00004 108.00005 116.00007 123.99994 132.00002
           D3         -80.95370 -71.46160 -61.86146 -52.48748 -43.55148
                          41        42        43        44        45
     Eigenvalues --  -335.08385-335.08481-335.08566-335.08633-335.08675
           R1           1.20168   1.20134   1.20109   1.20092   1.20078
           R2           1.20231   1.20209   1.20184   1.20163   1.20149
           R3           1.13444   1.13399   1.13354   1.13315   1.13297
           R4           1.87041   1.87273   1.87574   1.87896   1.87982
           A1         130.87861 131.01066 131.12194 131.22964 131.29919
           A2         114.32963 115.03870 115.65855 116.15333 116.51885
           A3         114.56038 113.72953 113.05291 112.52073 112.15522
           A4         108.04967 107.42219 106.89830 106.43441 106.21443
           D1        -174.07294-174.23541-175.01756-176.22421-178.01498
           D2         140.00004 148.00004 156.00009 163.99992 171.99990
           D3         -35.08448 -27.20136 -19.83756 -12.83720  -6.33355
                          46
     Eigenvalues --  -335.08690
           R1           1.20076
           R2           1.20144
           R3           1.13287
           R4           1.88078
           A1         131.31358
           A2         116.63071
           A3         112.05570
           A4         106.12649
           D1         180.03123
           D2        -179.99991
           D3           0.02633
 Largest change from initial coordinates is atom    3       1.785 Angstoms.
 Leave Link  103 at Fri Feb 15 21:03:07 2019, MaxMem=   196608000 cpu:        14.2
 (Enter /cm/shared/c3ddb/gaussian/09.d01/g09/l202.exe)
                          Input orientation:                          
 ---------------------------------------------------------------------
 Center     Atomic      Atomic             Coordinates (Angstroms)
 Number     Number       Type             X           Y           Z
 ---------------------------------------------------------------------
      1          8           0        1.463214   -0.076865   -0.927888
      2          8           0        0.675139    0.744501    0.941439
      3          8           0       -1.716682   -0.291479    0.482067
      4          7           0        0.627046    0.134303   -0.092390
      5          7           0       -1.078395   -0.595198   -0.403227
 ---------------------------------------------------------------------
                    Distance matrix (angstroms):
                    1          2          3          4          5
     1  O    0.000000
     2  O    2.188627   0.000000
     3  O    3.485078   2.646711   0.000000
     4  N    1.200761   1.201439   2.450377   0.000000
     5  N    2.646454   2.584144   1.132872   1.880776   0.000000
 Stoichiometry    N2O3
 Framework group  C1[X(N2O3)]
 Deg. of freedom     9
 Full point group                 C1      NOp   1
 RotChk:  IX=0 Diff= 1.14D-15
 Largest Abelian subgroup         C1      NOp   1
 Largest concise Abelian subgroup C1      NOp   1
                         Standard orientation:                         
 ---------------------------------------------------------------------
 Center     Atomic      Atomic             Coordinates (Angstroms)
 Number     Number       Type             X           Y           Z
 ---------------------------------------------------------------------
      1          8           0       -1.563842   -0.754564   -0.000011
      2          8           0       -0.619985    1.220081   -0.000078
      3          8           0        1.801406    0.151461    0.000069
      4          7           0       -0.645384    0.018911    0.000139
      5          7           0        1.082436   -0.724029   -0.000117
 ---------------------------------------------------------------------
 Rotational constants (GHZ):     12.4387006      4.2323244      3.1578512
 Leave Link  202 at Fri Feb 15 21:03:07 2019, MaxMem=   196608000 cpu:         0.5
 (Enter /cm/shared/c3ddb/gaussian/09.d01/g09/l601.exe)
 Copying SCF densities to generalized density rwf, IOpCl= 0 IROHF=0.

 **********************************************************************

            Population analysis using the SCF density.

 **********************************************************************

 Orbital symmetries:
       Occupied  (A) (A) (A) (A) (A) (A) (A) (A) (A) (A) (A) (A)
                 (A) (A) (A) (A) (A) (A) (A)
       Virtual   (A) (A) (A) (A) (A) (A) (A) (A) (A) (A) (A) (A)
                 (A) (A) (A) (A) (A) (A) (A) (A) (A) (A) (A) (A)
                 (A) (A) (A) (A) (A) (A) (A) (A) (A) (A) (A) (A)
                 (A) (A) (A) (A) (A) (A) (A) (A) (A) (A) (A) (A)
                 (A) (A) (A) (A) (A) (A) (A) (A) (A) (A) (A) (A)
                 (A) (A) (A) (A) (A) (A) (A) (A) (A) (A) (A) (A)
                 (A) (A) (A) (A) (A) (A) (A) (A) (A) (A) (A) (A)
                 (A) (A) (A) (A) (A) (A) (A)
 The electronic state is 1-A.
 Alpha  occ. eigenvalues --  -19.31965 -19.20709 -19.20371 -14.55433 -14.54075
 Alpha  occ. eigenvalues --   -1.32796  -1.26641  -1.11222  -0.75558  -0.66587
 Alpha  occ. eigenvalues --   -0.60749  -0.58549  -0.56016  -0.55034  -0.54356
 Alpha  occ. eigenvalues --   -0.47834  -0.35855  -0.34645  -0.28021
 Alpha virt. eigenvalues --   -0.16572  -0.08497  -0.07689   0.02531   0.05591
 Alpha virt. eigenvalues --    0.06802   0.07322   0.11564   0.12942   0.13982
 Alpha virt. eigenvalues --    0.14557   0.16902   0.18480   0.20723   0.22078
 Alpha virt. eigenvalues --    0.23213   0.25594   0.27143   0.28134   0.28931
 Alpha virt. eigenvalues --    0.29958   0.31851   0.33359   0.40412   0.41888
 Alpha virt. eigenvalues --    0.45918   0.64546   0.70910   0.73957   0.75804
 Alpha virt. eigenvalues --    0.78159   0.86243   0.93712   0.96453   1.01392
 Alpha virt. eigenvalues --    1.02427   1.04647   1.06767   1.09123   1.09748
 Alpha virt. eigenvalues --    1.13151   1.14839   1.19540   1.45457   1.53442
 Alpha virt. eigenvalues --    1.60969   1.63683   1.69748   1.70374   1.76297
 Alpha virt. eigenvalues --    1.89086   1.92032   2.24746   2.34195   2.35355
 Alpha virt. eigenvalues --    2.56831   2.70850   2.72272   2.74848   2.76405
 Alpha virt. eigenvalues --    2.77186   2.84588   3.01680   3.17521   3.20664
 Alpha virt. eigenvalues --    3.27604   3.35080   3.42283   3.54870   3.57704
 Alpha virt. eigenvalues --    3.73811   3.75634   3.77349   3.84502   4.04090
 Alpha virt. eigenvalues --    4.26537   4.48257   4.85272   4.89837   4.94862
 Alpha virt. eigenvalues --    4.97491   5.01662   5.08346   5.49758   5.69996
 Alpha virt. eigenvalues --    6.20248  35.37587  35.41951  49.79782  49.83256
 Alpha virt. eigenvalues --   49.92194
          Condensed to atoms (all electrons):
               1          2          3          4          5
     1  O    8.038230  -0.140418   0.016677   0.184409  -0.077910
     2  O   -0.140418   8.029618   0.057753   0.203963  -0.132708
     3  O    0.016677   0.057753   7.605004  -0.115273   0.219007
     4  N    0.184409   0.203963  -0.115273   6.810829   0.033131
     5  N   -0.077910  -0.132708   0.219007   0.033131   7.019057
 Mulliken charges:
               1
     1  O   -0.020988
     2  O   -0.018208
     3  O    0.216831
     4  N   -0.117059
     5  N   -0.060577
 Sum of Mulliken charges =   0.00000
 Mulliken charges with hydrogens summed into heavy atoms:
               1
     1  O   -0.020988
     2  O   -0.018208
     3  O    0.216831
     4  N   -0.117059
     5  N   -0.060577
 Electronic spatial extent (au):  <R**2>=            347.5039
 Charge=              0.0000 electrons
 Dipole moment (field-independent basis, Debye):
    X=              2.3851    Y=             -0.6426    Z=              0.0002  Tot=              2.4702
 Quadrupole moment (field-independent basis, Debye-Ang):
   XX=            -28.1851   YY=            -30.2024   ZZ=            -24.5834
   XY=             -1.0830   XZ=             -0.0002   YZ=             -0.0003
 Traceless Quadrupole moment (field-independent basis, Debye-Ang):
   XX=             -0.5281   YY=             -2.5455   ZZ=              3.0736
   XY=             -1.0830   XZ=             -0.0002   YZ=             -0.0003
 Octapole moment (field-independent basis, Debye-Ang**2):
  XXX=              7.9538  YYY=              1.0690  ZZZ=              0.0001  XYY=              2.4816
  XXY=              1.4641  XXZ=              0.0006  XZZ=              1.2531  YZZ=              0.1979
  YYZ=              0.0005  XYZ=             -0.0009
 Hexadecapole moment (field-independent basis, Debye-Ang**3):
 XXXX=           -271.2237 YYYY=           -114.0485 ZZZZ=            -19.1548 XXXY=             -1.8471
 XXXZ=              0.0005 YYYX=              3.5329 YYYZ=             -0.0012 ZZZX=              0.0005
 ZZZY=             -0.0004 XXYY=            -64.8792 XXZZ=            -44.5588 YYZZ=            -21.1058
 XXYZ=             -0.0005 YYXZ=              0.0008 ZZXY=              0.2354
 N-N= 1.620364225752D+02 E-N=-1.112997670588D+03  KE= 3.341440528193D+02
 No NMR shielding tensors so no spin-rotation constants.
 Leave Link  601 at Fri Feb 15 21:03:08 2019, MaxMem=   196608000 cpu:         3.3
 (Enter /cm/shared/c3ddb/gaussian/09.d01/g09/l9999.exe)
 1\1\GINC-NODE058\Scan\RB3LYP\6-311+G(d,p)\N2O3\ALONGD\15-Feb-2019\0\\#
 P opt=(modredundant, calcfc, noeigentest) b3lyp/6-311+g(d,p) scf=xqc\\
 name\\0,1\O,1.4632144152,-0.0768654165,-0.927888496\O,0.6751387135,0.7
 445008539,0.9414386564\O,-1.7166817019,-0.291478615,0.4820665326\N,0.6
 270456756,0.1343029154,-0.0923898985\N,-1.0783951024,-0.5951977378,-0.
 4032267946\\Version=AS64L-G09RevD.01\State=1-A\HF=-335.0868976,-335.08
 67509,-335.0863277,-335.0856608,-335.0848089,-335.0838462,-335.0828604
 ,-335.0819282,-335.081121,-335.0804949,-335.0800921,-335.0799419,-335.
 0800371,-335.0803591,-335.0808711,-335.0815413,-335.0823427,-335.08323
 93,-335.0841823,-335.0851037,-335.085915,-335.0865258,-335.0868541,-33
 5.086854,-335.086526,-335.0859154,-335.0851035,-335.0841819,-335.08323
 88,-335.0823427,-335.0815412,-335.0808711,-335.0803591,-335.0800373,-3
 35.0799419,-335.080092,-335.080495,-335.081121,-335.0819281,-335.08286
 05,-335.0838462,-335.0848088,-335.0856611,-335.0863272,-335.086751,-33
 5.0868959\RMSD=5.684e-09,1.733e-09,3.730e-09,1.788e-09,6.069e-09,5.621
 e-09,4.709e-09,5.630e-09,3.586e-09,6.177e-09,7.530e-09,2.576e-09,7.905
 e-09,6.535e-09,1.878e-09,3.103e-09,2.891e-09,9.058e-09,7.971e-09,1.893
 e-09,6.474e-09,5.141e-09,5.692e-09,9.892e-09,4.395e-09,6.661e-09,9.134
 e-09,9.253e-09,9.529e-09,3.956e-09,1.999e-09,1.139e-09,7.591e-09,7.702
 e-09,1.976e-09,5.151e-09,7.829e-09,6.481e-09,4.834e-09,6.775e-09,6.924
 e-09,4.801e-09,9.552e-09,3.578e-09,2.713e-09,2.324e-09\PG=C01 [X(N2O3)
 ]\\@


 Everywhere is walking distance if you have the time.
                                    -- Steven Wright
 Job cpu time:       0 days  4 hours 52 minutes 52.4 seconds.
 File lengths (MBytes):  RWF=     13 Int=      0 D2E=      0 Chk=      3 Scr=      1
 Normal termination of Gaussian 09 at Fri Feb 15 21:03:08 2019.
