 Entering Gaussian System, Link 0=/Local/ce_dana/g09/g09
 Initial command:
 /Local/ce_dana/g09/l1.exe "/storage/ce_dana/alongd/scratch/g09/Gau-19713.inp" -scrdir="/storage/ce_dana/alongd/scratch/g09/"
 Entering Link 1 = /Local/ce_dana/g09/l1.exe PID=     19714.
  
 Copyright (c) 1988,1990,1992,1993,1995,1998,2003,2009,2013,
            Gaussian, Inc.  All Rights Reserved.
  
 This is part of the Gaussian(R) 09 program.  It is based on
 the Gaussian(R) 03 system (copyright 2003, Gaussian, Inc.),
 the Gaussian(R) 98 system (copyright 1998, Gaussian, Inc.),
 the Gaussian(R) 94 system (copyright 1995, Gaussian, Inc.),
 the Gaussian 92(TM) system (copyright 1992, Gaussian, Inc.),
 the Gaussian 90(TM) system (copyright 1990, Gaussian, Inc.),
 the Gaussian 88(TM) system (copyright 1988, Gaussian, Inc.),
 the Gaussian 86(TM) system (copyright 1986, Carnegie Mellon
 University), and the Gaussian 82(TM) system (copyright 1983,
 Carnegie Mellon University). Gaussian is a federally registered
 trademark of Gaussian, Inc.
  
 This software contains proprietary and confidential information,
 including trade secrets, belonging to Gaussian, Inc.
  
 This software is provided under written license and may be
 used, copied, transmitted, or stored only in accord with that
 written license.
  
 The following legend is applicable only to US Government
 contracts under FAR:
  
                    RESTRICTED RIGHTS LEGEND
  
 Use, reproduction and disclosure by the US Government is
 subject to restrictions as set forth in subparagraphs (a)
 and (c) of the Commercial Computer Software - Restricted
 Rights clause in FAR 52.227-19.
  
 Gaussian, Inc.
 340 Quinnipiac St., Bldg. 40, Wallingford CT 06492
  
  
 ---------------------------------------------------------------
 Warning -- This program may not be used in any manner that
 competes with the business of Gaussian, Inc. or will provide
 assistance to any competitor of Gaussian, Inc.  The licensee
 of this program is prohibited from giving any competitor of
 Gaussian, Inc. access to this program.  By using this program,
 the user acknowledges that Gaussian, Inc. is engaged in the
 business of creating and licensing software in the field of
 computational chemistry and represents and warrants to the
 licensee that it is not a competitor of Gaussian, Inc. and that
 it will not use this program in any manner prohibited above.
 ---------------------------------------------------------------
  

 Cite this work as:
 Gaussian 09, Revision D.01,
 M. J. Frisch, G. W. Trucks, H. B. Schlegel, G. E. Scuseria, 
 M. A. Robb, J. R. Cheeseman, G. Scalmani, V. Barone, B. Mennucci, 
 G. A. Petersson, H. Nakatsuji, M. Caricato, X. Li, H. P. Hratchian, 
 A. F. Izmaylov, J. Bloino, G. Zheng, J. L. Sonnenberg, M. Hada, 
 M. Ehara, K. Toyota, R. Fukuda, J. Hasegawa, M. Ishida, T. Nakajima, 
 Y. Honda, O. Kitao, H. Nakai, T. Vreven, J. A. Montgomery, Jr., 
 J. E. Peralta, F. Ogliaro, M. Bearpark, J. J. Heyd, E. Brothers, 
 K. N. Kudin, V. N. Staroverov, T. Keith, R. Kobayashi, J. Normand, 
 K. Raghavachari, A. Rendell, J. C. Burant, S. S. Iyengar, J. Tomasi, 
 M. Cossi, N. Rega, J. M. Millam, M. Klene, J. E. Knox, J. B. Cross, 
 V. Bakken, C. Adamo, J. Jaramillo, R. Gomperts, R. E. Stratmann, 
 O. Yazyev, A. J. Austin, R. Cammi, C. Pomelli, J. W. Ochterski, 
 R. L. Martin, K. Morokuma, V. G. Zakrzewski, G. A. Voth, 
 P. Salvador, J. J. Dannenberg, S. Dapprich, A. D. Daniels, 
 O. Farkas, J. B. Foresman, J. V. Ortiz, J. Cioslowski, 
 and D. J. Fox, Gaussian, Inc., Wallingford CT, 2013.
 
 ******************************************
 Gaussian 09:  ES64L-G09RevD.01 24-Apr-2013
                20-May-2023 
 ******************************************
 %chk=check.chk
 %mem=4096mb
 %NProcShared=10
 Will use up to   10 processors via shared memory.
 ----------------------------------------------------------------------
 #P opt=(modredundant, calcfc, noeigentest, maxStep=5) scf=(tight, dire
 ct) integral=(grid=ultrafine, Acc2E=12) guess=mix b2plypd3/aug-cc-pvtz
  IOp(2/9=2000) scf=xqc
 ----------------------------------------------------------------------
 1/8=5,10=4,11=1,18=120,19=15,38=1/1,3;
 2/9=2000,12=2,17=6,18=5,40=1/2;
 3/5=16,6=1,7=10,11=9,16=1,25=1,30=1,71=2,74=-60,75=-5,140=1/1,2,3;
 4/13=-1/1;
 5/5=2,8=3,13=1,32=2,38=5,87=12/2,8;
 8/6=3,8=1,10=1,19=11,30=-1,87=12/1;
 9/15=3,16=-3,87=12/6;
 11/6=1,8=1,15=11,17=12,24=-1,27=1,28=-2,29=300,32=6,42=3,87=12/1,2,10;
 10/6=2,21=1,87=12/2;
 8/6=4,8=1,10=1,19=11,30=-1,87=12/11,4;
 10/5=1,20=4,87=12/2;
 11/12=2,14=11,16=1,17=2,28=-2,42=3,87=12/2,10,12;
 6/7=2,8=2,9=2,10=2/1;
 7/10=1,12=2,25=1,44=2,87=12/1,2,3,16;
 1/8=5,10=4,11=1,18=20,19=15/3(2);
 2/9=2000/2;
 99//99;
 2/9=2000/2;
 3/5=16,6=1,7=10,11=9,16=1,25=1,30=1,71=1,74=-60,75=-5/1,2,3;
 4/5=5,16=3,69=1/1;
 5/5=2,8=3,13=1,32=2,38=5,87=12/2,8;
 8/6=4,10=1,87=12/1;
 9/15=2,16=-3,87=12/6;
 10/5=1,87=12/2;
 7/12=2,87=12/1,2,3,16;
 1/8=5,11=1,18=20,19=15/3(-8);
 2/9=2000/2;
 6/7=2,8=2,9=2,10=2/1;
 99//99;
 Leave Link    1 at Sat May 20 10:18:49 2023, MaxMem=   536870912 cpu:         0.1
 (Enter /Local/ce_dana/g09/l101.exe)
 -----
 NH2NO
 -----
 Symbolic Z-matrix:
 Charge =  0 Multiplicity = 1
 O                     0.64668  -1.8511    0.36048 
 N                    -0.5046   -0.0849    0.00309 
 N                     0.68736  -0.65609   0.12052 
 H                    -1.34043  -0.64726   0.11417 
 H                    -0.5193    0.89901  -0.19459 
 
 The following ModRedundant input section has been read:
 D       4       2       3       1 S  36 -10.00                                
 
 Add atom      2 valence  3 ND=      2 dihedral       3      2      4      5
 NAtoms=      5 NQM=        5 NQMF=       0 NMMI=      0 NMMIF=      0
                NMic=       0 NMicF=      0.
                    Isotopes and Nuclear Properties:
 (Nuclear quadrupole moments (NQMom) in fm**2, nuclear magnetic moments (NMagM)
  in nuclear magnetons)

  Atom         1           2           3           4           5
 IAtWgt=          16          14          14           1           1
 AtmWgt=  15.9949146  14.0030740  14.0030740   1.0078250   1.0078250
 NucSpn=           0           2           2           1           1
 AtZEff=   0.0000000   0.0000000   0.0000000   0.0000000   0.0000000
 NQMom=    0.0000000   2.0440000   2.0440000   0.0000000   0.0000000
 NMagM=    0.0000000   0.4037610   0.4037610   2.7928460   2.7928460
 AtZNuc=   8.0000000   7.0000000   7.0000000   1.0000000   1.0000000
 Leave Link  101 at Sat May 20 10:18:49 2023, MaxMem=   536870912 cpu:         0.3
 (Enter /Local/ce_dana/g09/l103.exe)

 GradGradGradGradGradGradGradGradGradGradGradGradGradGradGradGradGradGrad
 Berny optimization.
 Initialization pass.
                           ----------------------------
                           !    Initial Parameters    !
                           ! (Angstroms and Degrees)  !
 --------------------------                            --------------------------
 ! Name  Definition              Value          Derivative Info.                !
 --------------------------------------------------------------------------------
 ! R1    R(1,3)                  1.2195         calculate D2E/DX2 analytically  !
 ! R2    R(2,3)                  1.327          calculate D2E/DX2 analytically  !
 ! R3    R(2,4)                  1.0135         calculate D2E/DX2 analytically  !
 ! R4    R(2,5)                  1.0037         calculate D2E/DX2 analytically  !
 ! A1    A(3,2,4)              119.4886         calculate D2E/DX2 analytically  !
 ! A2    A(3,2,5)              116.9074         calculate D2E/DX2 analytically  !
 ! A3    A(4,2,5)              123.6039         calculate D2E/DX2 analytically  !
 ! A4    A(1,3,2)              114.1572         calculate D2E/DX2 analytically  !
 ! D1    D(4,2,3,1)              0.0002         Scan                            !
 ! D2    D(5,2,3,1)            180.0            calculate D2E/DX2 analytically  !
 ! D3    D(3,2,4,5)            179.9998         calculate D2E/DX2 analytically  !
 --------------------------------------------------------------------------------
 Trust Radius=5.00D-02 FncErr=1.00D-07 GrdErr=1.00D-07
 Number of optimizations in scan=  37
 Number of steps in this run=     21 maximum allowed number of steps=    100.
 GradGradGradGradGradGradGradGradGradGradGradGradGradGradGradGradGradGrad

 Leave Link  103 at Sat May 20 10:18:49 2023, MaxMem=   536870912 cpu:         0.0
 (Enter /Local/ce_dana/g09/l202.exe)
                          Input orientation:                          
 ---------------------------------------------------------------------
 Center     Atomic      Atomic             Coordinates (Angstroms)
 Number     Number       Type             X           Y           Z
 ---------------------------------------------------------------------
      1          8           0        0.646675   -1.851103    0.360479
      2          7           0       -0.504604   -0.084901    0.003090
      3          7           0        0.687355   -0.656090    0.120523
      4          1           0       -1.340428   -0.647255    0.114165
      5          1           0       -0.519295    0.899007   -0.194585
 ---------------------------------------------------------------------
                    Distance matrix (angstroms):
                    1          2          3          4          5
     1  O    0.000000
     2  N    2.138373   0.000000
     3  N    1.219545   1.326957   0.000000
     4  H    2.336343   1.013500   2.027812   0.000000
     5  H    3.038205   1.003676   1.993395   1.777783   0.000000
 Stoichiometry    H2N2O
 Framework group  C1[X(H2N2O)]
 Deg. of freedom     9
 Full point group                 C1      NOp   1
 Largest Abelian subgroup         C1      NOp   1
 Largest concise Abelian subgroup C1      NOp   1
                         Standard orientation:                         
 ---------------------------------------------------------------------
 Center     Atomic      Atomic             Coordinates (Angstroms)
 Number     Number       Type             X           Y           Z
 ---------------------------------------------------------------------
      1          8           0       -1.122561    0.218960   -0.000000
      2          7           0        1.014610    0.147244   -0.000000
      3          7           0       -0.141053   -0.504873    0.000000
      4          1           0        1.015556    1.160743    0.000001
      5          1           0        1.850036   -0.409020    0.000000
 ---------------------------------------------------------------------
 Rotational constants (GHZ):     82.2074541     12.9020651     11.1518377
 Leave Link  202 at Sat May 20 10:18:49 2023, MaxMem=   536870912 cpu:         0.0
 (Enter /Local/ce_dana/g09/l301.exe)
 Standard basis: Aug-CC-pVTZ (5D, 7F)
 Ernie: Thresh=  0.10000D-02 Tol=  0.10000D-05 Strict=F.
 Ernie:  9 primitive shells out of 112 were deleted.
 There are   215 symmetry adapted cartesian basis functions of A   symmetry.
 There are   184 symmetry adapted basis functions of A   symmetry.
   184 basis functions,   270 primitive gaussians,   215 cartesian basis functions
    12 alpha electrons       12 beta electrons
       nuclear repulsion energy        72.2316344791 Hartrees.
 IExCor=  419 DFT=T Ex+Corr=B2PLYPD3 ExCW=0 ScaHFX=  0.530000
 ScaDFX=  0.470000  0.470000  0.730000  0.730000 ScalE2=  0.270000  0.270000
 IRadAn=      5 IRanWt=     -1 IRanGd=            0 ICorTp=0 IEmpDi=141
 NAtoms=    5 NActive=    5 NUniq=    5 SFac= 1.00D+00 NAtFMM=   60 NAOKFM=F Big=F
 Integral buffers will be    131072 words long.
 Regular integral format.
 Two-electron integral symmetry is turned on.
 R6Disp:  Grimme-D3(BJ) Dispersion energy=       -0.0013771299 Hartrees.
 Nuclear repulsion after empirical dispersion term =       72.2302573492 Hartrees.
 Leave Link  301 at Sat May 20 10:18:49 2023, MaxMem=   536870912 cpu:         0.1
 (Enter /Local/ce_dana/g09/l302.exe)
 NPDir=0 NMtPBC=     1 NCelOv=     1 NCel=       1 NClECP=     1 NCelD=      1
         NCelK=      1 NCelE2=     1 NClLst=     1 CellRange=     0.0.
 One-electron integrals computed using PRISM.
 NBasis=   184 RedAO= T EigKep=  6.52D-05  NBF=   184
 NBsUse=   184 1.00D-06 EigRej= -1.00D+00 NBFU=   184
 Precomputing XC quadrature grid using
 IXCGrd= 4 IRadAn=           5 IRanWt=          -1 IRanGd=           0 AccXCQ= 0.00D+00.
 Generated NRdTot=       0 NPtTot=           0 NUsed=           0 NTot=          32
 NSgBfM=   215   215   215   215   215 MxSgAt=     5 MxSgA2=     5.
 Leave Link  302 at Sat May 20 10:18:49 2023, MaxMem=   536870912 cpu:         1.7
 (Enter /Local/ce_dana/g09/l303.exe)
 DipDrv:  MaxL=1.
 Leave Link  303 at Sat May 20 10:18:49 2023, MaxMem=   536870912 cpu:         0.1
 (Enter /Local/ce_dana/g09/l401.exe)
 ExpMin= 2.53D-02 ExpMax= 1.53D+04 ExpMxC= 5.22D+02 IAcc=3 IRadAn=         5 AccDes= 0.00D+00
 Harris functional with IExCor=  419 and IRadAn=       5 diagonalized for initial guess.
 HarFok:  IExCor=  419 AccDes= 0.00D+00 IRadAn=         5 IDoV= 1 UseB2=F ITyADJ=14
 ICtDFT=  3500011 ScaDFX=  1.000000  1.000000  1.000000  1.000000
 FoFCou: FMM=F IPFlag=           0 FMFlag=      100000 FMFlg1=           0
         NFxFlg=           0 DoJE=T BraDBF=F KetDBF=T FulRan=T
         wScrn=  0.000000 ICntrl=     500 IOpCl=  0 I1Cent=   200000004 NGrid=           0
         NMat0=    1 NMatS0=      1 NMatT0=    0 NMatD0=    1 NMtDS0=    0 NMtDT0=    0
 Petite list used in FoFCou.
 Harris En= -185.932398691962    
 JPrj=0 DoOrth=F DoCkMO=T.
 Mixing orbitals, IMix= 1 IMixAn=  0 NRI=1 NE=   12 Coef=  7.07106781D-01  7.07106781D-01
 Leave Link  401 at Sat May 20 10:18:50 2023, MaxMem=   536870912 cpu:         5.7
 (Enter /Local/ce_dana/g09/l502.exe)
 Closed shell SCF:
 Using DIIS extrapolation, IDIIS=  1040.
 Integral symmetry usage will be decided dynamically.
 Keep R1 ints in memory in canonical form, NReq=150035761.
 IVT=      148311 IEndB=      148311 NGot=   536870912 MDV=   391873892
 LenX=   391873892 LenY=   391827226
 Requested convergence on RMS density matrix=1.00D-08 within  64 cycles.
 Requested convergence on MAX density matrix=1.00D-06.
 Requested convergence on             energy=1.00D-06.
 No special actions if energy rises.
 FoFCou: FMM=F IPFlag=           0 FMFlag=           0 FMFlg1=           0
         NFxFlg=           0 DoJE=F BraDBF=F KetDBF=F FulRan=T
         wScrn=  0.000000 ICntrl=     600 IOpCl=  0 I1Cent=           0 NGrid=           0
         NMat0=    1 NMatS0=  17020 NMatT0=    0 NMatD0=    1 NMtDS0=    0 NMtDT0=    0
 Symmetry not used in FoFCou.

 Cycle   1  Pass 1  IDiag  1:
 E= -185.373070620769    
 DIIS: error= 2.85D-02 at cycle   1 NSaved=   1.
 NSaved= 1 IEnMin= 1 EnMin= -185.373070620769     IErMin= 1 ErrMin= 2.85D-02
 ErrMax= 2.85D-02  0.00D+00 EMaxC= 1.00D-01 BMatC= 1.27D-01 BMatP= 1.27D-01
 IDIUse=3 WtCom= 7.15D-01 WtEn= 2.85D-01
 Coeff-Com:  0.100D+01
 Coeff-En:   0.100D+01
 Coeff:      0.100D+01
 Gap=     0.174 Goal=   None    Shift=    0.000
 GapD=    0.174 DampG=1.000 DampE=0.500 DampFc=0.5000 IDamp=-1.
 Damping current iteration by 5.00D-01
 RMSDP=2.18D-03 MaxDP=4.66D-02              OVMax= 3.15D-01

 Cycle   2  Pass 1  IDiag  1:
 E= -185.438276532214     Delta-E=       -0.065205911445 Rises=F Damp=T
 DIIS: error= 6.97D-03 at cycle   2 NSaved=   2.
 NSaved= 2 IEnMin= 2 EnMin= -185.438276532214     IErMin= 2 ErrMin= 6.97D-03
 ErrMax= 6.97D-03  0.00D+00 EMaxC= 1.00D-01 BMatC= 1.84D-02 BMatP= 1.27D-01
 IDIUse=3 WtCom= 9.30D-01 WtEn= 6.97D-02
 Coeff-Com: -0.184D+00 0.118D+01
 Coeff-En:   0.000D+00 0.100D+01
 Coeff:     -0.171D+00 0.117D+01
 Gap=     0.254 Goal=   None    Shift=    0.000
 RMSDP=1.68D-03 MaxDP=3.88D-02 DE=-6.52D-02 OVMax= 1.34D-01

 Cycle   3  Pass 1  IDiag  1:
 E= -185.545631152151     Delta-E=       -0.107354619937 Rises=F Damp=F
 DIIS: error= 6.55D-03 at cycle   3 NSaved=   3.
 NSaved= 3 IEnMin= 3 EnMin= -185.545631152151     IErMin= 3 ErrMin= 6.55D-03
 ErrMax= 6.55D-03  0.00D+00 EMaxC= 1.00D-01 BMatC= 1.05D-02 BMatP= 1.84D-02
 IDIUse=3 WtCom= 9.35D-01 WtEn= 6.55D-02
 Coeff-Com: -0.183D+00 0.523D+00 0.660D+00
 Coeff-En:   0.000D+00 0.000D+00 0.100D+01
 Coeff:     -0.171D+00 0.489D+00 0.682D+00
 Gap=     0.286 Goal=   None    Shift=    0.000
 RMSDP=6.83D-04 MaxDP=1.31D-02 DE=-1.07D-01 OVMax= 9.62D-02

 Cycle   4  Pass 1  IDiag  1:
 E= -185.566662023964     Delta-E=       -0.021030871812 Rises=F Damp=F
 DIIS: error= 2.78D-03 at cycle   4 NSaved=   4.
 NSaved= 4 IEnMin= 4 EnMin= -185.566662023964     IErMin= 4 ErrMin= 2.78D-03
 ErrMax= 2.78D-03  0.00D+00 EMaxC= 1.00D-01 BMatC= 2.17D-03 BMatP= 1.05D-02
 IDIUse=3 WtCom= 9.72D-01 WtEn= 2.78D-02
 Coeff-Com: -0.144D-02-0.611D-02 0.127D+00 0.880D+00
 Coeff-En:   0.000D+00 0.000D+00 0.000D+00 0.100D+01
 Coeff:     -0.140D-02-0.594D-02 0.124D+00 0.883D+00
 Gap=     0.314 Goal=   None    Shift=    0.000
 RMSDP=5.28D-04 MaxDP=1.08D-02 DE=-2.10D-02 OVMax= 9.03D-02

 Cycle   5  Pass 1  IDiag  1:
 E= -185.576594341615     Delta-E=       -0.009932317652 Rises=F Damp=F
 DIIS: error= 2.69D-03 at cycle   5 NSaved=   5.
 NSaved= 5 IEnMin= 5 EnMin= -185.576594341615     IErMin= 5 ErrMin= 2.69D-03
 ErrMax= 2.69D-03  0.00D+00 EMaxC= 1.00D-01 BMatC= 1.46D-03 BMatP= 2.17D-03
 IDIUse=3 WtCom= 9.73D-01 WtEn= 2.69D-02
 Coeff-Com:  0.927D-01-0.205D+00-0.315D+00 0.439D+00 0.989D+00
 Coeff-En:   0.000D+00 0.000D+00 0.000D+00 0.000D+00 0.100D+01
 Coeff:      0.902D-01-0.199D+00-0.307D+00 0.427D+00 0.989D+00
 Gap=     0.322 Goal=   None    Shift=    0.000
 RMSDP=5.16D-04 MaxDP=1.10D-02 DE=-9.93D-03 OVMax= 8.28D-02

 Cycle   6  Pass 1  IDiag  1:
 E= -185.582308048712     Delta-E=       -0.005713707097 Rises=F Damp=F
 DIIS: error= 1.50D-03 at cycle   6 NSaved=   6.
 NSaved= 6 IEnMin= 6 EnMin= -185.582308048712     IErMin= 6 ErrMin= 1.50D-03
 ErrMax= 1.50D-03  0.00D+00 EMaxC= 1.00D-01 BMatC= 5.69D-04 BMatP= 1.46D-03
 IDIUse=3 WtCom= 9.85D-01 WtEn= 1.50D-02
 Coeff-Com:  0.463D-01-0.768D-01-0.162D+00-0.127D+00 0.578D+00 0.742D+00
 Coeff-En:   0.000D+00 0.000D+00 0.000D+00 0.000D+00 0.000D+00 0.100D+01
 Coeff:      0.456D-01-0.757D-01-0.160D+00-0.125D+00 0.569D+00 0.746D+00
 Gap=     0.330 Goal=   None    Shift=    0.000
 RMSDP=2.21D-04 MaxDP=5.00D-03 DE=-5.71D-03 OVMax= 3.85D-02

 Cycle   7  Pass 1  IDiag  1:
 E= -185.583587245412     Delta-E=       -0.001279196700 Rises=F Damp=F
 DIIS: error= 4.13D-04 at cycle   7 NSaved=   7.
 NSaved= 7 IEnMin= 7 EnMin= -185.583587245412     IErMin= 7 ErrMin= 4.13D-04
 ErrMax= 4.13D-04  0.00D+00 EMaxC= 1.00D-01 BMatC= 6.54D-05 BMatP= 5.69D-04
 IDIUse=3 WtCom= 9.96D-01 WtEn= 4.13D-03
 Coeff-Com: -0.151D-01 0.330D-01 0.915D-01-0.174D+00-0.118D+00 0.109D+00
 Coeff-Com:  0.107D+01
 Coeff-En:   0.000D+00 0.000D+00 0.000D+00 0.000D+00 0.000D+00 0.000D+00
 Coeff-En:   0.100D+01
 Coeff:     -0.151D-01 0.329D-01 0.911D-01-0.173D+00-0.118D+00 0.109D+00
 Coeff:      0.107D+01
 Gap=     0.325 Goal=   None    Shift=    0.000
 RMSDP=1.03D-04 MaxDP=2.38D-03 DE=-1.28D-03 OVMax= 1.75D-02

 Cycle   8  Pass 1  IDiag  1:
 E= -185.583801145521     Delta-E=       -0.000213900109 Rises=F Damp=F
 DIIS: error= 1.15D-04 at cycle   8 NSaved=   8.
 NSaved= 8 IEnMin= 8 EnMin= -185.583801145521     IErMin= 8 ErrMin= 1.15D-04
 ErrMax= 1.15D-04  0.00D+00 EMaxC= 1.00D-01 BMatC= 3.60D-06 BMatP= 6.54D-05
 IDIUse=3 WtCom= 9.99D-01 WtEn= 1.15D-03
 Coeff-Com: -0.200D-02 0.180D-02 0.906D-02 0.624D-02-0.633D-01-0.445D-01
 Coeff-Com:  0.547D-01 0.104D+01
 Coeff-En:   0.000D+00 0.000D+00 0.000D+00 0.000D+00 0.000D+00 0.000D+00
 Coeff-En:   0.000D+00 0.100D+01
 Coeff:     -0.200D-02 0.180D-02 0.905D-02 0.623D-02-0.632D-01-0.445D-01
 Coeff:      0.547D-01 0.104D+01
 Gap=     0.326 Goal=   None    Shift=    0.000
 RMSDP=3.87D-05 MaxDP=8.97D-04 DE=-2.14D-04 OVMax= 6.82D-03

 Cycle   9  Pass 1  IDiag  1:
 E= -185.583820408657     Delta-E=       -0.000019263136 Rises=F Damp=F
 DIIS: error= 3.22D-05 at cycle   9 NSaved=   9.
 NSaved= 9 IEnMin= 9 EnMin= -185.583820408657     IErMin= 9 ErrMin= 3.22D-05
 ErrMax= 3.22D-05  0.00D+00 EMaxC= 1.00D-01 BMatC= 2.04D-07 BMatP= 3.60D-06
 IDIUse=1 WtCom= 1.00D+00 WtEn= 0.00D+00
 Coeff-Com:  0.127D-02-0.243D-02-0.531D-02 0.129D-01 0.502D-02-0.112D-01
 Coeff-Com: -0.768D-01 0.407D-01 0.104D+01
 Coeff:      0.127D-02-0.243D-02-0.531D-02 0.129D-01 0.502D-02-0.112D-01
 Coeff:     -0.768D-01 0.407D-01 0.104D+01
 Gap=     0.325 Goal=   None    Shift=    0.000
 RMSDP=5.36D-06 MaxDP=1.13D-04 DE=-1.93D-05 OVMax= 8.13D-04

 Cycle  10  Pass 1  IDiag  1:
 E= -185.583821038256     Delta-E=       -0.000000629599 Rises=F Damp=F
 DIIS: error= 8.91D-06 at cycle  10 NSaved=  10.
 NSaved=10 IEnMin=10 EnMin= -185.583821038256     IErMin=10 ErrMin= 8.91D-06
 ErrMax= 8.91D-06  0.00D+00 EMaxC= 1.00D-01 BMatC= 1.61D-08 BMatP= 2.04D-07
 IDIUse=1 WtCom= 1.00D+00 WtEn= 0.00D+00
 Coeff-Com:  0.317D-03-0.545D-03-0.598D-03 0.445D-03 0.343D-02 0.474D-02
 Coeff-Com: -0.657D-02-0.618D-01-0.300D-01 0.109D+01
 Coeff:      0.317D-03-0.545D-03-0.598D-03 0.445D-03 0.343D-02 0.474D-02
 Coeff:     -0.657D-02-0.618D-01-0.300D-01 0.109D+01
 Gap=     0.325 Goal=   None    Shift=    0.000
 RMSDP=1.16D-06 MaxDP=2.70D-05 DE=-6.30D-07 OVMax= 1.41D-04

 Cycle  11  Pass 1  IDiag  1:
 E= -185.583821081475     Delta-E=       -0.000000043219 Rises=F Damp=F
 DIIS: error= 3.17D-06 at cycle  11 NSaved=  11.
 NSaved=11 IEnMin=11 EnMin= -185.583821081475     IErMin=11 ErrMin= 3.17D-06
 ErrMax= 3.17D-06  0.00D+00 EMaxC= 1.00D-01 BMatC= 2.24D-09 BMatP= 1.61D-08
 IDIUse=1 WtCom= 1.00D+00 WtEn= 0.00D+00
 Coeff-Com: -0.734D-04 0.131D-03 0.237D-03-0.654D-03-0.968D-03 0.160D-02
 Coeff-Com:  0.426D-02 0.348D-03-0.734D-01-0.646D-01 0.113D+01
 Coeff:     -0.734D-04 0.131D-03 0.237D-03-0.654D-03-0.968D-03 0.160D-02
 Coeff:      0.426D-02 0.348D-03-0.734D-01-0.646D-01 0.113D+01
 Gap=     0.325 Goal=   None    Shift=    0.000
 RMSDP=4.06D-07 MaxDP=6.75D-06 DE=-4.32D-08 OVMax= 5.06D-05

 Cycle  12  Pass 1  IDiag  1:
 E= -185.583821085350     Delta-E=       -0.000000003875 Rises=F Damp=F
 DIIS: error= 4.87D-07 at cycle  12 NSaved=  12.
 NSaved=12 IEnMin=12 EnMin= -185.583821085350     IErMin=12 ErrMin= 4.87D-07
 ErrMax= 4.87D-07  0.00D+00 EMaxC= 1.00D-01 BMatC= 7.25D-11 BMatP= 2.24D-09
 IDIUse=1 WtCom= 1.00D+00 WtEn= 0.00D+00
 Coeff-Com: -0.258D-04 0.423D-04 0.729D-04-0.291D-04-0.255D-03-0.565D-04
 Coeff-Com:  0.514D-03 0.317D-02-0.172D-02-0.670D-01 0.515D-01 0.101D+01
 Coeff:     -0.258D-04 0.423D-04 0.729D-04-0.291D-04-0.255D-03-0.565D-04
 Coeff:      0.514D-03 0.317D-02-0.172D-02-0.670D-01 0.515D-01 0.101D+01
 Gap=     0.325 Goal=   None    Shift=    0.000
 RMSDP=9.18D-08 MaxDP=1.87D-06 DE=-3.88D-09 OVMax= 1.12D-05

 Cycle  13  Pass 1  IDiag  1:
 E= -185.583821085508     Delta-E=       -0.000000000158 Rises=F Damp=F
 DIIS: error= 2.29D-07 at cycle  13 NSaved=  13.
 NSaved=13 IEnMin=13 EnMin= -185.583821085508     IErMin=13 ErrMin= 2.29D-07
 ErrMax= 2.29D-07  0.00D+00 EMaxC= 1.00D-01 BMatC= 1.10D-11 BMatP= 7.25D-11
 IDIUse=1 WtCom= 1.00D+00 WtEn= 0.00D+00
 Coeff-Com:  0.190D-05-0.240D-05-0.138D-04 0.343D-04-0.983D-06-0.586D-04
 Coeff-Com: -0.233D-03 0.320D-03 0.479D-02-0.112D-02-0.778D-01 0.855D-01
 Coeff-Com:  0.989D+00
 Coeff:      0.190D-05-0.240D-05-0.138D-04 0.343D-04-0.983D-06-0.586D-04
 Coeff:     -0.233D-03 0.320D-03 0.479D-02-0.112D-02-0.778D-01 0.855D-01
 Coeff:      0.989D+00
 Gap=     0.325 Goal=   None    Shift=    0.000
 RMSDP=2.40D-08 MaxDP=4.91D-07 DE=-1.58D-10 OVMax= 3.13D-06

 Cycle  14  Pass 1  IDiag  1:
 E= -185.583821085521     Delta-E=       -0.000000000012 Rises=F Damp=F
 DIIS: error= 2.52D-08 at cycle  14 NSaved=  14.
 NSaved=14 IEnMin=14 EnMin= -185.583821085521     IErMin=14 ErrMin= 2.52D-08
 ErrMax= 2.52D-08  0.00D+00 EMaxC= 1.00D-01 BMatC= 1.80D-13 BMatP= 1.10D-11
 IDIUse=1 WtCom= 1.00D+00 WtEn= 0.00D+00
 Coeff-Com:  0.992D-06-0.154D-05-0.289D-05 0.239D-05 0.782D-05 0.816D-05
 Coeff-Com: -0.240D-04-0.152D-03 0.164D-03 0.377D-02-0.545D-02-0.476D-01
 Coeff-Com:  0.399D-01 0.101D+01
 Coeff:      0.992D-06-0.154D-05-0.289D-05 0.239D-05 0.782D-05 0.816D-05
 Coeff:     -0.240D-04-0.152D-03 0.164D-03 0.377D-02-0.545D-02-0.476D-01
 Coeff:      0.399D-01 0.101D+01
 Gap=     0.325 Goal=   None    Shift=    0.000
 RMSDP=4.00D-09 MaxDP=1.09D-07 DE=-1.24D-11 OVMax= 3.04D-07

 SCF Done:  E(RB2PLYPD3) =  -185.583821086     A.U. after   14 cycles
            NFock= 14  Conv=0.40D-08     -V/T= 2.0045
 KE= 1.847501100349D+02 PE=-5.806873680986D+02 EE= 1.381231796289D+02
 Leave Link  502 at Sat May 20 10:19:03 2023, MaxMem=   536870912 cpu:        85.2
 (Enter /Local/ce_dana/g09/l508.exe)
 QCSCF skips out because SCF is already converged.
 Leave Link  508 at Sat May 20 10:19:03 2023, MaxMem=   536870912 cpu:         0.0
 (Enter /Local/ce_dana/g09/l801.exe)
 DoSCS=T DFT=T ScalE2(SS,OS)=  0.270000  0.270000
 ExpMin= 2.53D-02 ExpMax= 1.53D+04 ExpMxC= 5.22D+02 IAcc=3 IRadAn=         5 AccDes= 0.00D+00
 HarFok:  IExCor=  205 AccDes= 0.00D+00 IRadAn=         5 IDoV=-2 UseB2=F ITyADJ=14
 ICtDFT= 12500011 ScaDFX=  1.000000  1.000000  1.000000  1.000000
 DSYEVD-2 returned Info=          93 IAlg= 4 N=    46 NDim=    46 NE2=    11668742 trying  DSYEV.
 Largest valence mixing into a core orbital is  1.23D-04
 Largest core mixing into a valence orbital is  1.54D-05
 Range of M.O.s used for correlation:     4   184
 NBasis=   184 NAE=    12 NBE=    12 NFC=     3 NFV=     0
 NROrb=    181 NOA=     9 NOB=     9 NVA=   172 NVB=   172

 **** Warning!!: The largest alpha MO coefficient is  0.25210313D+02

 Leave Link  801 at Sat May 20 10:19:04 2023, MaxMem=   536870912 cpu:         0.9
 (Enter /Local/ce_dana/g09/l906.exe)
 DoSCS=T DFT=T ScalE2(SS,OS)=  0.270000  0.270000
 Frozen-core derivative calculation, NFC=   3 NFV=   0.
 FulOut=F Deriv=T AODrv=T NAtomX=     5
   MMem=           0  MDisk=           9 MDiskD=           9
  W3Min=      474720 MinDsk=     1693675 NBas6D=         215
 NBas2D=       23739    NTT=       23220    LW2=     7400000
    MDV=   536480907 MDiskM=       12429 NBas2p=       23739
 Disk-based method using ON**2 memory for  9 occupieds at a time.
 Permanent disk used for amplitudes=     5230692 words.
 Estimated scratch disk usage=   162655362 words.
 IMap=   1   2   3   4   5   6   7   8   9  10  11  12
 Actual    scratch disk usage=   157175426 words.
 JobTyp=1 Pass  1:  I=   4 to  12 NPSUse= 10 ParTrn=T ParDer=T DoDerP=T.
 (rs|ai) integrals will be sorted in core.
 Spin components of T(2) and E(2):
     alpha-alpha T2 =       0.4008191916D-01 E2=     -0.2858858274D-01
     alpha-beta  T2 =       0.2219362885D+00 E2=     -0.1630170864D+00
     beta-beta   T2 =       0.4008191916D-01 E2=     -0.2858858274D-01
 The integrals were generated   1 times.
 E2(B2PLYPD3) =    -0.2201942519D+00 E(B2PLYPD3) =    -0.18580401533745D+03
 Leave Link  906 at Sat May 20 10:22:11 2023, MaxMem=   536870912 cpu:      1819.9
 (Enter /Local/ce_dana/g09/l1101.exe)
 Using compressed Sx but separate Hx and Fx, NAtomX=     5.
 Will process      6 centers per pass.
 R6Disp: Adding Grimme-D3(BJ) dispersion energy 1st derivatives to the gradient.
 Leave Link 1101 at Sat May 20 10:22:11 2023, MaxMem=   536870912 cpu:         4.3
 (Enter /Local/ce_dana/g09/l1102.exe)
 Leave Link 1102 at Sat May 20 10:22:12 2023, MaxMem=   536870912 cpu:         0.1
 (Enter /Local/ce_dana/g09/l1110.exe)
 Forming Gx(P) for the SCF density, NAtomX=     5.
 Integral derivatives from FoFJK, PRISM(SPDF).
 Do as many integral derivatives as possible in FoFJK.
 G2DrvN: MDV=     536870768.
 G2DrvN: will do     6 centers at a time, making    1 passes.
 Calling FoFCou, ICntrl=  3107 FMM=F I1Cent=   0 AccDes= 1.00D-12.
 FoFJK:  IHMeth= 1 ICntrl=    3107 DoSepK=F KAlg= 0 I1Cent=   0 FoldK=F
 IRaf=         0 NMat=   1 IRICut=       1 DoRegI=T DoRafI=F ISym2E= 0.
 FoFCou: FMM=F IPFlag=           0 FMFlag=      100000 FMFlg1=           0
         NFxFlg=           0 DoJE=F BraDBF=F KetDBF=F FulRan=T
         wScrn=  0.000000 ICntrl=    3107 IOpCl=  0 I1Cent=           0 NGrid=           0
         NMat0=    1 NMatS0=      1 NMatT0=    0 NMatD0=    1 NMtDS0=    0 NMtDT0=    0
 Symmetry not used in FoFCou.
 End of G2Drv F.D. properties file   721 does not exist.
 End of G2Drv F.D. properties file   722 does not exist.
 End of G2Drv F.D. properties file   788 does not exist.
 Leave Link 1110 at Sat May 20 10:22:27 2023, MaxMem=   536870912 cpu:       149.4
 (Enter /Local/ce_dana/g09/l1002.exe)
 Minotr:  Closed shell wavefunction.
          IDoAtm=11111
          Frozen-core window.
          Direct CPHF calculation.
          Differentiating once with respect to electric field.
                with respect to dipole field.
          Differentiating once with respect to nuclear coordinates.
          Requested convergence is 1.0D-08 RMS, and 1.0D-07 maximum.
          Secondary convergence is 1.0D-12 RMS, and 1.0D-12 maximum.
          NewPWx=T KeepS1=T KeepF1=T KeepIn=T MapXYZ=F SortEE=F KeepMc=T.
          MDV=     536870677 using IRadAn=       1.
 Generate precomputed XC quadrature information.
 Keep R1 ints in memory in canonical form, NReq=149890432.
 FoFCou: FMM=F IPFlag=           0 FMFlag=           0 FMFlg1=           0
         NFxFlg=           0 DoJE=F BraDBF=F KetDBF=F FulRan=T
         wScrn=  0.000000 ICntrl=     600 IOpCl=  0 I1Cent=           0 NGrid=           0
         NMat0=    1 NMatS0=  17020 NMatT0=    0 NMatD0=    1 NMtDS0=    0 NMtDT0=    0
 Symmetry not used in FoFCou.
          Solving linear equations simultaneously, MaxMat=       0.
          There are    18 degrees of freedom in the 1st order CPHF.  IDoFFX=6 NUNeed=    18.
     15 vectors produced by pass  0 Test12= 1.15D-14 5.56D-09 XBig12= 2.05D+01 3.45D+00.
 AX will form    15 AO Fock derivatives at one time.
     15 vectors produced by pass  1 Test12= 1.15D-14 5.56D-09 XBig12= 5.08D+00 5.57D-01.
     15 vectors produced by pass  2 Test12= 1.15D-14 5.56D-09 XBig12= 1.27D-01 8.79D-02.
     15 vectors produced by pass  3 Test12= 1.15D-14 5.56D-09 XBig12= 2.88D-03 1.31D-02.
     15 vectors produced by pass  4 Test12= 1.15D-14 5.56D-09 XBig12= 2.21D-05 7.96D-04.
     15 vectors produced by pass  5 Test12= 1.15D-14 5.56D-09 XBig12= 1.21D-07 7.12D-05.
     12 vectors produced by pass  6 Test12= 1.15D-14 5.56D-09 XBig12= 6.06D-10 5.44D-06.
      3 vectors produced by pass  7 Test12= 1.15D-14 5.56D-09 XBig12= 2.52D-12 4.15D-07.
      1 vectors produced by pass  8 Test12= 1.15D-14 5.56D-09 XBig12= 9.69D-15 2.17D-08.
 InvSVY:  IOpt=1 It=  1 EMax= 1.33D-15
 Solved reduced A of dimension   106 with    15 vectors.
 FullF1:  Do perturbations    1 to    18.
 Saving first derivative matrices.
 End of Minotr F.D. properties file   721 does not exist.
 End of Minotr F.D. properties file   722 does not exist.
 End of Minotr F.D. properties file   788 does not exist.
 Leave Link 1002 at Sat May 20 10:22:54 2023, MaxMem=   536870912 cpu:       212.6
 (Enter /Local/ce_dana/g09/l811.exe)
 MDV=   536870912.
 DoSCS=T DFT=T ScalE2(SS,OS)=  0.270000  0.270000
 Form MO integral derivatives with frozen-active canonical formalism.
 MOERI=1 MOERIx=1 NAtoms=     5 NAtomX=     5.
 Discarding MO integrals.
 MO basis two electron integral derivatives will not be stored on disk.
 IAlg= 3 DoFC=T DoPWx=T Debug=F.
 Frozen-core window:  NFC=   3 NFV=   0.
 Reordered first order wavefunction length =      8520192
 In DefCFB: NBatch=  1 ICI= 12 ICA=172 LFMax= 43
            Large arrays: LIAPS=   326607360 LIARS=   170847600 words.
 In StABat: MaxSiz= 55 MinSiz= 50 NAtomB=  4
 DoIAMN: NPSUse= 10.
 Leave Link  811 at Sat May 20 10:26:11 2023, MaxMem=   536870912 cpu:      1145.2
 (Enter /Local/ce_dana/g09/l804.exe)
 Frozen-core window:  NFC=   3 NFV=   0.
 Closed-shell transformation, MDV=   536870912 ITran=4 ISComp=1.
 Semi-Direct transformation.
 ModeAB=           2 MOrb=            12 LenV=     535730725
 LASXX=     35722311 LTotXX=    35722311 LenRXX=    35722311
 LTotAB=    36295848 MaxLAS=    51269760 LenRXY=    51269760
 NonZer=    71444622 LenScr=   107927040 LnRSAI=           0
 LnScr1=           0 LExtra=           0 Total=    194919111
 MaxDsk=          -1 SrtSym=           F ITran=            4
 DoSDTr:  NPSUse= 10
 JobTyp=0 Pass  1:  I=   1 to  12.
 (rs|ai) integrals will be sorted in core.
 Complete sort for first half transformation.
 First half transformation complete.
 Begin second half transformation for I=  10.
 Begin second half transformation for I=  10.
 Complete sort for second half transformation.
 Second half transformation complete.
 SymMOI:  orbitals are not symmetric.
 DoSCS=T DFT=T ScalE2(SS,OS)=  0.270000  0.270000
 Spin components of T(2) and E(2):
     alpha-alpha T2 =       0.4008191916D-01 E2=     -0.2858858274D-01
     alpha-beta  T2 =       0.2219362885D+00 E2=     -0.1630170864D+00
     beta-beta   T2 =       0.4008191916D-01 E2=     -0.2858858274D-01
 E2(B2PLYPD3) =    -0.2201942519D+00 E(B2PLYPD3) =    -0.18580401533744D+03
 Leave Link  804 at Sat May 20 10:26:35 2023, MaxMem=   536870912 cpu:        91.6
 (Enter /Local/ce_dana/g09/l1002.exe)
 Minotr:  Closed shell wavefunction.
          Computing MP2/KS-MP2 derivatives.
          Using Z-Vector for PSCF gradient.
          Skipping F1 and S1 gradient terms here.
          IDoAtm=11111
          Frozen-core window.
          Direct CPHF calculation.
          Differentiating once with respect to electric field.
                with respect to dipole field.
          Differentiating once with respect to nuclear coordinates.
          Requested convergence is 1.0D-10 RMS, and 1.0D-09 maximum.
          NewPWx=T KeepS1=F KeepF1=F KeepIn=T MapXYZ=F SortEE=F KeepMc=T.
          MDV=     536870677 using IRadAn=       5.
 Using stored XC quadrature information.
 Keep R1 ints in memory in canonical form, NReq=149888899.
 FoFCou: FMM=F IPFlag=           0 FMFlag=           0 FMFlg1=           0
         NFxFlg=           0 DoJE=F BraDBF=F KetDBF=F FulRan=T
         wScrn=  0.000000 ICntrl=     600 IOpCl=  0 I1Cent=           0 NGrid=           0
         NMat0=    1 NMatS0=  17020 NMatT0=    0 NMatD0=    1 NMtDS0=    0 NMtDT0=    0
 Symmetry not used in FoFCou.
          Solving linear equations separately, MaxMat=       0.
          There are     1 degrees of freedom in the 1st order CPHF.  IDoFFX=0 NUNeed=     1.
 LinEq1:  Iter=  0 NonCon=     1 RMS=2.87D-03 Max=7.86D-02 NDo=     1
 AX will form     1 AO Fock derivatives at one time.
 LinEq1:  Iter=  1 NonCon=     1 RMS=1.24D-03 Max=3.06D-02 NDo=     1
 LinEq1:  Iter=  2 NonCon=     1 RMS=5.36D-04 Max=5.51D-03 NDo=     1
 LinEq1:  Iter=  3 NonCon=     1 RMS=4.55D-04 Max=1.23D-02 NDo=     1
 LinEq1:  Iter=  4 NonCon=     1 RMS=1.29D-04 Max=1.51D-03 NDo=     1
 LinEq1:  Iter=  5 NonCon=     1 RMS=7.95D-05 Max=9.04D-04 NDo=     1
 LinEq1:  Iter=  6 NonCon=     1 RMS=1.87D-05 Max=3.05D-04 NDo=     1
 LinEq1:  Iter=  7 NonCon=     1 RMS=3.89D-06 Max=3.45D-05 NDo=     1
 LinEq1:  Iter=  8 NonCon=     1 RMS=8.13D-07 Max=8.72D-06 NDo=     1
 LinEq1:  Iter=  9 NonCon=     1 RMS=1.90D-07 Max=2.03D-06 NDo=     1
 LinEq1:  Iter= 10 NonCon=     1 RMS=3.60D-08 Max=3.02D-07 NDo=     1
 LinEq1:  Iter= 11 NonCon=     1 RMS=5.82D-09 Max=4.49D-08 NDo=     1
 LinEq1:  Iter= 12 NonCon=     1 RMS=6.98D-10 Max=5.39D-09 NDo=     1
 LinEq1:  Iter= 13 NonCon=     1 RMS=1.30D-10 Max=1.53D-09 NDo=     1
 LinEq1:  Iter= 14 NonCon=     0 RMS=2.47D-11 Max=2.45D-10 NDo=     1
 Linear equations converged to 1.000D-10 1.000D-09 after    14 iterations.
 End of Minotr F.D. properties file   721 does not exist.
 End of Minotr F.D. properties file   722 does not exist.
 End of Minotr F.D. properties file   788 does not exist.
 Leave Link 1002 at Sat May 20 10:26:54 2023, MaxMem=   536870912 cpu:       139.5
 (Enter /Local/ce_dana/g09/l1102.exe)
 Use density number 2.
 Symmetrizing basis deriv contribution to polar:
 IMax=3 JMax=2 DiffMx= 0.00D+00
 Leave Link 1102 at Sat May 20 10:26:54 2023, MaxMem=   536870912 cpu:         0.1
 (Enter /Local/ce_dana/g09/l1110.exe)
 Forming Gx(P) for generalized density number  2 NAtomX=     5.
 Integral derivatives from FoFJK, PRISM(SPDF).
 Do as many integral derivatives as possible in FoFJK.
 G2DrvN: MDV=     536870768.
 G2DrvN: will do     6 centers at a time, making    1 passes.
 Calling FoFCou, ICntrl=  3107 FMM=F I1Cent=   0 AccDes= 1.00D-12.
 FoFJK:  IHMeth= 1 ICntrl=    3107 DoSepK=F KAlg= 0 I1Cent=   0 FoldK=F
 IRaf=         0 NMat=   1 IRICut=       1 DoRegI=T DoRafI=F ISym2E= 0.
 FoFCou: FMM=F IPFlag=           0 FMFlag=      100000 FMFlg1=           0
         NFxFlg=           0 DoJE=F BraDBF=F KetDBF=F FulRan=T
         wScrn=  0.000000 ICntrl=    3107 IOpCl=  0 I1Cent=           0 NGrid=           0
         NMat0=    1 NMatS0=      1 NMatT0=    0 NMatD0=    1 NMtDS0=    0 NMtDT0=    0
 Symmetry not used in FoFCou.
 End of G2Drv F.D. properties file   721 does not exist.
 End of G2Drv F.D. properties file   722 does not exist.
 End of G2Drv F.D. properties file   788 does not exist.
 Leave Link 1110 at Sat May 20 10:27:10 2023, MaxMem=   536870912 cpu:       154.1
 (Enter /Local/ce_dana/g09/l1112.exe)
 MP22nd: MDV=     536870912
 DoSCS=T DFT=T ScalE2(SS,OS)=  0.270000  0.270000
 Using stored XC quadrature information.
 This link is doing NAtomX=     5 total of    18 degrees of freedom.
 Using ON3 I/O method in MakUI.
 Frozen-core window:  NFC=   3 NFV=   0.
 Using Ix for Sx.
 Use MO integrals over full window.
 Using OV2 memory method for fx*t*t/D, MaxI=    12 DoOO2=F NP=  10.
 Would need an additional     7359674 words for in-memory AO integral storage.
 DD1Dir will call FoFJK   1 times, MxPair=       222
 NAB=    78 NAA=    66 NBB=     0 NumPrc= 10.
 FoFJK:  IHMeth= 1 ICntrl=     200 DoSepK=F KAlg= 0 I1Cent=   0 FoldK=F
 IRaf= 990000000 NMat= 222 IRICut=     360 DoRegI=T DoRafI=T ISym2E= 2.
 FoFCou: FMM=F IPFlag=           0 FMFlag=           0 FMFlg1=           0
         NFxFlg=           0 DoJE=F BraDBF=F KetDBF=F FulRan=T
         wScrn=  0.000000 ICntrl=     200 IOpCl=  0 I1Cent=           0 NGrid=           0
         NMat0=  222 NMatS0=      0 NMatT0=   78 NMatD0=  222 NMtDS0=    0 NMtDT0=    0
 Integrals replicated using symmetry in FoFCou.
 Symmetry is being used.
 R6Disp: Adding Grimme-D3(BJ) dispersion energy 1st derivatives to the gradient.
 Discarding MO integrals.
 Leave Link 1112 at Sat May 20 10:29:59 2023, MaxMem=   536870912 cpu:       650.2
 (Enter /Local/ce_dana/g09/l601.exe)
 Copying SCF densities to generalized density rwf, IOpCl= 0 IROHF=0.

 **********************************************************************

            Population analysis using the SCF density.

 **********************************************************************

 Orbital symmetries:
       Occupied  (A) (A) (A) (A) (A) (A) (A) (A) (A) (A) (A) (A)
       Virtual   (A) (A) (A) (A) (A) (A) (A) (A) (A) (A) (A) (A)
                 (A) (A) (A) (A) (A) (A) (A) (A) (A) (A) (A) (A)
                 (A) (A) (A) (A) (A) (A) (A) (A) (A) (A) (A) (A)
                 (A) (A) (A) (A) (A) (A) (A) (A) (A) (A) (A) (A)
                 (A) (A) (A) (A) (A) (A) (A) (A) (A) (A) (A) (A)
                 (A) (A) (A) (A) (A) (A) (A) (A) (A) (A) (A) (A)
                 (A) (A) (A) (A) (A) (A) (A) (A) (A) (A) (A) (A)
                 (A) (A) (A) (A) (A) (A) (A) (A) (A) (A) (A) (A)
                 (A) (A) (A) (A) (A) (A) (A) (A) (A) (A) (A) (A)
                 (A) (A) (A) (A) (A) (A) (A) (A) (A) (A) (A) (A)
                 (A) (A) (A) (A) (A) (A) (A) (A) (A) (A) (A) (A)
                 (A) (A) (A) (A) (A) (A) (A) (A) (A) (A) (A) (A)
                 (A) (A) (A) (A) (A) (A) (A) (A) (A) (A) (A) (A)
                 (A) (A) (A) (A) (A) (A) (A) (A) (A) (A) (A) (A)
                 (A) (A) (A) (A)
 The electronic state is 1-A.
 Alpha  occ. eigenvalues --  -19.76126 -14.99837 -14.91417  -1.31543  -1.08576
 Alpha  occ. eigenvalues --   -0.79326  -0.66794  -0.60776  -0.54515  -0.49461
 Alpha  occ. eigenvalues --   -0.36357  -0.32505
 Alpha virt. eigenvalues --    0.00032   0.00732   0.02522   0.05985   0.08258
 Alpha virt. eigenvalues --    0.09729   0.10207   0.11771   0.12190   0.13277
 Alpha virt. eigenvalues --    0.14454   0.16366   0.18759   0.20121   0.22710
 Alpha virt. eigenvalues --    0.22851   0.25116   0.26520   0.28858   0.31358
 Alpha virt. eigenvalues --    0.32011   0.34519   0.36507   0.39875   0.43117
 Alpha virt. eigenvalues --    0.44977   0.45723   0.45758   0.47508   0.51379
 Alpha virt. eigenvalues --    0.51638   0.54395   0.58623   0.58722   0.63785
 Alpha virt. eigenvalues --    0.68193   0.70865   0.71165   0.72609   0.73819
 Alpha virt. eigenvalues --    0.75412   0.77595   0.79845   0.83481   0.88775
 Alpha virt. eigenvalues --    0.89180   0.91887   0.92789   0.93178   0.96385
 Alpha virt. eigenvalues --    0.98260   0.98805   1.00673   1.04780   1.05964
 Alpha virt. eigenvalues --    1.07390   1.11370   1.13901   1.14401   1.20904
 Alpha virt. eigenvalues --    1.21344   1.21609   1.25540   1.36224   1.39883
 Alpha virt. eigenvalues --    1.42280   1.43023   1.44017   1.46045   1.51586
 Alpha virt. eigenvalues --    1.60382   1.61892   1.62123   1.66118   1.78463
 Alpha virt. eigenvalues --    1.79870   1.83616   1.85537   1.93286   1.95772
 Alpha virt. eigenvalues --    1.98656   2.03451   2.04616   2.07596   2.08432
 Alpha virt. eigenvalues --    2.14704   2.16192   2.18949   2.21860   2.27059
 Alpha virt. eigenvalues --    2.27393   2.33526   2.35194   2.38360   2.41452
 Alpha virt. eigenvalues --    2.47984   2.52134   2.54491   2.63123   2.69123
 Alpha virt. eigenvalues --    2.71905   2.76579   2.87190   2.91926   3.03775
 Alpha virt. eigenvalues --    3.25419   3.45989   3.49042   3.62768   3.73431
 Alpha virt. eigenvalues --    3.74006   3.92652   3.98717   4.02603   4.08842
 Alpha virt. eigenvalues --    4.09765   4.11172   4.15836   4.21399   4.29533
 Alpha virt. eigenvalues --    4.33659   4.36363   4.37681   4.38977   4.51711
 Alpha virt. eigenvalues --    4.52383   4.58043   4.71109   4.72914   4.74677
 Alpha virt. eigenvalues --    4.77227   4.78881   4.84816   4.93369   4.93695
 Alpha virt. eigenvalues --    4.96875   5.05631   5.09816   5.14239   5.14635
 Alpha virt. eigenvalues --    5.27171   5.33340   5.40452   5.41186   5.49141
 Alpha virt. eigenvalues --    5.75764   5.78598   5.80620   5.85103   5.86663
 Alpha virt. eigenvalues --    6.02794   6.06930   6.22596   6.31473   6.33956
 Alpha virt. eigenvalues --    6.58502   6.60506   6.70027   6.88874   6.91720
 Alpha virt. eigenvalues --    7.01077   7.02134   7.04926   7.21629   7.23377
 Alpha virt. eigenvalues --    7.36929   7.45918   7.59294   7.84741  14.66755
 Alpha virt. eigenvalues --   14.99394  17.07418
          Condensed to atoms (all electrons):
               1          2          3          4          5
     1  O    8.445528  -0.028725  -0.006994   0.001345   0.016310
     2  N   -0.028725   6.299945  -0.046081   0.356291   0.451506
     3  N   -0.006994  -0.046081   7.041052   0.010364  -0.112530
     4  H    0.001345   0.356291   0.010364   0.508459  -0.043994
     5  H    0.016310   0.451506  -0.112530  -0.043994   0.510030
 Mulliken charges:
               1
     1  O   -0.427464
     2  N   -0.032936
     3  N    0.114188
     4  H    0.167534
     5  H    0.178678
 Sum of Mulliken charges =  -0.00000
 Mulliken charges with hydrogens summed into heavy atoms:
               1
     1  O   -0.427464
     2  N    0.313276
     3  N    0.114188
 APT charges:
               1
     1  O   -0.516619
     2  N   -0.494453
     3  N    0.587933
     4  H    0.183280
     5  H    0.239859
 Sum of APT charges =  -0.00000
 APT charges with hydrogens summed into heavy atoms:
               1
     1  O   -0.516619
     2  N   -0.071314
     3  N    0.587933
 Electronic spatial extent (au):  <R**2>=            129.2896
 Charge=             -0.0000 electrons
 Dipole moment (field-independent basis, Debye):
    X=              3.7472    Y=              0.6963    Z=              0.0000  Tot=              3.8113
 Quadrupole moment (field-independent basis, Debye-Ang):
   XX=            -15.6439   YY=            -16.8140   ZZ=            -17.9283
   XY=              0.4756   XZ=              0.0000   YZ=              0.0000
 Traceless Quadrupole moment (field-independent basis, Debye-Ang):
   XX=              1.1515   YY=             -0.0186   ZZ=             -1.1329
   XY=              0.4756   XZ=              0.0000   YZ=              0.0000
 Octapole moment (field-independent basis, Debye-Ang**2):
  XXX=             10.8867  YYY=              4.6619  ZZZ=              0.0000  XYY=              2.8404
  XXY=             -1.2149  XXZ=              0.0000  XZZ=             -1.4121  YZZ=              0.0691
  YYZ=              0.0000  XYZ=              0.0000
 Hexadecapole moment (field-independent basis, Debye-Ang**3):
 XXXX=            -92.9189 YYYY=            -32.2305 ZZZZ=            -16.6010 XXXY=             -4.1875
 XXXZ=              0.0000 YYYX=              2.3455 YYYZ=              0.0000 ZZZX=              0.0000
 ZZZY=              0.0000 XXYY=            -19.8916 XXZZ=            -21.9213 YYZZ=             -8.3863
 XXYZ=              0.0000 YYXZ=              0.0000 ZZXY=             -0.2658
 N-N= 7.223025734921D+01 E-N=-5.806873684079D+02  KE= 1.847501100349D+02
  Exact polarizability:  36.492   0.091  24.065  -0.000   0.000  17.782
 Approx polarizability:  41.454  -1.598  25.318  -0.000  -0.000  19.538
 No NMR shielding tensors so no spin-rotation constants.
 Leave Link  601 at Sat May 20 10:29:59 2023, MaxMem=   536870912 cpu:         1.5
 (Enter /Local/ce_dana/g09/l701.exe)
 Compute integral second derivatives.
 ... and contract with generalized density number  2.
 R6Disp: Adding Grimme-D3(BJ) dispersion energy 2nd derivatives to the Hessian.
 Leave Link  701 at Sat May 20 10:30:00 2023, MaxMem=   536870912 cpu:         5.4
 (Enter /Local/ce_dana/g09/l702.exe)
 L702 exits ... SP integral derivatives will be done elsewhere.
 Leave Link  702 at Sat May 20 10:30:00 2023, MaxMem=   536870912 cpu:         0.1
 (Enter /Local/ce_dana/g09/l703.exe)
 Compute integral second derivatives, UseDBF=F ICtDFT=           0.
 Integral derivatives from FoFJK, PRISM(SPDF).
 Calling FoFJK, ICntrl=  10100127 FMM=F ISym2X=0 I1Cent= 0 IOpClX= 0 NMat=1 NMatS=1 NMatT=0.
 FoFJK:  IHMeth= 1 ICntrl=10100127 DoSepK=F KAlg= 0 I1Cent=   0 FoldK=F
 IRaf=         0 NMat=   1 IRICut=       1 DoRegI=T DoRafI=F ISym2E= 0.
 FoFCou: FMM=F IPFlag=           0 FMFlag=      100000 FMFlg1=         800
         NFxFlg=           0 DoJE=F BraDBF=F KetDBF=F FulRan=T
         wScrn=  0.000000 ICntrl=10100127 IOpCl=  0 I1Cent=           0 NGrid=           0
         NMat0=    1 NMatS0=      1 NMatT0=    0 NMatD0=    1 NMtDS0=    0 NMtDT0=    0
 Symmetry not used in FoFCou.
 Leave Link  703 at Sat May 20 10:30:48 2023, MaxMem=   536870912 cpu:       476.5
 (Enter /Local/ce_dana/g09/l716.exe)
 Dipole        = 1.43338891D+00 3.05983279D-01 1.39964549D-06
 Polarizability= 3.64922257D+01 9.14833700D-02 2.40650050D+01
                -1.53430262D-06 2.77706572D-07 1.77823076D+01
 ***** Axes restored to original set *****
 -------------------------------------------------------------------
 Center     Atomic                   Forces (Hartrees/Bohr)
 Number     Number              X              Y              Z
 -------------------------------------------------------------------
      1        8           0.000000048   -0.000000667    0.000000201
      2        7           0.000000056    0.000000210   -0.000000003
      3        7           0.000000266    0.000000789   -0.000000261
      4        1          -0.000000246   -0.000000236    0.000000020
      5        1          -0.000000125   -0.000000096    0.000000043
 -------------------------------------------------------------------
 Cartesian Forces:  Max     0.000000789 RMS     0.000000310
 Force constants in Cartesian coordinates: 
                1             2             3             4             5 
      1  0.959577D-01
      2 -0.275986D-01  0.653347D+00
      3  0.571764D-02 -0.127466D+00  0.447229D-01
      4  0.162372D-01  0.777051D-01 -0.155938D-01  0.668014D+00
      5  0.101217D+00 -0.992986D-01  0.220869D-01  0.709928D-01  0.875670D+00
      6 -0.203168D-01  0.220338D-01  0.504355D-02 -0.127688D-01 -0.174170D+00
      7 -0.116762D+00 -0.556061D-01  0.109674D-01 -0.300630D+00  0.184690D-02
      8 -0.750652D-01 -0.557901D+00  0.106433D+00  0.125318D-01 -0.129470D+00
      9  0.148762D-01  0.106477D+00 -0.485616D-01 -0.316461D-02  0.231265D-01
     10  0.126561D-01 -0.638086D-03  0.185447D-03 -0.305026D+00 -0.162337D+00
     11 -0.414064D-02  0.288829D-03 -0.261399D-02 -0.158896D+00 -0.193726D+00
     12  0.889029D-03 -0.260610D-02 -0.121521D-01  0.312462D-01  0.370512D-01
     13 -0.808879D-02  0.613764D-02 -0.127665D-02 -0.785954D-01 -0.117195D-01
     14  0.558714D-02  0.356320D-02  0.155940D-02 -0.233380D-02 -0.453175D+00
     15 -0.116608D-02  0.156064D-02  0.109473D-01  0.281066D-03  0.919052D-01
                6             7             8             9            10 
      6  0.427728D-01
      7 -0.101809D-02  0.446258D+00
      8  0.231506D-01  0.491769D-01  0.678636D+00
      9 -0.190151D-01 -0.895756D-02 -0.128384D+00  0.647244D-01
     10  0.319374D-01 -0.409138D-01 -0.202998D-01  0.394377D-02  0.323720D+00
     11  0.370589D-01  0.101594D-01  0.212551D-01 -0.560589D-03  0.175361D+00
     12 -0.148239D-01 -0.217485D-02 -0.629387D-03  0.184717D-01 -0.345144D-01
     13  0.216639D-02  0.120477D-01  0.336563D-01 -0.669785D-02  0.956323D-02
     14  0.919266D-01 -0.557707D-02 -0.125197D-01 -0.658819D-03  0.791385D-02
     15 -0.139774D-01  0.118309D-02 -0.570054D-03 -0.156195D-01 -0.155215D-02
               11            12            13            14            15 
     11  0.173376D+00
     12 -0.326565D-01  0.153154D-01
     13 -0.224842D-01  0.455404D-02  0.650732D-01
     14 -0.119455D-02 -0.115923D-02 -0.559013D-02  0.463326D+00
     15 -0.122786D-02 -0.681122D-02  0.125407D-02 -0.916679D-01  0.254608D-01
 FormGI is forming the generalized inverse of G from B-inverse, IUseBI=4.
 Force constants in internal coordinates: 
                1             2             3             4             5 
      1  0.676438D+00
      2  0.119066D+00  0.380459D+00
      3  0.182280D-03  0.155883D-01  0.444427D+00
      4 -0.334690D-02  0.423733D-02 -0.618673D-02  0.481821D+00
      5 -0.470107D-02 -0.188010D-02  0.663225D-02 -0.613338D-02  0.830130D-01
      6  0.808184D-02  0.144248D-01 -0.805571D-02  0.271214D-02 -0.509266D-01
      7 -0.338077D-02 -0.125447D-01  0.142345D-02  0.342123D-02 -0.320864D-01
      8  0.109598D+00  0.721722D-01 -0.185302D-01  0.131728D-01 -0.433905D-01
      9  0.000000D+00  0.000000D+00  0.000000D+00  0.000000D+00  0.000000D+00
     10  0.000000D+00  0.000000D+00  0.000000D+00  0.000000D+00  0.000000D+00
     11  0.000000D+00  0.000000D+00  0.000000D+00  0.000000D+00  0.000000D+00
                6             7             8             9            10 
      6  0.886273D-01
      7 -0.377007D-01  0.697871D-01
      8  0.396430D-01  0.374755D-02  0.523089D+00
      9  0.000000D+00  0.000000D+00  0.000000D+00  0.219036D-01
     10  0.000000D+00  0.000000D+00  0.000000D+00  0.210095D-01  0.205696D-01
     11  0.000000D+00  0.000000D+00  0.000000D+00 -0.957304D-03 -0.471040D-03
               11 
     11  0.520626D-03
 Leave Link  716 at Sat May 20 10:30:48 2023, MaxMem=   536870912 cpu:         0.1
 (Enter /Local/ce_dana/g09/l103.exe)

 GradGradGradGradGradGradGradGradGradGradGradGradGradGradGradGradGradGrad
 Berny optimization.
 Red2BG is reusing G-inverse.
 Internal  Forces:  Max     0.000000768 RMS     0.000000258
 Search for a local minimum.
 Step number   1 out of a maximum of   21 on scan point     1 out of    37
 All quantities printed in internal units (Hartrees-Bohrs-Radians)
 RMS Force = .26916D-06 SwitMx=.10000D-02 MixMth= 2
 Mixed Optimization -- En-DIIS/RFO-DIIS
 Second derivative matrix not updated -- analytic derivatives used.
 The second derivative matrix:
                          R1        R2        R3        R4        A1
           R1           0.67644
           R2           0.11907   0.38046
           R3           0.00018   0.01559   0.44443
           R4          -0.00335   0.00424  -0.00619   0.48182
           A1          -0.00470  -0.00188   0.00663  -0.00613   0.08301
           A2           0.00808   0.01442  -0.00806   0.00271  -0.05093
           A3          -0.00338  -0.01254   0.00142   0.00342  -0.03209
           A4           0.10960   0.07217  -0.01853   0.01317  -0.04339
           D1           0.00000  -0.00000   0.00000  -0.00000  -0.00000
           D2          -0.00000  -0.00000   0.00000   0.00000  -0.00000
           D3          -0.00000   0.00000   0.00000   0.00000   0.00000
                          A2        A3        A4        D1        D2
           A2           0.08863
           A3          -0.03770   0.06979
           A4           0.03964   0.00375   0.52309
           D1           0.00000  -0.00000   0.00000   0.02190
           D2          -0.00000   0.00000  -0.00000   0.02101   0.02057
           D3           0.00000  -0.00000   0.00000  -0.00096  -0.00047
                          D3
           D3           0.00052
 ITU=  0
     Eigenvalues ---    0.00939   0.10245   0.12881   0.32972   0.43951
     Eigenvalues ---    0.46636   0.49678   0.784041000.000001000.00000
     Eigenvalues --- 1000.00000
 RFO step:  Lambda= 0.00000000D+00 EMin= 9.39173958D-03
 Linear search not attempted -- first point.
 Iteration  1 RMS(Cart)=  0.00000086 RMS(Int)=  0.00000000
 Iteration  1 RMS(Cart)=  0.00000000 RMS(Int)=  0.00000000
 ITry= 1 IFail=0 DXMaxC= 1.53D-06 DCOld= 1.00D+10 DXMaxT= 5.00D-02 DXLimC= 3.00D+00 Rises=F
 Variable       Old X    -DE/DX   Delta X   Delta X   Delta X     New X
                                 (Linear)    (Quad)   (Total)
    R1        2.30461   0.00000   0.00000   0.00000   0.00000   2.30461
    R2        2.50758   0.00000   0.00000   0.00000   0.00000   2.50758
    R3        1.91524   0.00000   0.00000   0.00000   0.00000   1.91524
    R4        1.89667  -0.00000   0.00000  -0.00000  -0.00000   1.89667
    A1        2.08547   0.00000   0.00000   0.00000   0.00000   2.08547
    A2        2.04042  -0.00000   0.00000   0.00000   0.00000   2.04042
    A3        2.15730  -0.00000   0.00000  -0.00000  -0.00000   2.15730
    A4        1.99242  -0.00000   0.00000  -0.00000  -0.00000   1.99242
    D1        0.00000  -0.00000   0.00000   0.00000   0.00000   0.00000
    D2        3.14159  -0.00000   0.00000  -0.00000  -0.00000   3.14159
    D3        3.14159   0.00000   0.00000  -0.00000  -0.00000   3.14159
         Item               Value     Threshold  Converged?
 Maximum Force            0.000001     0.000450     YES
 RMS     Force            0.000000     0.000300     YES
 Maximum Displacement     0.000002     0.001800     YES
 RMS     Displacement     0.000001     0.001200     YES
 Predicted change in Energy=-6.722771D-13
 Optimization completed.
    -- Stationary point found.
                           ----------------------------
                           !   Optimized Parameters   !
                           ! (Angstroms and Degrees)  !
 --------------------------                            --------------------------
 ! Name  Definition              Value          Derivative Info.                !
 --------------------------------------------------------------------------------
 ! R1    R(1,3)                  1.2195         -DE/DX =    0.0                 !
 ! R2    R(2,3)                  1.327          -DE/DX =    0.0                 !
 ! R3    R(2,4)                  1.0135         -DE/DX =    0.0                 !
 ! R4    R(2,5)                  1.0037         -DE/DX =    0.0                 !
 ! A1    A(3,2,4)              119.4886         -DE/DX =    0.0                 !
 ! A2    A(3,2,5)              116.9074         -DE/DX =    0.0                 !
 ! A3    A(4,2,5)              123.6039         -DE/DX =    0.0                 !
 ! A4    A(1,3,2)              114.1572         -DE/DX =    0.0                 !
 ! D1    D(4,2,3,1)              0.0002         -DE/DX =    0.0                 !
 ! D2    D(5,2,3,1)            180.0            -DE/DX =    0.0                 !
 ! D3    D(3,2,4,5)            179.9998         -DE/DX =    0.0                 !
 --------------------------------------------------------------------------------
 Lowest energy point so far.  Saving SCF results.
 Iteration  1 RMS(Cart)=  0.02799310 RMS(Int)=  0.03107717
 Iteration  2 RMS(Cart)=  0.00142379 RMS(Int)=  0.03104039
 Iteration  3 RMS(Cart)=  0.00001509 RMS(Int)=  0.03104037
 Iteration  4 RMS(Cart)=  0.00000123 RMS(Int)=  0.03104037
 Iteration  5 RMS(Cart)=  0.00000002 RMS(Int)=  0.03104037
 Iteration  1 RMS(Cart)=  0.00975286 RMS(Int)=  0.01078573
 Iteration  2 RMS(Cart)=  0.00339649 RMS(Int)=  0.01194409
 Iteration  3 RMS(Cart)=  0.00118012 RMS(Int)=  0.01281225
 Iteration  4 RMS(Cart)=  0.00040970 RMS(Int)=  0.01315683
 Iteration  5 RMS(Cart)=  0.00014220 RMS(Int)=  0.01328108
 Iteration  6 RMS(Cart)=  0.00004935 RMS(Int)=  0.01332473
 Iteration  7 RMS(Cart)=  0.00001712 RMS(Int)=  0.01333995
 Iteration  8 RMS(Cart)=  0.00000594 RMS(Int)=  0.01334523
 Iteration  9 RMS(Cart)=  0.00000206 RMS(Int)=  0.01334707
 Iteration 10 RMS(Cart)=  0.00000072 RMS(Int)=  0.01334771
 GradGradGradGradGradGradGradGradGradGradGradGradGradGradGradGradGradGrad

 Leave Link  103 at Sat May 20 10:30:48 2023, MaxMem=   536870912 cpu:         0.1
 (Enter /Local/ce_dana/g09/l202.exe)
                          Input orientation:                          
 ---------------------------------------------------------------------
 Center     Atomic      Atomic             Coordinates (Angstroms)
 Number     Number       Type             X           Y           Z
 ---------------------------------------------------------------------
      1          8           0        0.649596   -1.842484    0.398054
      2          7           0       -0.504297   -0.083151    0.016010
      3          7           0        0.685482   -0.668565    0.068794
      4          1           0       -1.341724   -0.649185    0.090731
      5          1           0       -0.519355    0.903043   -0.169917
 ---------------------------------------------------------------------
                    Distance matrix (angstroms):
                    1          2          3          4          5
     1  O    0.000000
     2  N    2.138383   0.000000
     3  N    1.219749   1.327053   0.000000
     4  H    2.341744   1.013539   2.027418   0.000000
     5  H    3.037591   1.003680   1.994635   1.775849   0.000000
 Stoichiometry    H2N2O
 Framework group  C1[X(H2N2O)]
 Deg. of freedom     9
 Full point group                 C1      NOp   1
 RotChk:  IX=2 Diff= 8.66D-02
 Largest Abelian subgroup         C1      NOp   1
 Largest concise Abelian subgroup C1      NOp   1
                         Standard orientation:                         
 ---------------------------------------------------------------------
 Center     Atomic      Atomic             Coordinates (Angstroms)
 Number     Number       Type             X           Y           Z
 ---------------------------------------------------------------------
      1          8           0       -1.122725    0.219095    0.014910
      2          7           0        1.014437    0.146951    0.011208
      3          7           0       -0.141343   -0.504149   -0.025006
      4          1           0        1.021142    1.155754   -0.086434
      5          1           0        1.849002   -0.408131    0.063739
 ---------------------------------------------------------------------
 Rotational constants (GHZ):     82.1694445     12.8913966     11.1545328
 Leave Link  202 at Sat May 20 10:30:48 2023, MaxMem=   536870912 cpu:         0.0
 (Enter /Local/ce_dana/g09/l301.exe)
 Standard basis: Aug-CC-pVTZ (5D, 7F)
 Ernie: Thresh=  0.10000D-02 Tol=  0.10000D-05 Strict=F.
 Ernie:  9 primitive shells out of 112 were deleted.
 There are   215 symmetry adapted cartesian basis functions of A   symmetry.
 There are   184 symmetry adapted basis functions of A   symmetry.
   184 basis functions,   270 primitive gaussians,   215 cartesian basis functions
    12 alpha electrons       12 beta electrons
       nuclear repulsion energy        72.2215624421 Hartrees.
 IExCor=  419 DFT=T Ex+Corr=B2PLYPD3 ExCW=0 ScaHFX=  0.530000
 ScaDFX=  0.470000  0.470000  0.730000  0.730000 ScalE2=  0.270000  0.270000
 IRadAn=      5 IRanWt=     -1 IRanGd=            0 ICorTp=0 IEmpDi=141
 NAtoms=    5 NActive=    5 NUniq=    5 SFac= 1.00D+00 NAtFMM=   60 NAOKFM=F Big=F
 Integral buffers will be    131072 words long.
 Regular integral format.
 Two-electron integral symmetry is turned on.
 R6Disp:  Grimme-D3(BJ) Dispersion energy=       -0.0013770361 Hartrees.
 Nuclear repulsion after empirical dispersion term =       72.2201854060 Hartrees.
 Leave Link  301 at Sat May 20 10:30:48 2023, MaxMem=   536870912 cpu:         0.1
 (Enter /Local/ce_dana/g09/l302.exe)
 NPDir=0 NMtPBC=     1 NCelOv=     1 NCel=       1 NClECP=     1 NCelD=      1
         NCelK=      1 NCelE2=     1 NClLst=     1 CellRange=     0.0.
 One-electron integrals computed using PRISM.
 NBasis=   184 RedAO= T EigKep=  6.55D-05  NBF=   184
 NBsUse=   184 1.00D-06 EigRej= -1.00D+00 NBFU=   184
 Precomputing XC quadrature grid using
 IXCGrd= 4 IRadAn=           5 IRanWt=          -1 IRanGd=           0 AccXCQ= 0.00D+00.
 Generated NRdTot=       0 NPtTot=           0 NUsed=           0 NTot=          32
 NSgBfM=   215   215   215   215   215 MxSgAt=     5 MxSgA2=     5.
 Leave Link  302 at Sat May 20 10:30:48 2023, MaxMem=   536870912 cpu:         1.6
 (Enter /Local/ce_dana/g09/l303.exe)
 DipDrv:  MaxL=1.
 Leave Link  303 at Sat May 20 10:30:48 2023, MaxMem=   536870912 cpu:         0.2
 (Enter /Local/ce_dana/g09/l401.exe)
 Initial guess from the checkpoint file:  "check.chk"
 B after Tr=     0.000000   -0.000000    0.000000
         Rot=    1.000000    0.000046    0.000012    0.000290 Ang=   0.03 deg.
 Guess basis will be translated and rotated to current coordinates.
 JPrj=2 DoOrth=T DoCkMO=T.
 Generating alternative initial guess.
 ExpMin= 2.53D-02 ExpMax= 1.53D+04 ExpMxC= 5.22D+02 IAcc=3 IRadAn=         5 AccDes= 0.00D+00
 Harris functional with IExCor=  419 and IRadAn=       5 diagonalized for initial guess.
 HarFok:  IExCor=  419 AccDes= 0.00D+00 IRadAn=         5 IDoV= 1 UseB2=F ITyADJ=14
 ICtDFT=  3500011 ScaDFX=  1.000000  1.000000  1.000000  1.000000
 FoFCou: FMM=F IPFlag=           0 FMFlag=      100000 FMFlg1=           0
         NFxFlg=           0 DoJE=T BraDBF=F KetDBF=T FulRan=T
         wScrn=  0.000000 ICntrl=     500 IOpCl=  0 I1Cent=   200000004 NGrid=           0
         NMat0=    1 NMatS0=      1 NMatT0=    0 NMatD0=    1 NMtDS0=    0 NMtDT0=    0
 Petite list used in FoFCou.
 Harris En= -185.931672271299    
 Leave Link  401 at Sat May 20 10:30:49 2023, MaxMem=   536870912 cpu:         5.4
 (Enter /Local/ce_dana/g09/l502.exe)
 Closed shell SCF:
 Using DIIS extrapolation, IDIIS=  1040.
 Integral symmetry usage will be decided dynamically.
 Keep R1 ints in memory in canonical form, NReq=150035761.
 IVT=      148311 IEndB=      148311 NGot=   536870912 MDV=   391873892
 LenX=   391873892 LenY=   391827226
 Requested convergence on RMS density matrix=1.00D-08 within  64 cycles.
 Requested convergence on MAX density matrix=1.00D-06.
 Requested convergence on             energy=1.00D-06.
 No special actions if energy rises.
 FoFCou: FMM=F IPFlag=           0 FMFlag=           0 FMFlg1=           0
         NFxFlg=           0 DoJE=F BraDBF=F KetDBF=F FulRan=T
         wScrn=  0.000000 ICntrl=     600 IOpCl=  0 I1Cent=           0 NGrid=           0
         NMat0=    1 NMatS0=  17020 NMatT0=    0 NMatD0=    1 NMtDS0=    0 NMtDT0=    0
 Symmetry not used in FoFCou.

 Cycle   1  Pass 1  IDiag  1:
 E= -185.580254117327    
 DIIS: error= 3.47D-03 at cycle   1 NSaved=   1.
 NSaved= 1 IEnMin= 1 EnMin= -185.580254117327     IErMin= 1 ErrMin= 3.47D-03
 ErrMax= 3.47D-03  0.00D+00 EMaxC= 1.00D-01 BMatC= 2.20D-03 BMatP= 2.20D-03
 IDIUse=3 WtCom= 9.65D-01 WtEn= 3.47D-02
 Coeff-Com:  0.100D+01
 Coeff-En:   0.100D+01
 Coeff:      0.100D+01
 Gap=     0.608 Goal=   None    Shift=    0.000
 GapD=    0.608 DampG=2.000 DampE=1.000 DampFc=2.0000 IDamp=-1.
 RMSDP=3.16D-04 MaxDP=1.14D-02              OVMax= 1.97D-02

 Cycle   2  Pass 1  IDiag  1:
 E= -185.582858530933     Delta-E=       -0.002604413606 Rises=F Damp=F
 DIIS: error= 5.70D-04 at cycle   2 NSaved=   2.
 NSaved= 2 IEnMin= 2 EnMin= -185.582858530933     IErMin= 2 ErrMin= 5.70D-04
 ErrMax= 5.70D-04  0.00D+00 EMaxC= 1.00D-01 BMatC= 6.25D-05 BMatP= 2.20D-03
 IDIUse=3 WtCom= 9.94D-01 WtEn= 5.70D-03
 Coeff-Com: -0.128D+00 0.113D+01
 Coeff-En:   0.000D+00 0.100D+01
 Coeff:     -0.127D+00 0.113D+01
 Gap=     0.326 Goal=   None    Shift=    0.000
 RMSDP=6.77D-05 MaxDP=1.96D-03 DE=-2.60D-03 OVMax= 7.18D-03

 Cycle   3  Pass 1  IDiag  1:
 E= -185.583009235402     Delta-E=       -0.000150704468 Rises=F Damp=F
 DIIS: error= 1.24D-04 at cycle   3 NSaved=   3.
 NSaved= 3 IEnMin= 3 EnMin= -185.583009235402     IErMin= 3 ErrMin= 1.24D-04
 ErrMax= 1.24D-04  0.00D+00 EMaxC= 1.00D-01 BMatC= 4.14D-06 BMatP= 6.25D-05
 IDIUse=3 WtCom= 9.99D-01 WtEn= 1.24D-03
 Coeff-Com: -0.761D-02-0.341D-01 0.104D+01
 Coeff-En:   0.000D+00 0.000D+00 0.100D+01
 Coeff:     -0.760D-02-0.341D-01 0.104D+01
 Gap=     0.325 Goal=   None    Shift=    0.000
 RMSDP=2.05D-05 MaxDP=5.19D-04 DE=-1.51D-04 OVMax= 3.38D-03

 Cycle   4  Pass 1  IDiag  1:
 E= -185.583023594812     Delta-E=       -0.000014359410 Rises=F Damp=F
 DIIS: error= 1.14D-04 at cycle   4 NSaved=   4.
 NSaved= 4 IEnMin= 4 EnMin= -185.583023594812     IErMin= 4 ErrMin= 1.14D-04
 ErrMax= 1.14D-04  0.00D+00 EMaxC= 1.00D-01 BMatC= 2.67D-06 BMatP= 4.14D-06
 IDIUse=3 WtCom= 9.99D-01 WtEn= 1.14D-03
 Coeff-Com:  0.786D-02-0.118D+00 0.476D+00 0.635D+00
 Coeff-En:   0.000D+00 0.000D+00 0.000D+00 0.100D+01
 Coeff:      0.785D-02-0.118D+00 0.475D+00 0.635D+00
 Gap=     0.325 Goal=   None    Shift=    0.000
 RMSDP=9.71D-06 MaxDP=2.06D-04 DE=-1.44D-05 OVMax= 1.50D-03

 Cycle   5  Pass 1  IDiag  1:
 E= -185.583028019011     Delta-E=       -0.000004424199 Rises=F Damp=F
 DIIS: error= 5.02D-05 at cycle   5 NSaved=   5.
 NSaved= 5 IEnMin= 5 EnMin= -185.583028019011     IErMin= 5 ErrMin= 5.02D-05
 ErrMax= 5.02D-05  0.00D+00 EMaxC= 1.00D-01 BMatC= 7.81D-07 BMatP= 2.67D-06
 IDIUse=1 WtCom= 1.00D+00 WtEn= 0.00D+00
 Coeff-Com:  0.570D-02-0.430D-01-0.105D+00 0.322D+00 0.820D+00
 Coeff:      0.570D-02-0.430D-01-0.105D+00 0.322D+00 0.820D+00
 Gap=     0.325 Goal=   None    Shift=    0.000
 RMSDP=8.75D-06 MaxDP=2.03D-04 DE=-4.42D-06 OVMax= 1.52D-03

 Cycle   6  Pass 1  IDiag  1:
 E= -185.583030462255     Delta-E=       -0.000002443244 Rises=F Damp=F
 DIIS: error= 2.18D-05 at cycle   6 NSaved=   6.
 NSaved= 6 IEnMin= 6 EnMin= -185.583030462255     IErMin= 6 ErrMin= 2.18D-05
 ErrMax= 2.18D-05  0.00D+00 EMaxC= 1.00D-01 BMatC= 1.66D-07 BMatP= 7.81D-07
 IDIUse=1 WtCom= 1.00D+00 WtEn= 0.00D+00
 Coeff-Com: -0.255D-02 0.486D-01-0.255D+00-0.194D+00 0.224D+00 0.118D+01
 Coeff:     -0.255D-02 0.486D-01-0.255D+00-0.194D+00 0.224D+00 0.118D+01
 Gap=     0.325 Goal=   None    Shift=    0.000
 RMSDP=8.08D-06 MaxDP=1.90D-04 DE=-2.44D-06 OVMax= 1.42D-03

 Cycle   7  Pass 1  IDiag  1:
 E= -185.583031345698     Delta-E=       -0.000000883444 Rises=F Damp=F
 DIIS: error= 8.23D-06 at cycle   7 NSaved=   7.
 NSaved= 7 IEnMin= 7 EnMin= -185.583031345698     IErMin= 7 ErrMin= 8.23D-06
 ErrMax= 8.23D-06  0.00D+00 EMaxC= 1.00D-01 BMatC= 1.24D-08 BMatP= 1.66D-07
 IDIUse=1 WtCom= 1.00D+00 WtEn= 0.00D+00
 Coeff-Com: -0.161D-02 0.232D-01-0.780D-01-0.928D-01-0.140D-01 0.370D+00
 Coeff-Com:  0.793D+00
 Coeff:     -0.161D-02 0.232D-01-0.780D-01-0.928D-01-0.140D-01 0.370D+00
 Coeff:      0.793D+00
 Gap=     0.325 Goal=   None    Shift=    0.000
 RMSDP=1.37D-06 MaxDP=3.04D-05 DE=-8.83D-07 OVMax= 2.36D-04

 Cycle   8  Pass 1  IDiag  1:
 E= -185.583031374802     Delta-E=       -0.000000029104 Rises=F Damp=F
 DIIS: error= 3.18D-06 at cycle   8 NSaved=   8.
 NSaved= 8 IEnMin= 8 EnMin= -185.583031374802     IErMin= 8 ErrMin= 3.18D-06
 ErrMax= 3.18D-06  0.00D+00 EMaxC= 1.00D-01 BMatC= 1.01D-09 BMatP= 1.24D-08
 IDIUse=1 WtCom= 1.00D+00 WtEn= 0.00D+00
 Coeff-Com: -0.164D-03 0.114D-02 0.467D-02 0.187D-02-0.221D-01-0.281D-01
 Coeff-Com:  0.189D+00 0.854D+00
 Coeff:     -0.164D-03 0.114D-02 0.467D-02 0.187D-02-0.221D-01-0.281D-01
 Coeff:      0.189D+00 0.854D+00
 Gap=     0.325 Goal=   None    Shift=    0.000
 RMSDP=2.04D-07 MaxDP=5.97D-06 DE=-2.91D-08 OVMax= 2.34D-05

 Cycle   9  Pass 1  IDiag  1:
 E= -185.583031375970     Delta-E=       -0.000000001168 Rises=F Damp=F
 DIIS: error= 1.28D-06 at cycle   9 NSaved=   9.
 NSaved= 9 IEnMin= 9 EnMin= -185.583031375970     IErMin= 9 ErrMin= 1.28D-06
 ErrMax= 1.28D-06  0.00D+00 EMaxC= 1.00D-01 BMatC= 3.16D-10 BMatP= 1.01D-09
 IDIUse=1 WtCom= 1.00D+00 WtEn= 0.00D+00
 Coeff-Com:  0.840D-04-0.175D-02 0.943D-02 0.110D-01-0.956D-02-0.479D-01
 Coeff-Com:  0.400D-02 0.409D+00 0.626D+00
 Coeff:      0.840D-04-0.175D-02 0.943D-02 0.110D-01-0.956D-02-0.479D-01
 Coeff:      0.400D-02 0.409D+00 0.626D+00
 Gap=     0.325 Goal=   None    Shift=    0.000
 RMSDP=6.90D-08 MaxDP=1.95D-06 DE=-1.17D-09 OVMax= 6.16D-06

 Cycle  10  Pass 1  IDiag  1:
 E= -185.583031376257     Delta-E=       -0.000000000287 Rises=F Damp=F
 DIIS: error= 2.14D-07 at cycle  10 NSaved=  10.
 NSaved=10 IEnMin=10 EnMin= -185.583031376257     IErMin=10 ErrMin= 2.14D-07
 ErrMax= 2.14D-07  0.00D+00 EMaxC= 1.00D-01 BMatC= 1.34D-11 BMatP= 3.16D-10
 IDIUse=1 WtCom= 1.00D+00 WtEn= 0.00D+00
 Coeff-Com:  0.265D-04-0.355D-03 0.600D-03 0.180D-02-0.496D-03-0.354D-02
 Coeff-Com: -0.223D-01-0.243D-01 0.858D-01 0.963D+00
 Coeff:      0.265D-04-0.355D-03 0.600D-03 0.180D-02-0.496D-03-0.354D-02
 Coeff:     -0.223D-01-0.243D-01 0.858D-01 0.963D+00
 Gap=     0.325 Goal=   None    Shift=    0.000
 RMSDP=3.38D-08 MaxDP=6.02D-07 DE=-2.87D-10 OVMax= 4.70D-06

 Cycle  11  Pass 1  IDiag  1:
 E= -185.583031376284     Delta-E=       -0.000000000027 Rises=F Damp=F
 DIIS: error= 8.11D-08 at cycle  11 NSaved=  11.
 NSaved=11 IEnMin=11 EnMin= -185.583031376284     IErMin=11 ErrMin= 8.11D-08
 ErrMax= 8.11D-08  0.00D+00 EMaxC= 1.00D-01 BMatC= 1.38D-12 BMatP= 1.34D-11
 IDIUse=1 WtCom= 1.00D+00 WtEn= 0.00D+00
 Coeff-Com: -0.969D-05 0.192D-03-0.997D-03-0.852D-03 0.483D-03 0.572D-02
 Coeff-Com: -0.601D-03-0.365D-01-0.700D-01-0.106D-01 0.111D+01
 Coeff:     -0.969D-05 0.192D-03-0.997D-03-0.852D-03 0.483D-03 0.572D-02
 Coeff:     -0.601D-03-0.365D-01-0.700D-01-0.106D-01 0.111D+01
 Gap=     0.325 Goal=   None    Shift=    0.000
 RMSDP=8.55D-09 MaxDP=1.71D-07 DE=-2.66D-11 OVMax= 1.04D-06

 SCF Done:  E(RB2PLYPD3) =  -185.583031376     A.U. after   11 cycles
            NFock= 11  Conv=0.85D-08     -V/T= 2.0045
 KE= 1.847502884994D+02 PE=-5.806668595040D+02 EE= 1.381133542223D+02
 Leave Link  502 at Sat May 20 10:30:59 2023, MaxMem=   536870912 cpu:        67.6
 (Enter /Local/ce_dana/g09/l508.exe)
 QCSCF skips out because SCF is already converged.
 Leave Link  508 at Sat May 20 10:30:59 2023, MaxMem=   536870912 cpu:         0.0
 (Enter /Local/ce_dana/g09/l801.exe)
 DoSCS=T DFT=T ScalE2(SS,OS)=  0.270000  0.270000
 ExpMin= 2.53D-02 ExpMax= 1.53D+04 ExpMxC= 5.22D+02 IAcc=3 IRadAn=         5 AccDes= 0.00D+00
 HarFok:  IExCor=  205 AccDes= 0.00D+00 IRadAn=         5 IDoV=-2 UseB2=F ITyADJ=14
 ICtDFT= 12500011 ScaDFX=  1.000000  1.000000  1.000000  1.000000
 DSYEVD-2 returned Info=          93 IAlg= 4 N=    46 NDim=    46 NE2=    11668742 trying  DSYEV.
 Largest valence mixing into a core orbital is  1.23D-04
 Largest core mixing into a valence orbital is  1.54D-05
 Range of M.O.s used for correlation:     4   184
 NBasis=   184 NAE=    12 NBE=    12 NFC=     3 NFV=     0
 NROrb=    181 NOA=     9 NOB=     9 NVA=   172 NVB=   172

 **** Warning!!: The largest alpha MO coefficient is  0.22513684D+02

 Leave Link  801 at Sat May 20 10:31:00 2023, MaxMem=   536870912 cpu:         0.8
 (Enter /Local/ce_dana/g09/l906.exe)
 DoSCS=T DFT=T ScalE2(SS,OS)=  0.270000  0.270000
 Frozen-core derivative calculation, NFC=   3 NFV=   0.
 FulOut=F Deriv=T AODrv=T NAtomX=     5
   MMem=         104  MDisk=           9 MDiskD=           9
  W3Min=      474720 MinDsk=     1000300 NBas6D=         215
 NBas2D=       23739    NTT=       23220    LW2=     3500000
    MDV=   536481568 MDiskM=       12429 NBas2p=       23738
 Fully direct method using O(ONN) memory.
 IMap=   1   2   3   4   5   6   7   8   9  10  11  12
 JobTyp=1 Pass  1:  I=   4 to  11 NPSUse= 10 ParTrn=T ParDer=T DoDerP=T.
 JobTyp=1 Pass  2:  I=  12 to  12 NPSUse= 10 ParTrn=T ParDer=T DoDerP=T.
 Spin components of T(2) and E(2):
     alpha-alpha T2 =       0.4007660895D-01 E2=     -0.2858514463D-01
     alpha-beta  T2 =       0.2220232208D+00 E2=     -0.1630323290D+00
     beta-beta   T2 =       0.4007660895D-01 E2=     -0.2858514463D-01
 The integrals were generated   2 times.
 E2(B2PLYPD3) =    -0.2202026182D+00 E(B2PLYPD3) =    -0.18580323399453D+03
 Leave Link  906 at Sat May 20 10:31:24 2023, MaxMem=   536870912 cpu:       231.5
 (Enter /Local/ce_dana/g09/l1002.exe)
 Minotr:  Closed shell wavefunction.
          Computing MP2/KS-MP2 derivatives.
          Using Z-Vector for PSCF gradient.
          Skipping F1 and S1 gradient terms here.
          IDoAtm=11111
          Frozen-core window.
          Direct CPHF calculation.
          Differentiating once with respect to electric field.
                with respect to dipole field.
          Differentiating once with respect to nuclear coordinates.
          Requested convergence is 1.0D-10 RMS, and 1.0D-09 maximum.
          NewPWx=F KeepS1=T KeepF1=T KeepIn=T MapXYZ=F SortEE=F KeepMc=T.
          MDV=     536870677 using IRadAn=       5.
 Using stored XC quadrature information.
 Keep R1 ints in memory in canonical form, NReq=149888899.
 FoFCou: FMM=F IPFlag=           0 FMFlag=           0 FMFlg1=           0
         NFxFlg=           0 DoJE=F BraDBF=F KetDBF=F FulRan=T
         wScrn=  0.000000 ICntrl=     600 IOpCl=  0 I1Cent=           0 NGrid=           0
         NMat0=    1 NMatS0=  17020 NMatT0=    0 NMatD0=    1 NMtDS0=    0 NMtDT0=    0
 Symmetry not used in FoFCou.
          Solving linear equations separately, MaxMat=       0.
          There are     1 degrees of freedom in the 1st order CPHF.  IDoFFX=0 NUNeed=     1.
 LinEq1:  Iter=  0 NonCon=     1 RMS=2.87D-03 Max=7.72D-02 NDo=     1
 AX will form     1 AO Fock derivatives at one time.
 LinEq1:  Iter=  1 NonCon=     1 RMS=1.24D-03 Max=3.02D-02 NDo=     1
 LinEq1:  Iter=  2 NonCon=     1 RMS=5.37D-04 Max=5.47D-03 NDo=     1
 LinEq1:  Iter=  3 NonCon=     1 RMS=4.56D-04 Max=1.23D-02 NDo=     1
 LinEq1:  Iter=  4 NonCon=     1 RMS=1.29D-04 Max=1.49D-03 NDo=     1
 LinEq1:  Iter=  5 NonCon=     1 RMS=8.01D-05 Max=9.20D-04 NDo=     1
 LinEq1:  Iter=  6 NonCon=     1 RMS=1.90D-05 Max=3.02D-04 NDo=     1
 LinEq1:  Iter=  7 NonCon=     1 RMS=3.99D-06 Max=3.63D-05 NDo=     1
 LinEq1:  Iter=  8 NonCon=     1 RMS=8.73D-07 Max=8.96D-06 NDo=     1
 LinEq1:  Iter=  9 NonCon=     1 RMS=2.14D-07 Max=2.28D-06 NDo=     1
 LinEq1:  Iter= 10 NonCon=     1 RMS=5.18D-08 Max=1.37D-06 NDo=     1
 LinEq1:  Iter= 11 NonCon=     1 RMS=1.47D-08 Max=3.72D-07 NDo=     1
 LinEq1:  Iter= 12 NonCon=     1 RMS=5.24D-09 Max=9.84D-08 NDo=     1
 LinEq1:  Iter= 13 NonCon=     1 RMS=1.29D-09 Max=1.18D-08 NDo=     1
 LinEq1:  Iter= 14 NonCon=     1 RMS=2.03D-10 Max=3.34D-09 NDo=     1
 LinEq1:  Iter= 15 NonCon=     0 RMS=3.84D-11 Max=8.79D-10 NDo=     1
 Linear equations converged to 1.000D-10 1.000D-09 after    15 iterations.
 End of Minotr F.D. properties file   721 does not exist.
 End of Minotr F.D. properties file   722 does not exist.
 End of Minotr F.D. properties file   788 does not exist.
 Leave Link 1002 at Sat May 20 10:31:50 2023, MaxMem=   536870912 cpu:       163.6
 (Enter /Local/ce_dana/g09/l701.exe)
 Compute integral first derivatives.
 ... and contract with generalized density number  2.
 R6Disp: Adding Grimme-D3(BJ) dispersion energy 1st derivatives to the gradient.
 Leave Link  701 at Sat May 20 10:31:52 2023, MaxMem=   536870912 cpu:         4.7
 (Enter /Local/ce_dana/g09/l702.exe)
 L702 exits ... SP integral derivatives will be done elsewhere.
 Leave Link  702 at Sat May 20 10:31:53 2023, MaxMem=   536870912 cpu:         0.1
 (Enter /Local/ce_dana/g09/l703.exe)
 Compute integral first derivatives, UseDBF=F ICtDFT=           0.
 Integral derivatives from FoFJK, PRISM(SPDF).
 Calling FoFJK, ICntrl=  10002127 FMM=F ISym2X=0 I1Cent= 0 IOpClX= 0 NMat=1 NMatS=1 NMatT=0.
 FoFJK:  IHMeth= 1 ICntrl=10002127 DoSepK=F KAlg= 0 I1Cent=   0 FoldK=F
 IRaf=         0 NMat=   1 IRICut=       1 DoRegI=T DoRafI=F ISym2E= 0.
 FoFCou: FMM=F IPFlag=           0 FMFlag=      100000 FMFlg1=         800
         NFxFlg=           0 DoJE=F BraDBF=F KetDBF=F FulRan=T
         wScrn=  0.000000 ICntrl=10002127 IOpCl=  0 I1Cent=           0 NGrid=           0
         NMat0=    1 NMatS0=      1 NMatT0=    0 NMatD0=    1 NMtDS0=    0 NMtDT0=    0
 Symmetry not used in FoFCou.
 Leave Link  703 at Sat May 20 10:31:59 2023, MaxMem=   536870912 cpu:        54.7
 (Enter /Local/ce_dana/g09/l716.exe)
 Dipole        = 1.43137380D+00 3.03769019D-01-2.49154076D-02
 ***** Axes restored to original set *****
 -------------------------------------------------------------------
 Center     Atomic                   Forces (Hartrees/Bohr)
 Number     Number              X              Y              Z
 -------------------------------------------------------------------
      1        8          -0.000410393   -0.001114642   -0.005293073
      2        7          -0.001384368   -0.000470271   -0.002720870
      3        7           0.001439831    0.001536362    0.007527394
      4        1           0.000123631    0.000612315    0.003594531
      5        1           0.000231299   -0.000563765   -0.003107982
 -------------------------------------------------------------------
 Cartesian Forces:  Max     0.007527394 RMS     0.002868277
 Leave Link  716 at Sat May 20 10:32:00 2023, MaxMem=   536870912 cpu:         0.1
 (Enter /Local/ce_dana/g09/l103.exe)

 GradGradGradGradGradGradGradGradGradGradGradGradGradGradGradGradGradGrad
 Berny optimization.
 FormGI is forming the generalized inverse of G from B-inverse, IUseBI=4.
 Internal  Forces:  Max     0.005817428 RMS     0.002454646
 Search for a local minimum.
 Step number   1 out of a maximum of   21 on scan point     2 out of    37
 All quantities printed in internal units (Hartrees-Bohrs-Radians)
 RMS Force = .12021D-02 SwitMx=.10000D-02 MixMth= 1
 Mixed Optimization -- RFO/linear search
 Second derivative matrix not updated -- first step.
 The second derivative matrix:
                          R1        R2        R3        R4        A1
           R1           0.67644
           R2           0.11907   0.38046
           R3           0.00018   0.01559   0.44443
           R4          -0.00335   0.00424  -0.00619   0.48182
           A1          -0.00470  -0.00188   0.00663  -0.00613   0.08301
           A2           0.00808   0.01442  -0.00806   0.00271  -0.05093
           A3          -0.00338  -0.01254   0.00142   0.00342  -0.03209
           A4           0.10960   0.07217  -0.01853   0.01317  -0.04339
           D1           0.00000  -0.00000   0.00000  -0.00000  -0.00000
           D2          -0.00000  -0.00000   0.00000   0.00000  -0.00000
           D3          -0.00000   0.00000   0.00000   0.00000   0.00000
                          A2        A3        A4        D1        D2
           A2           0.08863
           A3          -0.03770   0.06979
           A4           0.03964   0.00375   0.52309
           D1           0.00000  -0.00000   0.00000   0.02190
[...]
 ! Name  Definition              Value          Derivative Info.                !
 --------------------------------------------------------------------------------
 ! R1    R(1,3)                  1.2197         -DE/DX =   -0.0001              !
 ! R2    R(2,3)                  1.3266         -DE/DX =    0.0001              !
 ! R3    R(2,4)                  1.0136         -DE/DX =   -0.0001              !
 ! R4    R(2,5)                  1.0035         -DE/DX =    0.0001              !
 ! A1    A(3,2,4)              119.5189         -DE/DX =    0.0                 !
 ! A2    A(3,2,5)              116.9468         -DE/DX =   -0.0001              !
 ! A3    A(4,2,5)              123.5341         -DE/DX =    0.0001              !
 ! A4    A(1,3,2)              114.1856         -DE/DX =   -0.0002              !
 ! D1    D(4,2,3,1)              0.0001         -DE/DX =    0.0001              !
 ! D2    D(5,2,3,1)           -180.1904         -DE/DX =    0.0001              !
 ! D3    D(3,2,4,5)           -180.2037         -DE/DX =    0.0                 !
 --------------------------------------------------------------------------------
 Lowest energy point so far.  Saving SCF results.
 GradGradGradGradGradGradGradGradGradGradGradGradGradGradGradGradGradGrad

 Summary of Optimized Potential Surface Scan
                           1         2         3         4         5
     Eigenvalues --  -185.80402-185.80391-185.80330-185.80182-185.79938
           R1           1.21954   1.21858   1.21614   1.21344   1.21043
           R2           1.32696   1.33061   1.34010   1.35081   1.36330
           R3           1.01350   1.01397   1.01491   1.01552   1.01595
           R4           1.00368   1.00446   1.00635   1.00819   1.00995
           A1         119.48865 118.70828 117.25086 115.95954 114.85892
           A2         116.90742 115.99758 114.01564 111.82806 109.80515
           A3         123.60394 122.44182 119.72780 116.71460 113.75818
           A4         114.15718 114.13152 114.08345 114.02089 113.90726
           D1           0.00015  -9.99975 -19.99993 -29.99993 -39.99995
           D2         179.99997-171.36430-167.15431-167.19040-169.70102
           D3         179.99980-160.10341-145.21418-135.07132-127.72987
                           6         7         8         9        10
     Eigenvalues --  -185.79609-185.79220-185.78800-185.78383-185.78001
           R1           1.20707   1.20322   1.19899   1.19436   1.18970
           R2           1.37785   1.39497   1.41439   1.43568   1.45769
           R3           1.01644   1.01710   1.01819   1.01955   1.02113
           R4           1.01167   1.01338   1.01516   1.01703   1.01887
           A1         113.74722 112.36475 110.59701 108.54745 106.38190
           A2         107.97846 106.30094 104.84043 103.52874 102.47709
           A3         111.06722 108.50729 106.27819 104.34897 102.80347
           A4         113.70118 113.39135 112.96518 112.47470 111.98050
           D1         -49.99981 -59.99977 -69.99980 -79.99980 -89.99981
           D2        -173.75459-178.55098 175.83593 169.53778 162.44520
           D3        -122.06217-117.24478-113.25263-109.90867-107.32197
                          11        12        13        14        15
     Eigenvalues --  -185.77681-185.77444-185.77304-185.77278-185.77394
           R1           1.18553   1.18228   1.18033   1.18002   1.18255
           R2           1.47810   1.49464   1.50462   1.50656   1.49170
           R3           1.02256   1.02338   1.02323   1.02172   1.01822
           R4           1.02058   1.02187   1.02255   1.02202   1.01927
           A1         104.40245 102.88622 102.01484 101.84393 102.85924
           A2         101.70966 101.29683 101.31987 102.12609 104.52055
           A3         101.74189 101.29111 101.60639 102.97261 106.40019
           A4         111.54980 111.23960 111.03856 111.02053 111.16704
           D1         -99.99980-109.99984-119.99988-129.99979-139.99978
           D2         154.46691 145.49176 135.38187 123.76023 109.00505
           D3        -105.50920-104.51281-104.39369-105.57888-109.58912
                          16        17        18        19        20
     Eigenvalues --  -185.80219-185.80345-185.80393-185.80402-185.80393
           R1           1.21478   1.21668   1.21881   1.21958   1.21874
           R2           1.34789   1.33856   1.33002   1.32689   1.33023
           R3           1.00807   1.00592   1.00436   1.00369   1.00438
           R4           1.01720   1.01542   1.01393   1.01358   1.01400
           A1         113.06880 114.56942 116.19654 116.90298 116.19571
           A2         114.62894 116.90769 118.69869 119.51130 118.70081
           A3         117.46283 120.23472 122.60164 123.58540 122.62547
           A4         113.97109 114.04043 114.12560 114.15610 114.12423
           D1        -149.99988-159.99993-169.99991-179.99989 170.00013
           D2         -11.69711 -11.46953  -7.46376  -0.19631   7.37445
           D3         137.04107 147.39638 161.79170-180.20519-161.88070
                          21        22        23        24        25
     Eigenvalues --  -185.80345-185.80219-185.79996-185.79674-185.79270
           R1           1.21683   1.21469   1.21245   1.20995   1.20704
           R2           1.33830   1.34803   1.35924   1.37216   1.38751
           R3           1.00607   1.00814   1.01024   1.01243   1.01460
           R4           1.01536   1.01716   1.01904   1.02090   1.02243
           A1         114.62343 113.05167 111.67036 110.35857 109.06669
           A2         116.83966 114.62285 112.46651 110.47889 108.73814
           A3         120.27909 117.43452 114.60636 111.74428 109.15930
           A4         114.06031 113.97774 113.90758 113.85456 113.82062
           D1         160.00011 150.00012 140.00012 130.00010 120.00016
           D2          11.40229  11.76946   9.52169   5.91742   1.05795
           D3        -147.42830-136.97682-129.36446-123.35055-118.67930
                          26        27        28        29        30
     Eigenvalues --  -185.78810-185.78325-185.77855-185.77440-185.77120
           R1           1.20369   1.19996   1.19604   1.19224   1.18908
           R2           1.40522   1.42544   1.44716   1.46908   1.48751
           R3           1.01685   1.01905   1.02097   1.02241   1.02307
           R4           1.02379   1.02477   1.02532   1.02532   1.02462
           A1         107.77098 106.42604 105.19351 104.15588 103.59208
           A2         107.19279 105.84682 104.73867 103.94981 103.43976
           A3         106.70880 104.56675 102.90410 101.92910 101.83500
           A4         113.79495 113.77000 113.74808 113.71271 113.69968
           D1         110.00023 100.00016  90.00009  80.00012  70.00010
           D2          -4.53197 -10.87001 -18.10275 -26.39761 -35.94533
           D3        -114.85304-111.76190-109.43120-107.90226-107.15621
                          31        32        33        34        35
     Eigenvalues --  -185.76934-185.76922-185.79937-185.80182-185.80330
           R1           1.18706   1.18745   1.21035   1.21349   1.21621
           R2           1.50005   1.49636   1.36316   1.35068   1.33933
           R3           1.02268   1.02122   1.01619   1.01548   1.01483
           R4           1.02345   1.02078   1.01005   1.00811   1.00614
           A1         103.45165 104.34043 114.86798 115.93655 117.23827
           A2         103.51298 104.36254 109.85919 111.87194 114.00981
           A3         102.84439 105.53372 113.71896 116.72616 119.68536
           A4         113.65591 113.67169 113.91439 114.02117 114.10418
           D1          60.00009  50.00020  40.00012  30.00011  20.00007
           D2         -47.01139 -60.53591 169.70298 167.23359 167.04101
           D3        -107.51525-109.68207 127.77923 135.12936 145.10717
                          36        37
     Eigenvalues --  -185.80391-185.80401
           R1           1.21867   1.21966
           R2           1.33050   1.32663
           R3           1.01374   1.01364
           R4           1.00433   1.00352
           A1         118.61037 119.51885
           A2         116.03931 116.94680
           A3         122.41853 123.53406
           A4         114.11317 114.18559
           D1          10.00006   0.00008
           D2         171.11191-180.19042
           D3         159.84507-180.20373
 Largest change from initial coordinates is atom    5       0.002 Angstoms.
 Leave Link  103 at Sat May 20 12:58:39 2023, MaxMem=   536870912 cpu:         0.1
 (Enter /Local/ce_dana/g09/l202.exe)
                          Input orientation:                          
 ---------------------------------------------------------------------
 Center     Atomic      Atomic             Coordinates (Angstroms)
 Number     Number       Type             X           Y           Z
 ---------------------------------------------------------------------
      1          8           0        0.861798   -1.682162   -0.243180
      2          7           0       -0.544882   -0.115010    0.129116
      3          7           0        0.485169   -0.836709    0.551130
      4          1           0       -0.941659   -0.298078   -0.785502
      5          1           0       -0.890723    0.591617    0.752108
 ---------------------------------------------------------------------
                    Distance matrix (angstroms):
                    1          2          3          4          5
     1  O    0.000000
     2  N    2.138532   0.000000
     3  N    1.219659   1.326631   0.000000
     4  H    2.337148   1.013643   2.027942   0.000000
     5  H    3.038421   1.003517   1.993386   1.777188   0.000000
 Stoichiometry    H2N2O
 Framework group  C1[X(H2N2O)]
 Deg. of freedom     9
 Full point group                 C1      NOp   1
 RotChk:  IX=0 Diff= 1.24D-15
 Largest Abelian subgroup         C1      NOp   1
 Largest concise Abelian subgroup C1      NOp   1
                         Standard orientation:                         
 ---------------------------------------------------------------------
 Center     Atomic      Atomic             Coordinates (Angstroms)
 Number     Number       Type             X           Y           Z
 ---------------------------------------------------------------------
      1          8           0       -1.122754    0.218879    0.000228
      2          7           0        1.014573    0.147094   -0.000332
      3          7           0       -0.140907   -0.504685   -0.000248
      4          1           0        1.016210    1.160736   -0.000011
      5          1           0        1.850162   -0.408632    0.002255
 ---------------------------------------------------------------------
 Rotational constants (GHZ):     82.2638413     12.8997347     11.1511372
 Leave Link  202 at Sat May 20 12:58:39 2023, MaxMem=   536870912 cpu:         0.0
 (Enter /Local/ce_dana/g09/l601.exe)
 Copying SCF densities to generalized density rwf, IOpCl= 0 IROHF=0.

 **********************************************************************

            Population analysis using the SCF density.

 **********************************************************************

 Orbital symmetries:
       Occupied  (A) (A) (A) (A) (A) (A) (A) (A) (A) (A) (A) (A)
       Virtual   (A) (A) (A) (A) (A) (A) (A) (A) (A) (A) (A) (A)
                 (A) (A) (A) (A) (A) (A) (A) (A) (A) (A) (A) (A)
                 (A) (A) (A) (A) (A) (A) (A) (A) (A) (A) (A) (A)
                 (A) (A) (A) (A) (A) (A) (A) (A) (A) (A) (A) (A)
                 (A) (A) (A) (A) (A) (A) (A) (A) (A) (A) (A) (A)
                 (A) (A) (A) (A) (A) (A) (A) (A) (A) (A) (A) (A)
                 (A) (A) (A) (A) (A) (A) (A) (A) (A) (A) (A) (A)
                 (A) (A) (A) (A) (A) (A) (A) (A) (A) (A) (A) (A)
                 (A) (A) (A) (A) (A) (A) (A) (A) (A) (A) (A) (A)
                 (A) (A) (A) (A) (A) (A) (A) (A) (A) (A) (A) (A)
                 (A) (A) (A) (A) (A) (A) (A) (A) (A) (A) (A) (A)
                 (A) (A) (A) (A) (A) (A) (A) (A) (A) (A) (A) (A)
                 (A) (A) (A) (A) (A) (A) (A) (A) (A) (A) (A) (A)
                 (A) (A) (A) (A) (A) (A) (A) (A) (A) (A) (A) (A)
                 (A) (A) (A) (A)
 The electronic state is 1-A.
 Alpha  occ. eigenvalues --  -19.76121 -14.99834 -14.91425  -1.31535  -1.08589
 Alpha  occ. eigenvalues --   -0.79339  -0.66794  -0.60776  -0.54516  -0.49453
 Alpha  occ. eigenvalues --   -0.36359  -0.32501
 Alpha virt. eigenvalues --    0.00030   0.00735   0.02521   0.05985   0.08258
 Alpha virt. eigenvalues --    0.09729   0.10207   0.11772   0.12190   0.13277
 Alpha virt. eigenvalues --    0.14456   0.16367   0.18761   0.20121   0.22709
 Alpha virt. eigenvalues --    0.22852   0.25111   0.26518   0.28853   0.31360
 Alpha virt. eigenvalues --    0.32011   0.34520   0.36504   0.39895   0.43115
 Alpha virt. eigenvalues --    0.44974   0.45719   0.45756   0.47514   0.51379
 Alpha virt. eigenvalues --    0.51634   0.54394   0.58626   0.58727   0.63784
 Alpha virt. eigenvalues --    0.68194   0.70855   0.71166   0.72610   0.73819
 Alpha virt. eigenvalues --    0.75417   0.77597   0.79839   0.83472   0.88774
 Alpha virt. eigenvalues --    0.89188   0.91889   0.92787   0.93173   0.96383
 Alpha virt. eigenvalues --    0.98261   0.98808   1.00675   1.04772   1.05968
 Alpha virt. eigenvalues --    1.07399   1.11365   1.13893   1.14395   1.20909
 Alpha virt. eigenvalues --    1.21344   1.21613   1.25538   1.36199   1.39883
 Alpha virt. eigenvalues --    1.42281   1.43020   1.44040   1.46038   1.51591
 Alpha virt. eigenvalues --    1.60390   1.61887   1.62125   1.66126   1.78451
 Alpha virt. eigenvalues --    1.79868   1.83632   1.85520   1.93298   1.95781
 Alpha virt. eigenvalues --    1.98650   2.03460   2.04625   2.07596   2.08429
 Alpha virt. eigenvalues --    2.14706   2.16197   2.18937   2.21854   2.27047
 Alpha virt. eigenvalues --    2.27401   2.33529   2.35194   2.38380   2.41431
 Alpha virt. eigenvalues --    2.47995   2.52136   2.54478   2.63146   2.69150
 Alpha virt. eigenvalues --    2.71916   2.76645   2.87202   2.91900   3.03786
 Alpha virt. eigenvalues --    3.25461   3.45984   3.49028   3.62782   3.73451
 Alpha virt. eigenvalues --    3.74040   3.92666   3.98668   4.02626   4.08870
 Alpha virt. eigenvalues --    4.09750   4.11213   4.15774   4.21423   4.29530
 Alpha virt. eigenvalues --    4.33646   4.36365   4.37689   4.38975   4.51708
 Alpha virt. eigenvalues --    4.52379   4.58048   4.71078   4.72902   4.74666
 Alpha virt. eigenvalues --    4.77220   4.78897   4.84812   4.93325   4.93712
 Alpha virt. eigenvalues --    4.96881   5.05618   5.09816   5.14231   5.14640
 Alpha virt. eigenvalues --    5.27174   5.33326   5.40473   5.41226   5.49136
 Alpha virt. eigenvalues --    5.75771   5.78637   5.80689   5.85169   5.86624
 Alpha virt. eigenvalues --    6.02833   6.06973   6.22536   6.31473   6.33960
 Alpha virt. eigenvalues --    6.58504   6.60524   6.70027   6.88879   6.91720
 Alpha virt. eigenvalues --    7.01002   7.02124   7.04936   7.21664   7.23386
 Alpha virt. eigenvalues --    7.36972   7.45946   7.59265   7.84804  14.66691
 Alpha virt. eigenvalues --   14.99381  17.07643
          Condensed to atoms (all electrons):
               1          2          3          4          5
     1  O    8.445590  -0.028630  -0.006999   0.001341   0.016317
     2  N   -0.028630   6.299915  -0.046333   0.356159   0.451666
     3  N   -0.006999  -0.046333   7.041477   0.010408  -0.112726
     4  H    0.001341   0.356159   0.010408   0.508598  -0.044069
     5  H    0.016317   0.451666  -0.112726  -0.044069   0.510152
 Mulliken charges:
               1
     1  O   -0.427619
     2  N   -0.032777
     3  N    0.114174
     4  H    0.167563
     5  H    0.178660
 Sum of Mulliken charges =  -0.00000
 Mulliken charges with hydrogens summed into heavy atoms:
               1
     1  O   -0.427619
     2  N    0.313446
     3  N    0.114174
 Electronic spatial extent (au):  <R**2>=            129.2959
 Charge=             -0.0000 electrons
 Dipole moment (field-independent basis, Debye):
    X=              3.7506    Y=              0.6972    Z=              0.0042  Tot=              3.8149
 Quadrupole moment (field-independent basis, Debye-Ang):
   XX=            -15.6408   YY=            -16.8156   ZZ=            -17.9277
   XY=              0.4781   XZ=              0.0098   YZ=             -0.0027
 Traceless Quadrupole moment (field-independent basis, Debye-Ang):
   XX=              1.1539   YY=             -0.0209   ZZ=             -1.1330
   XY=              0.4781   XZ=              0.0098   YZ=             -0.0027
 Octapole moment (field-independent basis, Debye-Ang**2):
  XXX=             10.8995  YYY=              4.6605  ZZZ=              0.0037  XYY=              2.8418
  XXY=             -1.2102  XXZ=              0.0191  XZZ=             -1.4094  YZZ=              0.0691
  YYZ=              0.0019  XYZ=             -0.0038
 Hexadecapole moment (field-independent basis, Debye-Ang**3):
 XXXX=            -92.9158 YYYY=            -32.2243 ZZZZ=            -16.5996 XXXY=             -4.1793
 XXXZ=              0.0379 YYYX=              2.3499 YYYZ=             -0.0033 ZZZX=              0.0060
 ZZZY=             -0.0014 XXYY=            -19.8928 XXZZ=            -21.9223 YYZZ=             -8.3850
 XXYZ=             -0.0074 YYXZ=              0.0032 ZZXY=             -0.2652
 N-N= 7.223108141752D+01 E-N=-5.806890030976D+02  KE= 1.847502916838D+02
 No NMR shielding tensors so no spin-rotation constants.
 Leave Link  601 at Sat May 20 12:58:39 2023, MaxMem=   536870912 cpu:         1.5
 (Enter /Local/ce_dana/g09/l9999.exe)

 Test job not archived.
 1\1\GINC-TECH-WN165\Scan\RB2PLYPD3-FC\Aug-CC-pVTZ\H2N2O1\ALONGD\20-May
 -2023\0\\#P opt=(modredundant, calcfc, noeigentest, maxStep=5) scf=(ti
 ght, direct) integral=(grid=ultrafine, Acc2E=12) guess=mix b2plypd3/au
 g-cc-pvtz IOp(2/9=2000) scf=xqc\\NH2NO\\0,1\O,0.8617981595,-1.68216198
 88,-0.2431795135\N,-0.5448820612,-0.1150099029,0.129115824\N,0.4851689
 589,-0.836709209,0.5511302066\H,-0.9416587708,-0.2980780457,-0.7855023
 535\H,-0.8907232865,0.5916171463,0.7521078364\\Version=ES64L-G09RevD.0
 1\State=1-A\HF=-185.5838211,-185.583712,-185.583094,-185.5816197,-185.
 5791774,-185.5759044,-185.5720605,-185.5679531,-185.5639131,-185.56022
 53,-185.5571334,-185.5548333,-185.5535166,-185.5533562,-185.5547662,-1
 85.5819401,-185.5832291,-185.5837309,-185.5838192,-185.583727,-185.583
 2252,-185.5819431,-185.5796752,-185.5764568,-185.5724553,-185.567936,-
 185.563217,-185.5586579,-185.5546351,-185.5515662,-185.5498312,-185.54
 99922,-185.5791829,-185.5816214,-185.5831183,-185.5837168,-185.5838233
 \MP2=-185.8040153,-185.8039069,-185.8033012,-185.8018205,-185.7993751,
 -185.79609,-185.7921996,-185.7880011,-185.7838273,-185.7800066,-185.77
 68131,-185.774443,-185.7730442,-185.7727784,-185.7739413,-185.8021929,
 -185.8034494,-185.8039299,-185.8040152,-185.8039299,-185.8034499,-185.
 8021929,-185.7999556,-185.7967426,-185.7927047,-185.788096,-185.783248
 9,-185.7785473,-185.7743965,-185.7711971,-185.7693354,-185.7692221,-18
 5.799375,-185.8018205,-185.803301,-185.8039065,-185.804015\RMSD=4.000e
 -09,2.809e-09,4.261e-09,3.608e-09,6.698e-09,5.811e-09,5.316e-09,8.814e
 -09,6.757e-09,4.546e-09,4.403e-09,4.801e-09,8.448e-09,8.787e-09,2.306e
 -09,3.256e-09,8.410e-09,6.203e-09,9.586e-09,4.236e-09,5.979e-09,7.465e
 -09,4.555e-09,3.675e-09,6.603e-09,9.962e-09,7.983e-09,4.743e-09,9.755e
 -09,3.026e-09,1.918e-09,9.654e-09,1.601e-09,7.718e-09,2.896e-09,4.635e
 -09,2.439e-09\PG=C01 [X(H2N2O1)]\\@


 LEARN FROM YESTERDAY,
 LIVE FOR TODAY,
 LOOK TO TOMORROW,
 REST THIS AFTERNOON.

           -- SNOOPY
 Job cpu time:       0 days 21 hours 25 minutes  0.2 seconds.
 File lengths (MBytes):  RWF=   3966 Int=      0 D2E=      0 Chk=      5 Scr=      1
 Normal termination of Gaussian 09 at Sat May 20 12:58:41 2023.
