 Entering Gaussian System, Link 0=/Local/ce_dana/g09/g09
 Initial command:
 /Local/ce_dana/g09/l1.exe "/storage/ce_dana/alongd/scratch/g09/Gau-56973.inp" -scrdir="/storage/ce_dana/alongd/scratch/g09/"
 Entering Link 1 = /Local/ce_dana/g09/l1.exe PID=     56974.
  
 Copyright (c) 1988,1990,1992,1993,1995,1998,2003,2009,2013,
            Gaussian, Inc.  All Rights Reserved.
  
 This is part of the Gaussian(R) 09 program.  It is based on
 the Gaussian(R) 03 system (copyright 2003, Gaussian, Inc.),
 the Gaussian(R) 98 system (copyright 1998, Gaussian, Inc.),
 the Gaussian(R) 94 system (copyright 1995, Gaussian, Inc.),
 the Gaussian 92(TM) system (copyright 1992, Gaussian, Inc.),
 the Gaussian 90(TM) system (copyright 1990, Gaussian, Inc.),
 the Gaussian 88(TM) system (copyright 1988, Gaussian, Inc.),
 the Gaussian 86(TM) system (copyright 1986, Carnegie Mellon
 University), and the Gaussian 82(TM) system (copyright 1983,
 Carnegie Mellon University). Gaussian is a federally registered
 trademark of Gaussian, Inc.
  
 This software contains proprietary and confidential information,
 including trade secrets, belonging to Gaussian, Inc.
  
 This software is provided under written license and may be
 used, copied, transmitted, or stored only in accord with that
 written license.
  
 The following legend is applicable only to US Government
 contracts under FAR:
  
                    RESTRICTED RIGHTS LEGEND
  
 Use, reproduction and disclosure by the US Government is
 subject to restrictions as set forth in subparagraphs (a)
 and (c) of the Commercial Computer Software - Restricted
 Rights clause in FAR 52.227-19.
  
 Gaussian, Inc.
 340 Quinnipiac St., Bldg. 40, Wallingford CT 06492
  
  
 ---------------------------------------------------------------
 Warning -- This program may not be used in any manner that
 competes with the business of Gaussian, Inc. or will provide
 assistance to any competitor of Gaussian, Inc.  The licensee
 of this program is prohibited from giving any competitor of
 Gaussian, Inc. access to this program.  By using this program,
 the user acknowledges that Gaussian, Inc. is engaged in the
 business of creating and licensing software in the field of
 computational chemistry and represents and warrants to the
 licensee that it is not a competitor of Gaussian, Inc. and that
 it will not use this program in any manner prohibited above.
 ---------------------------------------------------------------
  

 Cite this work as:
 Gaussian 09, Revision D.01,
 M. J. Frisch, G. W. Trucks, H. B. Schlegel, G. E. Scuseria, 
 M. A. Robb, J. R. Cheeseman, G. Scalmani, V. Barone, B. Mennucci, 
 G. A. Petersson, H. Nakatsuji, M. Caricato, X. Li, H. P. Hratchian, 
 A. F. Izmaylov, J. Bloino, G. Zheng, J. L. Sonnenberg, M. Hada, 
 M. Ehara, K. Toyota, R. Fukuda, J. Hasegawa, M. Ishida, T. Nakajima, 
 Y. Honda, O. Kitao, H. Nakai, T. Vreven, J. A. Montgomery, Jr., 
 J. E. Peralta, F. Ogliaro, M. Bearpark, J. J. Heyd, E. Brothers, 
 K. N. Kudin, V. N. Staroverov, T. Keith, R. Kobayashi, J. Normand, 
 K. Raghavachari, A. Rendell, J. C. Burant, S. S. Iyengar, J. Tomasi, 
 M. Cossi, N. Rega, J. M. Millam, M. Klene, J. E. Knox, J. B. Cross, 
 V. Bakken, C. Adamo, J. Jaramillo, R. Gomperts, R. E. Stratmann, 
 O. Yazyev, A. J. Austin, R. Cammi, C. Pomelli, J. W. Ochterski, 
 R. L. Martin, K. Morokuma, V. G. Zakrzewski, G. A. Voth, 
 P. Salvador, J. J. Dannenberg, S. Dapprich, A. D. Daniels, 
 O. Farkas, J. B. Foresman, J. V. Ortiz, J. Cioslowski, 
 and D. J. Fox, Gaussian, Inc., Wallingford CT, 2013.
 
 ******************************************
 Gaussian 09:  ES64L-G09RevD.01 24-Apr-2013
                10-May-2023 
 ******************************************
 %chk=check.chk
 %mem=4096mb
 %NProcShared=10
 Will use up to   10 processors via shared memory.
 ----------------------------------------------------------------------
 #P opt=(modredundant, calcfc, noeigentest, maxStep=5) scf=(tight, dire
 ct) integral=(grid=ultrafine, Acc2E=12) guess=read b2plypd3/aug-cc-pvt
 z IOp(2/9=2000) scf=xqc
 ----------------------------------------------------------------------
 1/8=5,10=4,11=1,18=120,19=15,38=1/1,3;
 2/9=2000,12=2,17=6,18=5,40=1/2;
 3/5=16,6=1,7=10,11=9,16=1,25=1,30=1,71=2,74=-60,75=-5,116=-2,140=1/1,2,3;
 4/5=1/1;
 5/5=2,8=3,13=1,32=2,38=6,87=12/2,8;
 8/6=3,8=1,10=1,19=11,30=-1,87=12/1;
 9/15=3,16=-3,87=12/6;
 11/6=1,8=1,15=11,17=12,24=-1,27=1,28=-2,29=300,32=6,42=3,87=12/1,2,10;
 10/6=2,21=1,87=12/2;
 8/6=4,8=1,10=1,19=11,30=-1,87=12/11,4;
 10/5=1,20=4,87=12/2;
 11/12=2,14=11,16=1,17=2,28=-2,42=3,87=12/2,10,12;
 6/7=2,8=2,9=2,10=2/1;
 7/10=1,12=2,25=1,44=2,87=12/1,2,3,16;
 1/8=5,10=4,11=1,18=20,19=15/3(2);
 2/9=2000/2;
 99//99;
 2/9=2000/2;
 3/5=16,6=1,7=10,11=9,16=1,25=1,30=1,71=1,74=-60,75=-5/1,2,3;
 4/5=5,16=3,69=1/1;
 5/5=2,8=3,13=1,32=2,38=5,87=12/2,8;
 8/6=4,10=1,87=12/1;
 9/15=2,16=-3,87=12/6;
 10/5=1,87=12/2;
 7/12=2,87=12/1,2,3,16;
 1/8=5,11=1,18=20,19=15/3(-8);
 2/9=2000/2;
 6/7=2,8=2,9=2,10=2/1;
 99//99;
 Leave Link    1 at Wed May 10 21:32:37 2023, MaxMem=   536870912 cpu:         0.1
 (Enter /Local/ce_dana/g09/l101.exe)
 -----
 NH2NO
 -----
 Symbolic Z-matrix:
 Charge =  0 Multiplicity = 1
 O                     0.64668  -1.8511    0.36048 
 N                    -0.5046   -0.0849    0.00309 
 N                     0.68736  -0.65609   0.12052 
 H                    -1.34043  -0.64726   0.11417 
 H                    -0.5193    0.89901  -0.19459 
 
 The following ModRedundant input section has been read:
 D       4       2       3       1 S  36 10.000                                
 
 Add atom      2 valence  3 ND=      2 dihedral       3      2      4      5
 NAtoms=      5 NQM=        5 NQMF=       0 NMMI=      0 NMMIF=      0
                NMic=       0 NMicF=      0.
                    Isotopes and Nuclear Properties:
 (Nuclear quadrupole moments (NQMom) in fm**2, nuclear magnetic moments (NMagM)
  in nuclear magnetons)

  Atom         1           2           3           4           5
 IAtWgt=          16          14          14           1           1
 AtmWgt=  15.9949146  14.0030740  14.0030740   1.0078250   1.0078250
 NucSpn=           0           2           2           1           1
 AtZEff=   0.0000000   0.0000000   0.0000000   0.0000000   0.0000000
 NQMom=    0.0000000   2.0440000   2.0440000   0.0000000   0.0000000
 NMagM=    0.0000000   0.4037610   0.4037610   2.7928460   2.7928460
 AtZNuc=   8.0000000   7.0000000   7.0000000   1.0000000   1.0000000
 Leave Link  101 at Wed May 10 21:32:37 2023, MaxMem=   536870912 cpu:         0.2
 (Enter /Local/ce_dana/g09/l103.exe)

 GradGradGradGradGradGradGradGradGradGradGradGradGradGradGradGradGradGrad
 Berny optimization.
 Initialization pass.
                           ----------------------------
                           !    Initial Parameters    !
                           ! (Angstroms and Degrees)  !
 --------------------------                            --------------------------
 ! Name  Definition              Value          Derivative Info.                !
 --------------------------------------------------------------------------------
 ! R1    R(1,3)                  1.2195         calculate D2E/DX2 analytically  !
 ! R2    R(2,3)                  1.327          calculate D2E/DX2 analytically  !
 ! R3    R(2,4)                  1.0135         calculate D2E/DX2 analytically  !
 ! R4    R(2,5)                  1.0037         calculate D2E/DX2 analytically  !
 ! A1    A(3,2,4)              119.4886         calculate D2E/DX2 analytically  !
 ! A2    A(3,2,5)              116.9074         calculate D2E/DX2 analytically  !
 ! A3    A(4,2,5)              123.6039         calculate D2E/DX2 analytically  !
 ! A4    A(1,3,2)              114.1572         calculate D2E/DX2 analytically  !
 ! D1    D(4,2,3,1)              0.0002         Scan                            !
 ! D2    D(5,2,3,1)            180.0            calculate D2E/DX2 analytically  !
 ! D3    D(3,2,4,5)            179.9998         calculate D2E/DX2 analytically  !
 --------------------------------------------------------------------------------
 Trust Radius=5.00D-02 FncErr=1.00D-07 GrdErr=1.00D-07
 Number of optimizations in scan=  37
 Number of steps in this run=     21 maximum allowed number of steps=    100.
 GradGradGradGradGradGradGradGradGradGradGradGradGradGradGradGradGradGrad

 Leave Link  103 at Wed May 10 21:32:37 2023, MaxMem=   536870912 cpu:         0.0
 (Enter /Local/ce_dana/g09/l202.exe)
                          Input orientation:                          
 ---------------------------------------------------------------------
 Center     Atomic      Atomic             Coordinates (Angstroms)
 Number     Number       Type             X           Y           Z
 ---------------------------------------------------------------------
      1          8           0        0.646675   -1.851103    0.360479
      2          7           0       -0.504604   -0.084901    0.003090
      3          7           0        0.687355   -0.656090    0.120523
      4          1           0       -1.340428   -0.647255    0.114165
      5          1           0       -0.519295    0.899007   -0.194585
 ---------------------------------------------------------------------
                    Distance matrix (angstroms):
                    1          2          3          4          5
     1  O    0.000000
     2  N    2.138373   0.000000
     3  N    1.219545   1.326957   0.000000
     4  H    2.336343   1.013500   2.027812   0.000000
     5  H    3.038205   1.003676   1.993395   1.777783   0.000000
 Stoichiometry    H2N2O
 Framework group  C1[X(H2N2O)]
 Deg. of freedom     9
 Full point group                 C1      NOp   1
 Largest Abelian subgroup         C1      NOp   1
 Largest concise Abelian subgroup C1      NOp   1
                         Standard orientation:                         
 ---------------------------------------------------------------------
 Center     Atomic      Atomic             Coordinates (Angstroms)
 Number     Number       Type             X           Y           Z
 ---------------------------------------------------------------------
      1          8           0       -1.122561    0.218960   -0.000000
      2          7           0        1.014610    0.147244   -0.000000
      3          7           0       -0.141053   -0.504873    0.000000
      4          1           0        1.015556    1.160743    0.000001
      5          1           0        1.850036   -0.409020    0.000000
 ---------------------------------------------------------------------
 Rotational constants (GHZ):     82.2074541     12.9020651     11.1518377
 Leave Link  202 at Wed May 10 21:32:37 2023, MaxMem=   536870912 cpu:         0.0
 (Enter /Local/ce_dana/g09/l301.exe)
 Standard basis: Aug-CC-pVTZ (5D, 7F)
 Ernie: Thresh=  0.10000D-02 Tol=  0.10000D-05 Strict=F.
 Ernie:  9 primitive shells out of 112 were deleted.
 There are   215 symmetry adapted cartesian basis functions of A   symmetry.
 There are   184 symmetry adapted basis functions of A   symmetry.
   184 basis functions,   270 primitive gaussians,   215 cartesian basis functions
    12 alpha electrons       12 beta electrons
       nuclear repulsion energy        72.2316344791 Hartrees.
 IExCor=  419 DFT=T Ex+Corr=B2PLYPD3 ExCW=0 ScaHFX=  0.530000
 ScaDFX=  0.470000  0.470000  0.730000  0.730000 ScalE2=  0.270000  0.270000
 IRadAn=      5 IRanWt=     -1 IRanGd=            0 ICorTp=0 IEmpDi=141
 NAtoms=    5 NActive=    5 NUniq=    5 SFac= 1.00D+00 NAtFMM=   60 NAOKFM=F Big=F
 Integral buffers will be    131072 words long.
 Regular integral format.
 Two-electron integral symmetry is turned on.
 R6Disp:  Grimme-D3(BJ) Dispersion energy=       -0.0013771299 Hartrees.
 Nuclear repulsion after empirical dispersion term =       72.2302573492 Hartrees.
 Leave Link  301 at Wed May 10 21:32:37 2023, MaxMem=   536870912 cpu:         0.1
 (Enter /Local/ce_dana/g09/l302.exe)
 NPDir=0 NMtPBC=     1 NCelOv=     1 NCel=       1 NClECP=     1 NCelD=      1
         NCelK=      1 NCelE2=     1 NClLst=     1 CellRange=     0.0.
 One-electron integrals computed using PRISM.
 NBasis=   184 RedAO= T EigKep=  6.52D-05  NBF=   184
 NBsUse=   184 1.00D-06 EigRej= -1.00D+00 NBFU=   184
 Precomputing XC quadrature grid using
 IXCGrd= 4 IRadAn=           5 IRanWt=          -1 IRanGd=           0 AccXCQ= 0.00D+00.
 Generated NRdTot=       0 NPtTot=           0 NUsed=           0 NTot=          32
 NSgBfM=   215   215   215   215   215 MxSgAt=     5 MxSgA2=     5.
 Leave Link  302 at Wed May 10 21:32:37 2023, MaxMem=   536870912 cpu:         1.8
 (Enter /Local/ce_dana/g09/l303.exe)
 DipDrv:  MaxL=1.
 Leave Link  303 at Wed May 10 21:32:37 2023, MaxMem=   536870912 cpu:         0.1
 (Enter /Local/ce_dana/g09/l401.exe)
 Initial guess from the checkpoint file:  "check.chk"
 B after Tr=     0.000000    0.000000    0.000000
         Rot=    0.000000    0.000000    1.000000    0.000000 Ang= 180.00 deg.
 Guess basis will be translated and rotated to current coordinates.
 JPrj=2 DoOrth=T DoCkMO=T.
 Leave Link  401 at Wed May 10 21:32:38 2023, MaxMem=   536870912 cpu:         0.7
 (Enter /Local/ce_dana/g09/l502.exe)
 Closed shell SCF:
 Using DIIS extrapolation, IDIIS=  1040.
 Integral symmetry usage will be decided dynamically.
 Keep R1 ints in memory in canonical form, NReq=150035761.
 IVT=      148311 IEndB=      148311 NGot=   536870912 MDV=   391873892
 LenX=   391873892 LenY=   391827226
 Requested convergence on RMS density matrix=1.00D-08 within  64 cycles.
 Requested convergence on MAX density matrix=1.00D-06.
 Requested convergence on             energy=1.00D-06.
 No special actions if energy rises.
 FoFCou: FMM=F IPFlag=           0 FMFlag=           0 FMFlg1=           0
         NFxFlg=           0 DoJE=F BraDBF=F KetDBF=F FulRan=T
         wScrn=  0.000000 ICntrl=     600 IOpCl=  0 I1Cent=           0 NGrid=           0
         NMat0=    1 NMatS0=  17020 NMatT0=    0 NMatD0=    1 NMtDS0=    0 NMtDT0=    0
 Symmetry not used in FoFCou.

 Cycle   1  Pass 1  IDiag  1:
 E= -185.583821085525    
 DIIS: error= 4.04D-08 at cycle   1 NSaved=   1.
 NSaved= 1 IEnMin= 1 EnMin= -185.583821085525     IErMin= 1 ErrMin= 4.04D-08
 ErrMax= 4.04D-08  0.00D+00 EMaxC= 1.00D-01 BMatC= 7.79D-13 BMatP= 7.79D-13
 IDIUse=1 WtCom= 1.00D+00 WtEn= 0.00D+00
 Coeff-Com:  0.100D+01
 Coeff:      0.100D+01
 Gap=     0.325 Goal=   None    Shift=    0.000
 RMSDP=6.54D-09 MaxDP=2.19D-07              OVMax= 3.73D-07

 SCF Done:  E(RB2PLYPD3) =  -185.583821086     A.U. after    1 cycles
            NFock=  1  Conv=0.65D-08     -V/T= 2.0045
 KE= 1.847501107454D+02 PE=-5.806873683828D+02 EE= 1.381231792027D+02
 Leave Link  502 at Wed May 10 21:32:40 2023, MaxMem=   536870912 cpu:        23.2
 (Enter /Local/ce_dana/g09/l508.exe)
 QCSCF skips out because SCF is already converged.
 Leave Link  508 at Wed May 10 21:32:40 2023, MaxMem=   536870912 cpu:         0.0
 (Enter /Local/ce_dana/g09/l801.exe)
 DoSCS=T DFT=T ScalE2(SS,OS)=  0.270000  0.270000
 ExpMin= 2.53D-02 ExpMax= 1.53D+04 ExpMxC= 5.22D+02 IAcc=3 IRadAn=         5 AccDes= 0.00D+00
 HarFok:  IExCor=  205 AccDes= 0.00D+00 IRadAn=         5 IDoV=-2 UseB2=F ITyADJ=14
 ICtDFT= 12500011 ScaDFX=  1.000000  1.000000  1.000000  1.000000
 DSYEVD-2 returned Info=          93 IAlg= 4 N=    46 NDim=    46 NE2=    11668742 trying  DSYEV.
 Largest valence mixing into a core orbital is  1.23D-04
 Largest core mixing into a valence orbital is  1.54D-05
 Range of M.O.s used for correlation:     4   184
 NBasis=   184 NAE=    12 NBE=    12 NFC=     3 NFV=     0
 NROrb=    181 NOA=     9 NOB=     9 NVA=   172 NVB=   172

 **** Warning!!: The largest alpha MO coefficient is  0.25210329D+02

 Leave Link  801 at Wed May 10 21:32:41 2023, MaxMem=   536870912 cpu:         0.7
 (Enter /Local/ce_dana/g09/l906.exe)
 DoSCS=T DFT=T ScalE2(SS,OS)=  0.270000  0.270000
 Frozen-core derivative calculation, NFC=   3 NFV=   0.
 FulOut=F Deriv=T AODrv=T NAtomX=     5
   MMem=           0  MDisk=           9 MDiskD=           9
  W3Min=      474720 MinDsk=     1693675 NBas6D=         215
 NBas2D=       23739    NTT=       23220    LW2=     7400000
    MDV=   536480907 MDiskM=       12429 NBas2p=       23739
 Disk-based method using ON**2 memory for  9 occupieds at a time.
 Permanent disk used for amplitudes=     5230692 words.
 Estimated scratch disk usage=   162655362 words.
 IMap=   1   2   3   4   5   6   7   8   9  10  11  12
 Actual    scratch disk usage=   157175426 words.
 JobTyp=1 Pass  1:  I=   4 to  12 NPSUse= 10 ParTrn=T ParDer=T DoDerP=T.
 (rs|ai) integrals will be sorted in core.
 Spin components of T(2) and E(2):
     alpha-alpha T2 =       0.4008191696D-01 E2=     -0.2858858199D-01
     alpha-beta  T2 =       0.2219362850D+00 E2=     -0.1630170849D+00
     beta-beta   T2 =       0.4008191696D-01 E2=     -0.2858858199D-01
 The integrals were generated   1 times.
 E2(B2PLYPD3) =    -0.2201942489D+00 E(B2PLYPD3) =    -0.18580401533440D+03
 Leave Link  906 at Wed May 10 21:39:57 2023, MaxMem=   536870912 cpu:      4340.6
 (Enter /Local/ce_dana/g09/l1101.exe)
 Using compressed Sx but separate Hx and Fx, NAtomX=     5.
 Will process      6 centers per pass.
 R6Disp: Adding Grimme-D3(BJ) dispersion energy 1st derivatives to the gradient.
 Leave Link 1101 at Wed May 10 21:39:58 2023, MaxMem=   536870912 cpu:         4.5
 (Enter /Local/ce_dana/g09/l1102.exe)
 Leave Link 1102 at Wed May 10 21:39:58 2023, MaxMem=   536870912 cpu:         0.0
 (Enter /Local/ce_dana/g09/l1110.exe)
 Forming Gx(P) for the SCF density, NAtomX=     5.
 Integral derivatives from FoFJK, PRISM(SPDF).
 Do as many integral derivatives as possible in FoFJK.
 G2DrvN: MDV=     536870768.
 G2DrvN: will do     6 centers at a time, making    1 passes.
 Calling FoFCou, ICntrl=  3107 FMM=F I1Cent=   0 AccDes= 1.00D-12.
 FoFJK:  IHMeth= 1 ICntrl=    3107 DoSepK=F KAlg= 0 I1Cent=   0 FoldK=F
 IRaf=         0 NMat=   1 IRICut=       1 DoRegI=T DoRafI=F ISym2E= 0.
 FoFCou: FMM=F IPFlag=           0 FMFlag=      100000 FMFlg1=           0
         NFxFlg=           0 DoJE=F BraDBF=F KetDBF=F FulRan=T
         wScrn=  0.000000 ICntrl=    3107 IOpCl=  0 I1Cent=           0 NGrid=           0
         NMat0=    1 NMatS0=      1 NMatT0=    0 NMatD0=    1 NMtDS0=    0 NMtDT0=    0
 Symmetry not used in FoFCou.
 End of G2Drv F.D. properties file   721 does not exist.
 End of G2Drv F.D. properties file   722 does not exist.
 End of G2Drv F.D. properties file   788 does not exist.
 Leave Link 1110 at Wed May 10 21:40:21 2023, MaxMem=   536870912 cpu:       229.3
 (Enter /Local/ce_dana/g09/l1002.exe)
 Minotr:  Closed shell wavefunction.
          IDoAtm=11111
          Frozen-core window.
          Direct CPHF calculation.
          Differentiating once with respect to electric field.
                with respect to dipole field.
          Differentiating once with respect to nuclear coordinates.
          Requested convergence is 1.0D-08 RMS, and 1.0D-07 maximum.
          Secondary convergence is 1.0D-12 RMS, and 1.0D-12 maximum.
          NewPWx=T KeepS1=T KeepF1=T KeepIn=T MapXYZ=F SortEE=F KeepMc=T.
          MDV=     536870677 using IRadAn=       1.
 Generate precomputed XC quadrature information.
 Keep R1 ints in memory in canonical form, NReq=149890432.
 FoFCou: FMM=F IPFlag=           0 FMFlag=           0 FMFlg1=           0
         NFxFlg=           0 DoJE=F BraDBF=F KetDBF=F FulRan=T
         wScrn=  0.000000 ICntrl=     600 IOpCl=  0 I1Cent=           0 NGrid=           0
         NMat0=    1 NMatS0=  17020 NMatT0=    0 NMatD0=    1 NMtDS0=    0 NMtDT0=    0
 Symmetry not used in FoFCou.
          Solving linear equations simultaneously, MaxMat=       0.
          There are    18 degrees of freedom in the 1st order CPHF.  IDoFFX=6 NUNeed=    18.
     15 vectors produced by pass  0 Test12= 1.15D-14 5.56D-09 XBig12= 2.05D+01 3.45D+00.
 AX will form    15 AO Fock derivatives at one time.
     15 vectors produced by pass  1 Test12= 1.15D-14 5.56D-09 XBig12= 5.08D+00 5.57D-01.
     15 vectors produced by pass  2 Test12= 1.15D-14 5.56D-09 XBig12= 1.27D-01 8.79D-02.
     15 vectors produced by pass  3 Test12= 1.15D-14 5.56D-09 XBig12= 2.88D-03 1.31D-02.
     15 vectors produced by pass  4 Test12= 1.15D-14 5.56D-09 XBig12= 2.21D-05 7.96D-04.
     15 vectors produced by pass  5 Test12= 1.15D-14 5.56D-09 XBig12= 1.21D-07 7.12D-05.
     12 vectors produced by pass  6 Test12= 1.15D-14 5.56D-09 XBig12= 6.06D-10 5.44D-06.
      3 vectors produced by pass  7 Test12= 1.15D-14 5.56D-09 XBig12= 2.52D-12 4.15D-07.
      1 vectors produced by pass  8 Test12= 1.15D-14 5.56D-09 XBig12= 9.69D-15 2.17D-08.
 InvSVY:  IOpt=1 It=  1 EMax= 1.33D-15
 Solved reduced A of dimension   106 with    15 vectors.
 FullF1:  Do perturbations    1 to    18.
 Saving first derivative matrices.
 End of Minotr F.D. properties file   721 does not exist.
 End of Minotr F.D. properties file   722 does not exist.
 End of Minotr F.D. properties file   788 does not exist.
 Leave Link 1002 at Wed May 10 21:40:57 2023, MaxMem=   536870912 cpu:       347.9
 (Enter /Local/ce_dana/g09/l811.exe)
 MDV=   536870912.
 DoSCS=T DFT=T ScalE2(SS,OS)=  0.270000  0.270000
 Form MO integral derivatives with frozen-active canonical formalism.
 MOERI=1 MOERIx=1 NAtoms=     5 NAtomX=     5.
 Discarding MO integrals.
 MO basis two electron integral derivatives will not be stored on disk.
 IAlg= 3 DoFC=T DoPWx=T Debug=F.
 Frozen-core window:  NFC=   3 NFV=   0.
 Reordered first order wavefunction length =      8520192
 In DefCFB: NBatch=  1 ICI= 12 ICA=172 LFMax= 43
            Large arrays: LIAPS=   326607360 LIARS=   170847600 words.
 In StABat: MaxSiz= 55 MinSiz= 50 NAtomB=  4
 DoIAMN: NPSUse= 10.
 Leave Link  811 at Wed May 10 21:43:48 2023, MaxMem=   536870912 cpu:      1463.4
 (Enter /Local/ce_dana/g09/l804.exe)
 Frozen-core window:  NFC=   3 NFV=   0.
 Closed-shell transformation, MDV=   536870912 ITran=4 ISComp=1.
 Semi-Direct transformation.
 ModeAB=           2 MOrb=            12 LenV=     535730725
 LASXX=     35722311 LTotXX=    35722311 LenRXX=    35722311
 LTotAB=    36295848 MaxLAS=    51269760 LenRXY=    51269760
 NonZer=    71444622 LenScr=   107927040 LnRSAI=           0
 LnScr1=           0 LExtra=           0 Total=    194919111
 MaxDsk=          -1 SrtSym=           F ITran=            4
 DoSDTr:  NPSUse= 10
 JobTyp=0 Pass  1:  I=   1 to  12.
 (rs|ai) integrals will be sorted in core.
 Complete sort for first half transformation.
 First half transformation complete.
 Begin second half transformation for I=  10.
 Begin second half transformation for I=  10.
 Complete sort for second half transformation.
 Second half transformation complete.
 SymMOI:  orbitals are not symmetric.
 DoSCS=T DFT=T ScalE2(SS,OS)=  0.270000  0.270000
 Spin components of T(2) and E(2):
     alpha-alpha T2 =       0.4008191696D-01 E2=     -0.2858858199D-01
     alpha-beta  T2 =       0.2219362850D+00 E2=     -0.1630170849D+00
     beta-beta   T2 =       0.4008191696D-01 E2=     -0.2858858199D-01
 E2(B2PLYPD3) =    -0.2201942489D+00 E(B2PLYPD3) =    -0.18580401533439D+03
 Leave Link  804 at Wed May 10 21:44:10 2023, MaxMem=   536870912 cpu:       124.7
 (Enter /Local/ce_dana/g09/l1002.exe)
 Minotr:  Closed shell wavefunction.
          Computing MP2/KS-MP2 derivatives.
          Using Z-Vector for PSCF gradient.
          Skipping F1 and S1 gradient terms here.
          IDoAtm=11111
          Frozen-core window.
          Direct CPHF calculation.
          Differentiating once with respect to electric field.
                with respect to dipole field.
          Differentiating once with respect to nuclear coordinates.
          Requested convergence is 1.0D-10 RMS, and 1.0D-09 maximum.
          NewPWx=T KeepS1=F KeepF1=F KeepIn=T MapXYZ=F SortEE=F KeepMc=T.
          MDV=     536870677 using IRadAn=       5.
 Using stored XC quadrature information.
 Keep R1 ints in memory in canonical form, NReq=149888899.
 FoFCou: FMM=F IPFlag=           0 FMFlag=           0 FMFlg1=           0
         NFxFlg=           0 DoJE=F BraDBF=F KetDBF=F FulRan=T
         wScrn=  0.000000 ICntrl=     600 IOpCl=  0 I1Cent=           0 NGrid=           0
         NMat0=    1 NMatS0=  17020 NMatT0=    0 NMatD0=    1 NMtDS0=    0 NMtDT0=    0
 Symmetry not used in FoFCou.
          Solving linear equations separately, MaxMat=       0.
          There are     1 degrees of freedom in the 1st order CPHF.  IDoFFX=0 NUNeed=     1.
 LinEq1:  Iter=  0 NonCon=     1 RMS=2.87D-03 Max=7.86D-02 NDo=     1
 AX will form     1 AO Fock derivatives at one time.
 LinEq1:  Iter=  1 NonCon=     1 RMS=1.24D-03 Max=3.06D-02 NDo=     1
 LinEq1:  Iter=  2 NonCon=     1 RMS=5.36D-04 Max=5.51D-03 NDo=     1
 LinEq1:  Iter=  3 NonCon=     1 RMS=4.55D-04 Max=1.23D-02 NDo=     1
 LinEq1:  Iter=  4 NonCon=     1 RMS=1.29D-04 Max=1.51D-03 NDo=     1
 LinEq1:  Iter=  5 NonCon=     1 RMS=7.95D-05 Max=9.04D-04 NDo=     1
 LinEq1:  Iter=  6 NonCon=     1 RMS=1.87D-05 Max=3.05D-04 NDo=     1
 LinEq1:  Iter=  7 NonCon=     1 RMS=3.89D-06 Max=3.45D-05 NDo=     1
 LinEq1:  Iter=  8 NonCon=     1 RMS=8.13D-07 Max=8.72D-06 NDo=     1
 LinEq1:  Iter=  9 NonCon=     1 RMS=1.90D-07 Max=2.03D-06 NDo=     1
 LinEq1:  Iter= 10 NonCon=     1 RMS=3.60D-08 Max=3.02D-07 NDo=     1
 LinEq1:  Iter= 11 NonCon=     1 RMS=5.82D-09 Max=4.49D-08 NDo=     1
 LinEq1:  Iter= 12 NonCon=     1 RMS=6.98D-10 Max=5.39D-09 NDo=     1
 LinEq1:  Iter= 13 NonCon=     1 RMS=1.30D-10 Max=1.53D-09 NDo=     1
 LinEq1:  Iter= 14 NonCon=     0 RMS=2.47D-11 Max=2.45D-10 NDo=     1
 Linear equations converged to 1.000D-10 1.000D-09 after    14 iterations.
 End of Minotr F.D. properties file   721 does not exist.
 End of Minotr F.D. properties file   722 does not exist.
 End of Minotr F.D. properties file   788 does not exist.
 Leave Link 1002 at Wed May 10 21:44:36 2023, MaxMem=   536870912 cpu:       223.3
 (Enter /Local/ce_dana/g09/l1102.exe)
 Use density number 2.
 Symmetrizing basis deriv contribution to polar:
 IMax=3 JMax=2 DiffMx= 0.00D+00
 Leave Link 1102 at Wed May 10 21:44:36 2023, MaxMem=   536870912 cpu:         0.1
 (Enter /Local/ce_dana/g09/l1110.exe)
 Forming Gx(P) for generalized density number  2 NAtomX=     5.
 Integral derivatives from FoFJK, PRISM(SPDF).
 Do as many integral derivatives as possible in FoFJK.
 G2DrvN: MDV=     536870768.
 G2DrvN: will do     6 centers at a time, making    1 passes.
 Calling FoFCou, ICntrl=  3107 FMM=F I1Cent=   0 AccDes= 1.00D-12.
 FoFJK:  IHMeth= 1 ICntrl=    3107 DoSepK=F KAlg= 0 I1Cent=   0 FoldK=F
 IRaf=         0 NMat=   1 IRICut=       1 DoRegI=T DoRafI=F ISym2E= 0.
 FoFCou: FMM=F IPFlag=           0 FMFlag=      100000 FMFlg1=           0
         NFxFlg=           0 DoJE=F BraDBF=F KetDBF=F FulRan=T
         wScrn=  0.000000 ICntrl=    3107 IOpCl=  0 I1Cent=           0 NGrid=           0
         NMat0=    1 NMatS0=      1 NMatT0=    0 NMatD0=    1 NMtDS0=    0 NMtDT0=    0
 Symmetry not used in FoFCou.
 End of G2Drv F.D. properties file   721 does not exist.
 End of G2Drv F.D. properties file   722 does not exist.
 End of G2Drv F.D. properties file   788 does not exist.
 Leave Link 1110 at Wed May 10 21:44:59 2023, MaxMem=   536870912 cpu:       229.8
 (Enter /Local/ce_dana/g09/l1112.exe)
 MP22nd: MDV=     536870912
 DoSCS=T DFT=T ScalE2(SS,OS)=  0.270000  0.270000
 Using stored XC quadrature information.
 This link is doing NAtomX=     5 total of    18 degrees of freedom.
 Using ON3 I/O method in MakUI.
 Frozen-core window:  NFC=   3 NFV=   0.
 Using Ix for Sx.
 Use MO integrals over full window.
 Using OV2 memory method for fx*t*t/D, MaxI=    12 DoOO2=F NP=  10.
 Would need an additional     7359674 words for in-memory AO integral storage.
 DD1Dir will call FoFJK   1 times, MxPair=       222
 NAB=    78 NAA=    66 NBB=     0 NumPrc= 10.
 FoFJK:  IHMeth= 1 ICntrl=     200 DoSepK=F KAlg= 0 I1Cent=   0 FoldK=F
 IRaf= 990000000 NMat= 222 IRICut=     360 DoRegI=T DoRafI=T ISym2E= 2.
 FoFCou: FMM=F IPFlag=           0 FMFlag=           0 FMFlg1=           0
         NFxFlg=           0 DoJE=F BraDBF=F KetDBF=F FulRan=T
         wScrn=  0.000000 ICntrl=     200 IOpCl=  0 I1Cent=           0 NGrid=           0
         NMat0=  222 NMatS0=      0 NMatT0=   78 NMatD0=  222 NMtDS0=    0 NMtDT0=    0
 Integrals replicated using symmetry in FoFCou.
 Symmetry is being used.
 R6Disp: Adding Grimme-D3(BJ) dispersion energy 1st derivatives to the gradient.
 Discarding MO integrals.
 Leave Link 1112 at Wed May 10 21:46:49 2023, MaxMem=   536870912 cpu:       897.4
 (Enter /Local/ce_dana/g09/l601.exe)
 Copying SCF densities to generalized density rwf, IOpCl= 0 IROHF=0.

 **********************************************************************

            Population analysis using the SCF density.

 **********************************************************************

 Orbital symmetries:
       Occupied  (A) (A) (A) (A) (A) (A) (A) (A) (A) (A) (A) (A)
       Virtual   (A) (A) (A) (A) (A) (A) (A) (A) (A) (A) (A) (A)
                 (A) (A) (A) (A) (A) (A) (A) (A) (A) (A) (A) (A)
                 (A) (A) (A) (A) (A) (A) (A) (A) (A) (A) (A) (A)
                 (A) (A) (A) (A) (A) (A) (A) (A) (A) (A) (A) (A)
                 (A) (A) (A) (A) (A) (A) (A) (A) (A) (A) (A) (A)
                 (A) (A) (A) (A) (A) (A) (A) (A) (A) (A) (A) (A)
                 (A) (A) (A) (A) (A) (A) (A) (A) (A) (A) (A) (A)
                 (A) (A) (A) (A) (A) (A) (A) (A) (A) (A) (A) (A)
                 (A) (A) (A) (A) (A) (A) (A) (A) (A) (A) (A) (A)
                 (A) (A) (A) (A) (A) (A) (A) (A) (A) (A) (A) (A)
                 (A) (A) (A) (A) (A) (A) (A) (A) (A) (A) (A) (A)
                 (A) (A) (A) (A) (A) (A) (A) (A) (A) (A) (A) (A)
                 (A) (A) (A) (A) (A) (A) (A) (A) (A) (A) (A) (A)
                 (A) (A) (A) (A) (A) (A) (A) (A) (A) (A) (A) (A)
                 (A) (A) (A) (A)
 The electronic state is 1-A.
 Alpha  occ. eigenvalues --  -19.76126 -14.99837 -14.91417  -1.31543  -1.08576
 Alpha  occ. eigenvalues --   -0.79326  -0.66794  -0.60776  -0.54515  -0.49461
 Alpha  occ. eigenvalues --   -0.36357  -0.32505
 Alpha virt. eigenvalues --    0.00032   0.00732   0.02522   0.05985   0.08258
 Alpha virt. eigenvalues --    0.09729   0.10207   0.11771   0.12190   0.13277
 Alpha virt. eigenvalues --    0.14454   0.16366   0.18759   0.20121   0.22710
 Alpha virt. eigenvalues --    0.22851   0.25116   0.26520   0.28858   0.31358
 Alpha virt. eigenvalues --    0.32011   0.34519   0.36507   0.39875   0.43117
 Alpha virt. eigenvalues --    0.44977   0.45723   0.45758   0.47508   0.51379
 Alpha virt. eigenvalues --    0.51638   0.54395   0.58623   0.58722   0.63785
 Alpha virt. eigenvalues --    0.68193   0.70865   0.71165   0.72609   0.73819
 Alpha virt. eigenvalues --    0.75412   0.77595   0.79845   0.83481   0.88775
 Alpha virt. eigenvalues --    0.89180   0.91887   0.92789   0.93178   0.96385
 Alpha virt. eigenvalues --    0.98260   0.98805   1.00673   1.04780   1.05964
 Alpha virt. eigenvalues --    1.07390   1.11370   1.13901   1.14401   1.20904
 Alpha virt. eigenvalues --    1.21344   1.21609   1.25540   1.36224   1.39883
 Alpha virt. eigenvalues --    1.42280   1.43023   1.44017   1.46045   1.51586
 Alpha virt. eigenvalues --    1.60382   1.61892   1.62123   1.66118   1.78463
 Alpha virt. eigenvalues --    1.79870   1.83616   1.85537   1.93286   1.95772
 Alpha virt. eigenvalues --    1.98656   2.03451   2.04616   2.07596   2.08432
 Alpha virt. eigenvalues --    2.14704   2.16192   2.18949   2.21860   2.27059
 Alpha virt. eigenvalues --    2.27393   2.33526   2.35194   2.38360   2.41452
 Alpha virt. eigenvalues --    2.47984   2.52134   2.54491   2.63123   2.69123
 Alpha virt. eigenvalues --    2.71905   2.76579   2.87190   2.91926   3.03775
 Alpha virt. eigenvalues --    3.25419   3.45989   3.49042   3.62768   3.73431
 Alpha virt. eigenvalues --    3.74006   3.92652   3.98717   4.02603   4.08842
 Alpha virt. eigenvalues --    4.09765   4.11172   4.15836   4.21399   4.29533
 Alpha virt. eigenvalues --    4.33659   4.36363   4.37681   4.38977   4.51711
 Alpha virt. eigenvalues --    4.52383   4.58043   4.71109   4.72914   4.74677
 Alpha virt. eigenvalues --    4.77227   4.78881   4.84816   4.93369   4.93695
 Alpha virt. eigenvalues --    4.96875   5.05631   5.09816   5.14239   5.14635
 Alpha virt. eigenvalues --    5.27171   5.33340   5.40452   5.41186   5.49141
 Alpha virt. eigenvalues --    5.75764   5.78598   5.80620   5.85103   5.86663
 Alpha virt. eigenvalues --    6.02794   6.06930   6.22596   6.31473   6.33956
 Alpha virt. eigenvalues --    6.58502   6.60506   6.70027   6.88874   6.91720
 Alpha virt. eigenvalues --    7.01077   7.02134   7.04926   7.21629   7.23377
 Alpha virt. eigenvalues --    7.36929   7.45918   7.59294   7.84741  14.66755
 Alpha virt. eigenvalues --   14.99394  17.07418
          Condensed to atoms (all electrons):
               1          2          3          4          5
     1  O    8.445528  -0.028725  -0.006994   0.001345   0.016310
     2  N   -0.028725   6.299944  -0.046081   0.356291   0.451506
     3  N   -0.006994  -0.046081   7.041052   0.010364  -0.112530
     4  H    0.001345   0.356291   0.010364   0.508459  -0.043994
     5  H    0.016310   0.451506  -0.112530  -0.043994   0.510030
 Mulliken charges:
               1
     1  O   -0.427464
     2  N   -0.032936
     3  N    0.114188
     4  H    0.167534
     5  H    0.178678
 Sum of Mulliken charges =  -0.00000
 Mulliken charges with hydrogens summed into heavy atoms:
               1
     1  O   -0.427464
     2  N    0.313276
     3  N    0.114188
 APT charges:
               1
     1  O   -0.516619
     2  N   -0.494453
     3  N    0.587933
     4  H    0.183280
     5  H    0.239859
 Sum of APT charges =  -0.00000
 APT charges with hydrogens summed into heavy atoms:
               1
     1  O   -0.516619
     2  N   -0.071314
     3  N    0.587933
 Electronic spatial extent (au):  <R**2>=            129.2896
 Charge=             -0.0000 electrons
 Dipole moment (field-independent basis, Debye):
    X=              3.7472    Y=              0.6963    Z=              0.0000  Tot=              3.8113
 Quadrupole moment (field-independent basis, Debye-Ang):
   XX=            -15.6439   YY=            -16.8140   ZZ=            -17.9283
   XY=              0.4756   XZ=              0.0000   YZ=              0.0000
 Traceless Quadrupole moment (field-independent basis, Debye-Ang):
   XX=              1.1515   YY=             -0.0186   ZZ=             -1.1329
   XY=              0.4756   XZ=              0.0000   YZ=              0.0000
 Octapole moment (field-independent basis, Debye-Ang**2):
  XXX=             10.8867  YYY=              4.6619  ZZZ=              0.0000  XYY=              2.8404
  XXY=             -1.2149  XXZ=              0.0000  XZZ=             -1.4121  YZZ=              0.0691
  YYZ=              0.0000  XYZ=              0.0000
 Hexadecapole moment (field-independent basis, Debye-Ang**3):
 XXXX=            -92.9189 YYYY=            -32.2305 ZZZZ=            -16.6010 XXXY=             -4.1875
 XXXZ=              0.0000 YYYX=              2.3455 YYYZ=              0.0000 ZZZX=              0.0000
 ZZZY=              0.0000 XXYY=            -19.8916 XXZZ=            -21.9213 YYZZ=             -8.3863
 XXYZ=              0.0000 YYXZ=              0.0000 ZZXY=             -0.2658
 N-N= 7.223025734921D+01 E-N=-5.806873699030D+02  KE= 1.847501107454D+02
  Exact polarizability:  36.492   0.091  24.065  -0.000   0.000  17.782
 Approx polarizability:  41.454  -1.598  25.318  -0.000  -0.000  19.538
 No NMR shielding tensors so no spin-rotation constants.
 Leave Link  601 at Wed May 10 21:46:49 2023, MaxMem=   536870912 cpu:         1.6
 (Enter /Local/ce_dana/g09/l701.exe)
 Compute integral second derivatives.
 ... and contract with generalized density number  2.
 R6Disp: Adding Grimme-D3(BJ) dispersion energy 2nd derivatives to the Hessian.
 Leave Link  701 at Wed May 10 21:46:50 2023, MaxMem=   536870912 cpu:         5.0
 (Enter /Local/ce_dana/g09/l702.exe)
 L702 exits ... SP integral derivatives will be done elsewhere.
 Leave Link  702 at Wed May 10 21:46:50 2023, MaxMem=   536870912 cpu:         0.0
 (Enter /Local/ce_dana/g09/l703.exe)
 Compute integral second derivatives, UseDBF=F ICtDFT=           0.
 Integral derivatives from FoFJK, PRISM(SPDF).
 Calling FoFJK, ICntrl=  10100127 FMM=F ISym2X=0 I1Cent= 0 IOpClX= 0 NMat=1 NMatS=1 NMatT=0.
 FoFJK:  IHMeth= 1 ICntrl=10100127 DoSepK=F KAlg= 0 I1Cent=   0 FoldK=F
 IRaf=         0 NMat=   1 IRICut=       1 DoRegI=T DoRafI=F ISym2E= 0.
 FoFCou: FMM=F IPFlag=           0 FMFlag=      100000 FMFlg1=         800
         NFxFlg=           0 DoJE=F BraDBF=F KetDBF=F FulRan=T
         wScrn=  0.000000 ICntrl=10100127 IOpCl=  0 I1Cent=           0 NGrid=           0
         NMat0=    1 NMatS0=      1 NMatT0=    0 NMatD0=    1 NMtDS0=    0 NMtDT0=    0
 Symmetry not used in FoFCou.
 Leave Link  703 at Wed May 10 21:48:09 2023, MaxMem=   536870912 cpu:       795.2
 (Enter /Local/ce_dana/g09/l716.exe)
 Dipole        = 1.43338985D+00 3.05983429D-01 1.40306566D-06
 Polarizability= 3.64922238D+01 9.14838832D-02 2.40649984D+01
                -1.28623681D-06 7.89880405D-07 1.77823060D+01
 ***** Axes restored to original set *****
 -------------------------------------------------------------------
 Center     Atomic                   Forces (Hartrees/Bohr)
 Number     Number              X              Y              Z
 -------------------------------------------------------------------
      1        8           0.000000024   -0.000000845    0.000000287
      2        7           0.000000088    0.000000270    0.000000063
      3        7           0.000000211    0.000000984   -0.000000414
      4        1          -0.000000204   -0.000000235    0.000000005
      5        1          -0.000000119   -0.000000174    0.000000058
 -------------------------------------------------------------------
 Cartesian Forces:  Max     0.000000984 RMS     0.000000384
 Force constants in Cartesian coordinates: 
                1             2             3             4             5 
      1  0.959577D-01
      2 -0.275985D-01  0.653347D+00
      3  0.571762D-02 -0.127466D+00  0.447230D-01
      4  0.162372D-01  0.777051D-01 -0.155938D-01  0.668013D+00
      5  0.101217D+00 -0.992986D-01  0.220869D-01  0.709928D-01  0.875670D+00
      6 -0.203168D-01  0.220338D-01  0.504357D-02 -0.127688D-01 -0.174170D+00
      7 -0.116762D+00 -0.556061D-01  0.109674D-01 -0.300630D+00  0.184691D-02
      8 -0.750652D-01 -0.557901D+00  0.106433D+00  0.125318D-01 -0.129470D+00
      9  0.148763D-01  0.106477D+00 -0.485617D-01 -0.316459D-02  0.231266D-01
     10  0.126561D-01 -0.638089D-03  0.185442D-03 -0.305025D+00 -0.162337D+00
     11 -0.414064D-02  0.288824D-03 -0.261399D-02 -0.158896D+00 -0.193726D+00
     12  0.889023D-03 -0.260609D-02 -0.121521D-01  0.312462D-01  0.370512D-01
     13 -0.808879D-02  0.613765D-02 -0.127665D-02 -0.785953D-01 -0.117196D-01
     14  0.558715D-02  0.356320D-02  0.155940D-02 -0.233382D-02 -0.453175D+00
     15 -0.116608D-02  0.156064D-02  0.109473D-01  0.281066D-03  0.919052D-01
                6             7             8             9            10 
      6  0.427725D-01
      7 -0.101806D-02  0.446258D+00
      8  0.231506D-01  0.491769D-01  0.678636D+00
      9 -0.190150D-01 -0.895761D-02 -0.128385D+00  0.647245D-01
     10  0.319373D-01 -0.409138D-01 -0.202998D-01  0.394378D-02  0.323720D+00
     11  0.370590D-01  0.101594D-01  0.212551D-01 -0.560589D-03  0.175361D+00
     12 -0.148238D-01 -0.217484D-02 -0.629394D-03  0.184717D-01 -0.345144D-01
     13  0.216639D-02  0.120477D-01  0.336563D-01 -0.669786D-02  0.956322D-02
     14  0.919265D-01 -0.557707D-02 -0.125197D-01 -0.658825D-03  0.791385D-02
     15 -0.139773D-01  0.118308D-02 -0.570062D-03 -0.156195D-01 -0.155214D-02
               11            12            13            14            15 
     11  0.173376D+00
     12 -0.326565D-01  0.153154D-01
     13 -0.224843D-01  0.455405D-02  0.650732D-01
     14 -0.119457D-02 -0.115923D-02 -0.559011D-02  0.463326D+00
     15 -0.122787D-02 -0.681124D-02  0.125407D-02 -0.916679D-01  0.254608D-01
 FormGI is forming the generalized inverse of G from B-inverse, IUseBI=4.
 Force constants in internal coordinates: 
                1             2             3             4             5 
      1  0.676438D+00
      2  0.119066D+00  0.380459D+00
      3  0.182281D-03  0.155883D-01  0.444427D+00
      4 -0.334690D-02  0.423734D-02 -0.618671D-02  0.481821D+00
      5 -0.470109D-02 -0.188014D-02  0.663223D-02 -0.613338D-02  0.830130D-01
      6  0.808187D-02  0.144249D-01 -0.805570D-02  0.271213D-02 -0.509266D-01
      7 -0.338078D-02 -0.125447D-01  0.142348D-02  0.342125D-02 -0.320864D-01
      8  0.109598D+00  0.721720D-01 -0.185302D-01  0.131728D-01 -0.433906D-01
      9  0.000000D+00  0.000000D+00  0.000000D+00  0.000000D+00  0.000000D+00
     10  0.000000D+00  0.000000D+00  0.000000D+00  0.000000D+00  0.000000D+00
     11  0.000000D+00  0.000000D+00  0.000000D+00  0.000000D+00  0.000000D+00
                6             7             8             9            10 
      6  0.886273D-01
      7 -0.377007D-01  0.697871D-01
      8  0.396430D-01  0.374755D-02  0.523089D+00
      9  0.000000D+00  0.000000D+00  0.000000D+00  0.219037D-01
     10  0.000000D+00  0.000000D+00  0.000000D+00  0.210096D-01  0.205696D-01
     11  0.000000D+00  0.000000D+00  0.000000D+00 -0.957272D-03 -0.471060D-03
               11 
     11  0.520571D-03
 Leave Link  716 at Wed May 10 21:48:10 2023, MaxMem=   536870912 cpu:         0.0
 (Enter /Local/ce_dana/g09/l103.exe)

 GradGradGradGradGradGradGradGradGradGradGradGradGradGradGradGradGradGrad
 Berny optimization.
 Red2BG is reusing G-inverse.
 Internal  Forces:  Max     0.000000959 RMS     0.000000311
 Search for a local minimum.
 Step number   1 out of a maximum of   21 on scan point     1 out of    37
 All quantities printed in internal units (Hartrees-Bohrs-Radians)
 RMS Force = .32243D-06 SwitMx=.10000D-02 MixMth= 2
 Mixed Optimization -- En-DIIS/RFO-DIIS
 Second derivative matrix not updated -- analytic derivatives used.
 The second derivative matrix:
                          R1        R2        R3        R4        A1
           R1           0.67644
           R2           0.11907   0.38046
           R3           0.00018   0.01559   0.44443
           R4          -0.00335   0.00424  -0.00619   0.48182
           A1          -0.00470  -0.00188   0.00663  -0.00613   0.08301
           A2           0.00808   0.01442  -0.00806   0.00271  -0.05093
           A3          -0.00338  -0.01254   0.00142   0.00342  -0.03209
           A4           0.10960   0.07217  -0.01853   0.01317  -0.04339
           D1           0.00000  -0.00000   0.00000  -0.00000  -0.00000
           D2          -0.00000  -0.00000   0.00000   0.00000  -0.00000
           D3          -0.00000   0.00000   0.00000   0.00000   0.00000
                          A2        A3        A4        D1        D2
           A2           0.08863
           A3          -0.03770   0.06979
           A4           0.03964   0.00375   0.52309
           D1           0.00000  -0.00000   0.00000   0.02190
           D2          -0.00000   0.00000  -0.00000   0.02101   0.02057
           D3           0.00000  -0.00000   0.00000  -0.00096  -0.00047
                          D3
           D3           0.00052
 ITU=  0
     Eigenvalues ---    0.00939   0.10245   0.12881   0.32972   0.43951
     Eigenvalues ---    0.46636   0.49678   0.784041000.000001000.00000
     Eigenvalues --- 1000.00000
 RFO step:  Lambda= 0.00000000D+00 EMin= 9.39172293D-03
 Linear search not attempted -- first point.
 Iteration  1 RMS(Cart)=  0.00000119 RMS(Int)=  0.00000000
 Iteration  2 RMS(Cart)=  0.00000000 RMS(Int)=  0.00000000
 Iteration  1 RMS(Cart)=  0.00000000 RMS(Int)=  0.00000000
 ITry= 1 IFail=0 DXMaxC= 2.13D-06 DCOld= 1.00D+10 DXMaxT= 5.00D-02 DXLimC= 3.00D+00 Rises=F
 Variable       Old X    -DE/DX   Delta X   Delta X   Delta X     New X
                                 (Linear)    (Quad)   (Total)
    R1        2.30461   0.00000   0.00000   0.00000   0.00000   2.30461
    R2        2.50758   0.00000   0.00000  -0.00000  -0.00000   2.50758
    R3        1.91524   0.00000   0.00000   0.00000   0.00000   1.91524
    R4        1.89667  -0.00000   0.00000  -0.00000  -0.00000   1.89667
    A1        2.08547   0.00000   0.00000  -0.00000  -0.00000   2.08547
    A2        2.04042   0.00000   0.00000   0.00000   0.00000   2.04042
    A3        2.15730  -0.00000   0.00000  -0.00000  -0.00000   2.15730
    A4        1.99242  -0.00000   0.00000  -0.00000  -0.00000   1.99242
    D1        0.00000  -0.00000   0.00000   0.00000   0.00000   0.00000
    D2        3.14159  -0.00000   0.00000  -0.00000  -0.00000   3.14159
    D3        3.14159   0.00000   0.00000  -0.00000  -0.00000   3.14158
         Item               Value     Threshold  Converged?
 Maximum Force            0.000001     0.000450     YES
 RMS     Force            0.000000     0.000300     YES
 Maximum Displacement     0.000002     0.001800     YES
 RMS     Displacement     0.000001     0.001200     YES
 Predicted change in Energy=-1.019898D-12
 Optimization completed.
    -- Stationary point found.
                           ----------------------------
                           !   Optimized Parameters   !
                           ! (Angstroms and Degrees)  !
 --------------------------                            --------------------------
 ! Name  Definition              Value          Derivative Info.                !
 --------------------------------------------------------------------------------
 ! R1    R(1,3)                  1.2195         -DE/DX =    0.0                 !
 ! R2    R(2,3)                  1.327          -DE/DX =    0.0                 !
 ! R3    R(2,4)                  1.0135         -DE/DX =    0.0                 !
 ! R4    R(2,5)                  1.0037         -DE/DX =    0.0                 !
 ! A1    A(3,2,4)              119.4886         -DE/DX =    0.0                 !
 ! A2    A(3,2,5)              116.9074         -DE/DX =    0.0                 !
 ! A3    A(4,2,5)              123.6039         -DE/DX =    0.0                 !
 ! A4    A(1,3,2)              114.1572         -DE/DX =    0.0                 !
 ! D1    D(4,2,3,1)              0.0002         -DE/DX =    0.0                 !
 ! D2    D(5,2,3,1)            180.0            -DE/DX =    0.0                 !
 ! D3    D(3,2,4,5)            179.9998         -DE/DX =    0.0                 !
 --------------------------------------------------------------------------------
 Lowest energy point so far.  Saving SCF results.
 Iteration  1 RMS(Cart)=  0.02799311 RMS(Int)=  0.03107717
 Iteration  2 RMS(Cart)=  0.00142379 RMS(Int)=  0.03104038
 Iteration  3 RMS(Cart)=  0.00001509 RMS(Int)=  0.03104037
 Iteration  4 RMS(Cart)=  0.00000123 RMS(Int)=  0.03104037
 Iteration  5 RMS(Cart)=  0.00000002 RMS(Int)=  0.03104037
 Iteration  1 RMS(Cart)=  0.00975286 RMS(Int)=  0.01078572
 Iteration  2 RMS(Cart)=  0.00339649 RMS(Int)=  0.01194408
 Iteration  3 RMS(Cart)=  0.00118012 RMS(Int)=  0.01281224
 Iteration  4 RMS(Cart)=  0.00040970 RMS(Int)=  0.01315682
 Iteration  5 RMS(Cart)=  0.00014219 RMS(Int)=  0.01328106
 Iteration  6 RMS(Cart)=  0.00004935 RMS(Int)=  0.01332472
 Iteration  7 RMS(Cart)=  0.00001712 RMS(Int)=  0.01333993
 Iteration  8 RMS(Cart)=  0.00000594 RMS(Int)=  0.01334522
 Iteration  9 RMS(Cart)=  0.00000206 RMS(Int)=  0.01334706
 Iteration 10 RMS(Cart)=  0.00000072 RMS(Int)=  0.01334769
 GradGradGradGradGradGradGradGradGradGradGradGradGradGradGradGradGradGrad

 Leave Link  103 at Wed May 10 21:48:10 2023, MaxMem=   536870912 cpu:         0.1
 (Enter /Local/ce_dana/g09/l202.exe)
                          Input orientation:                          
 ---------------------------------------------------------------------
 Center     Atomic      Atomic             Coordinates (Angstroms)
 Number     Number       Type             X           Y           Z
 ---------------------------------------------------------------------
      1          8           0        0.649767   -1.857661    0.322505
      2          7           0       -0.504239   -0.088276   -0.009504
      3          7           0        0.685247   -0.647623    0.173046
      4          1           0       -1.341827   -0.639987    0.136521
      5          1           0       -0.519245    0.893204   -0.218896
 ---------------------------------------------------------------------
                    Distance matrix (angstroms):
                    1          2          3          4          5
     1  O    0.000000
     2  N    2.138383   0.000000
     3  N    1.219749   1.327053   0.000000
     4  H    2.341744   1.013539   2.027417   0.000000
     5  H    3.037591   1.003680   1.994635   1.775848   0.000000
 Stoichiometry    H2N2O
 Framework group  C1[X(H2N2O)]
 Deg. of freedom     9
 Full point group                 C1      NOp   1
 RotChk:  IX=0 Diff= 8.66D-02
 Largest Abelian subgroup         C1      NOp   1
 Largest concise Abelian subgroup C1      NOp   1
                         Standard orientation:                         
 ---------------------------------------------------------------------
 Center     Atomic      Atomic             Coordinates (Angstroms)
 Number     Number       Type             X           Y           Z
 ---------------------------------------------------------------------
      1          8           0       -1.122725    0.219095   -0.014910
      2          7           0        1.014437    0.146951   -0.011209
      3          7           0       -0.141343   -0.504149    0.025006
      4          1           0        1.021142    1.155753    0.086437
      5          1           0        1.849002   -0.408130   -0.063734
 ---------------------------------------------------------------------
 Rotational constants (GHZ):     82.1694495     12.8913970     11.1545332
 Leave Link  202 at Wed May 10 21:48:10 2023, MaxMem=   536870912 cpu:         0.0
 (Enter /Local/ce_dana/g09/l301.exe)
 Standard basis: Aug-CC-pVTZ (5D, 7F)
 Ernie: Thresh=  0.10000D-02 Tol=  0.10000D-05 Strict=F.
 Ernie:  9 primitive shells out of 112 were deleted.
 There are   215 symmetry adapted cartesian basis functions of A   symmetry.
 There are   184 symmetry adapted basis functions of A   symmetry.
   184 basis functions,   270 primitive gaussians,   215 cartesian basis functions
    12 alpha electrons       12 beta electrons
       nuclear repulsion energy        72.2215625627 Hartrees.
 IExCor=  419 DFT=T Ex+Corr=B2PLYPD3 ExCW=0 ScaHFX=  0.530000
 ScaDFX=  0.470000  0.470000  0.730000  0.730000 ScalE2=  0.270000  0.270000
 IRadAn=      5 IRanWt=     -1 IRanGd=            0 ICorTp=0 IEmpDi=141
 NAtoms=    5 NActive=    5 NUniq=    5 SFac= 1.00D+00 NAtFMM=   60 NAOKFM=F Big=F
 Integral buffers will be    131072 words long.
 Regular integral format.
 Two-electron integral symmetry is turned on.
 R6Disp:  Grimme-D3(BJ) Dispersion energy=       -0.0013770361 Hartrees.
 Nuclear repulsion after empirical dispersion term =       72.2201855266 Hartrees.
 Leave Link  301 at Wed May 10 21:48:10 2023, MaxMem=   536870912 cpu:         0.1
 (Enter /Local/ce_dana/g09/l302.exe)
 NPDir=0 NMtPBC=     1 NCelOv=     1 NCel=       1 NClECP=     1 NCelD=      1
         NCelK=      1 NCelE2=     1 NClLst=     1 CellRange=     0.0.
 One-electron integrals computed using PRISM.
 NBasis=   184 RedAO= T EigKep=  6.55D-05  NBF=   184
 NBsUse=   184 1.00D-06 EigRej= -1.00D+00 NBFU=   184
 Precomputing XC quadrature grid using
 IXCGrd= 4 IRadAn=           5 IRanWt=          -1 IRanGd=           0 AccXCQ= 0.00D+00.
 Generated NRdTot=       0 NPtTot=           0 NUsed=           0 NTot=          32
 NSgBfM=   215   215   215   215   215 MxSgAt=     5 MxSgA2=     5.
 Leave Link  302 at Wed May 10 21:48:10 2023, MaxMem=   536870912 cpu:         1.8
 (Enter /Local/ce_dana/g09/l303.exe)
 DipDrv:  MaxL=1.
 Leave Link  303 at Wed May 10 21:48:10 2023, MaxMem=   536870912 cpu:         0.1
 (Enter /Local/ce_dana/g09/l401.exe)
 Initial guess from the checkpoint file:  "check.chk"
 B after Tr=     0.000000    0.000000    0.000000
         Rot=    1.000000   -0.000046   -0.000012    0.000290 Ang=  -0.03 deg.
 Guess basis will be translated and rotated to current coordinates.
 JPrj=2 DoOrth=T DoCkMO=T.
 Generating alternative initial guess.
 ExpMin= 2.53D-02 ExpMax= 1.53D+04 ExpMxC= 5.22D+02 IAcc=3 IRadAn=         5 AccDes= 0.00D+00
 Harris functional with IExCor=  419 and IRadAn=       5 diagonalized for initial guess.
 HarFok:  IExCor=  419 AccDes= 0.00D+00 IRadAn=         5 IDoV= 1 UseB2=F ITyADJ=14
 ICtDFT=  3500011 ScaDFX=  1.000000  1.000000  1.000000  1.000000
 FoFCou: FMM=F IPFlag=           0 FMFlag=      100000 FMFlg1=           0
         NFxFlg=           0 DoJE=T BraDBF=F KetDBF=T FulRan=T
         wScrn=  0.000000 ICntrl=     500 IOpCl=  0 I1Cent=   200000004 NGrid=           0
         NMat0=    1 NMatS0=      1 NMatT0=    0 NMatD0=    1 NMtDS0=    0 NMtDT0=    0
 Petite list used in FoFCou.
 Harris En= -185.931672293664    
 Leave Link  401 at Wed May 10 21:48:11 2023, MaxMem=   536870912 cpu:         6.8
 (Enter /Local/ce_dana/g09/l502.exe)
 Closed shell SCF:
 Using DIIS extrapolation, IDIIS=  1040.
 Integral symmetry usage will be decided dynamically.
 Keep R1 ints in memory in canonical form, NReq=150035761.
 IVT=      148311 IEndB=      148311 NGot=   536870912 MDV=   391873892
 LenX=   391873892 LenY=   391827226
 Requested convergence on RMS density matrix=1.00D-08 within  64 cycles.
 Requested convergence on MAX density matrix=1.00D-06.
 Requested convergence on             energy=1.00D-06.
 No special actions if energy rises.
 FoFCou: FMM=F IPFlag=           0 FMFlag=           0 FMFlg1=           0
         NFxFlg=           0 DoJE=F BraDBF=F KetDBF=F FulRan=T
         wScrn=  0.000000 ICntrl=     600 IOpCl=  0 I1Cent=           0 NGrid=           0
         NMat0=    1 NMatS0=  17020 NMatT0=    0 NMatD0=    1 NMtDS0=    0 NMtDT0=    0
 Symmetry not used in FoFCou.

 Cycle   1  Pass 1  IDiag  1:
 E= -185.580254209504    
 DIIS: error= 3.47D-03 at cycle   1 NSaved=   1.
 NSaved= 1 IEnMin= 1 EnMin= -185.580254209504     IErMin= 1 ErrMin= 3.47D-03
 ErrMax= 3.47D-03  0.00D+00 EMaxC= 1.00D-01 BMatC= 2.20D-03 BMatP= 2.20D-03
 IDIUse=3 WtCom= 9.65D-01 WtEn= 3.47D-02
 Coeff-Com:  0.100D+01
 Coeff-En:   0.100D+01
 Coeff:      0.100D+01
 Gap=     0.608 Goal=   None    Shift=    0.000
 GapD=    0.608 DampG=2.000 DampE=1.000 DampFc=2.0000 IDamp=-1.
 RMSDP=3.16D-04 MaxDP=1.14D-02              OVMax= 1.97D-02

 Cycle   2  Pass 1  IDiag  1:
 E= -185.582858538727     Delta-E=       -0.002604329222 Rises=F Damp=F
 DIIS: error= 5.70D-04 at cycle   2 NSaved=   2.
 NSaved= 2 IEnMin= 2 EnMin= -185.582858538727     IErMin= 2 ErrMin= 5.70D-04
 ErrMax= 5.70D-04  0.00D+00 EMaxC= 1.00D-01 BMatC= 6.25D-05 BMatP= 2.20D-03
 IDIUse=3 WtCom= 9.94D-01 WtEn= 5.70D-03
 Coeff-Com: -0.128D+00 0.113D+01
 Coeff-En:   0.000D+00 0.100D+01
 Coeff:     -0.127D+00 0.113D+01
 Gap=     0.326 Goal=   None    Shift=    0.000
 RMSDP=6.77D-05 MaxDP=1.96D-03 DE=-2.60D-03 OVMax= 7.18D-03

 Cycle   3  Pass 1  IDiag  1:
 E= -185.583009239381     Delta-E=       -0.000150700654 Rises=F Damp=F
 DIIS: error= 1.24D-04 at cycle   3 NSaved=   3.
 NSaved= 3 IEnMin= 3 EnMin= -185.583009239381     IErMin= 3 ErrMin= 1.24D-04
 ErrMax= 1.24D-04  0.00D+00 EMaxC= 1.00D-01 BMatC= 4.14D-06 BMatP= 6.25D-05
 IDIUse=3 WtCom= 9.99D-01 WtEn= 1.24D-03
 Coeff-Com: -0.762D-02-0.340D-01 0.104D+01
 Coeff-En:   0.000D+00 0.000D+00 0.100D+01
 Coeff:     -0.761D-02-0.340D-01 0.104D+01
 Gap=     0.325 Goal=   None    Shift=    0.000
 RMSDP=2.05D-05 MaxDP=5.19D-04 DE=-1.51D-04 OVMax= 3.38D-03

 Cycle   4  Pass 1  IDiag  1:
 E= -185.583023596606     Delta-E=       -0.000014357225 Rises=F Damp=F
 DIIS: error= 1.15D-04 at cycle   4 NSaved=   4.
 NSaved= 4 IEnMin= 4 EnMin= -185.583023596606     IErMin= 4 ErrMin= 1.15D-04
 ErrMax= 1.15D-04  0.00D+00 EMaxC= 1.00D-01 BMatC= 2.67D-06 BMatP= 4.14D-06
 IDIUse=3 WtCom= 9.99D-01 WtEn= 1.15D-03
 Coeff-Com:  0.786D-02-0.118D+00 0.476D+00 0.635D+00
 Coeff-En:   0.000D+00 0.000D+00 0.000D+00 0.100D+01
 Coeff:      0.785D-02-0.118D+00 0.475D+00 0.635D+00
 Gap=     0.325 Goal=   None    Shift=    0.000
 RMSDP=9.71D-06 MaxDP=2.06D-04 DE=-1.44D-05 OVMax= 1.50D-03

 Cycle   5  Pass 1  IDiag  1:
 E= -185.583028023013     Delta-E=       -0.000004426407 Rises=F Damp=F
 DIIS: error= 5.02D-05 at cycle   5 NSaved=   5.
 NSaved= 5 IEnMin= 5 EnMin= -185.583028023013     IErMin= 5 ErrMin= 5.02D-05
 ErrMax= 5.02D-05  0.00D+00 EMaxC= 1.00D-01 BMatC= 7.81D-07 BMatP= 2.67D-06
 IDIUse=1 WtCom= 1.00D+00 WtEn= 0.00D+00
 Coeff-Com:  0.570D-02-0.430D-01-0.105D+00 0.321D+00 0.821D+00
 Coeff:      0.570D-02-0.430D-01-0.105D+00 0.321D+00 0.821D+00
 Gap=     0.325 Goal=   None    Shift=    0.000
 RMSDP=8.75D-06 MaxDP=2.03D-04 DE=-4.43D-06 OVMax= 1.52D-03

 Cycle   6  Pass 1  IDiag  1:
 E= -185.583030467192     Delta-E=       -0.000002444179 Rises=F Damp=F
 DIIS: error= 2.18D-05 at cycle   6 NSaved=   6.
 NSaved= 6 IEnMin= 6 EnMin= -185.583030467192     IErMin= 6 ErrMin= 2.18D-05
 ErrMax= 2.18D-05  0.00D+00 EMaxC= 1.00D-01 BMatC= 1.66D-07 BMatP= 7.81D-07
 IDIUse=1 WtCom= 1.00D+00 WtEn= 0.00D+00
 Coeff-Com: -0.255D-02 0.486D-01-0.255D+00-0.194D+00 0.224D+00 0.118D+01
 Coeff:     -0.255D-02 0.486D-01-0.255D+00-0.194D+00 0.224D+00 0.118D+01
 Gap=     0.325 Goal=   None    Shift=    0.000
 RMSDP=8.08D-06 MaxDP=1.90D-04 DE=-2.44D-06 OVMax= 1.42D-03

 Cycle   7  Pass 1  IDiag  1:
 E= -185.583031350726     Delta-E=       -0.000000883533 Rises=F Damp=F
 DIIS: error= 8.21D-06 at cycle   7 NSaved=   7.
 NSaved= 7 IEnMin= 7 EnMin= -185.583031350726     IErMin= 7 ErrMin= 8.21D-06
 ErrMax= 8.21D-06  0.00D+00 EMaxC= 1.00D-01 BMatC= 1.24D-08 BMatP= 1.66D-07
 IDIUse=1 WtCom= 1.00D+00 WtEn= 0.00D+00
 Coeff-Com: -0.161D-02 0.231D-01-0.779D-01-0.927D-01-0.141D-01 0.370D+00
 Coeff-Com:  0.794D+00
 Coeff:     -0.161D-02 0.231D-01-0.779D-01-0.927D-01-0.141D-01 0.370D+00
 Coeff:      0.794D+00
 Gap=     0.325 Goal=   None    Shift=    0.000
 RMSDP=1.37D-06 MaxDP=3.03D-05 DE=-8.84D-07 OVMax= 2.36D-04

 Cycle   8  Pass 1  IDiag  1:
 E= -185.583031379799     Delta-E=       -0.000000029073 Rises=F Damp=F
 DIIS: error= 3.17D-06 at cycle   8 NSaved=   8.
 NSaved= 8 IEnMin= 8 EnMin= -185.583031379799     IErMin= 8 ErrMin= 3.17D-06
 ErrMax= 3.17D-06  0.00D+00 EMaxC= 1.00D-01 BMatC= 1.01D-09 BMatP= 1.24D-08
 IDIUse=1 WtCom= 1.00D+00 WtEn= 0.00D+00
 Coeff-Com: -0.162D-03 0.112D-02 0.474D-02 0.197D-02-0.221D-01-0.285D-01
 Coeff-Com:  0.188D+00 0.854D+00
 Coeff:     -0.162D-03 0.112D-02 0.474D-02 0.197D-02-0.221D-01-0.285D-01
 Coeff:      0.188D+00 0.854D+00
 Gap=     0.325 Goal=   None    Shift=    0.000
 RMSDP=2.03D-07 MaxDP=5.95D-06 DE=-2.91D-08 OVMax= 2.34D-05

 Cycle   9  Pass 1  IDiag  1:
 E= -185.583031380970     Delta-E=       -0.000000001171 Rises=F Damp=F
 DIIS: error= 1.29D-06 at cycle   9 NSaved=   9.
 NSaved= 9 IEnMin= 9 EnMin= -185.583031380970     IErMin= 9 ErrMin= 1.29D-06
 ErrMax= 1.29D-06  0.00D+00 EMaxC= 1.00D-01 BMatC= 3.15D-10 BMatP= 1.01D-09
 IDIUse=1 WtCom= 1.00D+00 WtEn= 0.00D+00
 Coeff-Com:  0.840D-04-0.175D-02 0.943D-02 0.109D-01-0.955D-02-0.479D-01
 Coeff-Com:  0.403D-02 0.409D+00 0.625D+00
 Coeff:      0.840D-04-0.175D-02 0.943D-02 0.109D-01-0.955D-02-0.479D-01
 Coeff:      0.403D-02 0.409D+00 0.625D+00
 Gap=     0.325 Goal=   None    Shift=    0.000
 RMSDP=6.89D-08 MaxDP=1.95D-06 DE=-1.17D-09 OVMax= 6.15D-06

 Cycle  10  Pass 1  IDiag  1:
 E= -185.583031381253     Delta-E=       -0.000000000282 Rises=F Damp=F
 DIIS: error= 2.14D-07 at cycle  10 NSaved=  10.
 NSaved=10 IEnMin=10 EnMin= -185.583031381253     IErMin=10 ErrMin= 2.14D-07
 ErrMax= 2.14D-07  0.00D+00 EMaxC= 1.00D-01 BMatC= 1.34D-11 BMatP= 3.15D-10
 IDIUse=1 WtCom= 1.00D+00 WtEn= 0.00D+00
 Coeff-Com:  0.265D-04-0.355D-03 0.600D-03 0.180D-02-0.494D-03-0.355D-02
 Coeff-Com: -0.223D-01-0.243D-01 0.864D-01 0.962D+00
 Coeff:      0.265D-04-0.355D-03 0.600D-03 0.180D-02-0.494D-03-0.355D-02
 Coeff:     -0.223D-01-0.243D-01 0.864D-01 0.962D+00
 Gap=     0.325 Goal=   None    Shift=    0.000
 RMSDP=3.38D-08 MaxDP=6.02D-07 DE=-2.82D-10 OVMax= 4.70D-06

 Cycle  11  Pass 1  IDiag  1:
 E= -185.583031381283     Delta-E=       -0.000000000031 Rises=F Damp=F
 DIIS: error= 8.12D-08 at cycle  11 NSaved=  11.
 NSaved=11 IEnMin=11 EnMin= -185.583031381283     IErMin=11 ErrMin= 8.12D-08
 ErrMax= 8.12D-08  0.00D+00 EMaxC= 1.00D-01 BMatC= 1.38D-12 BMatP= 1.34D-11
 IDIUse=1 WtCom= 1.00D+00 WtEn= 0.00D+00
 Coeff-Com: -0.969D-05 0.192D-03-0.997D-03-0.852D-03 0.482D-03 0.572D-02
 Coeff-Com: -0.603D-03-0.366D-01-0.701D-01-0.104D-01 0.111D+01
 Coeff:     -0.969D-05 0.192D-03-0.997D-03-0.852D-03 0.482D-03 0.572D-02
 Coeff:     -0.603D-03-0.366D-01-0.701D-01-0.104D-01 0.111D+01
 Gap=     0.325 Goal=   None    Shift=    0.000
 RMSDP=8.55D-09 MaxDP=1.71D-07 DE=-3.05D-11 OVMax= 1.04D-06

 SCF Done:  E(RB2PLYPD3) =  -185.583031381     A.U. after   11 cycles
            NFock= 11  Conv=0.85D-08     -V/T= 2.0045
 KE= 1.847502885425D+02 PE=-5.806668596622D+02 EE= 1.381133542118D+02
 Leave Link  502 at Wed May 10 21:48:23 2023, MaxMem=   536870912 cpu:        90.4
 (Enter /Local/ce_dana/g09/l508.exe)
 QCSCF skips out because SCF is already converged.
 Leave Link  508 at Wed May 10 21:48:23 2023, MaxMem=   536870912 cpu:         0.0
 (Enter /Local/ce_dana/g09/l801.exe)
 DoSCS=T DFT=T ScalE2(SS,OS)=  0.270000  0.270000
 ExpMin= 2.53D-02 ExpMax= 1.53D+04 ExpMxC= 5.22D+02 IAcc=3 IRadAn=         5 AccDes= 0.00D+00
 HarFok:  IExCor=  205 AccDes= 0.00D+00 IRadAn=         5 IDoV=-2 UseB2=F ITyADJ=14
 ICtDFT= 12500011 ScaDFX=  1.000000  1.000000  1.000000  1.000000
 Largest valence mixing into a core orbital is  1.23D-04
 Largest core mixing into a valence orbital is  1.54D-05
 Range of M.O.s used for correlation:     4   184
 NBasis=   184 NAE=    12 NBE=    12 NFC=     3 NFV=     0
 NROrb=    181 NOA=     9 NOB=     9 NVA=   172 NVB=   172

 **** Warning!!: The largest alpha MO coefficient is  0.22513743D+02

 Leave Link  801 at Wed May 10 21:48:23 2023, MaxMem=   536870912 cpu:         0.5
 (Enter /Local/ce_dana/g09/l906.exe)
 DoSCS=T DFT=T ScalE2(SS,OS)=  0.270000  0.270000
 Frozen-core derivative calculation, NFC=   3 NFV=   0.
 FulOut=F Deriv=T AODrv=T NAtomX=     5
   MMem=         104  MDisk=           9 MDiskD=           9
  W3Min=      474720 MinDsk=     1000300 NBas6D=         215
 NBas2D=       23739    NTT=       23220    LW2=     3500000
    MDV=   536481568 MDiskM=       12429 NBas2p=       23738
 Fully direct method using O(ONN) memory.
 IMap=   1   2   3   4   5   6   7   8   9  10  11  12
 JobTyp=1 Pass  1:  I=   4 to  11 NPSUse= 10 ParTrn=T ParDer=T DoDerP=T.
 JobTyp=1 Pass  2:  I=  12 to  12 NPSUse= 10 ParTrn=T ParDer=T DoDerP=T.
 Spin components of T(2) and E(2):
     alpha-alpha T2 =       0.4007661115D-01 E2=     -0.2858514517D-01
     alpha-beta  T2 =       0.2220232364D+00 E2=     -0.1630323325D+00
     beta-beta   T2 =       0.4007661115D-01 E2=     -0.2858514517D-01
 The integrals were generated   2 times.
 E2(B2PLYPD3) =    -0.2202026228D+00 E(B2PLYPD3) =    -0.18580323400407D+03
 Leave Link  906 at Wed May 10 21:48:58 2023, MaxMem=   536870912 cpu:       348.8
 (Enter /Local/ce_dana/g09/l1002.exe)
 Minotr:  Closed shell wavefunction.
          Computing MP2/KS-MP2 derivatives.
          Using Z-Vector for PSCF gradient.
          Skipping F1 and S1 gradient terms here.
          IDoAtm=11111
          Frozen-core window.
          Direct CPHF calculation.
          Differentiating once with respect to electric field.
                with respect to dipole field.
          Differentiating once with respect to nuclear coordinates.
          Requested convergence is 1.0D-10 RMS, and 1.0D-09 maximum.
          NewPWx=F KeepS1=T KeepF1=T KeepIn=T MapXYZ=F SortEE=F KeepMc=T.
          MDV=     536870677 using IRadAn=       5.
 Using stored XC quadrature information.
 Keep R1 ints in memory in canonical form, NReq=149888899.
 FoFCou: FMM=F IPFlag=           0 FMFlag=           0 FMFlg1=           0
         NFxFlg=           0 DoJE=F BraDBF=F KetDBF=F FulRan=T
         wScrn=  0.000000 ICntrl=     600 IOpCl=  0 I1Cent=           0 NGrid=           0
         NMat0=    1 NMatS0=  17020 NMatT0=    0 NMatD0=    1 NMtDS0=    0 NMtDT0=    0
 Symmetry not used in FoFCou.
          Solving linear equations separately, MaxMat=       0.
          There are     1 degrees of freedom in the 1st order CPHF.  IDoFFX=0 NUNeed=     1.
 LinEq1:  Iter=  0 NonCon=     1 RMS=2.87D-03 Max=7.72D-02 NDo=     1
 AX will form     1 AO Fock derivatives at one time.
 LinEq1:  Iter=  1 NonCon=     1 RMS=1.24D-03 Max=3.02D-02 NDo=     1
 LinEq1:  Iter=  2 NonCon=     1 RMS=5.37D-04 Max=5.47D-03 NDo=     1
 LinEq1:  Iter=  3 NonCon=     1 RMS=4.56D-04 Max=1.23D-02 NDo=     1
 LinEq1:  Iter=  4 NonCon=     1 RMS=1.29D-04 Max=1.49D-03 NDo=     1
 LinEq1:  Iter=  5 NonCon=     1 RMS=8.01D-05 Max=9.20D-04 NDo=     1
 LinEq1:  Iter=  6 NonCon=     1 RMS=1.90D-05 Max=3.02D-04 NDo=     1
 LinEq1:  Iter=  7 NonCon=     1 RMS=3.99D-06 Max=3.63D-05 NDo=     1
 LinEq1:  Iter=  8 NonCon=     1 RMS=8.73D-07 Max=8.96D-06 NDo=     1
 LinEq1:  Iter=  9 NonCon=     1 RMS=2.14D-07 Max=2.28D-06 NDo=     1
 LinEq1:  Iter= 10 NonCon=     1 RMS=5.18D-08 Max=1.38D-06 NDo=     1
 LinEq1:  Iter= 11 NonCon=     1 RMS=1.47D-08 Max=3.73D-07 NDo=     1
 LinEq1:  Iter= 12 NonCon=     1 RMS=5.25D-09 Max=9.83D-08 NDo=     1
 LinEq1:  Iter= 13 NonCon=     1 RMS=1.29D-09 Max=1.18D-08 NDo=     1
 LinEq1:  Iter= 14 NonCon=     1 RMS=2.03D-10 Max=3.34D-09 NDo=     1
 LinEq1:  Iter= 15 NonCon=     0 RMS=3.84D-11 Max=8.79D-10 NDo=     1
 Linear equations converged to 1.000D-10 1.000D-09 after    15 iterations.
 End of Minotr F.D. properties file   721 does not exist.
 End of Minotr F.D. properties file   722 does not exist.
 End of Minotr F.D. properties file   788 does not exist.
 Leave Link 1002 at Wed May 10 21:49:27 2023, MaxMem=   536870912 cpu:       236.2
 (Enter /Local/ce_dana/g09/l701.exe)
 Compute integral first derivatives.
 ... and contract with generalized density number  2.
 R6Disp: Adding Grimme-D3(BJ) dispersion energy 1st derivatives to the gradient.
 Leave Link  701 at Wed May 10 21:49:28 2023, MaxMem=   536870912 cpu:         4.4
 (Enter /Local/ce_dana/g09/l702.exe)
 L702 exits ... SP integral derivatives will be done elsewhere.
 Leave Link  702 at Wed May 10 21:49:28 2023, MaxMem=   536870912 cpu:         0.0
 (Enter /Local/ce_dana/g09/l703.exe)
 Compute integral first derivatives, UseDBF=F ICtDFT=           0.
 Integral derivatives from FoFJK, PRISM(SPDF).
 Calling FoFJK, ICntrl=  10002127 FMM=F ISym2X=0 I1Cent= 0 IOpClX= 0 NMat=1 NMatS=1 NMatT=0.
 FoFJK:  IHMeth= 1 ICntrl=10002127 DoSepK=F KAlg= 0 I1Cent=   0 FoldK=F
 IRaf=         0 NMat=   1 IRICut=       1 DoRegI=T DoRafI=F ISym2E= 0.
 FoFCou: FMM=F IPFlag=           0 FMFlag=      100000 FMFlg1=         800
         NFxFlg=           0 DoJE=F BraDBF=F KetDBF=F FulRan=T
         wScrn=  0.000000 ICntrl=10002127 IOpCl=  0 I1Cent=           0 NGrid=           0
         NMat0=    1 NMatS0=      1 NMatT0=    0 NMatD0=    1 NMtDS0=    0 NMtDT0=    0
 Symmetry not used in FoFCou.
 Leave Link  703 at Wed May 10 21:49:35 2023, MaxMem=   536870912 cpu:        75.5
 (Enter /Local/ce_dana/g09/l716.exe)
 Dipole        = 1.43137451D+00 3.03768887D-01 2.49214049D-02
 ***** Axes restored to original set *****
 -------------------------------------------------------------------
 Center     Atomic                   Forces (Hartrees/Bohr)
 Number     Number              X              Y              Z
 -------------------------------------------------------------------
      1        8          -0.000434360    0.001015689    0.005311015
      2        7          -0.001396745    0.000615665    0.002685376
      3        7           0.001473990   -0.001488594   -0.007530357
      4        1           0.000139737   -0.000823197   -0.003551560
      5        1           0.000217377    0.000680437    0.003085526
 -------------------------------------------------------------------
 Cartesian Forces:  Max     0.007530357 RMS     0.002868271
 Leave Link  716 at Wed May 10 21:49:35 2023, MaxMem=   536870912 cpu:         0.1
 (Enter /Local/ce_dana/g09/l103.exe)

 GradGradGradGradGradGradGradGradGradGradGradGradGradGradGradGradGradGrad
 Berny optimization.
 FormGI is forming the generalized inverse of G from B-inverse, IUseBI=4.
 Internal  Forces:  Max     0.005817396 RMS     0.002454638
 Search for a local minimum.
 Step number   1 out of a maximum of   21 on scan point     2 out of    37
 All quantities printed in internal units (Hartrees-Bohrs-Radians)
 RMS Force = .12021D-02 SwitMx=.10000D-02 MixMth= 1
 Mixed Optimization -- RFO/linear search
 Second derivative matrix not updated -- first step.
 The second derivative matrix:
                          R1        R2        R3        R4        A1
           R1           0.67644
           R2           0.11907   0.38046
           R3           0.00018   0.01559   0.44443
           R4          -0.00335   0.00424  -0.00619   0.48182
           A1          -0.00470  -0.00188   0.00663  -0.00613   0.08301
           A2           0.00808   0.01442  -0.00806   0.00271  -0.05093
           A3          -0.00338  -0.01254   0.00142   0.00342  -0.03209
           A4           0.10960   0.07217  -0.01853   0.01317  -0.04339
           D1           0.00000  -0.00000   0.00000  -0.00000  -0.00000
           D2          -0.00000  -0.00000   0.00000   0.00000  -0.00000
           D3          -0.00000   0.00000   0.00000   0.00000   0.00000
                          A2        A3        A4        D1        D2
           A2           0.08863
           A3          -0.03770   0.06979
           A4           0.03964   0.00375   0.52309
           D1           0.00000  -0.00000   0.00000   0.02190
           D2          -0.00000   0.00000  -0.00000   0.02101   0.02057
           D3           0.00000  -0.00000   0.00000  -0.00096  -0.00047
                          D3
           D3           0.00052
 ITU=  0
     Eigenvalues ---    0.00942   0.10231   0.12870   0.32972   0.43951
     Eigenvalues ---    0.46636   0.49677   0.784041000.000001000.00000
     Eigenvalues --- 1000.00000
 RFO step:  Lambda=-1.24844351D-03 EMin= 9.41633871D-03
 Linear search not attempted -- first point.
 Iteration  1 RMS(Cart)=  0.05483786 RMS(Int)=  0.01916020
 Iteration  2 RMS(Cart)=  0.01206461 RMS(Int)=  0.00445051
 Iteration  3 RMS(Cart)=  0.00018600 RMS(Int)=  0.00444452
 Iteration  4 RMS(Cart)=  0.00000034 RMS(Int)=  0.00444452
 Iteration  1 RMS(Cart)=  0.00016852 RMS(Int)=  0.00018223
 Iteration  2 RMS(Cart)=  0.00005779 RMS(Int)=  0.00020172
 Iteration  3 RMS(Cart)=  0.00001982 RMS(Int)=  0.00021611
 Iteration  4 RMS(Cart)=  0.00000679 RMS(Int)=  0.00022174
 Iteration  5 RMS(Cart)=  0.00000233 RMS(Int)=  0.00022374
 Iteration  6 RMS(Cart)=  0.00000080 RMS(Int)=  0.00022444
 ITry= 1 IFail=0 DXMaxC= 1.23D-01 DCOld= 1.00D+10 DXMaxT= 5.00D-02 DXLimC= 3.00D+00 Rises=F
 Variable       Old X    -DE/DX   Delta X   Delta X   Delta X     New X
                                 (Linear)    (Quad)   (Total)
    R1        2.30499  -0.00034   0.00000  -0.00099  -0.00099   2.30400
    R2        2.50777   0.00083   0.00000   0.00260   0.00260   2.51037
    R3        1.91531  -0.00018   0.00000  -0.00059  -0.00059   1.91472
    R4        1.89668   0.00002   0.00000   0.00004   0.00004   1.89672
    A1        2.08458   0.00040   0.00000  -0.00293  -0.01125   2.07333
    A2        2.04235  -0.00057   0.00000  -0.01033  -0.01883   2.02352
    A3        2.15316   0.00018   0.00000  -0.00444  -0.01305   2.14012
    A4        1.99207   0.00014   0.00000   0.00066   0.00066   1.99273
    D1        0.17453  -0.00582   0.00000   0.00000  -0.00000   0.17453
    D2       -3.04861  -0.00557   0.00000  -0.23323  -0.23166   3.00292
    D3        3.05459   0.00023   0.00000  -0.24910  -0.24820   2.80639
         Item               Value     Threshold  Converged?
 Maximum Force            0.002664     0.000450     NO 
 RMS     Force            0.001202     0.000300     NO 
 Maximum Displacement     0.122811     0.001800     NO 
 RMS     Displacement     0.065510     0.001200     NO 
 Predicted change in Energy=-6.956456D-04
 Lowest energy point so far.  Saving SCF results.
 GradGradGradGradGradGradGradGradGradGradGradGradGradGradGradGradGradGrad

 Leave Link  103 at Wed May 10 21:49:35 2023, MaxMem=   536870912 cpu:         0.1
 (Enter /Local/ce_dana/g09/l202.exe)
                          Input orientation:                          
 ---------------------------------------------------------------------
 Center     Atomic      Atomic             Coordinates (Angstroms)
 Number     Number       Type             X           Y           Z
 ---------------------------------------------------------------------
      1          8           0        0.645962   -1.846803    0.371743
      2          7           0       -0.506315   -0.100110   -0.074493
      3          7           0        0.684757   -0.653307    0.125630
      4          1           0       -1.337036   -0.640322    0.136925
      5          1           0       -0.517666    0.900199   -0.156133
 ---------------------------------------------------------------------
                    Distance matrix (angstroms):
                    1          2          3          4          5
     1  O    0.000000
     2  N    2.139580   0.000000
     3  N    1.219225   1.328430   0.000000
     4  H    2.333027   1.013225   2.021866   0.000000
     5  H    3.029637   1.003699   1.984588   1.769309   0.000000
 Stoichiometry    H2N2O
 Framework group  C1[X(H2N2O)]
 Deg. of freedom     9
 Full point group                 C1      NOp   1
 RotChk:  IX=0 Diff= 7.77D-02
 Largest Abelian subgroup         C1      NOp   1
 Largest concise Abelian subgroup C1      NOp   1
                         Standard orientation:                         
 ---------------------------------------------------------------------
 Center     Atomic      Atomic             Coordinates (Angstroms)
 Number     Number       Type             X           Y           Z
 ---------------------------------------------------------------------
      1          8           0       -1.122348    0.218730    0.000929
      2          7           0        1.015772    0.148075   -0.034500
      3          7           0       -0.140670   -0.504301    0.007614
      4          1           0        1.013273    1.154056    0.086413
      5          1           0        1.839793   -0.410315    0.094352
 ---------------------------------------------------------------------
 Rotational constants (GHZ):     82.0587951     12.8971297     11.1605229
 Leave Link  202 at Wed May 10 21:49:35 2023, MaxMem=   536870912 cpu:         0.0
 (Enter /Local/ce_dana/g09/l301.exe)
 Standard basis: Aug-CC-pVTZ (5D, 7F)
 Ernie: Thresh=  0.10000D-02 Tol=  0.10000D-05 Strict=F.
 Ernie:  9 primitive shells out of 112 were deleted.
 There are   215 symmetry adapted cartesian basis functions of A   symmetry.
 There are   184 symmetry adapted basis functions of A   symmetry.
   184 basis functions,   270 primitive gaussians,   215 cartesian basis functions
    12 alpha electrons       12 beta electrons
       nuclear repulsion energy        72.2309842934 Hartrees.
 IExCor=  419 DFT=T Ex+Corr=B2PLYPD3 ExCW=0 ScaHFX=  0.530000
 ScaDFX=  0.470000  0.470000  0.730000  0.730000 ScalE2=  0.270000  0.270000
 IRadAn=      5 IRanWt=     -1 IRanGd=            0 ICorTp=0 IEmpDi=141
 NAtoms=    5 NActive=    5 NUniq=    5 SFac= 1.00D+00 NAtFMM=   60 NAOKFM=F Big=F
 Integral buffers will be    131072 words long.
 Regular integral format.
 Two-electron integral symmetry is turned on.
 R6Disp:  Grimme-D3(BJ) Dispersion energy=       -0.0013778269 Hartrees.
 Nuclear repulsion after empirical dispersion term =       72.2296064665 Hartrees.
 Leave Link  301 at Wed May 10 21:49:35 2023, MaxMem=   536870912 cpu:         0.0
 (Enter /Local/ce_dana/g09/l302.exe)
 NPDir=0 NMtPBC=     1 NCelOv=     1 NCel=       1 NClECP=     1 NCelD=      1
         NCelK=      1 NCelE2=     1 NClLst=     1 CellRange=     0.0.
 One-electron integrals computed using PRISM.
 NBasis=   184 RedAO= T EigKep=  6.67D-05  NBF=   184
 NBsUse=   184 1.00D-06 EigRej= -1.00D+00 NBFU=   184
 Precomputing XC quadrature grid using
 IXCGrd= 4 IRadAn=           5 IRanWt=          -1 IRanGd=           0 AccXCQ= 0.00D+00.
 Generated NRdTot=       0 NPtTot=           0 NUsed=           0 NTot=          32
 NSgBfM=   215   215   215   215   215 MxSgAt=     5 MxSgA2=     5.
 Leave Link  302 at Wed May 10 21:49:36 2023, MaxMem=   536870912 cpu:         1.8
 (Enter /Local/ce_dana/g09/l303.exe)
 DipDrv:  MaxL=1.
 Leave Link  303 at Wed May 10 21:49:36 2023, MaxMem=   536870912 cpu:         0.1
 (Enter /Local/ce_dana/g09/l401.exe)
 Initial guess from the checkpoint file:  "check.chk"
 B after Tr=     0.000000   -0.000000    0.000000
         Rot=    1.000000   -0.000093    0.000045   -0.000220 Ang=  -0.03 deg.
 Guess basis will be translated and rotated to current coordinates.
 JPrj=2 DoOrth=T DoCkMO=T.
 Generating alternative initial guess.
 ExpMin= 2.53D-02 ExpMax= 1.53D+04 ExpMxC= 5.22D+02 IAcc=3 IRadAn=         5 AccDes= 0.00D+00
 Harris functional with IExCor=  419 and IRadAn=       5 diagonalized for initial guess.
 HarFok:  IExCor=  419 AccDes= 0.00D+00 IRadAn=         5 IDoV= 1 UseB2=F ITyADJ=14
 ICtDFT=  3500011 ScaDFX=  1.000000  1.000000  1.000000  1.000000
 FoFCou: FMM=F IPFlag=           0 FMFlag=      100000 FMFlg1=           0
         NFxFlg=           0 DoJE=T BraDBF=F KetDBF=T FulRan=T
         wScrn=  0.000000 ICntrl=     500 IOpCl=  0 I1Cent=   200000004 NGrid=           0
         NMat0=    1 NMatS0=      1 NMatT0=    0 NMatD0=    1 NMtDS0=    0 NMtDT0=    0
 Petite list used in FoFCou.
 Harris En= -185.931983089481    
 Leave Link  401 at Wed May 10 21:49:36 2023, MaxMem=   536870912 cpu:         6.9
 (Enter /Local/ce_dana/g09/l502.exe)
 Closed shell SCF:
 Using DIIS extrapolation, IDIIS=  1040.
 Integral symmetry usage will be decided dynamically.
 Keep R1 ints in memory in canonical form, NReq=150035761.
 IVT=      148311 IEndB=      148311 NGot=   536870912 MDV=   391873892
 LenX=   391873892 LenY=   391827226
 Requested convergence on RMS density matrix=1.00D-08 within  64 cycles.
 Requested convergence on MAX density matrix=1.00D-06.
 Requested convergence on             energy=1.00D-06.
 No special actions if energy rises.
 FoFCou: FMM=F IPFlag=           0 FMFlag=           0 FMFlg1=           0
         NFxFlg=           0 DoJE=F BraDBF=F KetDBF=F FulRan=T
         wScrn=  0.000000 ICntrl=     600 IOpCl=  0 I1Cent=           0 NGrid=           0
         NMat0=    1 NMatS0=  17020 NMatT0=    0 NMatD0=    1 NMtDS0=    0 NMtDT0=    0
 Symmetry not used in FoFCou.

 Cycle   1  Pass 1  IDiag  1:
 E= -185.579291595005    
 DIIS: error= 3.80D-03 at cycle   1 NSaved=   1.
 NSaved= 1 IEnMin= 1 EnMin= -185.579291595005     IErMin= 1 ErrMin= 3.80D-03
 ErrMax= 3.80D-03  0.00D+00 EMaxC= 1.00D-01 BMatC= 4.15D-03 BMatP= 4.15D-03
 IDIUse=3 WtCom= 9.62D-01 WtEn= 3.80D-02
 Coeff-Com:  0.100D+01
 Coeff-En:   0.100D+01
 Coeff:      0.100D+01
 Gap=     0.608 Goal=   None    Shift=    0.000
 GapD=    0.608 DampG=2.000 DampE=1.000 DampFc=2.0000 IDamp=-1.
 RMSDP=5.12D-04 MaxDP=2.38D-02              OVMax= 2.95D-02

 Cycle   2  Pass 1  IDiag  1:
 E= -185.583566067512     Delta-E=       -0.004274472507 Rises=F Damp=F
 DIIS: error= 8.08D-04 at cycle   2 NSaved=   2.
 NSaved= 2 IEnMin= 2 EnMin= -185.583566067512     IErMin= 2 ErrMin= 8.08D-04
[...]
 ! Name  Definition              Value          Derivative Info.                !
 --------------------------------------------------------------------------------
 ! R1    R(1,3)                  1.2196         -DE/DX =   -0.0001              !
 ! R2    R(2,3)                  1.3268         -DE/DX =    0.0001              !
 ! R3    R(2,4)                  1.0135         -DE/DX =    0.0                 !
 ! R4    R(2,5)                  1.0036         -DE/DX =    0.0                 !
 ! A1    A(3,2,4)              119.4842         -DE/DX =    0.0                 !
 ! A2    A(3,2,5)              116.9041         -DE/DX =    0.0                 !
 ! A3    A(4,2,5)              123.6117         -DE/DX =    0.0                 !
 ! A4    A(1,3,2)              114.1568         -DE/DX =    0.0                 !
 ! D1    D(4,2,3,1)              0.0002         -DE/DX =    0.0                 !
 ! D2    D(5,2,3,1)            179.9568         -DE/DX =    0.0                 !
 ! D3    D(3,2,4,5)            179.9535         -DE/DX =    0.0                 !
 --------------------------------------------------------------------------------
 Lowest energy point so far.  Saving SCF results.
 GradGradGradGradGradGradGradGradGradGradGradGradGradGradGradGradGradGrad

 Summary of Optimized Potential Surface Scan
                           1         2         3         4         5
     Eigenvalues --  -185.80402-185.80391-185.80330-185.80182-185.79938
           R1           1.21954   1.21858   1.21614   1.21344   1.21043
           R2           1.32696   1.33061   1.34010   1.35081   1.36330
           R3           1.01350   1.01397   1.01491   1.01552   1.01595
           R4           1.00368   1.00446   1.00635   1.00819   1.00995
           A1         119.48865 118.70823 117.25082 115.95951 114.85888
           A2         116.90742 115.99753 114.01557 111.82799 109.80509
           A3         123.60394 122.44175 119.72771 116.71450 113.75810
           A4         114.15718 114.13152 114.08345 114.02088 113.90725
           D1           0.00015  10.00005  20.00024  30.00024  40.00025
           D2         179.99997 171.36410 167.15426 167.19044 169.70113
           D3         179.99980 160.10286 145.21381 135.07106 127.72968
                           6         7         8         9        10
     Eigenvalues --  -185.79609-185.79220-185.78800-185.78383-185.78001
           R1           1.20707   1.20322   1.19899   1.19436   1.18970
           R2           1.37785   1.39497   1.41439   1.43569   1.45770
           R3           1.01644   1.01710   1.01819   1.01955   1.02113
           R4           1.01167   1.01338   1.01516   1.01703   1.01887
           A1         113.74718 112.36470 110.59696 108.54739 106.38184
           A2         107.97841 106.30089 104.84039 103.52870 102.47706
           A3         111.06713 108.50723 106.27813 104.34891 102.80343
           A4         113.70118 113.39134 112.96516 112.47468 111.98049
           D1          50.00011  60.00008  70.00011  80.00011  90.00012
           D2         173.75471 178.55116-175.83574-169.53757-162.44497
           D3         122.06199 117.24466 113.25252 109.90859 107.32190
                          11        12        13        14        15
     Eigenvalues --  -185.77681-185.77444-185.77304-185.77278-185.77394
           R1           1.18553   1.18228   1.18033   1.18002   1.18255
           R2           1.47810   1.49464   1.50462   1.50656   1.49170
           R3           1.02256   1.02338   1.02323   1.02172   1.01822
           R4           1.02058   1.02187   1.02255   1.02202   1.01927
           A1         104.40240 102.88618 102.01483 101.84394 102.85931
           A2         101.70964 101.29682 101.31987 102.12613 104.52067
           A3         101.74187 101.29110 101.60641 102.97267 106.40036
           A4         111.54979 111.23959 111.03855 111.02054 111.16705
           D1         100.00011 110.00015 120.00018 130.00010 140.00009
           D2        -154.46665-145.49147-135.38154-123.75985-109.00450
           D3         105.50916 104.51279 104.39370 105.57895 109.58934
                          16        17        18        19        20
     Eigenvalues --  -185.80219-185.80345-185.80393-185.80402-185.80393
           R1           1.21478   1.21668   1.21881   1.21959   1.21874
           R2           1.34789   1.33856   1.33002   1.32688   1.33023
           R3           1.00807   1.00592   1.00436   1.00369   1.00438
           R4           1.01720   1.01542   1.01393   1.01358   1.01400
           A1         113.06888 114.56923 116.19669 116.90330 116.19563
           A2         114.62918 116.90798 118.69852 119.51066 118.70070
           A3         117.46307 120.23463 122.60207 123.58573 122.62546
           A4         113.97118 114.04055 114.12574 114.15618 114.12424
           D1         150.00018 160.00024 170.00021-179.99981-169.99982
           D2          11.69666  11.46985   7.46261   0.19498  -7.37483
           D3        -137.04185-147.39649-161.79311 180.20349 161.87997
                          21        22        23        24        25
     Eigenvalues --  -185.80345-185.80219-185.79996-185.79674-185.79270
           R1           1.21683   1.21469   1.21245   1.20995   1.20704
           R2           1.33830   1.34803   1.35924   1.37216   1.38751
           R3           1.00607   1.00814   1.01024   1.01243   1.01460
           R4           1.01536   1.01716   1.01904   1.02090   1.02243
           A1         114.62363 113.05156 111.67016 110.35841 109.06661
           A2         116.83956 114.62276 112.46646 110.47896 108.73809
           A3         120.27885 117.43453 114.60622 111.74445 109.15921
           A4         114.06021 113.97772 113.90761 113.85462 113.82062
           D1        -159.99980-149.99981-139.99981-129.99980-119.99986
           D2         -11.40228 -11.76937  -9.52179  -5.91697  -1.05784
           D3         147.42805 136.97655 129.36409 123.35063 118.67914
                          26        27        28        29        30
     Eigenvalues --  -185.78810-185.78325-185.77855-185.77440-185.77120
           R1           1.20369   1.19996   1.19604   1.19224   1.18908
           R2           1.40522   1.42544   1.44716   1.46908   1.48751
           R3           1.01685   1.01905   1.02097   1.02241   1.02307
           R4           1.02379   1.02477   1.02532   1.02532   1.02461
           A1         107.77094 106.42599 105.19346 104.15581 103.59220
           A2         107.19276 105.84675 104.73866 103.94978 103.43962
           A3         106.70873 104.56666 102.90408 101.92906 101.83503
           A4         113.79494 113.77001 113.74805 113.71276 113.69970
           D1        -109.99993 -99.99985 -89.99978 -79.99981 -69.99979
           D2           4.53216  10.87017  18.10300  26.39783  35.94566
           D3         114.85295 111.76177 109.43115 107.90219 107.15610
                          31        32        33        34        35
     Eigenvalues --  -185.76934-185.76922-185.79938-185.80182-185.80330
           R1           1.18706   1.18745   1.21055   1.21341   1.21640
           R2           1.50005   1.49636   1.36333   1.35049   1.33955
           R3           1.02268   1.02122   1.01608   1.01549   1.01492
           R4           1.02345   1.02078   1.00991   1.00820   1.00618
           A1         103.45154 104.34048 114.78400 115.96966 117.17430
           A2         103.51317 104.36255 109.83418 111.87772 114.03691
           A3         102.84439 105.53382 113.78635 116.72785 119.72745
           A4         113.65594 113.67171 113.88323 114.02761 114.06926
           D1         -59.99978 -49.99989 -39.99976 -29.99979 -19.99978
           D2          47.01171  60.53634-169.70236-167.27962-167.06454
           D3         107.51541 109.68214-127.72900-135.18070-145.12448
                          36        37
     Eigenvalues --  -185.80391-185.80402
           R1           1.21859   1.21962
           R2           1.33063   1.32683
           R3           1.01397   1.01350
           R4           1.00442   1.00363
           A1         118.64450 119.48417
           A2         116.02386 116.90408
           A3         122.39938 123.61173
           A4         114.13056 114.15682
           D1          -9.99976   0.00019
           D2        -171.10608 179.95678
           D3        -159.84084 179.95351
 Largest change from initial coordinates is atom    5       0.001 Angstoms.
 Leave Link  103 at Thu May 11 01:05:27 2023, MaxMem=   536870912 cpu:         0.1
 (Enter /Local/ce_dana/g09/l202.exe)
                          Input orientation:                          
 ---------------------------------------------------------------------
 Center     Atomic      Atomic             Coordinates (Angstroms)
 Number     Number       Type             X           Y           Z
 ---------------------------------------------------------------------
      1          8           0        0.851242   -1.465848    0.858294
      2          7           0       -0.541515   -0.158826   -0.103139
      3          7           0        0.466894   -1.014778   -0.207678
      4          1           0       -0.916655    0.060637    0.812443
      5          1           0       -0.890262    0.238473   -0.956248
 ---------------------------------------------------------------------
                    Distance matrix (angstroms):
                    1          2          3          4          5
     1  O    0.000000
     2  N    2.138325   0.000000
     3  N    1.219625   1.326828   0.000000
     4  H    2.336176   1.013500   2.027652   0.000000
     5  H    3.038109   1.003626   1.993205   1.777804   0.000000
 Stoichiometry    H2N2O
 Framework group  C1[X(H2N2O)]
 Deg. of freedom     9
 Full point group                 C1      NOp   1
 RotChk:  IX=0 Diff= 1.63D-15
 Largest Abelian subgroup         C1      NOp   1
 Largest concise Abelian subgroup C1      NOp   1
                         Standard orientation:                         
 ---------------------------------------------------------------------
 Center     Atomic      Atomic             Coordinates (Angstroms)
 Number     Number       Type             X           Y           Z
 ---------------------------------------------------------------------
      1          8           0       -1.122570    0.218926    0.000052
      2          7           0        1.014554    0.147273   -0.000076
      3          7           0       -0.140943   -0.504878   -0.000056
      4          1           0        1.015336    1.160773   -0.000001
      5          1           0        1.849952   -0.408942    0.000512
 ---------------------------------------------------------------------
 Rotational constants (GHZ):     82.2080481     12.9028557     11.1524395
 Leave Link  202 at Thu May 11 01:05:27 2023, MaxMem=   536870912 cpu:         0.0
 (Enter /Local/ce_dana/g09/l601.exe)
 Copying SCF densities to generalized density rwf, IOpCl= 0 IROHF=0.

 **********************************************************************

            Population analysis using the SCF density.

 **********************************************************************

 Orbital symmetries:
       Occupied  (A) (A) (A) (A) (A) (A) (A) (A) (A) (A) (A) (A)
       Virtual   (A) (A) (A) (A) (A) (A) (A) (A) (A) (A) (A) (A)
                 (A) (A) (A) (A) (A) (A) (A) (A) (A) (A) (A) (A)
                 (A) (A) (A) (A) (A) (A) (A) (A) (A) (A) (A) (A)
                 (A) (A) (A) (A) (A) (A) (A) (A) (A) (A) (A) (A)
                 (A) (A) (A) (A) (A) (A) (A) (A) (A) (A) (A) (A)
                 (A) (A) (A) (A) (A) (A) (A) (A) (A) (A) (A) (A)
                 (A) (A) (A) (A) (A) (A) (A) (A) (A) (A) (A) (A)
                 (A) (A) (A) (A) (A) (A) (A) (A) (A) (A) (A) (A)
                 (A) (A) (A) (A) (A) (A) (A) (A) (A) (A) (A) (A)
                 (A) (A) (A) (A) (A) (A) (A) (A) (A) (A) (A) (A)
                 (A) (A) (A) (A) (A) (A) (A) (A) (A) (A) (A) (A)
                 (A) (A) (A) (A) (A) (A) (A) (A) (A) (A) (A) (A)
                 (A) (A) (A) (A) (A) (A) (A) (A) (A) (A) (A) (A)
                 (A) (A) (A) (A) (A) (A) (A) (A) (A) (A) (A) (A)
                 (A) (A) (A) (A)
 The electronic state is 1-A.
 Alpha  occ. eigenvalues --  -19.76123 -14.99835 -14.91420  -1.31539  -1.08580
 Alpha  occ. eigenvalues --   -0.79329  -0.66799  -0.60774  -0.54514  -0.49457
 Alpha  occ. eigenvalues --   -0.36357  -0.32505
 Alpha virt. eigenvalues --    0.00031   0.00732   0.02522   0.05985   0.08258
 Alpha virt. eigenvalues --    0.09729   0.10207   0.11771   0.12190   0.13277
 Alpha virt. eigenvalues --    0.14454   0.16366   0.18759   0.20122   0.22710
 Alpha virt. eigenvalues --    0.22852   0.25117   0.26521   0.28858   0.31357
 Alpha virt. eigenvalues --    0.32011   0.34519   0.36506   0.39882   0.43116
 Alpha virt. eigenvalues --    0.44976   0.45722   0.45758   0.47507   0.51379
 Alpha virt. eigenvalues --    0.51640   0.54394   0.58623   0.58722   0.63786
 Alpha virt. eigenvalues --    0.68193   0.70866   0.71166   0.72610   0.73820
 Alpha virt. eigenvalues --    0.75413   0.77594   0.79846   0.83484   0.88774
 Alpha virt. eigenvalues --    0.89180   0.91886   0.92789   0.93180   0.96386
 Alpha virt. eigenvalues --    0.98260   0.98804   1.00673   1.04782   1.05963
 Alpha virt. eigenvalues --    1.07389   1.11371   1.13899   1.14401   1.20902
 Alpha virt. eigenvalues --    1.21344   1.21609   1.25542   1.36226   1.39883
 Alpha virt. eigenvalues --    1.42280   1.43024   1.44014   1.46047   1.51590
 Alpha virt. eigenvalues --    1.60383   1.61896   1.62126   1.66121   1.78469
 Alpha virt. eigenvalues --    1.79870   1.83617   1.85537   1.93290   1.95775
 Alpha virt. eigenvalues --    1.98659   2.03452   2.04616   2.07595   2.08438
 Alpha virt. eigenvalues --    2.14704   2.16194   2.18950   2.21860   2.27060
 Alpha virt. eigenvalues --    2.27398   2.33526   2.35194   2.38358   2.41459
 Alpha virt. eigenvalues --    2.47982   2.52130   2.54498   2.63122   2.69140
 Alpha virt. eigenvalues --    2.71903   2.76570   2.87197   2.91923   3.03780
 Alpha virt. eigenvalues --    3.25413   3.45990   3.49041   3.62774   3.73430
 Alpha virt. eigenvalues --    3.74015   3.92647   3.98726   4.02600   4.08845
 Alpha virt. eigenvalues --    4.09763   4.11166   4.15845   4.21405   4.29525
 Alpha virt. eigenvalues --    4.33662   4.36365   4.37675   4.38977   4.51717
 Alpha virt. eigenvalues --    4.52384   4.58043   4.71104   4.72916   4.74676
 Alpha virt. eigenvalues --    4.77230   4.78885   4.84817   4.93368   4.93700
 Alpha virt. eigenvalues --    4.96874   5.05632   5.09821   5.14242   5.14640
 Alpha virt. eigenvalues --    5.27173   5.33341   5.40452   5.41203   5.49138
 Alpha virt. eigenvalues --    5.75791   5.78613   5.80631   5.85114   5.86684
 Alpha virt. eigenvalues --    6.02794   6.06946   6.22612   6.31477   6.33959
 Alpha virt. eigenvalues --    6.58500   6.60510   6.70036   6.88874   6.91731
 Alpha virt. eigenvalues --    7.01092   7.02119   7.04927   7.21632   7.23378
 Alpha virt. eigenvalues --    7.36931   7.45924   7.59291   7.84760  14.66665
 Alpha virt. eigenvalues --   14.99452  17.07549
          Condensed to atoms (all electrons):
               1          2          3          4          5
     1  O    8.445602  -0.028737  -0.006956   0.001331   0.016314
     2  N   -0.028737   6.299815  -0.046092   0.356299   0.451548
     3  N   -0.006956  -0.046092   7.041073   0.010361  -0.112568
     4  H    0.001331   0.356299   0.010361   0.508456  -0.044004
     5  H    0.016314   0.451548  -0.112568  -0.044004   0.510064
 Mulliken charges:
               1
     1  O   -0.427554
     2  N   -0.032832
     3  N    0.114182
     4  H    0.167557
     5  H    0.178647
 Sum of Mulliken charges =  -0.00000
 Mulliken charges with hydrogens summed into heavy atoms:
               1
     1  O   -0.427554
     2  N    0.313372
     3  N    0.114182
 Electronic spatial extent (au):  <R**2>=            129.2840
 Charge=             -0.0000 electrons
 Dipole moment (field-independent basis, Debye):
    X=              3.7482    Y=              0.6965    Z=              0.0010  Tot=              3.8124
 Quadrupole moment (field-independent basis, Debye-Ang):
   XX=            -15.6444   YY=            -16.8140   ZZ=            -17.9281
   XY=              0.4756   XZ=              0.0022   YZ=             -0.0006
 Traceless Quadrupole moment (field-independent basis, Debye-Ang):
   XX=              1.1511   YY=             -0.0185   ZZ=             -1.1326
   XY=              0.4756   XZ=              0.0022   YZ=             -0.0006
 Octapole moment (field-independent basis, Debye-Ang**2):
  XXX=             10.8884  YYY=              4.6621  ZZZ=              0.0008  XYY=              2.8405
  XXY=             -1.2149  XXZ=              0.0043  XZZ=             -1.4107  YZZ=              0.0691
  YYZ=              0.0004  XYZ=             -0.0008
 Hexadecapole moment (field-independent basis, Debye-Ang**3):
 XXXX=            -92.9141 YYYY=            -32.2303 ZZZZ=            -16.6004 XXXY=             -4.1875
 XXXZ=              0.0086 YYYX=              2.3460 YYYZ=             -0.0007 ZZZX=              0.0014
 ZZZY=             -0.0003 XXYY=            -19.8916 XXZZ=            -21.9196 YYZZ=             -8.3862
 XXYZ=             -0.0017 YYXZ=              0.0007 ZZXY=             -0.2656
 N-N= 7.223154331193D+01 E-N=-5.806900605240D+02  KE= 1.847502453640D+02
 No NMR shielding tensors so no spin-rotation constants.
 Leave Link  601 at Thu May 11 01:05:27 2023, MaxMem=   536870912 cpu:         1.9
 (Enter /Local/ce_dana/g09/l9999.exe)

 Test job not archived.
 1\1\GINC-TECH-WN179\Scan\RB2PLYPD3-FC\Aug-CC-pVTZ\H2N2O1\ALONGD\11-May
 -2023\0\\#P opt=(modredundant, calcfc, noeigentest, maxStep=5) scf=(ti
 ght, direct) integral=(grid=ultrafine, Acc2E=12) guess=read b2plypd3/a
 ug-cc-pvtz IOp(2/9=2000) scf=xqc\\NH2NO\\0,1\O,0.8512415256,-1.4658482
 392,0.8582944285\N,-0.5415154356,-0.1588258272,-0.1031388256\N,0.46689
 38652,-1.0147783089,-0.2076781271\H,-0.9166553783,0.0606371243,0.81244
 25304\H,-0.8902615769,0.238473251,-0.9562480062\\Version=ES64L-G09RevD
 .01\State=1-A\HF=-185.5838211,-185.583712,-185.583094,-185.5816196,-18
 5.5791773,-185.5759043,-185.5720603,-185.567953,-185.563913,-185.56022
 52,-185.5571333,-185.5548332,-185.5535166,-185.5533562,-185.5547663,-1
 85.5819402,-185.583229,-185.583731,-185.5838193,-185.583727,-185.58322
 51,-185.5819431,-185.5796751,-185.5764567,-185.5724552,-185.5679359,-1
 85.5632169,-185.5586578,-185.5546349,-185.5515661,-185.5498311,-185.54
 99922,-185.5791674,-185.5816316,-185.5830962,-185.5837136,-185.5838205
 \MP2=-185.8040153,-185.8039069,-185.8033012,-185.8018204,-185.799375,-
 185.7960899,-185.7921995,-185.788001,-185.7838272,-185.7800065,-185.77
 6813,-185.7744429,-185.7730442,-185.7727784,-185.7739413,-185.802193,-
 185.8034495,-185.8039299,-185.8040152,-185.8039299,-185.8034499,-185.8
 021928,-185.7999555,-185.7967425,-185.7927046,-185.7880958,-185.783248
 7,-185.7785472,-185.7743964,-185.771197,-185.7693354,-185.7692222,-185
 .7993751,-185.8018205,-185.8033012,-185.8039068,-185.8040153\RMSD=6.54
 4e-09,2.808e-09,4.261e-09,3.608e-09,6.697e-09,5.810e-09,5.316e-09,8.81
 3e-09,6.758e-09,4.546e-09,4.403e-09,4.801e-09,8.447e-09,8.785e-09,2.30
 7e-09,3.234e-09,8.465e-09,6.237e-09,9.537e-09,4.300e-09,6.015e-09,7.47
 0e-09,4.549e-09,3.674e-09,6.603e-09,9.958e-09,7.996e-09,4.744e-09,9.75
 7e-09,3.018e-09,1.935e-09,9.738e-09,1.912e-09,5.597e-09,2.566e-09,3.68
 1e-09,7.560e-09\PG=C01 [X(H2N2O1)]\\@


 CONFIDENCE: THAT QUIET ASSURED FEELING YOU HAVE
 JUST BEFORE YOU FALL FLAT ON YOUR FACE.
 Job cpu time:       1 days  7 hours  7 minutes 28.3 seconds.
 File lengths (MBytes):  RWF=   3966 Int=      0 D2E=      0 Chk=      5 Scr=      1
 Normal termination of Gaussian 09 at Thu May 11 01:05:28 2023.
