 Entering Gaussian System, Link 0=g03
 Input=input.gjf
 Output=input.log
 Initial command:
 /opt/g03/l1.exe /scratch/mattsj/Gau-27979.inp -scrdir=/scratch/mattsj/
 Entering Link 1 = /opt/g03/l1.exe PID=     27981.
  
 Copyright (c) 1988,1990,1992,1993,1995,1998,2003,2004, Gaussian, Inc.
                  All Rights Reserved.
  
 This is the Gaussian(R) 03 program.  It is based on the
 the Gaussian(R) 98 system (copyright 1998, Gaussian, Inc.),
 the Gaussian(R) 94 system (copyright 1995, Gaussian, Inc.),
 the Gaussian 92(TM) system (copyright 1992, Gaussian, Inc.),
 the Gaussian 90(TM) system (copyright 1990, Gaussian, Inc.),
 the Gaussian 88(TM) system (copyright 1988, Gaussian, Inc.),
 the Gaussian 86(TM) system (copyright 1986, Carnegie Mellon
 University), and the Gaussian 82(TM) system (copyright 1983,
 Carnegie Mellon University). Gaussian is a federally registered
 trademark of Gaussian, Inc.
  
 This software contains proprietary and confidential information,
 including trade secrets, belonging to Gaussian, Inc.
  
 This software is provided under written license and may be
 used, copied, transmitted, or stored only in accord with that
 written license.
  
 The following legend is applicable only to US Government
 contracts under FAR:
  
                    RESTRICTED RIGHTS LEGEND
  
 Use, reproduction and disclosure by the US Government is
 subject to restrictions as set forth in subparagraphs (a)
 and (c) of the Commercial Computer Software - Restricted
 Rights clause in FAR 52.227-19.
  
 Gaussian, Inc.
 340 Quinnipiac St., Bldg. 40, Wallingford CT 06492
  
  
 ---------------------------------------------------------------
 Warning -- This program may not be used in any manner that
 competes with the business of Gaussian, Inc. or will provide
 assistance to any competitor of Gaussian, Inc.  The licensee
 of this program is prohibited from giving any competitor of
 Gaussian, Inc. access to this program.  By using this program,
 the user acknowledges that Gaussian, Inc. is engaged in the
 business of creating and licensing software in the field of
 computational chemistry and represents and warrants to the
 licensee that it is not a competitor of Gaussian, Inc. and that
 it will not use this program in any manner prohibited above.
 ---------------------------------------------------------------
  

 Cite this work as:
 Gaussian 03, Revision D.01,
 M. J. Frisch, G. W. Trucks, H. B. Schlegel, G. E. Scuseria, 
 M. A. Robb, J. R. Cheeseman, J. A. Montgomery, Jr., T. Vreven, 
 K. N. Kudin, J. C. Burant, J. M. Millam, S. S. Iyengar, J. Tomasi, 
 V. Barone, B. Mennucci, M. Cossi, G. Scalmani, N. Rega, 
 G. A. Petersson, H. Nakatsuji, M. Hada, M. Ehara, K. Toyota, 
 R. Fukuda, J. Hasegawa, M. Ishida, T. Nakajima, Y. Honda, O. Kitao, 
 H. Nakai, M. Klene, X. Li, J. E. Knox, H. P. Hratchian, J. B. Cross, 
 V. Bakken, C. Adamo, J. Jaramillo, R. Gomperts, R. E. Stratmann, 
 O. Yazyev, A. J. Austin, R. Cammi, C. Pomelli, J. W. Ochterski, 
 P. Y. Ayala, K. Morokuma, G. A. Voth, P. Salvador, J. J. Dannenberg, 
 V. G. Zakrzewski, S. Dapprich, A. D. Daniels, M. C. Strain, 
 O. Farkas, D. K. Malick, A. D. Rabuck, K. Raghavachari, 
 J. B. Foresman, J. V. Ortiz, Q. Cui, A. G. Baboul, S. Clifford, 
 J. Cioslowski, B. B. Stefanov, G. Liu, A. Liashenko, P. Piskorz, 
 I. Komaromi, R. L. Martin, D. J. Fox, T. Keith, M. A. Al-Laham, 
 C. Y. Peng, A. Nanayakkara, M. Challacombe, P. M. W. Gill, 
 B. Johnson, W. Chen, M. W. Wong, C. Gonzalez, and J. A. Pople, 
 Gaussian, Inc., Wallingford CT, 2004.
 
 ******************************************
 Gaussian 03:  AM64L-G03RevD.01 13-Oct-2005
                 7-Feb-2019 
 ******************************************
 %chk=check.chk
 %mem=1500mb
 %nproc=8
 Will use up to    8 processors via shared memory.
 --------------------------------------------------------------------
 # opt=(modredundant, calcfc, noeigentest) b3lyp/6-311+g(d,p) scf=xqc
 --------------------------------------------------------------------
 1/10=4,11=1,14=-1,18=120,26=3,38=1/1,3;
 2/9=110,17=6,18=5,40=1/2;
 3/5=4,6=6,7=111,11=2,16=1,25=1,30=1,74=-5/1,2,3;
 4//1;
 5/5=2,8=3,13=1,38=5/2,8;
 8/6=4,10=90,11=11/1;
 11/6=1,8=1,9=11,15=111,16=1/1,2,10;
 10/6=1,7=6/2;
 6/7=2,8=2,9=2,10=2,28=1/1;
 7/10=1,18=20,25=1/1,2,3,16;
 1/10=4,11=1,14=-1,18=20/3(3);
 2/9=110/2;
 6/7=2,8=2,9=2,10=2,19=2,28=1/1;
 99//99;
 2/9=110/2;
 3/5=4,6=6,7=111,11=2,16=1,25=1,30=1,74=-5/1,2,3;
 4/5=5,16=3/1;
 5/5=2,8=3,13=1,38=5/2,8;
 7//1,2,3,16;
 1/11=1,14=-1,18=20/3(-5);
 2/9=110/2;
 6/7=2,8=2,9=2,10=2,19=2,28=1/1;
 99/9=1/99;
 ----
 name
 ----
 Symbolic Z-matrix:
 Charge =  0 Multiplicity = 1
 O                     0.26915   1.10779   0.43212 
 O                    -1.82679   0.42856  -0.38914 
 O                     1.59486  -0.2199   -0.96048 
 O                     2.74926   0.63874  -0.80025 
 C                    -0.20298  -1.2774    0.15569 
 C                     0.85275  -0.1734    0.24437 
 C                    -1.34053  -0.86036  -0.77517 
 C                    -0.80634   1.37977  -0.46515 
 H                    -0.59971  -1.43083   1.16219 
 H                     0.26676  -2.20528  -0.17805 
 H                     1.53329  -0.30305   1.08689 
 H                    -2.18604  -1.5444   -0.70379 
 H                    -1.00076  -0.83063  -1.81904 
 H                    -1.22184   2.33488  -0.15191 
 H                    -0.41911   1.43831  -1.4939 
 H                     2.33802   1.51722  -0.80221 
 
 The following ModRedundant input section has been read:
 D    6    3    4   16 S  36 10.000                                            

 GradGradGradGradGradGradGradGradGradGradGradGradGradGradGradGradGradGrad
 Berny optimization.
 Initialization pass.
                           ----------------------------
                           !    Initial Parameters    !
                           ! (Angstroms and Degrees)  !
 --------------------------                            --------------------------
 ! Name  Definition              Value          Derivative Info.                !
 --------------------------------------------------------------------------------
 ! R1    R(1,6)                  1.4203         calculate D2E/DX2 analytically  !
 ! R2    R(1,8)                  1.4268         calculate D2E/DX2 analytically  !
 ! R3    R(2,7)                  1.4307         calculate D2E/DX2 analytically  !
 ! R4    R(2,8)                  1.3971         calculate D2E/DX2 analytically  !
 ! R5    R(3,4)                  1.4476         calculate D2E/DX2 analytically  !
 ! R6    R(3,6)                  1.4158         calculate D2E/DX2 analytically  !
 ! R7    R(4,16)                 0.97           calculate D2E/DX2 analytically  !
 ! R8    R(5,6)                  1.5301         calculate D2E/DX2 analytically  !
 ! R9    R(5,7)                  1.5279         calculate D2E/DX2 analytically  !
 ! R10   R(5,9)                  1.0927         calculate D2E/DX2 analytically  !
 ! R11   R(5,10)                 1.0922         calculate D2E/DX2 analytically  !
 ! R12   R(6,11)                 1.0908         calculate D2E/DX2 analytically  !
 ! R13   R(7,12)                 1.0899         calculate D2E/DX2 analytically  !
 ! R14   R(7,13)                 1.0982         calculate D2E/DX2 analytically  !
 ! R15   R(8,14)                 1.0877         calculate D2E/DX2 analytically  !
 ! R16   R(8,15)                 1.1008         calculate D2E/DX2 analytically  !
 ! A1    A(6,1,8)              113.4868         calculate D2E/DX2 analytically  !
 ! A2    A(7,2,8)              110.515          calculate D2E/DX2 analytically  !
 ! A3    A(4,3,6)              107.7173         calculate D2E/DX2 analytically  !
 ! A4    A(3,4,16)             101.4708         calculate D2E/DX2 analytically  !
 ! A5    A(6,5,7)              110.6141         calculate D2E/DX2 analytically  !
 ! A6    A(6,5,9)              107.3638         calculate D2E/DX2 analytically  !
 ! A7    A(6,5,10)             109.5068         calculate D2E/DX2 analytically  !
 ! A8    A(7,5,9)              109.2197         calculate D2E/DX2 analytically  !
 ! A9    A(7,5,10)             111.464          calculate D2E/DX2 analytically  !
 ! A10   A(9,5,10)             108.5608         calculate D2E/DX2 analytically  !
 ! A11   A(1,6,3)              110.9461         calculate D2E/DX2 analytically  !
 ! A12   A(1,6,5)              112.0246         calculate D2E/DX2 analytically  !
 ! A13   A(1,6,11)             105.1576         calculate D2E/DX2 analytically  !
 ! A14   A(3,6,5)              106.776          calculate D2E/DX2 analytically  !
 ! A15   A(3,6,11)             109.0492         calculate D2E/DX2 analytically  !
 ! A16   A(5,6,11)             112.9222         calculate D2E/DX2 analytically  !
 ! A17   A(2,7,5)              109.5464         calculate D2E/DX2 analytically  !
 ! A18   A(2,7,12)             106.5047         calculate D2E/DX2 analytically  !
 ! A19   A(2,7,13)             109.7093         calculate D2E/DX2 analytically  !
 ! A20   A(5,7,12)             111.4919         calculate D2E/DX2 analytically  !
 ! A21   A(5,7,13)             110.8643         calculate D2E/DX2 analytically  !
 ! A22   A(12,7,13)            108.6183         calculate D2E/DX2 analytically  !
 ! A23   A(1,8,2)              112.7413         calculate D2E/DX2 analytically  !
 ! A24   A(1,8,14)             105.9163         calculate D2E/DX2 analytically  !
 ! A25   A(1,8,15)             109.4329         calculate D2E/DX2 analytically  !
 ! A26   A(2,8,14)             107.6483         calculate D2E/DX2 analytically  !
 ! A27   A(2,8,15)             110.1206         calculate D2E/DX2 analytically  !
 ! A28   A(14,8,15)            110.9059         calculate D2E/DX2 analytically  !
 ! D1    D(8,1,6,3)             71.1827         calculate D2E/DX2 analytically  !
 ! D2    D(8,1,6,5)            -48.0415         calculate D2E/DX2 analytically  !
 ! D3    D(8,1,6,11)          -171.0574         calculate D2E/DX2 analytically  !
 ! D4    D(6,1,8,2)             56.9822         calculate D2E/DX2 analytically  !
 ! D5    D(6,1,8,14)           174.4573         calculate D2E/DX2 analytically  !
 ! D6    D(6,1,8,15)           -65.9335         calculate D2E/DX2 analytically  !
 ! D7    D(8,2,7,5)             59.9421         calculate D2E/DX2 analytically  !
 ! D8    D(8,2,7,12)          -179.3489         calculate D2E/DX2 analytically  !
 ! D9    D(8,2,7,13)           -61.9715         calculate D2E/DX2 analytically  !
 ! D10   D(7,2,8,1)            -62.8828         calculate D2E/DX2 analytically  !
 ! D11   D(7,2,8,14)          -179.3309         calculate D2E/DX2 analytically  !
 ! D12   D(7,2,8,15)            59.6482         calculate D2E/DX2 analytically  !
 ! D13   D(6,3,4,16)           -70.5553         Scan                            !
 ! D14   D(4,3,6,1)             68.171          calculate D2E/DX2 analytically  !
 ! D15   D(4,3,6,5)           -169.4998         calculate D2E/DX2 analytically  !
 ! D16   D(4,3,6,11)           -47.1931         calculate D2E/DX2 analytically  !
 ! D17   D(7,5,6,1)             45.918          calculate D2E/DX2 analytically  !
 ! D18   D(7,5,6,3)            -75.7315         calculate D2E/DX2 analytically  !
 ! D19   D(7,5,6,11)           164.4276         calculate D2E/DX2 analytically  !
 ! D20   D(9,5,6,1)            -73.1681         calculate D2E/DX2 analytically  !
 ! D21   D(9,5,6,3)            165.1824         calculate D2E/DX2 analytically  !
 ! D22   D(9,5,6,11)            45.3415         calculate D2E/DX2 analytically  !
 ! D23   D(10,5,6,1)           169.1484         calculate D2E/DX2 analytically  !
 ! D24   D(10,5,6,3)            47.4989         calculate D2E/DX2 analytically  !
 ! D25   D(10,5,6,11)          -72.342          calculate D2E/DX2 analytically  !
 ! D26   D(6,5,7,2)            -51.5102         calculate D2E/DX2 analytically  !
 ! D27   D(6,5,7,12)          -169.1419         calculate D2E/DX2 analytically  !
 ! D28   D(6,5,7,13)            69.7085         calculate D2E/DX2 analytically  !
 ! D29   D(9,5,7,2)             66.4469         calculate D2E/DX2 analytically  !
 ! D30   D(9,5,7,12)           -51.1849         calculate D2E/DX2 analytically  !
 ! D31   D(9,5,7,13)          -172.3345         calculate D2E/DX2 analytically  !
 ! D32   D(10,5,7,2)          -173.5998         calculate D2E/DX2 analytically  !
 ! D33   D(10,5,7,12)           68.7684         calculate D2E/DX2 analytically  !
 ! D34   D(10,5,7,13)          -52.3812         calculate D2E/DX2 analytically  !
 --------------------------------------------------------------------------------
 Trust Radius=3.00D-01 FncErr=1.00D-07 GrdErr=1.00D-06
 Number of optimizations in scan=  37
 Number of steps in this run=  88 maximum allowed number of steps= 100.
 GradGradGradGradGradGradGradGradGradGradGradGradGradGradGradGradGradGrad

                          Input orientation:                          
 ---------------------------------------------------------------------
 Center     Atomic     Atomic              Coordinates (Angstroms)
 Number     Number      Type              X           Y           Z
 ---------------------------------------------------------------------
    1          8             0        0.269151    1.107794    0.432122
    2          8             0       -1.826790    0.428561   -0.389135
    3          8             0        1.594855   -0.219898   -0.960478
    4          8             0        2.749263    0.638737   -0.800252
    5          6             0       -0.202977   -1.277399    0.155686
    6          6             0        0.852746   -0.173399    0.244370
    7          6             0       -1.340528   -0.860363   -0.775170
    8          6             0       -0.806335    1.379765   -0.465148
    9          1             0       -0.599713   -1.430833    1.162193
   10          1             0        0.266764   -2.205284   -0.178053
   11          1             0        1.533289   -0.303053    1.086889
   12          1             0       -2.186036   -1.544404   -0.703793
   13          1             0       -1.000759   -0.830626   -1.819040
   14          1             0       -1.221839    2.334876   -0.151909
   15          1             0       -0.419111    1.438307   -1.493895
   16          1             0        2.338022    1.517218   -0.802209
 ---------------------------------------------------------------------
                    Distance matrix (angstroms):
                    1          2          3          4          5
     1  O    0.000000
     2  O    2.351338   0.000000
     3  O    2.336577   3.529106   0.000000
     4  O    2.808864   4.599288   1.447613   0.000000
     5  C    2.447135   2.417416   2.365656   3.647069   0.000000
     6  C    1.420313   2.818439   1.415820   2.312483   1.530108
     7  C    2.814651   1.430664   3.010151   4.355952   1.527886
     8  C    1.426791   1.397103   2.927454   3.647423   2.794637
     9  H    2.780747   2.714716   3.284543   4.398858   1.092702
    10  H    3.368799   3.371152   2.513518   3.826015   1.092249
    11  H    2.004309   3.742197   2.049980   2.434515   2.197978
    12  H    3.788456   2.029940   4.014392   5.397461   2.177732
    13  H    3.230770   2.076658   2.801309   4.154470   2.176145
    14  H    2.017393   2.014021   3.887727   4.366565   3.765797
    15  H    2.071831   2.054663   2.662750   3.340516   3.184790
    16  H    2.443651   4.324519   1.896027   0.969975   3.896681
                    6          7          8          9         10
     6  C    0.000000
     7  C    2.514325   0.000000
     8  C    2.380816   2.323715   0.000000
     9  H    2.129126   2.151190   3.254288   0.000000
    10  H    2.156472   2.179162   3.753204   1.773927   0.000000
    11  H    1.090774   3.469392   3.273307   2.413971   2.612020
    12  H    3.465958   1.089904   3.242112   2.451780   2.594107
    13  H    2.850454   1.098177   2.599356   3.067383   2.487798
    14  H    3.279083   3.257621   1.087658   4.036641   4.778041
    15  H    2.690127   2.578654   1.100768   3.913999   3.934161
    16  H    2.481846   4.380109   3.165357   4.602192   4.305427
                   11         12         13         14         15
    11  H    0.000000
    12  H    4.310554   0.000000
    13  H    3.891549   1.777115   0.000000
    14  H    4.010489   4.035228   3.584495   0.000000
    15  H    3.674867   3.555679   2.364760   1.802536   0.000000
    16  H    2.744025   5.463544   4.206397   3.709995   2.843666
                   16
    16  H    0.000000
 Stoichiometry    C4H8O4
 Framework group  C1[X(C4H8O4)]
 Deg. of freedom    42
 Full point group                 C1
 Largest Abelian subgroup         C1      NOp   1
 Largest concise Abelian subgroup C1      NOp   1
                         Standard orientation:                         
 ---------------------------------------------------------------------
 Center     Atomic     Atomic              Coordinates (Angstroms)
 Number     Number      Type              X           Y           Z
 ---------------------------------------------------------------------
    1          8             0        0.162691    0.947533    0.781780
    2          8             0       -1.955682    0.543175   -0.155118
    3          8             0        1.380721   -0.537568   -0.548809
    4          8             0        2.625124    0.165983   -0.320635
    5          6             0       -0.594919   -1.357264    0.461773
    6          6             0        0.586963   -0.397656    0.615201
    7          6             0       -1.618133   -0.797011   -0.524930
    8          6             0       -0.819407    1.355932   -0.169233
    9          1             0       -1.061537   -1.459665    1.444514
   10          1             0       -0.230390   -2.337322    0.146158
   11          1             0        1.199070   -0.614272    1.491666
   12          1             0       -2.546750   -1.367207   -0.504029
   13          1             0       -1.221735   -0.809953   -1.548987
   14          1             0       -1.125640    2.356067    0.129012
   15          1             0       -0.373143    1.365464   -1.175437
   16          1             0        2.330259    1.089899   -0.337510
 ---------------------------------------------------------------------
 Rotational constants (GHZ):      3.8056815      1.6645022      1.3849517
 Standard basis: 6-311+G(d,p) (5D, 7F)
 There are   224 symmetry adapted basis functions of A   symmetry.
 Integral buffers will be    131072 words long.
 Raffenetti 2 integral format.
 Two-electron integral symmetry is turned on.
   224 basis functions,   352 primitive gaussians,   232 cartesian basis functions
    32 alpha electrons       32 beta electrons
       nuclear repulsion energy       428.3774054399 Hartrees.
 NAtoms=   16 NActive=   16 NUniq=   16 SFac= 7.50D-01 NAtFMM=   80 NAOKFM=F Big=F
 One-electron integrals computed using PRISM.
 NBasis=   224 RedAO= T  NBF=   224
 NBsUse=   224 1.00D-06 NBFU=   224
 Harris functional with IExCor=  402 diagonalized for initial guess.
 ExpMin= 4.38D-02 ExpMax= 8.59D+03 ExpMxC= 1.30D+03 IAcc=2 IRadAn=         4 AccDes= 0.00D+00
 HarFok:  IExCor= 402 AccDes= 0.00D+00 IRadAn=         4 IDoV=1
 ScaDFX=  1.000000  1.000000  1.000000  1.000000
 Initial guess orbital symmetries:
       Occupied  (A) (A) (A) (A) (A) (A) (A) (A) (A) (A) (A) (A)
                 (A) (A) (A) (A) (A) (A) (A) (A) (A) (A) (A) (A)
                 (A) (A) (A) (A) (A) (A) (A) (A)
       Virtual   (A) (A) (A) (A) (A) (A) (A) (A) (A) (A) (A) (A)
                 (A) (A) (A) (A) (A) (A) (A) (A) (A) (A) (A) (A)
                 (A) (A) (A) (A) (A) (A) (A) (A) (A) (A) (A) (A)
                 (A) (A) (A) (A) (A) (A) (A) (A) (A) (A) (A) (A)
                 (A) (A) (A) (A) (A) (A) (A) (A) (A) (A) (A) (A)
                 (A) (A) (A) (A) (A) (A) (A) (A) (A) (A) (A) (A)
                 (A) (A) (A) (A) (A) (A) (A) (A) (A) (A) (A) (A)
                 (A) (A) (A) (A) (A) (A) (A) (A) (A) (A) (A) (A)
                 (A) (A) (A) (A) (A) (A) (A) (A) (A) (A) (A) (A)
                 (A) (A) (A) (A) (A) (A) (A) (A) (A) (A) (A) (A)
                 (A) (A) (A) (A) (A) (A) (A) (A) (A) (A) (A) (A)
                 (A) (A) (A) (A) (A) (A) (A) (A) (A) (A) (A) (A)
                 (A) (A) (A) (A) (A) (A) (A) (A) (A) (A) (A) (A)
                 (A) (A) (A) (A) (A) (A) (A) (A) (A) (A) (A) (A)
                 (A) (A) (A) (A) (A) (A) (A) (A) (A) (A) (A) (A)
                 (A) (A) (A) (A) (A) (A) (A) (A) (A) (A) (A) (A)
 The electronic state of the initial guess is 1-A.
 Requested convergence on RMS density matrix=1.00D-08 within 128 cycles.
 Requested convergence on MAX density matrix=1.00D-06.
 Requested convergence on             energy=1.00D-06.
 No special actions if energy rises.
 SCF Done:  E(RB+HF-LYP) =  -458.163748962     A.U. after   13 cycles
             Convg  =    0.3629D-08             -V/T =  2.0034
             S**2   =   0.0000
 QCSCF skips out because SCF is already converged.
 Range of M.O.s used for correlation:     1   224
 NBasis=   224 NAE=    32 NBE=    32 NFC=     0 NFV=     0
 NROrb=    224 NOA=    32 NOB=    32 NVA=   192 NVB=   192

 **** Warning!!: The largest alpha MO coefficient is  0.52247363D+02

 Symmetrizing basis deriv contribution to polar:
 IMax=3 JMax=2 DiffMx= 0.00D+00
 G2DrvN: will do   17 centers at a time, making    1 passes doing MaxLOS=2.
 FoFDir/FoFCou used for L=0 through L=2.
 DoAtom=TTTTTTTTTTTTTTTT
          Differentiating once with respect to electric field.
                with respect to dipole field.
          Differentiating once with respect to nuclear coordinates.
 Integrals replicated using symmetry in FoFDir.
 MinBra= 0 MaxBra= 2 Meth= 1.
 IRaf=       0 NMat=  51 IRICut=      51 DoRegI=T DoRafI=T ISym2E= 2 JSym2E=2.
          There are  51 degrees of freedom in the 1st order CPHF.
    48 vectors were produced by pass  0.
 AX will form  48 AO Fock derivatives at one time.
    48 vectors were produced by pass  1.
    48 vectors were produced by pass  2.
    48 vectors were produced by pass  3.
    27 vectors were produced by pass  4.
     3 vectors were produced by pass  5.
     1 vectors were produced by pass  6.
 Inv2:  IOpt= 1 Iter= 1 AM= 1.59D-15 Conv= 1.00D-12.
 Inverted reduced A of dimension  223 with in-core refinement.
 Isotropic polarizability for W=    0.000000       63.72 Bohr**3.
 End of Minotr Frequency-dependent properties file   721 does not exist.

 **********************************************************************

            Population analysis using the SCF density.

 **********************************************************************

 Orbital symmetries:
       Occupied  (A) (A) (A) (A) (A) (A) (A) (A) (A) (A) (A) (A)
                 (A) (A) (A) (A) (A) (A) (A) (A) (A) (A) (A) (A)
                 (A) (A) (A) (A) (A) (A) (A) (A)
       Virtual   (A) (A) (A) (A) (A) (A) (A) (A) (A) (A) (A) (A)
                 (A) (A) (A) (A) (A) (A) (A) (A) (A) (A) (A) (A)
                 (A) (A) (A) (A) (A) (A) (A) (A) (A) (A) (A) (A)
                 (A) (A) (A) (A) (A) (A) (A) (A) (A) (A) (A) (A)
                 (A) (A) (A) (A) (A) (A) (A) (A) (A) (A) (A) (A)
                 (A) (A) (A) (A) (A) (A) (A) (A) (A) (A) (A) (A)
                 (A) (A) (A) (A) (A) (A) (A) (A) (A) (A) (A) (A)
                 (A) (A) (A) (A) (A) (A) (A) (A) (A) (A) (A) (A)
                 (A) (A) (A) (A) (A) (A) (A) (A) (A) (A) (A) (A)
                 (A) (A) (A) (A) (A) (A) (A) (A) (A) (A) (A) (A)
                 (A) (A) (A) (A) (A) (A) (A) (A) (A) (A) (A) (A)
                 (A) (A) (A) (A) (A) (A) (A) (A) (A) (A) (A) (A)
                 (A) (A) (A) (A) (A) (A) (A) (A) (A) (A) (A) (A)
                 (A) (A) (A) (A) (A) (A) (A) (A) (A) (A) (A) (A)
                 (A) (A) (A) (A) (A) (A) (A) (A) (A) (A) (A) (A)
                 (A) (A) (A) (A) (A) (A) (A) (A) (A) (A) (A) (A)
 The electronic state is 1-A.
 Alpha  occ. eigenvalues --  -19.19888 -19.19089 -19.15330 -19.14790 -10.29052
 Alpha  occ. eigenvalues --  -10.27989 -10.23681 -10.19456  -1.15125  -1.09418
 Alpha  occ. eigenvalues --   -1.03204  -0.93167  -0.80230  -0.70357  -0.69109
 Alpha  occ. eigenvalues --   -0.60026  -0.56193  -0.54205  -0.51450  -0.50371
 Alpha  occ. eigenvalues --   -0.47783  -0.46937  -0.44779  -0.42650  -0.41840
 Alpha  occ. eigenvalues --   -0.39457  -0.35581  -0.35075  -0.33130  -0.30329
 Alpha  occ. eigenvalues --   -0.29955  -0.28700
 Alpha virt. eigenvalues --   -0.01400  -0.00043   0.01600   0.02046   0.03114
 Alpha virt. eigenvalues --    0.03787   0.04522   0.05230   0.06191   0.07093
 Alpha virt. eigenvalues --    0.08938   0.09528   0.10160   0.10568   0.11460
 Alpha virt. eigenvalues --    0.12901   0.13138   0.15260   0.15967   0.16369
 Alpha virt. eigenvalues --    0.17269   0.17299   0.19404   0.20157   0.20381
 Alpha virt. eigenvalues --    0.21042   0.21148   0.21952   0.22817   0.23321
 Alpha virt. eigenvalues --    0.24245   0.25043   0.25256   0.26263   0.26539
 Alpha virt. eigenvalues --    0.27125   0.28195   0.29585   0.30092   0.30632
 Alpha virt. eigenvalues --    0.32088   0.32346   0.32975   0.35376   0.36007
 Alpha virt. eigenvalues --    0.37125   0.40016   0.41215   0.46004   0.47283
 Alpha virt. eigenvalues --    0.50092   0.51177   0.52218   0.54016   0.56074
 Alpha virt. eigenvalues --    0.58411   0.59572   0.61115   0.63524   0.65822
 Alpha virt. eigenvalues --    0.66466   0.67671   0.69081   0.69652   0.70642
 Alpha virt. eigenvalues --    0.72402   0.73470   0.74937   0.86789   0.89798
 Alpha virt. eigenvalues --    0.92796   0.99055   1.00313   1.01229   1.03953
 Alpha virt. eigenvalues --    1.05876   1.08404   1.08989   1.10495   1.14836
 Alpha virt. eigenvalues --    1.16132   1.17617   1.18345   1.22949   1.25722
 Alpha virt. eigenvalues --    1.26651   1.30487   1.31013   1.36782   1.38952
 Alpha virt. eigenvalues --    1.42789   1.45086   1.49747   1.51081   1.53403
 Alpha virt. eigenvalues --    1.55597   1.56880   1.57181   1.61095   1.61216
 Alpha virt. eigenvalues --    1.62688   1.63148   1.65246   1.66734   1.67500
 Alpha virt. eigenvalues --    1.70510   1.72356   1.73697   1.75777   1.77501
 Alpha virt. eigenvalues --    1.80893   1.82696   1.86160   1.91580   1.94272
 Alpha virt. eigenvalues --    1.94819   1.97667   2.01448   2.04366   2.12438
 Alpha virt. eigenvalues --    2.13217   2.18724   2.24358   2.26479   2.29255
 Alpha virt. eigenvalues --    2.40610   2.41777   2.44577   2.49149   2.49653
 Alpha virt. eigenvalues --    2.52837   2.55860   2.57284   2.59199   2.61851
 Alpha virt. eigenvalues --    2.67350   2.69258   2.70235   2.74213   2.77382
 Alpha virt. eigenvalues --    2.77995   2.80332   2.82976   2.84465   2.89575
 Alpha virt. eigenvalues --    2.93031   2.95250   2.99137   3.03444   3.04889
 Alpha virt. eigenvalues --    3.10695   3.12649   3.17715   3.22520   3.25358
 Alpha virt. eigenvalues --    3.27661   3.29301   3.34556   3.34677   3.43350
 Alpha virt. eigenvalues --    3.66662   3.75990   3.81632   3.84084   3.85457
 Alpha virt. eigenvalues --    3.93768   3.98313   4.04083   4.04700   4.13248
 Alpha virt. eigenvalues --    4.16035   4.29318   4.87368   4.97690   5.04134
 Alpha virt. eigenvalues --    5.07063   5.07826   5.29977   5.35022   5.40060
 Alpha virt. eigenvalues --    5.42898   5.59328   5.69895   5.76054  23.73197
 Alpha virt. eigenvalues --   23.80961  23.85157  23.89313  49.83068  49.85233
 Alpha virt. eigenvalues --   49.90802  49.95123
          Condensed to atoms (all electrons):
              1          2          3          4          5          6
     1  O    8.177391   0.016527  -0.086111   0.009012  -0.036856   0.183326
     2  O    0.016527   8.036244  -0.003967  -0.000524  -0.073823  -0.044482
     3  O   -0.086111  -0.003967   7.991809   0.045634  -0.193075   0.318370
     4  O    0.009012  -0.000524   0.045634   7.917051   0.000970  -0.014414
     5  C   -0.036856  -0.073823  -0.193075   0.000970   6.254596  -0.467945
     6  C    0.183326  -0.044482   0.318370  -0.014414  -0.467945   6.311634
     7  C   -0.021178   0.263530   0.052157  -0.019774  -0.159321  -0.025569
     8  C    0.157207   0.197899  -0.023873   0.018473   0.255705  -0.395396
     9  H   -0.001631   0.001882   0.011977  -0.000456   0.434526  -0.066512
    10  H    0.010203   0.009204  -0.007048   0.000762   0.393284  -0.036234
    11  H   -0.088777  -0.004112  -0.026815  -0.003430   0.001625   0.393273
    12  H   -0.002265  -0.059424  -0.000795   0.000211  -0.053705   0.027404
    13  H    0.001258  -0.047133   0.000246  -0.000434  -0.062115  -0.026201
    14  H   -0.063944  -0.052928  -0.000847  -0.000319  -0.000970   0.017607
    15  H   -0.050806  -0.055620   0.004041   0.002985  -0.007300  -0.018717
    16  H    0.028007   0.000007  -0.030417   0.253398   0.012688  -0.022769
              7          8          9         10         11         12
     1  O   -0.021178   0.157207  -0.001631   0.010203  -0.088777  -0.002265
     2  O    0.263530   0.197899   0.001882   0.009204  -0.004112  -0.059424
     3  O    0.052157  -0.023873   0.011977  -0.007048  -0.026815  -0.000795
     4  O   -0.019774   0.018473  -0.000456   0.000762  -0.003430   0.000211
     5  C   -0.159321   0.255705   0.434526   0.393284   0.001625  -0.053705
     6  C   -0.025569  -0.395396  -0.066512  -0.036234   0.393273   0.027404
     7  C    5.687850  -0.355179  -0.022395  -0.042127   0.009827   0.411516
     8  C   -0.355179   5.334060  -0.013324   0.008162   0.012842   0.017160
     9  H   -0.022395  -0.013324   0.509697  -0.025213  -0.006995  -0.008222
    10  H   -0.042127   0.008162  -0.025213   0.519401  -0.004355  -0.000752
    11  H    0.009827   0.012842  -0.006995  -0.004355   0.538950  -0.000233
    12  H    0.411516   0.017160  -0.008222  -0.000752  -0.000233   0.535759
    13  H    0.450089  -0.005371   0.006526  -0.002615  -0.000572  -0.031660
    14  H    0.009521   0.428932  -0.000171   0.000143  -0.000033  -0.000215
    15  H   -0.003267   0.438170   0.000269   0.000459  -0.001088  -0.000558
    16  H    0.002697   0.003267   0.000060  -0.000043  -0.002737  -0.000021
             13         14         15         16
     1  O    0.001258  -0.063944  -0.050806   0.028007
     2  O   -0.047133  -0.052928  -0.055620   0.000007
     3  O    0.000246  -0.000847   0.004041  -0.030417
     4  O   -0.000434  -0.000319   0.002985   0.253398
     5  C   -0.062115  -0.000970  -0.007300   0.012688
     6  C   -0.026201   0.017607  -0.018717  -0.022769
     7  C    0.450089   0.009521  -0.003267   0.002697
     8  C   -0.005371   0.428932   0.438170   0.003267
     9  H    0.006526  -0.000171   0.000269   0.000060
    10  H   -0.002615   0.000143   0.000459  -0.000043
    11  H   -0.000572  -0.000033  -0.001088  -0.002737
    12  H   -0.031660  -0.000215  -0.000558  -0.000021
    13  H    0.548561  -0.000460   0.011476   0.000102
    14  H   -0.000460   0.534985  -0.038779   0.000138
    15  H    0.011476  -0.038779   0.583937  -0.002339
    16  H    0.000102   0.000138  -0.002339   0.502089
 Mulliken atomic charges:
              1
     1  O   -0.231360
     2  O   -0.183279
     3  O   -0.051285
     4  O   -0.209145
     5  C   -0.298284
     6  C   -0.133374
     7  C   -0.238377
     8  C   -0.078734
     9  H    0.179982
    10  H    0.176770
    11  H    0.182630
    12  H    0.165802
    13  H    0.158303
    14  H    0.167340
    15  H    0.137139
    16  H    0.255872
 Sum of Mulliken charges=   0.00000
 Atomic charges with hydrogens summed into heavy atoms:
              1
     1  O   -0.231360
     2  O   -0.183279
     3  O   -0.051285
     4  O    0.046727
     5  C    0.058468
     6  C    0.049256
     7  C    0.085727
     8  C    0.225746
     9  H    0.000000
    10  H    0.000000
    11  H    0.000000
    12  H    0.000000
    13  H    0.000000
    14  H    0.000000
    15  H    0.000000
    16  H    0.000000
 Sum of Mulliken charges=   0.00000
 APT atomic charges:
              1
     1  O   -0.803834
     2  O   -0.741803
     3  O   -0.359636
     4  O   -0.279439
     5  C   -0.018223
     6  C    0.788813
     7  C    0.463757
     8  C    0.859264
     9  H   -0.010224
    10  H    0.013119
    11  H   -0.028266
    12  H   -0.015385
    13  H   -0.041023
    14  H   -0.006597
    15  H   -0.063178
    16  H    0.242654
 Sum of APT charges=   0.00000
 APT Atomic charges with hydrogens summed into heavy atoms:
              1
     1  O   -0.803834
     2  O   -0.741803
     3  O   -0.359636
     4  O   -0.036784
     5  C   -0.015328
     6  C    0.760548
     7  C    0.407349
     8  C    0.789489
     9  H    0.000000
    10  H    0.000000
    11  H    0.000000
    12  H    0.000000
    13  H    0.000000
    14  H    0.000000
    15  H    0.000000
    16  H    0.000000
 Sum of APT charges=   0.00000
 Electronic spatial extent (au):  <R**2>=   904.4055
 Charge=     0.0000 electrons
 Dipole moment (field-independent basis, Debye):
    X=    -1.0922    Y=    -0.1673    Z=    -0.0657  Tot=     1.1069
 Quadrupole moment (field-independent basis, Debye-Ang):
   XX=   -55.6189   YY=   -42.3823   ZZ=   -48.4934
   XY=     5.5457   XZ=     2.1259   YZ=    -3.2963
 Traceless Quadrupole moment (field-independent basis, Debye-Ang):
   XX=    -6.7874   YY=     6.4492   ZZ=     0.3381
   XY=     5.5457   XZ=     2.1259   YZ=    -3.2963
 Octapole moment (field-independent basis, Debye-Ang**2):
  XXX=     1.4662  YYY=     9.8909  ZZZ=    -0.4978  XYY=     1.7775
  XXY=     3.4005  XXZ=     3.0088  XZZ=     1.2414  YZZ=    -1.3462
  YYZ=    -2.1227  XYZ=    -4.0483
 Hexadecapole moment (field-independent basis, Debye-Ang**3):
 XXXX=  -728.8596 YYYY=  -287.5857 ZZZZ=  -143.9869 XXXY=    41.1667
 XXXZ=     4.1190 YYYX=    -3.7348 YYYZ=     1.4555 ZZZX=    -0.7479
 ZZZY=    -3.1011 XXYY=  -143.6038 XXZZ=  -137.5798 YYZZ=   -78.3399
 XXYZ=    -1.5687 YYXZ=    -4.0741 ZZXY=     0.2600
 N-N= 4.283774054399D+02 E-N=-1.932574141651D+03  KE= 4.566034619632D+02
  Exact polarizability:  70.550   3.482  64.904   0.190  -1.285  55.698
 Approx polarizability:  92.200   4.429  88.000  -0.945   1.091  79.890
 ***** Axes restored to original set *****
 -------------------------------------------------------------------
 Center     Atomic                   Forces (Hartrees/Bohr)
 Number     Number              X              Y              Z
 -------------------------------------------------------------------
    1          8          -0.000113986   -0.000875939   -0.000350418
    2          8           0.000294286   -0.000184190   -0.000329922
    3          8           0.000518314   -0.000436146   -0.000007877
    4          8           0.000120338   -0.000096579   -0.000473964
    5          6          -0.000151328    0.000553509   -0.000159398
    6          6          -0.000516030   -0.000588890    0.001449166
    7          6           0.000060525   -0.001365747   -0.000138208
    8          6          -0.000552433    0.001957533   -0.000174280
    9          1           0.000210101   -0.000219837    0.000103559
   10          1          -0.000217728   -0.000058846   -0.000029101
   11          1          -0.000002641   -0.000204070    0.000016685
   12          1           0.000017243    0.000014128    0.000039310
   13          1          -0.000512011    0.000236816    0.000074671
   14          1           0.000060543    0.000201465   -0.000163809
   15          1          -0.000265722   -0.000235761    0.000413366
   16          1           0.001050530    0.001302554   -0.000269780
 -------------------------------------------------------------------
 Cartesian Forces:  Max     0.001957533 RMS     0.000553908

 GradGradGradGradGradGradGradGradGradGradGradGradGradGradGradGradGradGrad
 Berny optimization.
 Internal  Forces:  Max     0.003096575 RMS     0.000619914
 Search for a local minimum.
 Step number   1 out of a maximum of  88 on scan point     1 out of    37
 All quantities printed in internal units (Hartrees-Bohrs-Radians)
 Second derivative matrix not updated -- analytic derivatives used.
     Eigenvalues ---    0.00440   0.00950   0.01591   0.01975   0.03055
     Eigenvalues ---    0.03269   0.04052   0.04922   0.05862   0.06430
     Eigenvalues ---    0.07468   0.07705   0.08271   0.09451   0.09840
     Eigenvalues ---    0.09977   0.10900   0.11912   0.12298   0.14458
     Eigenvalues ---    0.17610   0.18877   0.21402   0.23074   0.24534
     Eigenvalues ---    0.24810   0.26696   0.28510   0.29839   0.30742
     Eigenvalues ---    0.31049   0.32406   0.33230   0.33504   0.34033
     Eigenvalues ---    0.34071   0.34756   0.36678   0.37492   0.40693
     Eigenvalues ---    0.499721000.000001000.000001000.000001000.00000
     Eigenvalues --- 1000.000001000.000001000.000001000.000001000.00000
     Eigenvalues --- 1000.000001000.000001000.000001000.000001000.00000
     Eigenvalues --- 1000.000001000.000001000.000001000.000001000.00000
     Eigenvalues --- 1000.000001000.000001000.000001000.000001000.00000
     Eigenvalues --- 1000.000001000.000001000.000001000.000001000.00000
     Eigenvalues --- 1000.000001000.000001000.000001000.000001000.00000
     Eigenvalues --- 1000.000001000.000001000.00000
 RFO step:  Lambda=-1.32367733D-04.
 Linear search not attempted -- first point.
 Iteration  1 RMS(Cart)=  0.01344510 RMS(Int)=  0.00006630
 Iteration  2 RMS(Cart)=  0.00008776 RMS(Int)=  0.00001097
 Iteration  3 RMS(Cart)=  0.00000001 RMS(Int)=  0.00001097
 Iteration  1 RMS(Cart)=  0.00000000 RMS(Int)=  0.00000000
 Variable       Old X    -DE/DX   Delta X   Delta X   Delta X     New X
                                 (Linear)    (Quad)   (Total)
    R1        2.68400   0.00032   0.00000  -0.00246  -0.00247   2.68154
    R2        2.69624   0.00078   0.00000   0.00161   0.00162   2.69787
    R3        2.70356   0.00061   0.00000   0.00190   0.00190   2.70546
    R4        2.64014   0.00055   0.00000   0.00111   0.00112   2.64126
    R5        2.73559   0.00157   0.00000   0.00121   0.00121   2.73680
    R6        2.67551   0.00149   0.00000   0.00444   0.00444   2.67995
    R7        1.83299   0.00074   0.00000   0.00154   0.00154   1.83453
    R8        2.89149   0.00035   0.00000   0.00101   0.00100   2.89249
    R9        2.88729   0.00016   0.00000  -0.00030  -0.00031   2.88698
   R10        2.06491   0.00005   0.00000   0.00027   0.00027   2.06518
   R11        2.06405  -0.00003   0.00000   0.00002   0.00002   2.06407
   R12        2.06126   0.00004   0.00000   0.00013   0.00013   2.06140
   R13        2.05962  -0.00002   0.00000  -0.00008  -0.00008   2.05954
   R14        2.07525  -0.00022   0.00000  -0.00062  -0.00062   2.07464
   R15        2.05538   0.00011   0.00000   0.00001   0.00001   2.05538
   R16        2.08015  -0.00049   0.00000  -0.00151  -0.00151   2.07864
    A1        1.98072   0.00089   0.00000   0.00539   0.00536   1.98608
    A2        1.92885   0.00073   0.00000   0.00223   0.00221   1.93106
    A3        1.88002   0.00310   0.00000   0.00879   0.00879   1.88881
    A4        1.77100   0.00268   0.00000   0.01165   0.01165   1.78265
    A5        1.93058   0.00058   0.00000   0.00655   0.00651   1.93709
    A6        1.87385  -0.00026   0.00000  -0.00193  -0.00194   1.87192
    A7        1.91125  -0.00002   0.00000   0.00073   0.00075   1.91200
    A8        1.90624  -0.00011   0.00000   0.00097   0.00098   1.90722
    A9        1.94541  -0.00021   0.00000  -0.00308  -0.00308   1.94234
   A10        1.89474   0.00000   0.00000  -0.00338  -0.00339   1.89136
   A11        1.93637   0.00020   0.00000   0.00214   0.00215   1.93852
   A12        1.95520  -0.00055   0.00000   0.00101   0.00097   1.95617
   A13        1.83535   0.00039   0.00000   0.00168   0.00169   1.83704
   A14        1.86359   0.00029   0.00000  -0.00085  -0.00084   1.86275
   A15        1.90327  -0.00024   0.00000  -0.00152  -0.00153   1.90173
   A16        1.97086  -0.00010   0.00000  -0.00243  -0.00243   1.96844
   A17        1.91194  -0.00040   0.00000   0.00151   0.00148   1.91343
   A18        1.85886   0.00017   0.00000  -0.00090  -0.00088   1.85798
   A19        1.91479  -0.00022   0.00000  -0.00342  -0.00343   1.91136
   A20        1.94590   0.00001   0.00000  -0.00150  -0.00150   1.94440
   A21        1.93495   0.00058   0.00000   0.00468   0.00469   1.93963
   A22        1.89575  -0.00017   0.00000  -0.00069  -0.00069   1.89506
   A23        1.96771  -0.00089   0.00000  -0.00277  -0.00277   1.96494
   A24        1.84859   0.00044   0.00000   0.00140   0.00140   1.84999
   A25        1.90996   0.00014   0.00000  -0.00052  -0.00053   1.90943
   A26        1.87882   0.00048   0.00000   0.00249   0.00249   1.88131
   A27        1.92197  -0.00012   0.00000  -0.00133  -0.00134   1.92063
   A28        1.93567  -0.00004   0.00000   0.00093   0.00093   1.93660
    D1        1.24237   0.00015   0.00000   0.01065   0.01065   1.25302
    D2       -0.83848   0.00002   0.00000   0.00960   0.00960  -0.82888
    D3       -2.98551   0.00020   0.00000   0.01089   0.01090  -2.97462
    D4        0.99453  -0.00033   0.00000  -0.00093  -0.00094   0.99359
    D5        3.04485   0.00005   0.00000   0.00146   0.00146   3.04631
    D6       -1.15076   0.00033   0.00000   0.00307   0.00307  -1.14769
    D7        1.04619   0.00002   0.00000  -0.00521  -0.00521   1.04098
    D8       -3.13023  -0.00008   0.00000  -0.00670  -0.00670  -3.13693
    D9       -1.08161  -0.00030   0.00000  -0.00979  -0.00978  -1.09138
   D10       -1.09751   0.00041   0.00000  -0.00023  -0.00022  -1.09773
   D11       -3.12992   0.00007   0.00000  -0.00194  -0.00193  -3.13185
   D12        1.04106  -0.00011   0.00000  -0.00382  -0.00381   1.03724
   D13       -1.23142  -0.00077   0.00000   0.00000   0.00000  -1.23142
   D14        1.18981   0.00047   0.00000   0.00656   0.00658   1.19639
   D15       -2.95833   0.00010   0.00000   0.00854   0.00852  -2.94981
   D16       -0.82367   0.00002   0.00000   0.00423   0.00423  -0.81945
   D17        0.80142  -0.00015   0.00000  -0.01627  -0.01627   0.78514
   D18       -1.32176  -0.00026   0.00000  -0.01896  -0.01897  -1.34073
   D19        2.86980  -0.00009   0.00000  -0.01508  -0.01510   2.85471
   D20       -1.27702  -0.00019   0.00000  -0.01999  -0.01998  -1.29701
   D21        2.88298  -0.00030   0.00000  -0.02268  -0.02267   2.86030
   D22        0.79136  -0.00013   0.00000  -0.01880  -0.01880   0.77255
   D23        2.95220  -0.00003   0.00000  -0.01527  -0.01527   2.93693
   D24        0.82901  -0.00014   0.00000  -0.01796  -0.01796   0.81105
   D25       -1.26261   0.00002   0.00000  -0.01409  -0.01409  -1.27670
   D26       -0.89902   0.00016   0.00000   0.01379   0.01380  -0.88523
   D27       -2.95208   0.00018   0.00000   0.01485   0.01486  -2.93722
   D28        1.21664  -0.00001   0.00000   0.01353   0.01353   1.23017
   D29        1.15972   0.00012   0.00000   0.01591   0.01591   1.17563
   D30       -0.89334   0.00014   0.00000   0.01698   0.01698  -0.87636
   D31       -3.00780  -0.00005   0.00000   0.01565   0.01565  -2.99215
   D32       -3.02989  -0.00008   0.00000   0.01040   0.01041  -3.01948
   D33        1.20023  -0.00005   0.00000   0.01147   0.01148   1.21171
   D34       -0.91422  -0.00025   0.00000   0.01014   0.01015  -0.90408
         Item               Value     Threshold  Converged?
 Maximum Force            0.003097     0.000450     NO 
 RMS     Force            0.000618     0.000300     NO 
 Maximum Displacement     0.066693     0.001800     NO 
 RMS     Displacement     0.013460     0.001200     NO 
 Predicted change in Energy=-6.656238D-05
 GradGradGradGradGradGradGradGradGradGradGradGradGradGradGradGradGradGrad

                          Input orientation:                          
 ---------------------------------------------------------------------
 Center     Atomic     Atomic              Coordinates (Angstroms)
 Number     Number      Type              X           Y           Z
 ---------------------------------------------------------------------
    1          8             0        0.264259    1.110492    0.427000
    2          8             0       -1.832637    0.428086   -0.386409
    3          8             0        1.606302   -0.217425   -0.954031
    4          8             0        2.767577    0.632838   -0.793010
    5          6             0       -0.200949   -1.276072    0.149038
    6          6             0        0.851228   -0.168603    0.245423
    7          6             0       -1.347717   -0.862651   -0.771803
    8          6             0       -0.814113    1.381731   -0.468391
    9          1             0       -0.589570   -1.442537    1.156793
   10          1             0        0.270622   -2.199326   -0.194847
   11          1             0        1.524649   -0.298397    1.093715
   12          1             0       -2.191665   -1.547140   -0.688024
   13          1             0       -1.023009   -0.834385   -1.820154
   14          1             0       -1.228498    2.338107   -0.157529
   15          1             0       -0.429791    1.435334   -1.497642
   16          1             0        2.373315    1.519948   -0.797951
 ---------------------------------------------------------------------
                    Distance matrix (angstroms):
                    1          2          3          4          5
     1  O    0.000000
     2  O    2.350380   0.000000
     3  O    2.339164   3.544740   0.000000
     4  O    2.825452   4.622685   1.448252   0.000000
     5  C    2.447319   2.419352   2.367202   3.652880   0.000000
     6  C    1.419009   2.821060   1.418171   2.322293   1.530639
     7  C    2.815828   1.431670   3.029149   4.378650   1.527723
     8  C    1.427649   1.397695   2.941352   3.673516   2.796624
     9  H    2.789190   2.725054   3.283037   4.402198   1.092844
    10  H    3.367733   3.371007   2.507654   3.822791   1.092261
    11  H    2.004510   3.740310   2.050972   2.443727   2.196805
    12  H    3.786535   2.030120   4.032797   5.418247   2.176488
    13  H    3.238720   2.074839   2.836209   4.192410   2.179125
    14  H    2.019167   2.016322   3.898878   4.390944   3.769898
    15  H    2.071587   2.053622   2.678208   3.371004   3.180509
    16  H    2.473110   4.364810   1.905554   0.970789   3.916803
                    6          7          8          9         10
     6  C    0.000000
     7  C    2.520279   0.000000
     8  C    2.384623   2.326810   0.000000
     9  H    2.128240   2.151868   3.266211   0.000000
    10  H    2.157493   2.176832   3.751726   1.771889   0.000000
    11  H    1.090845   3.471171   3.276098   2.404778   2.616583
    12  H    3.468557   1.089859   3.244098   2.445609   2.594500
    13  H    2.867514   1.097850   2.604241   3.069191   2.485592
    14  H    3.281954   3.261350   1.087660   4.053263   4.778813
    15  H    2.692934   2.578791   1.099970   3.918379   3.924105
    16  H    2.501315   4.418545   3.207399   4.623422   4.314863
                   11         12         13         14         15
    11  H    0.000000
    12  H    4.306384   0.000000
    13  H    3.907490   1.776372   0.000000
    14  H    4.012055   4.037854   3.587653   0.000000
    15  H    3.679781   3.557363   2.368025   1.802452   0.000000
    16  H    2.757719   5.500741   4.257088   3.748677   2.890351
                   16
    16  H    0.000000
 Stoichiometry    C4H8O4
 Framework group  C1[X(C4H8O4)]
 Deg. of freedom    42
 Full point group                 C1
 Largest Abelian subgroup         C1      NOp   1
 Largest concise Abelian subgroup C1      NOp   1
                         Standard orientation:                         
 ---------------------------------------------------------------------
 Center     Atomic     Atomic              Coordinates (Angstroms)
 Number     Number      Type              X           Y           Z
 ---------------------------------------------------------------------
    1          8             0        0.156040    0.951559    0.774746
    2          8             0       -1.964374    0.537634   -0.150888
    3          8             0        1.391759   -0.533201   -0.544411
    4          8             0        2.640240    0.164822   -0.317486
    5          6             0       -0.588805   -1.357782    0.456128
    6          6             0        0.587123   -0.390877    0.614690
    7          6             0       -1.625210   -0.803454   -0.519844
    8          6             0       -0.831710    1.356244   -0.173285
    9          1             0       -1.047280   -1.474840    1.441220
   10          1             0       -0.219081   -2.332633    0.130546
   11          1             0        1.193805   -0.604484    1.495741
   12          1             0       -2.551344   -1.376894   -0.484708
   13          1             0       -1.245220   -0.815478   -1.549766
   14          1             0       -1.138909    2.356813    0.122514
   15          1             0       -0.390485    1.361879   -1.180867
   16          1             0        2.360807    1.094331   -0.336510
 ---------------------------------------------------------------------
 Rotational constants (GHZ):      3.8156609      1.6509053      1.3736183
 Standard basis: 6-311+G(d,p) (5D, 7F)
 There are   224 symmetry adapted basis functions of A   symmetry.
 Integral buffers will be    131072 words long.
 Raffenetti 2 integral format.
 Two-electron integral symmetry is turned on.
   224 basis functions,   352 primitive gaussians,   232 cartesian basis functions
    32 alpha electrons       32 beta electrons
       nuclear repulsion energy       427.6711580459 Hartrees.
 NAtoms=   16 NActive=   16 NUniq=   16 SFac= 7.50D-01 NAtFMM=   80 NAOKFM=F Big=F
 One-electron integrals computed using PRISM.
 NBasis=   224 RedAO= T  NBF=   224
 NBsUse=   224 1.00D-06 NBFU=   224
 Initial guess read from the read-write file:
 Initial guess orbital symmetries:
       Occupied  (A) (A) (A) (A) (A) (A) (A) (A) (A) (A) (A) (A)
                 (A) (A) (A) (A) (A) (A) (A) (A) (A) (A) (A) (A)
                 (A) (A) (A) (A) (A) (A) (A) (A)
       Virtual   (A) (A) (A) (A) (A) (A) (A) (A) (A) (A) (A) (A)
                 (A) (A) (A) (A) (A) (A) (A) (A) (A) (A) (A) (A)
                 (A) (A) (A) (A) (A) (A) (A) (A) (A) (A) (A) (A)
                 (A) (A) (A) (A) (A) (A) (A) (A) (A) (A) (A) (A)
                 (A) (A) (A) (A) (A) (A) (A) (A) (A) (A) (A) (A)
                 (A) (A) (A) (A) (A) (A) (A) (A) (A) (A) (A) (A)
                 (A) (A) (A) (A) (A) (A) (A) (A) (A) (A) (A) (A)
                 (A) (A) (A) (A) (A) (A) (A) (A) (A) (A) (A) (A)
                 (A) (A) (A) (A) (A) (A) (A) (A) (A) (A) (A) (A)
                 (A) (A) (A) (A) (A) (A) (A) (A) (A) (A) (A) (A)
                 (A) (A) (A) (A) (A) (A) (A) (A) (A) (A) (A) (A)
                 (A) (A) (A) (A) (A) (A) (A) (A) (A) (A) (A) (A)
                 (A) (A) (A) (A) (A) (A) (A) (A) (A) (A) (A) (A)
                 (A) (A) (A) (A) (A) (A) (A) (A) (A) (A) (A) (A)
                 (A) (A) (A) (A) (A) (A) (A) (A) (A) (A) (A) (A)
                 (A) (A) (A) (A) (A) (A) (A) (A) (A) (A) (A) (A)
 Harris functional with IExCor=  402 diagonalized for initial guess.
 ExpMin= 4.38D-02 ExpMax= 8.59D+03 ExpMxC= 1.30D+03 IAcc=2 IRadAn=         4 AccDes= 0.00D+00
 HarFok:  IExCor= 402 AccDes= 0.00D+00 IRadAn=         4 IDoV=1
 ScaDFX=  1.000000  1.000000  1.000000  1.000000
 Requested convergence on RMS density matrix=1.00D-08 within 128 cycles.
 Requested convergence on MAX density matrix=1.00D-06.
 Requested convergence on             energy=1.00D-06.
 No special actions if energy rises.
 SCF Done:  E(RB+HF-LYP) =  -458.163815963     A.U. after   10 cycles
             Convg  =    0.3433D-08             -V/T =  2.0035
             S**2   =   0.0000
 QCSCF skips out because SCF is already converged.
 ***** Axes restored to original set *****
 -------------------------------------------------------------------
 Center     Atomic                   Forces (Hartrees/Bohr)
 Number     Number              X              Y              Z
 -------------------------------------------------------------------
    1          8           0.000002250    0.000008069   -0.000015623
    2          8           0.000007500    0.000011919   -0.000004404
    3          8          -0.000227968    0.000350501   -0.000235762
    4          8           0.000016760   -0.000111417    0.000588121
    5          6           0.000014759    0.000006135    0.000001443
    6          6           0.000175456   -0.000283945    0.000153752
    7          6          -0.000024526   -0.000011492    0.000006995
    8          6          -0.000012969    0.000005325    0.000002822
    9          1           0.000001778   -0.000004789    0.000002119
   10          1          -0.000002346    0.000002331   -0.000000622
   11          1          -0.000002906   -0.000000189   -0.000001145
   12          1          -0.000007426    0.000007944    0.000010484
   13          1          -0.000012718   -0.000005836    0.000003019
   14          1           0.000006710    0.000004202   -0.000003181
   15          1          -0.000001207    0.000000081   -0.000002822
   16          1           0.000066854    0.000021162   -0.000505194
 -------------------------------------------------------------------
 Cartesian Forces:  Max     0.000588121 RMS     0.000143361

 GradGradGradGradGradGradGradGradGradGradGradGradGradGradGradGradGradGrad
 Berny optimization.
 Internal  Forces:  Max     0.000898699 RMS     0.000102277
 Search for a local minimum.
 Step number   2 out of a maximum of  88 on scan point     1 out of    37
 All quantities printed in internal units (Hartrees-Bohrs-Radians)
 Update second derivatives using D2CorX and points  1  2
 Trust test= 1.01D+00 RLast= 7.54D-02 DXMaxT set to 3.00D-01
     Eigenvalues ---    0.00436   0.00950   0.01591   0.01969   0.03046
     Eigenvalues ---    0.03269   0.04052   0.04922   0.05857   0.06430
     Eigenvalues ---    0.07467   0.07705   0.08275   0.09451   0.09840
     Eigenvalues ---    0.09978   0.10900   0.11913   0.12298   0.14463
     Eigenvalues ---    0.17633   0.18877   0.21398   0.23075   0.24519
     Eigenvalues ---    0.24807   0.26704   0.28512   0.29836   0.30744
     Eigenvalues ---    0.31058   0.32407   0.33230   0.33504   0.34033
     Eigenvalues ---    0.34071   0.34755   0.36678   0.37492   0.40485
     Eigenvalues ---    0.499781000.000001000.000001000.000001000.00000
     Eigenvalues --- 1000.000001000.000001000.000001000.000001000.00000
     Eigenvalues --- 1000.000001000.000001000.000001000.000001000.00000
     Eigenvalues --- 1000.000001000.000001000.000001000.000001000.00000
     Eigenvalues --- 1000.000001000.000001000.000001000.000001000.00000
     Eigenvalues --- 1000.000001000.000001000.000001000.000001000.00000
     Eigenvalues --- 1000.000001000.000001000.000001000.000001000.00000
     Eigenvalues --- 1000.000001000.000001000.00000
 RFO step:  Lambda=-8.56716215D-08.
 Quartic linear search produced a step of  0.02585.
 Iteration  1 RMS(Cart)=  0.00080597 RMS(Int)=  0.00000040
 Iteration  2 RMS(Cart)=  0.00000033 RMS(Int)=  0.00000033
 Iteration  1 RMS(Cart)=  0.00000000 RMS(Int)=  0.00000000
 Variable       Old X    -DE/DX   Delta X   Delta X   Delta X     New X
                                 (Linear)    (Quad)   (Total)
    R1        2.68154   0.00001  -0.00006   0.00003  -0.00003   2.68150
    R2        2.69787   0.00001   0.00004  -0.00005   0.00000   2.69786
    R3        2.70546   0.00001   0.00005  -0.00006  -0.00001   2.70545
    R4        2.64126   0.00000   0.00003  -0.00007  -0.00004   2.64123
    R5        2.73680   0.00003   0.00003   0.00003   0.00006   2.73686
    R6        2.67995   0.00003   0.00011  -0.00004   0.00008   2.68003
    R7        1.83453   0.00000   0.00004  -0.00003   0.00001   1.83453
    R8        2.89249   0.00001   0.00003   0.00003   0.00006   2.89254
    R9        2.88698   0.00002  -0.00001   0.00009   0.00008   2.88706
   R10        2.06518   0.00000   0.00001  -0.00001   0.00000   2.06517
   R11        2.06407   0.00000   0.00000   0.00000   0.00000   2.06408
   R12        2.06140   0.00000   0.00000  -0.00001  -0.00001   2.06139
   R13        2.05954   0.00000   0.00000   0.00000   0.00000   2.05953
   R14        2.07464   0.00000  -0.00002   0.00003   0.00001   2.07465
   R15        2.05538   0.00000   0.00000   0.00000   0.00000   2.05538
   R16        2.07864   0.00000  -0.00004   0.00004   0.00000   2.07865
    A1        1.98608   0.00001   0.00014  -0.00001   0.00012   1.98620
    A2        1.93106   0.00001   0.00006  -0.00002   0.00004   1.93109
    A3        1.88881   0.00005   0.00023  -0.00009   0.00014   1.88895
    A4        1.78265   0.00002   0.00030  -0.00022   0.00008   1.78274
    A5        1.93709   0.00002   0.00017   0.00016   0.00032   1.93741
    A6        1.87192   0.00000  -0.00005   0.00008   0.00003   1.87194
    A7        1.91200   0.00000   0.00002  -0.00017  -0.00015   1.91185
    A8        1.90722  -0.00001   0.00003  -0.00002   0.00001   1.90723
    A9        1.94234   0.00000  -0.00008  -0.00005  -0.00013   1.94221
   A10        1.89136   0.00000  -0.00009   0.00000  -0.00008   1.89127
   A11        1.93852   0.00001   0.00006  -0.00002   0.00003   1.93856
   A12        1.95617  -0.00001   0.00003   0.00017   0.00019   1.95636
   A13        1.83704   0.00001   0.00004  -0.00007  -0.00002   1.83701
   A14        1.86275   0.00000  -0.00002  -0.00001  -0.00003   1.86273
   A15        1.90173  -0.00001  -0.00004   0.00000  -0.00004   1.90169
   A16        1.96844   0.00000  -0.00006  -0.00008  -0.00014   1.96829
   A17        1.91343  -0.00001   0.00004   0.00009   0.00013   1.91356
   A18        1.85798   0.00000  -0.00002  -0.00003  -0.00005   1.85793
   A19        1.91136   0.00000  -0.00009   0.00006  -0.00003   1.91134
   A20        1.94440   0.00001  -0.00004  -0.00003  -0.00007   1.94434
   A21        1.93963   0.00001   0.00012  -0.00007   0.00005   1.93968
   A22        1.89506   0.00000  -0.00002  -0.00003  -0.00004   1.89501
   A23        1.96494   0.00000  -0.00007   0.00004  -0.00003   1.96491
   A24        1.84999   0.00000   0.00004  -0.00005  -0.00002   1.84998
   A25        1.90943   0.00000  -0.00001   0.00002   0.00001   1.90944
   A26        1.88131   0.00000   0.00006  -0.00005   0.00002   1.88133
   A27        1.92063   0.00000  -0.00003   0.00007   0.00003   1.92066
   A28        1.93660   0.00000   0.00002  -0.00004  -0.00001   1.93659
    D1        1.25302   0.00001   0.00028   0.00053   0.00081   1.25383
    D2       -0.82888   0.00001   0.00025   0.00044   0.00069  -0.82819
    D3       -2.97462   0.00001   0.00028   0.00048   0.00076  -2.97385
    D4        0.99359   0.00000  -0.00002   0.00006   0.00003   0.99363
    D5        3.04631   0.00000   0.00004  -0.00001   0.00003   3.04634
    D6       -1.14769   0.00000   0.00008  -0.00007   0.00001  -1.14768
    D7        1.04098  -0.00001  -0.00013  -0.00014  -0.00027   1.04071
    D8       -3.13693   0.00000  -0.00017  -0.00014  -0.00031  -3.13724
    D9       -1.09138  -0.00001  -0.00025  -0.00015  -0.00040  -1.09178
   D10       -1.09773   0.00000  -0.00001  -0.00026  -0.00026  -1.09800
   D11       -3.13185   0.00000  -0.00005  -0.00019  -0.00024  -3.13209
   D12        1.03724   0.00000  -0.00010  -0.00015  -0.00025   1.03699
   D13       -1.23142  -0.00090   0.00000   0.00000   0.00000  -1.23142
   D14        1.19639   0.00002   0.00017   0.00017   0.00034   1.19673
   D15       -2.94981   0.00001   0.00022   0.00036   0.00058  -2.94923
   D16       -0.81945   0.00001   0.00011   0.00026   0.00037  -0.81908
   D17        0.78514  -0.00001  -0.00042  -0.00072  -0.00114   0.78401
   D18       -1.34073  -0.00001  -0.00049  -0.00079  -0.00128  -1.34201
   D19        2.85471  -0.00001  -0.00039  -0.00074  -0.00113   2.85358
   D20       -1.29701   0.00000  -0.00052  -0.00083  -0.00135  -1.29835
   D21        2.86030  -0.00001  -0.00059  -0.00091  -0.00149   2.85881
   D22        0.77255   0.00000  -0.00049  -0.00085  -0.00134   0.77121
   D23        2.93693   0.00000  -0.00039  -0.00079  -0.00118   2.93574
   D24        0.81105  -0.00001  -0.00046  -0.00086  -0.00133   0.80973
   D25       -1.27670   0.00000  -0.00036  -0.00081  -0.00117  -1.27787
   D26       -0.88523   0.00001   0.00036   0.00058   0.00094  -0.88429
   D27       -2.93722   0.00001   0.00038   0.00057   0.00096  -2.93626
   D28        1.23017   0.00000   0.00035   0.00067   0.00102   1.23120
   D29        1.17563   0.00001   0.00041   0.00076   0.00117   1.17680
   D30       -0.87636   0.00001   0.00044   0.00075   0.00119  -0.87517
   D31       -2.99215   0.00000   0.00040   0.00085   0.00126  -2.99090
   D32       -3.01948   0.00000   0.00027   0.00072   0.00099  -3.01849
   D33        1.21171   0.00000   0.00030   0.00071   0.00101   1.21272
   D34       -0.90408   0.00000   0.00026   0.00082   0.00108  -0.90300
         Item               Value     Threshold  Converged?
 Maximum Force            0.000052     0.000450     YES
 RMS     Force            0.000010     0.000300     YES
 Maximum Displacement     0.002591     0.001800     NO 
 RMS     Displacement     0.000806     0.001200     YES
 Predicted change in Energy=-7.750293D-08
 GradGradGradGradGradGradGradGradGradGradGradGradGradGradGradGradGradGrad

                          Input orientation:                          
 ---------------------------------------------------------------------
 Center     Atomic     Atomic              Coordinates (Angstroms)
 Number     Number      Type              X           Y           Z
 ---------------------------------------------------------------------
    1          8             0        0.264172    1.110793    0.426520
    2          8             0       -1.832904    0.428155   -0.386103
    3          8             0        1.606941   -0.217287   -0.953727
    4          8             0        2.768496    0.632550   -0.792169
    5          6             0       -0.200763   -1.276003    0.148600
    6          6             0        0.851193   -0.168315    0.245344
    7          6             0       -1.348229   -0.862673   -0.771482
    8          6             0       -0.814411    1.381753   -0.468698
    9          1             0       -0.588830   -1.443417    1.156410
   10          1             0        0.271046   -2.198820   -0.196134
   11          1             0        1.524181   -0.298032    1.093987
   12          1             0       -2.192128   -1.547120   -0.686878
   13          1             0       -1.024380   -0.834692   -1.820112
   14          1             0       -1.228684    2.338247   -0.158049
   15          1             0       -0.430344    1.435013   -1.498065
   16          1             0        2.374648    1.519847   -0.797265
 ---------------------------------------------------------------------
                    Distance matrix (angstroms):
                    1          2          3          4          5
     1  O    0.000000
     2  O    2.350336   0.000000
     3  O    2.339211   3.545607   0.000000
     4  O    2.825873   4.623802   1.448286   0.000000
     5  C    2.447489   2.419493   2.367234   3.652960   0.000000
     6  C    1.418991   2.821148   1.418212   2.322470   1.530668
     7  C    2.815956   1.431665   3.030307   4.379901   1.527766
     8  C    1.427647   1.397676   2.941960   3.674664   2.796656
     9  H    2.790043   2.725775   3.282907   4.402072   1.092842
    10  H    3.367682   3.371008   2.506997   3.822194   1.092262
    11  H    2.004476   3.740058   2.050975   2.443744   2.196729
    12  H    3.786497   2.030078   4.033930   5.419394   2.176479
    13  H    3.239234   2.074820   2.838250   4.194684   2.179203
    14  H    2.019154   2.016319   3.899311   4.391919   3.770074
    15  H    2.071593   2.053630   2.678980   3.372657   3.180224
    16  H    2.473678   4.366273   1.905647   0.970793   3.917165
                    6          7          8          9         10
     6  C    0.000000
     7  C    2.520620   0.000000
     8  C    2.384702   2.326818   0.000000
     9  H    2.128284   2.151910   3.267024   0.000000
    10  H    2.157412   2.176779   3.751401   1.771834   0.000000
    11  H    1.090841   3.471243   3.276076   2.404292   2.616821
    12  H    3.468709   1.089859   3.244071   2.445205   2.594758
    13  H    2.868439   1.097855   2.604426   3.069191   2.485212
    14  H    3.281991   3.261361   1.087661   4.054405   4.778663
    15  H    2.693041   2.578720   1.099972   3.918764   3.923228
    16  H    2.501567   4.420053   3.208913   4.623849   4.314508
                   11         12         13         14         15
    11  H    0.000000
    12  H    4.306118   0.000000
    13  H    3.908342   1.776347   0.000000
    14  H    4.011960   4.037816   3.587720   0.000000
    15  H    3.679993   3.557390   2.368155   1.802448   0.000000
    16  H    2.757682   5.502173   4.259514   3.749983   2.892455
                   16
    16  H    0.000000
 Stoichiometry    C4H8O4
 Framework group  C1[X(C4H8O4)]
 Deg. of freedom    42
 Full point group                 C1
 Largest Abelian subgroup         C1      NOp   1
 Largest concise Abelian subgroup C1      NOp   1
                         Standard orientation:                         
 ---------------------------------------------------------------------
 Center     Atomic     Atomic              Coordinates (Angstroms)
 Number     Number      Type              X           Y           Z
 ---------------------------------------------------------------------
    1          8             0        0.155914    0.951874    0.774139
    2          8             0       -1.964830    0.537404   -0.150381
    3          8             0        1.392306   -0.533000   -0.544341
    4          8             0        2.640916    0.164754   -0.317083
    5          6             0       -0.588404   -1.357850    0.455762
    6          6             0        0.587197   -0.390524    0.614462
    7          6             0       -1.625782   -0.803705   -0.519348
    8          6             0       -0.832293    1.356135   -0.173593
    9          1             0       -1.046284   -1.475954    1.441004
   10          1             0       -0.218254   -2.332253    0.129321
   11          1             0        1.193608   -0.603884    1.495755
   12          1             0       -2.551817   -1.377244   -0.483224
   13          1             0       -1.246821   -0.815883   -1.549651
   14          1             0       -1.139455    2.356772    0.122016
   15          1             0       -0.391513    1.361495   -1.181374
   16          1             0        2.361786    1.094355   -0.336226
 ---------------------------------------------------------------------
 Rotational constants (GHZ):      3.8166281      1.6503012      1.3730506
 Standard basis: 6-311+G(d,p) (5D, 7F)
 There are   224 symmetry adapted basis functions of A   symmetry.
 Integral buffers will be    131072 words long.
 Raffenetti 2 integral format.
 Two-electron integral symmetry is turned on.
   224 basis functions,   352 primitive gaussians,   232 cartesian basis functions
    32 alpha electrons       32 beta electrons
       nuclear repulsion energy       427.6445139487 Hartrees.
 NAtoms=   16 NActive=   16 NUniq=   16 SFac= 7.50D-01 NAtFMM=   80 NAOKFM=F Big=F
 One-electron integrals computed using PRISM.
 NBasis=   224 RedAO= T  NBF=   224
 NBsUse=   224 1.00D-06 NBFU=   224
 Initial guess read from the read-write file:
 Initial guess orbital symmetries:
       Occupied  (A) (A) (A) (A) (A) (A) (A) (A) (A) (A) (A) (A)
                 (A) (A) (A) (A) (A) (A) (A) (A) (A) (A) (A) (A)
                 (A) (A) (A) (A) (A) (A) (A) (A)
       Virtual   (A) (A) (A) (A) (A) (A) (A) (A) (A) (A) (A) (A)
                 (A) (A) (A) (A) (A) (A) (A) (A) (A) (A) (A) (A)
                 (A) (A) (A) (A) (A) (A) (A) (A) (A) (A) (A) (A)
                 (A) (A) (A) (A) (A) (A) (A) (A) (A) (A) (A) (A)
                 (A) (A) (A) (A) (A) (A) (A) (A) (A) (A) (A) (A)
                 (A) (A) (A) (A) (A) (A) (A) (A) (A) (A) (A) (A)
                 (A) (A) (A) (A) (A) (A) (A) (A) (A) (A) (A) (A)
                 (A) (A) (A) (A) (A) (A) (A) (A) (A) (A) (A) (A)
                 (A) (A) (A) (A) (A) (A) (A) (A) (A) (A) (A) (A)
                 (A) (A) (A) (A) (A) (A) (A) (A) (A) (A) (A) (A)
                 (A) (A) (A) (A) (A) (A) (A) (A) (A) (A) (A) (A)
                 (A) (A) (A) (A) (A) (A) (A) (A) (A) (A) (A) (A)
                 (A) (A) (A) (A) (A) (A) (A) (A) (A) (A) (A) (A)
                 (A) (A) (A) (A) (A) (A) (A) (A) (A) (A) (A) (A)
                 (A) (A) (A) (A) (A) (A) (A) (A) (A) (A) (A) (A)
                 (A) (A) (A) (A) (A) (A) (A) (A) (A) (A) (A) (A)
 Requested convergence on RMS density matrix=1.00D-08 within 128 cycles.
 Requested convergence on MAX density matrix=1.00D-06.
 Requested convergence on             energy=1.00D-06.
 No special actions if energy rises.
 SCF Done:  E(RB+HF-LYP) =  -458.163816047     A.U. after    7 cycles
             Convg  =    0.6506D-08             -V/T =  2.0035
             S**2   =   0.0000
 QCSCF skips out because SCF is already converged.
 ***** Axes restored to original set *****
 -------------------------------------------------------------------
 Center     Atomic                   Forces (Hartrees/Bohr)
 Number     Number              X              Y              Z
 -------------------------------------------------------------------
    1          8           0.000003858    0.000002149   -0.000003678
    2          8           0.000000915    0.000004541    0.000002931
    3          8          -0.000234621    0.000359450   -0.000240083
    4          8          -0.000004799   -0.000116134    0.000603588
    5          6          -0.000000367    0.000000550    0.000002950
    6          6           0.000185933   -0.000276590    0.000126927
    7          6          -0.000004889    0.000001511    0.000005276
    8          6           0.000002801    0.000000763   -0.000001709
    9          1          -0.000000320    0.000005983    0.000004685
   10          1          -0.000004546   -0.000000415    0.000005556
   11          1           0.000002889    0.000000237   -0.000003011
   12          1          -0.000004187    0.000003963    0.000008353
   13          1          -0.000005098   -0.000001331    0.000004607
   14          1           0.000005577    0.000003065   -0.000003152
   15          1           0.000000539   -0.000001765   -0.000002875
   16          1           0.000056316    0.000014023   -0.000510365
 -------------------------------------------------------------------
 Cartesian Forces:  Max     0.000603588 RMS     0.000145145

 GradGradGradGradGradGradGradGradGradGradGradGradGradGradGradGradGradGrad
 Berny optimization.
 Internal  Forces:  Max     0.000904955 RMS     0.000102467
 Search for a local minimum.
 Step number   3 out of a maximum of  88 on scan point     1 out of    37
 All quantities printed in internal units (Hartrees-Bohrs-Radians)
 Update second derivatives using D2CorX and points  1  2  3
 Trust test= 1.08D+00 RLast= 5.30D-03 DXMaxT set to 3.00D-01
     Eigenvalues ---    0.00419   0.00949   0.01591   0.01961   0.03027
     Eigenvalues ---    0.03269   0.04052   0.04921   0.05850   0.06430
     Eigenvalues ---    0.07469   0.07706   0.08274   0.09451   0.09840
     Eigenvalues ---    0.09980   0.10900   0.11912   0.12297   0.14472
     Eigenvalues ---    0.17647   0.18874   0.21398   0.23075   0.24505
     Eigenvalues ---    0.24810   0.26703   0.28511   0.29828   0.30747
     Eigenvalues ---    0.31059   0.32406   0.33230   0.33503   0.34032
     Eigenvalues ---    0.34071   0.34756   0.36685   0.37494   0.40661
     Eigenvalues ---    0.499801000.000001000.000001000.000001000.00000
     Eigenvalues --- 1000.000001000.000001000.000001000.000001000.00000
     Eigenvalues --- 1000.000001000.000001000.000001000.000001000.00000
     Eigenvalues --- 1000.000001000.000001000.000001000.000001000.00000
     Eigenvalues --- 1000.000001000.000001000.000001000.000001000.00000
     Eigenvalues --- 1000.000001000.000001000.000001000.000001000.00000
     Eigenvalues --- 1000.000001000.000001000.000001000.000001000.00000
     Eigenvalues --- 1000.000001000.000001000.00000
 RFO step:  Lambda= 0.00000000D+00.
 Quartic linear search produced a step of -0.00269.
 Iteration  1 RMS(Cart)=  0.00001182 RMS(Int)=  0.00000000
 Iteration  2 RMS(Cart)=  0.00000000 RMS(Int)=  0.00000000
 Iteration  1 RMS(Cart)=  0.00000000 RMS(Int)=  0.00000000
 Variable       Old X    -DE/DX   Delta X   Delta X   Delta X     New X
                                 (Linear)    (Quad)   (Total)
    R1        2.68150   0.00000   0.00000   0.00000   0.00000   2.68151
    R2        2.69786   0.00000   0.00000   0.00000   0.00000   2.69786
    R3        2.70545   0.00000   0.00000   0.00000   0.00000   2.70546
    R4        2.64123   0.00000   0.00000   0.00000   0.00000   2.64122
    R5        2.73686   0.00000   0.00000   0.00000   0.00000   2.73686
    R6        2.68003   0.00000   0.00000   0.00000   0.00000   2.68003
    R7        1.83453   0.00000   0.00000   0.00000   0.00000   1.83453
    R8        2.89254   0.00000   0.00000   0.00000   0.00000   2.89255
    R9        2.88706   0.00000   0.00000   0.00000   0.00000   2.88706
   R10        2.06517   0.00000   0.00000   0.00000   0.00000   2.06517
   R11        2.06408   0.00000   0.00000   0.00000   0.00000   2.06408
   R12        2.06139   0.00000   0.00000   0.00000   0.00000   2.06139
   R13        2.05953   0.00000   0.00000   0.00000   0.00000   2.05953
   R14        2.07465   0.00000   0.00000   0.00000   0.00000   2.07465
   R15        2.05538   0.00000   0.00000   0.00000   0.00000   2.05538
   R16        2.07865   0.00000   0.00000   0.00000   0.00000   2.07865
    A1        1.98620   0.00000   0.00000   0.00000   0.00000   1.98621
    A2        1.93109   0.00000   0.00000   0.00000   0.00000   1.93109
    A3        1.88895   0.00000   0.00000   0.00000   0.00000   1.88894
    A4        1.78274   0.00000   0.00000   0.00000   0.00000   1.78273
    A5        1.93741   0.00000   0.00000   0.00000   0.00000   1.93741
    A6        1.87194   0.00000   0.00000  -0.00001  -0.00001   1.87193
    A7        1.91185   0.00000   0.00000   0.00001   0.00001   1.91186
    A8        1.90723   0.00000   0.00000  -0.00001  -0.00001   1.90721
    A9        1.94221   0.00000   0.00000   0.00001   0.00001   1.94222
   A10        1.89127   0.00000   0.00000   0.00000   0.00000   1.89127
   A11        1.93856   0.00000   0.00000   0.00000   0.00000   1.93856
   A12        1.95636   0.00000   0.00000   0.00000   0.00000   1.95636
   A13        1.83701   0.00000   0.00000   0.00000   0.00000   1.83702
   A14        1.86273   0.00000   0.00000   0.00001   0.00001   1.86273
   A15        1.90169   0.00000   0.00000  -0.00001  -0.00001   1.90169
   A16        1.96829   0.00000   0.00000   0.00000   0.00000   1.96830
   A17        1.91356   0.00000   0.00000   0.00000  -0.00001   1.91355
   A18        1.85793   0.00000   0.00000   0.00000   0.00000   1.85793
   A19        1.91134   0.00000   0.00000   0.00000   0.00000   1.91134
   A20        1.94434   0.00000   0.00000   0.00000   0.00000   1.94434
   A21        1.93968   0.00000   0.00000   0.00000   0.00000   1.93968
   A22        1.89501   0.00000   0.00000   0.00000   0.00000   1.89501
   A23        1.96491   0.00000   0.00000   0.00000   0.00000   1.96491
   A24        1.84998   0.00000   0.00000   0.00000   0.00000   1.84997
   A25        1.90944   0.00000   0.00000   0.00000   0.00000   1.90944
   A26        1.88133   0.00000   0.00000   0.00000   0.00000   1.88133
   A27        1.92066   0.00000   0.00000   0.00000   0.00000   1.92066
   A28        1.93659   0.00000   0.00000   0.00000   0.00000   1.93659
    D1        1.25383   0.00000   0.00000   0.00001   0.00001   1.25384
    D2       -0.82819   0.00000   0.00000   0.00001   0.00000  -0.82819
    D3       -2.97385   0.00000   0.00000   0.00001   0.00000  -2.97385
    D4        0.99363   0.00000   0.00000   0.00000   0.00000   0.99362
    D5        3.04634   0.00000   0.00000  -0.00001  -0.00001   3.04633
    D6       -1.14768   0.00000   0.00000  -0.00001  -0.00001  -1.14769
    D7        1.04071   0.00000   0.00000   0.00000   0.00000   1.04071
    D8       -3.13724   0.00000   0.00000   0.00000   0.00001  -3.13723
    D9       -1.09178   0.00000   0.00000   0.00001   0.00001  -1.09178
   D10       -1.09800   0.00000   0.00000   0.00000   0.00000  -1.09800
   D11       -3.13209   0.00000   0.00000   0.00000   0.00000  -3.13208
   D12        1.03699   0.00000   0.00000   0.00000   0.00000   1.03699
   D13       -1.23142  -0.00090   0.00000   0.00000   0.00000  -1.23142
   D14        1.19673   0.00000   0.00000   0.00002   0.00002   1.19674
   D15       -2.94923   0.00000   0.00000   0.00002   0.00002  -2.94921
   D16       -0.81908   0.00000   0.00000   0.00002   0.00002  -0.81906
   D17        0.78401   0.00000   0.00000   0.00000   0.00000   0.78401
   D18       -1.34201   0.00000   0.00000   0.00000   0.00000  -1.34201
   D19        2.85358   0.00000   0.00000   0.00000   0.00000   2.85358
   D20       -1.29835   0.00000   0.00000   0.00002   0.00002  -1.29833
   D21        2.85881   0.00000   0.00000   0.00002   0.00002   2.85884
   D22        0.77121   0.00000   0.00000   0.00002   0.00002   0.77124
   D23        2.93574   0.00000   0.00000   0.00002   0.00002   2.93577
   D24        0.80973   0.00000   0.00000   0.00002   0.00002   0.80975
   D25       -1.27787   0.00000   0.00000   0.00002   0.00002  -1.27785
   D26       -0.88429   0.00000   0.00000   0.00000  -0.00001  -0.88430
   D27       -2.93626   0.00000   0.00000  -0.00001  -0.00001  -2.93627
   D28        1.23120   0.00000   0.00000  -0.00001  -0.00001   1.23119
   D29        1.17680   0.00000   0.00000  -0.00002  -0.00002   1.17678
   D30       -0.87517   0.00000   0.00000  -0.00002  -0.00003  -0.87520
   D31       -2.99090   0.00000   0.00000  -0.00002  -0.00003  -2.99093
   D32       -3.01849   0.00000   0.00000  -0.00002  -0.00002  -3.01851
   D33        1.21272   0.00000   0.00000  -0.00002  -0.00003   1.21270
   D34       -0.90300   0.00000   0.00000  -0.00002  -0.00003  -0.90303
         Item               Value     Threshold  Converged?
 Maximum Force            0.000001     0.000450     YES
 RMS     Force            0.000000     0.000300     YES
 Maximum Displacement     0.000047     0.001800     YES
 RMS     Displacement     0.000012     0.001200     YES
 Predicted change in Energy=-6.534652D-11
 Optimization completed.
    -- Stationary point found.
                           ----------------------------
                           !   Optimized Parameters   !
                           ! (Angstroms and Degrees)  !
 --------------------------                            --------------------------
 ! Name  Definition              Value          Derivative Info.                !
 --------------------------------------------------------------------------------
 ! R1    R(1,6)                  1.419          -DE/DX =    0.0                 !
 ! R2    R(1,8)                  1.4276         -DE/DX =    0.0                 !
 ! R3    R(2,7)                  1.4317         -DE/DX =    0.0                 !
 ! R4    R(2,8)                  1.3977         -DE/DX =    0.0                 !
 ! R5    R(3,4)                  1.4483         -DE/DX =    0.0                 !
 ! R6    R(3,6)                  1.4182         -DE/DX =    0.0                 !
 ! R7    R(4,16)                 0.9708         -DE/DX =    0.0                 !
 ! R8    R(5,6)                  1.5307         -DE/DX =    0.0                 !
[...]
           A6         107.22880 107.25452
           A7         109.59763 109.54111
           A8         109.24807 109.27549
           A9         111.27436 111.28080
           A10        108.38489 108.36203
           A11        111.38421 111.06975
           A12        111.97660 112.09184
           A13        105.35595 105.25321
           A14        106.60704 106.72745
           A15        108.80189 108.95912
           A16        112.75979 112.77475
           A17        109.66313 109.63784
           A18        106.45541 106.45166
           A19        109.51679 109.51148
           A20        111.40908 111.40278
           A21        111.12439 111.13572
           A22        108.54725 108.57626
           A23        112.64290 112.58108
           A24        106.04491 105.99558
           A25        109.45086 109.40292
           A26        107.75369 107.79214
           A27        109.98037 110.04574
           A28        110.90415 110.95835
           D1          71.52791  71.84172
           D2         -47.74757 -47.44988
           D3        -170.66640-170.38711
           D4          57.07018  56.92878
           D5         174.69952 174.54060
           D6         -65.61063 -65.75884
           D7          59.40636  59.62992
           D8        -179.94810-179.74832
           D9         -62.78130 -62.55212
           D10        -62.73914 -62.91105
           D11       -179.35492-179.45557
           D12         59.64417  59.41490
           D13        -80.55530 -70.55530
           D14         70.52292  68.57091
           D15       -167.05334-168.97447
           D16        -45.18241 -46.92555
           D17         45.15711  44.92016
           D18        -76.89319 -76.89079
           D19        163.77606 163.49789
           D20        -74.09234 -74.38972
           D21        163.85736 163.79933
           D22         44.52661  44.18801
           D23        168.46058 168.20612
           D24         46.41028  46.39516
           D25        -72.92047 -73.21615
           D26        -50.70373 -50.66757
           D27       -168.29783-168.23732
           D28         70.52019  70.54018
           D29         67.32724  67.42396
           D30        -50.26686 -50.14579
           D31       -171.44884-171.36829
           D32       -173.03841-172.94833
           D33         69.36749  69.48193
           D34        -51.81448 -51.74057
                          Input orientation:                          
 ---------------------------------------------------------------------
 Center     Atomic     Atomic              Coordinates (Angstroms)
 Number     Number      Type              X           Y           Z
 ---------------------------------------------------------------------
    1          8             0        0.227117    1.167907    0.349757
    2          8             0       -1.825069    0.425475   -0.522845
    3          8             0        1.637440   -0.267187   -0.843268
    4          8             0        2.793000    0.591284   -0.684451
    5          6             0       -0.235116   -1.232847    0.236045
    6          6             0        0.816061   -0.122270    0.303758
    7          6             0       -1.326926   -0.892459   -0.776951
    8          6             0       -0.798153    1.368260   -0.623315
    9          1             0       -0.679927   -1.319233    1.230522
   10          1             0        0.249992   -2.180701   -0.007430
   11          1             0        1.439753   -0.185030    1.196508
   12          1             0       -2.178109   -1.567004   -0.686023
   13          1             0       -0.944740   -0.948183   -1.804625
   14          1             0       -1.223714    2.346902   -0.413161
   15          1             0       -0.356816    1.339169   -1.630447
   16          1             0        2.405211    1.475916   -0.781896
 ---------------------------------------------------------------------
                    Distance matrix (angstroms):
                    1          2          3          4          5
     1  O    0.000000
     2  O    2.350341   0.000000
     3  O    2.339191   3.545619   0.000000
     4  O    2.825922   4.623869   1.448280   0.000000
     5  C    2.447490   2.419483   2.367251   3.652978   0.000000
     6  C    1.418988   2.821146   1.418215   2.322500   1.530666
     7  C    2.815960   1.431666   3.030318   4.379936   1.527768
     8  C    1.427651   1.397675   2.941968   3.674752   2.796653
     9  H    2.790043   2.725739   3.282925   4.402093   1.092842
    10  H    3.367682   3.371007   2.507025   3.822192   1.092262
    11  H    2.004473   3.740047   2.050980   2.443758   2.196724
    12  H    3.786514   2.030084   4.033939   5.419422   2.176486
    13  H    3.239204   2.074820   2.838241   4.194692   2.179205
    14  H    2.019154   2.016318   3.899314   4.392013   3.770066
    15  H    2.071597   2.053627   2.679008   3.372770   3.180230
    16  H    2.473783   4.366440   1.905688   0.970798   3.917260
                    6          7          8          9         10
     6  C    0.000000
     7  C    2.520619   0.000000
     8  C    2.384707   2.326812   0.000000
     9  H    2.128284   2.151904   3.267003   0.000000
    10  H    2.157409   2.176787   3.751406   1.771836   0.000000
    11  H    1.090841   3.471241   3.276079   2.404291   2.616812
    12  H    3.468714   1.089859   3.244070   2.445216   2.594761
    13  H    2.868420   1.097855   2.604398   3.069189   2.485235
    14  H    3.281991   3.261358   1.087661   4.054373   4.778663
    15  H    2.693063   2.578707   1.099972   3.918755   3.923249
    16  H    2.501647   4.420189   3.209093   4.623933   4.314582
                   11         12         13         14         15
    11  H    0.000000
    12  H    4.306124   0.000000
    13  H    3.908326   1.776348   0.000000
    14  H    4.011954   4.037819   3.587698   0.000000
    15  H    3.680016   3.557371   2.368115   1.802449   0.000000
    16  H    2.757705   5.502306   4.259623   3.750157   2.892668
                   16
    16  H    0.000000
 Stoichiometry    C4H8O4
 Framework group  C1[X(C4H8O4)]
 Deg. of freedom    42
 Full point group                 C1
 Largest Abelian subgroup         C1      NOp   1
 Largest concise Abelian subgroup C1      NOp   1
                         Standard orientation:                         
 ---------------------------------------------------------------------
 Center     Atomic     Atomic              Coordinates (Angstroms)
 Number     Number      Type              X           Y           Z
 ---------------------------------------------------------------------
    1          8             0        0.155902    0.951891    0.774115
    2          8             0       -1.964854    0.537374   -0.150370
    3          8             0        1.392317   -0.532959   -0.544336
    4          8             0        2.640959    0.164725   -0.317077
    5          6             0       -0.588397   -1.357845    0.455771
    6          6             0        0.587192   -0.390505    0.614463
    7          6             0       -1.625777   -0.803724   -0.519353
    8          6             0       -0.832336    1.356128   -0.173600
    9          1             0       -1.046289   -1.475932    1.441009
   10          1             0       -0.218231   -2.332251    0.129354
   11          1             0        1.193597   -0.603849    1.495763
   12          1             0       -2.551798   -1.377286   -0.483256
   13          1             0       -1.246795   -0.815875   -1.549650
   14          1             0       -1.139514    2.356758    0.122017
   15          1             0       -0.391577    1.361498   -1.181390
   16          1             0        2.361927    1.094362   -0.336181
 ---------------------------------------------------------------------
 Rotational constants (GHZ):      3.8166748      1.6502680      1.3730298

 **********************************************************************

            Population analysis using the SCF density.

 **********************************************************************

 Orbital symmetries:
       Occupied  (A) (A) (A) (A) (A) (A) (A) (A) (A) (A) (A) (A)
                 (A) (A) (A) (A) (A) (A) (A) (A) (A) (A) (A) (A)
                 (A) (A) (A) (A) (A) (A) (A) (A)
       Virtual   (A) (A) (A) (A) (A) (A) (A) (A) (A) (A) (A) (A)
                 (A) (A) (A) (A) (A) (A) (A) (A) (A) (A) (A) (A)
                 (A) (A) (A) (A) (A) (A) (A) (A) (A) (A) (A) (A)
                 (A) (A) (A) (A) (A) (A) (A) (A) (A) (A) (A) (A)
                 (A) (A) (A) (A) (A) (A) (A) (A) (A) (A) (A) (A)
                 (A) (A) (A) (A) (A) (A) (A) (A) (A) (A) (A) (A)
                 (A) (A) (A) (A) (A) (A) (A) (A) (A) (A) (A) (A)
                 (A) (A) (A) (A) (A) (A) (A) (A) (A) (A) (A) (A)
                 (A) (A) (A) (A) (A) (A) (A) (A) (A) (A) (A) (A)
                 (A) (A) (A) (A) (A) (A) (A) (A) (A) (A) (A) (A)
                 (A) (A) (A) (A) (A) (A) (A) (A) (A) (A) (A) (A)
                 (A) (A) (A) (A) (A) (A) (A) (A) (A) (A) (A) (A)
                 (A) (A) (A) (A) (A) (A) (A) (A) (A) (A) (A) (A)
                 (A) (A) (A) (A) (A) (A) (A) (A) (A) (A) (A) (A)
                 (A) (A) (A) (A) (A) (A) (A) (A) (A) (A) (A) (A)
                 (A) (A) (A) (A) (A) (A) (A) (A) (A) (A) (A) (A)
 The electronic state is 1-A.
 Alpha  occ. eigenvalues --  -19.19841 -19.19069 -19.15303 -19.14758 -10.29070
 Alpha  occ. eigenvalues --  -10.27994 -10.23695 -10.19470  -1.14939  -1.09365
 Alpha  occ. eigenvalues --   -1.03163  -0.93107  -0.80225  -0.70371  -0.69116
 Alpha  occ. eigenvalues --   -0.59988  -0.56177  -0.54183  -0.51445  -0.50284
 Alpha  occ. eigenvalues --   -0.47759  -0.46874  -0.44752  -0.42675  -0.41794
 Alpha  occ. eigenvalues --   -0.39418  -0.35544  -0.35049  -0.33107  -0.30277
 Alpha  occ. eigenvalues --   -0.29906  -0.28683
 Alpha virt. eigenvalues --   -0.01439  -0.00052   0.01605   0.02032   0.03114
 Alpha virt. eigenvalues --    0.03781   0.04485   0.05232   0.06182   0.07108
 Alpha virt. eigenvalues --    0.08962   0.09529   0.10160   0.10521   0.11439
 Alpha virt. eigenvalues --    0.12888   0.13133   0.15266   0.15959   0.16350
 Alpha virt. eigenvalues --    0.17245   0.17275   0.19428   0.20105   0.20355
 Alpha virt. eigenvalues --    0.21021   0.21143   0.21965   0.22867   0.23304
 Alpha virt. eigenvalues --    0.24190   0.25039   0.25245   0.26358   0.26556
 Alpha virt. eigenvalues --    0.27143   0.28182   0.29559   0.30108   0.30638
 Alpha virt. eigenvalues --    0.32014   0.32393   0.32958   0.35299   0.35969
 Alpha virt. eigenvalues --    0.37056   0.39920   0.41245   0.45917   0.47306
 Alpha virt. eigenvalues --    0.50041   0.51089   0.52169   0.53972   0.56045
 Alpha virt. eigenvalues --    0.58403   0.59621   0.61111   0.63612   0.65820
 Alpha virt. eigenvalues --    0.66429   0.67630   0.69163   0.69667   0.70607
 Alpha virt. eigenvalues --    0.72243   0.73499   0.75110   0.86741   0.89693
 Alpha virt. eigenvalues --    0.92730   0.98961   1.00206   1.01172   1.04045
 Alpha virt. eigenvalues --    1.05692   1.08498   1.09024   1.10410   1.14872
 Alpha virt. eigenvalues --    1.15819   1.17713   1.18500   1.22971   1.25846
 Alpha virt. eigenvalues --    1.26687   1.30452   1.31161   1.36818   1.38812
 Alpha virt. eigenvalues --    1.42772   1.44900   1.49718   1.51016   1.53349
 Alpha virt. eigenvalues --    1.55728   1.56816   1.57146   1.61063   1.61308
 Alpha virt. eigenvalues --    1.62627   1.63244   1.65297   1.66821   1.67711
 Alpha virt. eigenvalues --    1.70339   1.72242   1.73575   1.75836   1.77314
 Alpha virt. eigenvalues --    1.80723   1.82466   1.86111   1.91571   1.94321
 Alpha virt. eigenvalues --    1.94767   1.97624   2.01433   2.04243   2.12446
 Alpha virt. eigenvalues --    2.13190   2.18758   2.24232   2.26520   2.28993
 Alpha virt. eigenvalues --    2.40500   2.41724   2.44472   2.49093   2.49612
 Alpha virt. eigenvalues --    2.52992   2.55686   2.57024   2.59343   2.61819
 Alpha virt. eigenvalues --    2.67373   2.69219   2.70129   2.73930   2.77172
 Alpha virt. eigenvalues --    2.77868   2.80276   2.82930   2.84302   2.89248
 Alpha virt. eigenvalues --    2.92903   2.95015   2.99054   3.03239   3.04916
 Alpha virt. eigenvalues --    3.10507   3.12353   3.17585   3.22349   3.25345
 Alpha virt. eigenvalues --    3.27674   3.29269   3.34034   3.34416   3.43057
 Alpha virt. eigenvalues --    3.66906   3.75710   3.81422   3.84098   3.85194
 Alpha virt. eigenvalues --    3.93899   3.98377   4.04020   4.04727   4.13262
 Alpha virt. eigenvalues --    4.15668   4.29424   4.87436   4.97664   5.04010
 Alpha virt. eigenvalues --    5.07036   5.07782   5.29757   5.34847   5.39434
 Alpha virt. eigenvalues --    5.42632   5.59310   5.69876   5.76069  23.73009
 Alpha virt. eigenvalues --   23.80890  23.85154  23.89218  49.82972  49.85139
 Alpha virt. eigenvalues --   49.90753  49.95042
          Condensed to atoms (all electrons):
              1          2          3          4          5          6
     1  O    8.173626   0.016670  -0.085862   0.010237  -0.035569   0.180993
     2  O    0.016670   8.037133  -0.003764  -0.000511  -0.074132  -0.044128
     3  O   -0.085862  -0.003764   7.992298   0.042949  -0.192231   0.319396
     4  O    0.010237  -0.000511   0.042949   7.922060   0.001122  -0.014418
     5  C   -0.035569  -0.074132  -0.192231   0.001122   6.253990  -0.481275
     6  C    0.180993  -0.044128   0.319396  -0.014418  -0.481275   6.334529
     7  C   -0.020114   0.263383   0.050519  -0.018667  -0.151740  -0.032012
     8  C    0.159258   0.198031  -0.024165   0.018147   0.258890  -0.397874
     9  H   -0.001427   0.001946   0.012051  -0.000430   0.435870  -0.067243
    10  H    0.010133   0.009145  -0.007440   0.000696   0.394450  -0.036507
    11  H   -0.088454  -0.004169  -0.027852  -0.002572   0.000659   0.394753
    12  H   -0.002348  -0.059172  -0.000743   0.000206  -0.053999   0.027375
    13  H    0.001375  -0.047726   0.000182  -0.000371  -0.061597  -0.026602
    14  H   -0.063600  -0.052607  -0.000843  -0.000312  -0.000896   0.017385
    15  H   -0.050774  -0.055693   0.004204   0.002734  -0.007309  -0.018559
    16  H    0.026943  -0.000007  -0.028526   0.251076   0.012878  -0.023222
              7          8          9         10         11         12
     1  O   -0.020114   0.159258  -0.001427   0.010133  -0.088454  -0.002348
     2  O    0.263383   0.198031   0.001946   0.009145  -0.004169  -0.059172
     3  O    0.050519  -0.024165   0.012051  -0.007440  -0.027852  -0.000743
     4  O   -0.018667   0.018147  -0.000430   0.000696  -0.002572   0.000206
     5  C   -0.151740   0.258890   0.435870   0.394450   0.000659  -0.053999
     6  C   -0.032012  -0.397874  -0.067243  -0.036507   0.394753   0.027375
     7  C    5.679601  -0.350534  -0.023679  -0.041622   0.009585   0.411704
     8  C   -0.350534   5.327408  -0.012889   0.007798   0.012697   0.017019
     9  H   -0.023679  -0.012889   0.510478  -0.025541  -0.007112  -0.008408
    10  H   -0.041622   0.007798  -0.025541   0.518825  -0.004166  -0.000651
    11  H    0.009585   0.012697  -0.007112  -0.004166   0.539306  -0.000228
    12  H    0.411704   0.017019  -0.008408  -0.000651  -0.000228   0.536220
    13  H    0.450412  -0.005277   0.006566  -0.002866  -0.000564  -0.031897
    14  H    0.009336   0.428760  -0.000168   0.000143  -0.000030  -0.000210
    15  H   -0.002316   0.437036   0.000275   0.000447  -0.001089  -0.000574
    16  H    0.002433   0.003336   0.000056  -0.000030  -0.002735  -0.000018
             13         14         15         16
     1  O    0.001375  -0.063600  -0.050774   0.026943
     2  O   -0.047726  -0.052607  -0.055693  -0.000007
     3  O    0.000182  -0.000843   0.004204  -0.028526
     4  O   -0.000371  -0.000312   0.002734   0.251076
     5  C   -0.061597  -0.000896  -0.007309   0.012878
     6  C   -0.026602   0.017385  -0.018559  -0.023222
     7  C    0.450412   0.009336  -0.002316   0.002433
     8  C   -0.005277   0.428760   0.437036   0.003336
     9  H    0.006566  -0.000168   0.000275   0.000056
    10  H   -0.002866   0.000143   0.000447  -0.000030
    11  H   -0.000564  -0.000030  -0.001089  -0.002735
    12  H   -0.031897  -0.000210  -0.000574  -0.000018
    13  H    0.549452  -0.000473   0.011486   0.000092
    14  H   -0.000473   0.534752  -0.038818   0.000143
    15  H    0.011486  -0.038818   0.584117  -0.002215
    16  H    0.000092   0.000143  -0.002215   0.503391
 Mulliken atomic charges:
              1
     1  O   -0.231087
     2  O   -0.184398
     3  O   -0.050173
     4  O   -0.211945
     5  C   -0.299111
     6  C   -0.132590
     7  C   -0.236287
     8  C   -0.077640
     9  H    0.179654
    10  H    0.177184
    11  H    0.181971
    12  H    0.165724
    13  H    0.157806
    14  H    0.167438
    15  H    0.137048
    16  H    0.256405
 Sum of Mulliken charges=   0.00000
 Atomic charges with hydrogens summed into heavy atoms:
              1
     1  O   -0.231087
     2  O   -0.184398
     3  O   -0.050173
     4  O    0.044460
     5  C    0.057727
     6  C    0.049381
     7  C    0.087243
     8  C    0.226847
     9  H    0.000000
    10  H    0.000000
    11  H    0.000000
    12  H    0.000000
    13  H    0.000000
    14  H    0.000000
    15  H    0.000000
    16  H    0.000000
 Sum of Mulliken charges=   0.00000
 Electronic spatial extent (au):  <R**2>=   909.6555
 Charge=     0.0000 electrons
 Dipole moment (field-independent basis, Debye):
    X=    -1.0924    Y=    -0.1486    Z=    -0.0717  Tot=     1.1048
 Quadrupole moment (field-independent basis, Debye-Ang):
   XX=   -55.6128   YY=   -42.3367   ZZ=   -48.4638
   XY=     5.6391   XZ=     2.1564   YZ=    -3.3117
 Traceless Quadrupole moment (field-independent basis, Debye-Ang):
   XX=    -6.8083   YY=     6.4677   ZZ=     0.3406
   XY=     5.6391   XZ=     2.1564   YZ=    -3.3117
 Octapole moment (field-independent basis, Debye-Ang**2):
  XXX=     1.7283  YYY=     9.9551  ZZZ=    -0.4495  XYY=     1.7459
  XXY=     3.8219  XXZ=     2.9154  XZZ=     1.2626  YZZ=    -1.3311
  YYZ=    -2.1686  XYZ=    -4.0047
 Hexadecapole moment (field-independent basis, Debye-Ang**3):
 XXXX=  -736.5634 YYYY=  -287.8032 ZZZZ=  -142.8227 XXXY=    42.6769
 XXXZ=     3.8479 YYYX=    -3.6707 YYYZ=     1.3581 ZZZX=    -0.6354
 ZZZY=    -3.1412 XXYY=  -144.0862 XXZZ=  -138.6769 YYZZ=   -78.1644
 XXYZ=    -1.7823 YYXZ=    -4.1492 ZZXY=     0.3146
 N-N= 4.276434201585D+02 E-N=-1.931111757479D+03  KE= 4.565880614906D+02

 This type of calculation cannot be archived.


 EXPERIMENTALISTS THINK SILICON IS REALLY FUN TO USE
     ITS PLACE IN NOVEL COMPOUNDS IS CERTAIN TO AMUSE
 THEY SIT ALL DAY IN LABORATORIES MAKING ALL THIS SLUDGE
     "LOADED WITH THE SILICON THEY SAY", TO ME IT LOOKS LIKE FUDGE.
 FOR HAPPY THOUGH THEY BE WITH CRUD, I'D LIKE TO KNOW A LITTLE
      ABOUT THE PI BONDS ON THE EDGE AND SIGMAS IN THE MIDDLE.

 SO LETS DERIVE A WAVEFUNCTION.....6-31G*
     USE AN OPTIMAL GEOMETRY AND SEE WHERE ELECTRONS ARE.
 BUT WHAT OF CORRELATION?  ASKS THE WIRY LITTLE SKEPTIC.
     WE'LL THROW IN PERTURBATION AS AN ELECTRON ANTISEPTIC.
 AND WHEN THE PROGRAM GIVES US ANSWERS IN THEM WE CAN TRUST
     SINCE NOBODY CAN MAKE THE STUFF, WE HAVE NO CHOICE, WE MUST.

 SO THEORY GUYS HAVE GOT IT MADE, IN ROOMS FREE OF POLLUTION.
     INSTEAD OF PROBLEMS WITH THE REFLUX, THEY HAVE ONLY SOLUTIONS.
 AND WHEN THE FEDS ANNOUNCE THE LIST OF CARCINOGENIC TERRORS,
     THE THEORISTS SIT SAFELY AT THEIR TERMINALS FIXING ERRORS.
 IN OTHER WORDS, EXPERIMENTALISTS WILL LIKELY DIE OF CANCER
     FROM WORKING HARD YET FRUITLESSLY...TILL THEORY GIVES THE ANSWER.
          -- THOMAS A. HOLME, 1983
 Job cpu time:  0 days 19 hours  0 minutes 27.1 seconds.
 File lengths (MBytes):  RWF=     79 Int=      0 D2E=      0 Chk=     12 Scr=      1
 Normal termination of Gaussian 03 at Thu Feb  7 05:05:40 2019.
