
Running Job 1 of 1 input.in
qchem input.in_1793645.0 /gtmp/qchem1793645/ 1
/usr/local/qchem/exe/qcprog.exe_s input.in_1793645.0 /gtmp/qchem1793645/
                  Welcome to Q-Chem
     A Quantum Leap Into The Future Of Chemistry


 Q-Chem 6.1, Q-Chem, Inc., Pleasanton, CA (2022)

 License issued to: SRG Alon Grinberg Dana, Technion

 E. Epifanovsky,  A. T. B. Gilbert,  Xintian Feng,  Joonho Lee,  Yuezhi Mao,  
 N. Mardirossian,  P. Pokhilko,  A. White,  M. Wormit,  M. P. Coons,  
 A. L. Dempwolff,  Zhengting Gan,  D. Hait,  P. R. Horn,  L. D. Jacobson,  
 I. Kaliman,  J. Kussmann,  A. W. Lange,  Ka Un Lao,  D. S. Levine,  Jie Liu,  
 S. C. McKenzie,  A. F. Morrison,  K. D. Nanda,  F. Plasser,  D. R. Rehn,  
 M. L. Vidal,  Zhi-Qiang You,  Ying Zhu,  B. Alam,  B. Albrecht,  
 A. Aldossary,  E. Alguire,  J. H. Andersen,  V. Athavale,  D. Barton,  
 K. Begam,  A. Behn,  N. Bellonzi,  Y. A. Bernard,  E. J. Berquist,  
 H. Burton,  A. Carreras,  K. Carter-Fenk,  Mathew Chow,  Romit Chakraborty,  
 Chandrima Chakravarty,  Junhan Chen,  A. D. Chien,  K. D. Closser,  
 V. Cofer-Shabica,  L. Cunha,  S. Dasgupta,  Jia Deng,  M. de Wergifosse,  
 M. Diedenhofen,  Hainam Do,  S. Ehlert,  Po-Tung Fang,  S. Fatehi,  
 Qingguo Feng,  T. Friedhoff,  Thomas Froitzheim,  B. Ganoe,  J. Gayvert,  
 Qinghui Ge,  G. Gidofalvi,  M. Gimferrer,  M. Goldey,  Montgomery Gray,  
 J. Gomes,  C. Gonzalez-Espinoza,  S. Gulania,  A. Gunina,  J. A. Gyamfi,  
 M. W. D. Hanson-Heine,  P. H. P. Harbach,  A. W. Hauser,  M. F. Herbst,  
 M. Hernandez Vera,  M. Hodecker,  Z. C. Holden,  S. Houck,  Xunkun Huang,  
 Kerwin Hui,  B. C. Huynh,  K. Ikeda,  M. Ivanov,  Hyunjun Ji,  Zuxin Jin,  
 Hanjie Jiang,  Subrata Jana,  B. Kaduk,  S. Kaehler,  R. Kang,  
 K. Khistyaev,  Jaehoon Kim,  Yongbin Kim,  P. Klunzinger,  Z. Koczor-Benda,  
 Joong Hoon Koh,  D. Kosenkov,  Saikiran Kotaru,  L. Koulias,  T. Kowalczyk,  
 C. M. Krauter,  K. Kue,  A. Kunitsa,  T. Kus,  A. Landau,  K. V. Lawler,  
 D. Lefrancois,  S. Lehtola,  Rain Li,  Shaozhi Li,  Yi-Pei Li,  
 Jiashu Liang,  M. Liebenthal,  Hung-Hsuan Lin,  You-Sheng Lin,  Fenglai Liu,  
 Kuan-Yu Liu,  Xiao Liu,  M. Loipersberger,  A. Luenser,  C. Malbon,  
 A. Manjanath,  P. Manohar,  E. Mansoor,  S. F. Manzer,  Shan-Ping Mao,  
 A. V. Marenich,  T. Markovich,  S. Mason,  F. Matz,  S. A. Maurer,  
 P. F. McLaughlin,  M. F. S. J. Menger,  J.-M. Mewes,  S. A. Mewes,  
 P. Morgante,  Mohammad Mostafanejad,  J. W. Mullinax,  K. J. Oosterbaan,  
 G. Paran,  V. Parravicini,  Alexander C. Paul,  Suranjan K. Paul,  
 F. Pavosevic,  Zheng Pei,  S. Prager,  E. I. Proynov,  E. Ramos,  B. Rana,  
 A. E. Rask,  A. Rettig,  R. M. Richard,  F. Rob,  E. Rossomme,  T. Scheele,  
 M. Scheurer,  M. Schneider,  P. E. Schneider,  Tim K. Schramm,  N. Sergueev,  
 S. M. Sharada,  M. Sharma,  Hengyuan Shen,  W. Skomorowski,  D. W. Small,  
 C. J. Stein,  Alistair J. Sterling,  Yingli Su,  Yu-Chuan Su,  
 E. J. Sundstrom,  J. Talbot,  Zhen Tao,  J. Thirman,  Hung-Yi Tsai,  
 T. Tsuchimochi,  N. M. Tubman,  C. Utku,  S. P. Veccham,  O. Vydrov,  
 J. Wenzel,  Jonathan Wong,  J. Witte,  A. Yamada,  Chou-Hsun Yang,  Kun Yao,  
 S. Yeganeh,  S. R. Yost,  A. Zech,  F. Zeller,  Igor Ying Zhang,  
 Xing Zhang,  Yu Zhang,  D. Zuev,  A. Aspuru-Guzik,  A. T. Bell,  
 N. A. Besley,  K. B. Bravaya,  B. R. Brooks,  D. Casanova,  Jeng-Da Chai,  
 Hsing-Ta Chen,  S. Coriani,  C. J. Cramer,  A. E. DePrince, III,  
 R. A. DiStasio Jr.,  A. Dreuw,  B. D. Dunietz,  T. R. Furlani,  
 W. A. Goddard III,  S. Grimme,  S. Hammes-Schiffer,  T. Head-Gordon,  
 W. J. Hehre,  Chao-Ping Hsu,  T.-C. Jagau,  Yousung Jung,  A. Klamt,  
 Jing Kong,  D. S. Lambrecht,  Xiangyuan Li,  WanZhen Liang,  N. J. Mayhall,  
 C. W. McCurdy,  J. B. Neaton,  T. Neudecker,  C. Ochsenfeld,  
 J. A. Parkhill,  R. Peverati,  V. A. Rassolov,  Haisheng Ren,  Yihan Shao,  
 L. V. Slipchenko,  R. P. Steele,  J. E. Subotnik,  A. J. W. Thom,  
 A. Tkatchenko,  D. G. Truhlar,  T. Van Voorhis,  Fan Wang,  
 T. A. Wesolowski,  K. B. Whaley,  H. L. Woodcock III,  P. M. Zimmerman,  
 S. Faraji,  P. M. W. Gill,  M. Head-Gordon,  J. M. Herbert,  A. I. Krylov

 Contributors to earlier versions of Q-Chem not listed above: 
 R. D. Adamson,  B. Austin,  R. Baer,  J. Baker,  G. J. O. Beran,  
 K. Brandhorst,  S. T. Brown,  E. F. C. Byrd,  Arup K. Chakraborty,  
 G. K. L. Chan,  Chun-Min Chang,  Yunqing Chen,  C.-L. Cheng,  
 Siu Hung Chien,  D. M. Chipman,  D. L. Crittenden,  H. Dachsel,  
 R. J. Doerksen,  A. D. Dutoi,  R. G. Edgar,  J. Fosso-Tande,  
 L. Fusti-Molnar,  D. Ghosh,  A. Ghysels,  A. Golubeva-Zadorozhnaya,  
 J. Gonthier,  M. S. Gordon,  S. R. Gwaltney,  G. Hawkins,  J. E. Herr,  
 A. Heyden,  S. Hirata,  E. G. Hohenstein,  G. Kedziora,  F. J. Keil,  
 C. Kelley,  Jihan Kim,  R. A. King,  R. Z. Khaliullin,  P. P. Korambath,  
 W. Kurlancheek,  A. Laurent,  A. M. Lee,  M. S. Lee,  S. V. Levchenko,  
 Ching Yeh Lin,  D. Liotard,  E. Livshits,  R. C. Lochan,  I. Lotan,  
 L. A. Martinez-Martinez,  P. E. Maslen,  N. Nair,  D. P. O'Neill,  
 D. Neuhauser,  E. Neuscamman,  C. M. Oana,  R. Olivares-Amaya,  R. Olson,  
 T. M. Perrine,  B. Peters,  P. A. Pieniazek,  A. Prociuk,  Y. M. Rhee,  
 J. Ritchie,  M. A. Rohrdanz,  E. Rosta,  N. J. Russ,  H. F. Schaefer III,  
 M. W. Schmidt,  N. E. Schultz,  S. Sharma,  N. Shenvi,  C. D. Sherrill,  
 A. C. Simmonett,  A. Sodt,  T. Stein,  D. Stuck,  K. S. Thanthiriwatte,  
 V. Vanovschi,  L. Vogt,  Tao Wang,  A. Warshel,  M. A. Watson,  
 C. F. Williams,  Q. Wu,  X. Xu,  Jun Yang,  W. Zhang,  Yan Zhao

   Please cite Q-Chem as follows:
  "Software for the frontiers of quantum chemistry:
   An overview of developments in the Q-Chem 5 package"
   J. Chem. Phys. 155, 084801 (2021)
   https://doi.org/10.1063/5.0055522 (open access)

 Q-Chem 6.1.0 for Intel X86 EM64T Linux

 Parts of Q-Chem use Armadillo 9.900.5 (Nocturnal Misbehaviour).
 http://arma.sourceforge.net/

 Q-Chem begins on Tue Nov 28 23:39:50 2023  

 Host: 
0

     Scratch files written to /gtmp/qchem1793645//
 Jul923 |scratch|qcdevops|jenkins|workspace|build_RNUM DZOC   
 Processing $rem in /usr/local/qchem/config/preferences:
 Processing $rem in /home/calvin.p/.qchemrc:

 Checking the input file for inconsistencies... 	...done.

--------------------------------------------------------------
User input:
--------------------------------------------------------------
$molecule
0 1
C       1.934574    -0.128781    -0.000151
C       0.556601     0.526657     0.000200
C      -0.556627    -0.526735     0.000173
C      -1.934557     0.128837    -0.000138
H       2.720125     0.655980    -0.000236
H       2.061880    -0.759501    -0.905731
H       2.062283    -0.759765     0.905211
H       0.464285     1.168064    -0.903444
H       0.464481     1.167909     0.903924
H      -0.464539    -1.167976     0.903964
H      -0.464346    -1.168166    -0.903402
H      -2.062154     0.759848     0.905185
H      -2.720189    -0.655832    -0.000229
H      -2.061778     0.759577    -0.905748
$end
$rem
JOBTYPE       pes_scan
METHOD        hf
UNRESTRICTED  FALSE
BASIS         sto-3g
IQMOL_FCHK    FALSE
$end
$scan
tors 1 2 3 4 -180.0 180 15
$end
--------------------------------------------------------------
 ----------------------------------------------------------------
             Standard Nuclear Orientation (Angstroms)
    I     Atom           X                Y                Z
 ----------------------------------------------------------------
    1      C       1.9345741871    -0.1287810164    -0.0001508847
    2      C       0.5566011329     0.5266568696     0.0002000706
    3      C      -0.5566267799    -0.5267352225     0.0001730471
    4      C      -1.9345568342     0.1288366634    -0.0001379976
    5      H       2.7201251222     0.6559800486    -0.0002358684
    6      H       2.0618802653    -0.7595010131    -0.9057308760
    7      H       2.0622832134    -0.7597649986     0.9052111240
    8      H       0.4642851057     1.1680638547    -0.9034439372
    9      H       0.4644810539     1.1679088692     0.9039240628
   10      H      -0.4645387528    -1.1679762077     0.9039640548
   11      H      -0.4643457010    -1.1681662221    -0.9034019452
   12      H      -2.0621539124     0.7598476601     0.9051849937
   13      H      -2.7201887692    -0.6558324016    -0.0002290139
   14      H      -2.0617778604     0.7595766457    -0.9057480063
 ----------------------------------------------------------------
 Molecular Point Group                 C1    NOp =  1
 Largest Abelian Subgroup              C1    NOp =  1
 Nuclear Repulsion Energy =         130.38253114 hartrees
 There are       17 alpha and       17 beta electrons
 Requested basis set is STO-3G
 There are 18 shells and 30 basis functions

 Total QAlloc Memory Limit   8000 MB
 Mega-Array Size       188 MB
 MEM_STATIC part       192 MB

A total of 1 constraints
  
            1
    1   3.0100000
    2   1.0100000
    3   2.0100000
    4   3.0100000
    5   4.0100000
    6-180.0000000
    7 180.0000000
    8  15.0000000
    9   0.0000000
   10   0.0000000

                       Distance Matrix (Angstroms)
             C (  1)   C (  2)   C (  3)   C (  4)   H (  5)   H (  6)
   C (  2)  1.525912
   C (  3)  2.522786  1.532616
   C (  4)  3.877698  2.522723  1.525931
   H (  5)  1.110378  2.167386  3.483665  4.684436
   H (  6)  1.110896  2.177333  2.780543  4.192941  1.804659
   H (  7)  1.110914  2.177385  2.780663  4.193328  1.804695  1.810942
   H (  8)  2.158586  1.111979  2.175116  2.765935  2.483310  2.503562
   H (  9)  2.158687  1.111939  2.175143  2.766294  2.483446  3.088923
   H ( 10)  2.766422  2.175155  1.111984  2.158721  3.779746  3.134428
   H ( 11)  2.766044  2.175145  1.111934  2.158616  3.779428  2.559068
   H ( 12)  4.193224  2.780513  2.177373  1.110885  4.868343  4.753472
   H ( 13)  4.684507  3.483624  2.167410  1.110371  5.596237  4.868148
   H ( 14)  4.192865  2.780450  2.177331  1.110922  4.867985  4.394560
             H (  7)   H (  8)   H (  9)   H ( 10)   H ( 11)   H ( 12)
   H (  8)  3.088908
   H (  9)  2.503777  1.807368
   H ( 10)  2.559583  3.096211  2.513849
   H ( 11)  3.133963  2.514026  3.096190  1.807366
   H ( 12)  4.395475  3.133795  2.559375  2.503773  3.088886
   H ( 13)  4.868538  3.779321  3.779636  2.483508  2.483352  1.804698
   H ( 14)  4.753509  2.558879  3.134267  3.088963  2.503595  1.810933
             H ( 13)
   H ( 14)  1.804675
 
 A cutoff of  1.0D-12 yielded    168 shell pairs
 There are       486 function pairs
 Smallest overlap matrix eigenvalue = 2.05E-01

 Scale SEOQF with 1.000000e-01/1.000000e+00/1.000000e+00

 Standard Electronic Orientation quadrupole field applied
 Nucleus-field energy     =     0.0000000046 hartrees
 Guess from superposition of atomic densities
 Warning:  Energy on first SCF cycle will be non-variational
 SAD guess density has 34.000000 electrons

 -----------------------------------------------------------------------
  General SCF calculation program by
  Eric Jon Sundstrom, Paul Horn, Yuezhi Mao, Dmitri Zuev, Alec White,
  David Stuck, Shaama M.S., Shane Yost, Joonho Lee, David Small,
  Daniel Levine, Susi Lehtola, Hugh Burton, Evgeny Epifanovsky,
  Bang C. Huynh
 -----------------------------------------------------------------------
 Hartree-Fock
 using 16 threads for integral computing
 -------------------------------------------------------
 OpenMP Integral computing Module                
 Release: version 1.0, May 2013, Q-Chem Inc. Pittsburgh 
 -------------------------------------------------------
 A restricted SCF calculation will be
 performed using DIIS
 SCF converges when DIIS error is below 1.0e-08
 ---------------------------------------
  Cycle       Energy         DIIS error
 ---------------------------------------
    1    -154.2083436056      1.78e-01  
    2    -155.4347635527      1.11e-02  
    3    -155.4589152116      2.91e-03  
    4    -155.4604681593      4.04e-04  
    5    -155.4604977655      1.77e-05  
    6    -155.4604978316      3.15e-06  
    7    -155.4604978333      3.34e-07  
    8    -155.4604978334      5.14e-08  
    9    -155.4604978334      6.55e-09  Convergence criterion met
 ---------------------------------------
 SCF time:   CPU 4.55s  wall 0.00s 
 SCF   energy in the final basis set =     -155.4604978334
 Total energy in the final basis set =     -155.4604978334
 
 --------------------------------------------------------------
 
                    Orbital Energies (a.u.)
 --------------------------------------------------------------
 
 Alpha MOs
 -- Occupied --
-11.0389 -11.0387 -11.0324 -11.0324  -1.0288  -0.9377  -0.8133  -0.7460
 -0.6086  -0.5512  -0.5357  -0.5345  -0.4772  -0.4599  -0.4275  -0.4268
 -0.4085
 -- Virtual --
  0.5953   0.5994   0.6551   0.6654   0.6696   0.7113   0.7178   0.7482
  0.7526   0.7585   0.7774   0.7884   0.8186
 --------------------------------------------------------------
 
          Ground-State Mulliken Net Atomic Charges

     Atom                 Charge (a.u.)
  ----------------------------------------
      1 C                    -0.159492
      2 C                    -0.085909
      3 C                    -0.085909
      4 C                    -0.159493
      5 H                     0.050686
      6 H                     0.050491
      7 H                     0.050486
      8 H                     0.046862
      9 H                     0.046875
     10 H                     0.046863
     11 H                     0.046873
     12 H                     0.050494
     13 H                     0.050688
     14 H                     0.050485
  ----------------------------------------
  Sum of atomic charges =     0.000000

 -----------------------------------------------------------------
                    Cartesian Multipole Moments
 -----------------------------------------------------------------
    Charge (ESU x 10^10)
                -0.0000
    Dipole Moment (Debye)
         X      -0.0000      Y       0.0000      Z      -0.0000
       Tot       0.0000
    Quadrupole Moments (Debye-Ang)
        XX     -27.7338     XY       0.2362     YY     -26.8506
        XZ      -0.0000     YZ       0.0001     ZZ     -26.2984
    Octopole Moments (Debye-Ang^2)
       XXX      -0.0001    XXY      -0.0001    XYY       0.0001
       YYY       0.0001    XXZ       0.0004    XYZ      -0.0005
       YYZ       0.0001    XZZ       0.0001    YZZ      -0.0000
       ZZZ      -0.0001
    Hexadecapole Moments (Debye-Ang^3)
      XXXX    -416.3781   XXXY       5.9431   XXYY     -79.6099
      XYYY       0.6269   YYYY     -79.8797   XXXZ      -0.0001
      XXYZ       0.0001   XYYZ       0.0000   YYYZ       0.0003
      XXZZ     -76.2892   XYZZ      -1.7989   YYZZ     -19.3544
      XZZZ       0.0001   YZZZ      -0.0001   ZZZZ     -50.1246
 -----------------------------------------------------------------
 Calculating analytic gradient of the SCF energy
 Gradient of SCF Energy
            1           2           3           4           5           6
    1  -0.0279047   0.0004414  -0.0004326   0.0278826   0.0115507   0.0002760
    2   0.0069052  -0.0218321   0.0218258  -0.0069026   0.0172104  -0.0107573
    3  -0.0000123   0.0000473  -0.0000428   0.0000381  -0.0000040  -0.0185400
            7           8           9          10          11          12
    1   0.0002849   0.0004447   0.0004439  -0.0004400  -0.0004489  -0.0002779
    2  -0.0107725   0.0090462   0.0090343  -0.0090503  -0.0090338   0.0107639
    3   0.0185472  -0.0184248   0.0183954   0.0184260  -0.0183921   0.0185267
           13          14
    1  -0.0115477  -0.0002724
    2  -0.0172060   0.0107688
    3  -0.0000073  -0.0185574
 Max gradient component =       2.790E-02
 RMS gradient           =       1.290E-02
 Gradient time:  CPU 1.41 s  wall 0.09 s
 Geometry Optimization Parameters
   NAtoms,    NIC,     NZ,  NCons,   NDum,   NFix, NCnnct, MaxDiis
       14      92       0       1       0       0       0       0


** CONSTRAINED OPTIMIZATION IN DELOCALIZED INTERNAL COORDINATES **
   Searching for a Minimum

   Optimization Cycle:   1

                       Coordinates (Angstroms)
     ATOM                X               Y               Z
      1  C         1.9345741871   -0.1287810164   -0.0001508847
      2  C         0.5566011329    0.5266568696    0.0002000706
      3  C        -0.5566267799   -0.5267352225    0.0001730471
      4  C        -1.9345568342    0.1288366634   -0.0001379976
      5  H         2.7201251222    0.6559800486   -0.0002358684
      6  H         2.0618802653   -0.7595010131   -0.9057308760
      7  H         2.0622832134   -0.7597649986    0.9052111240
      8  H         0.4642851057    1.1680638547   -0.9034439372
      9  H         0.4644810539    1.1679088692    0.9039240628
     10  H        -0.4645387528   -1.1679762077    0.9039640548
     11  H        -0.4643457010   -1.1681662221   -0.9034019452
     12  H        -2.0621539124    0.7598476601    0.9051849937
     13  H        -2.7201887692   -0.6558324016   -0.0002290139
     14  H        -2.0617778604    0.7595766457   -0.9057480063
   Point Group: c1    Number of degrees of freedom:    36


   Energy is   -155.460497833

              Constraints and their Current Values
                                        Value     Constraint
   Dihedral:        1   2   3   4     -179.973     -180.000

 Attempting to generate delocalized internal coordinates
 Initial Hessian constructed with Jon Baker's OPTIMIZE code

   Using Lagrange Multiplier Algorithm


 37 Hessian modes will be used to form the next step
  Hessian Eigenvalues:
    -0.977753    0.045000    0.045000    0.054294    0.069923    0.078991
     0.078992    0.083757    0.083760    0.084563    0.084563    0.101262
     0.101268    0.119040    0.130300    0.160000    0.160000    0.160000
     0.160000    0.160000    0.160000    0.219917    0.219918    0.291832
     0.298024    0.298042    0.323909    0.323914    0.323956    0.323961
     0.325026    0.325034    0.325054    0.325065    0.325600    0.325608
     1.022753

 Minimum search - taking P-RFO step
 Searching for Lamda that maximizes along the constraint modes only
 Value Taken    Lamda =   0.00000010
 Searching for Lamda that minimizes along all other modes
 Value Taken    Lamda =  -0.01637124
 Step Taken.  Stepsize is  0.237575

                             Maximum     Tolerance    Cnvgd?
         Gradient            0.048101       0.000300      NO
         Displacement        0.150563       0.001200      NO
         Energy change     *********       0.000001      NO


 New Cartesian Coordinates Obtained by Inverse Iteration

 Displacement from previous Coordinates is:  0.368646
 ----------------------------------------------------------------
             Standard Nuclear Orientation (Angstroms)
    I     Atom           X                Y                Z
 ----------------------------------------------------------------
    1      C       1.9841006700    -0.1266526869    -0.0000475044
    2      C       0.5743284688     0.5218689298    -0.0000451484
    3      C      -0.5743271927    -0.5218670420    -0.0000457415
    4      C      -1.9840916725     0.1266700300    -0.0000488254
    5      H       2.7604342319     0.6225839704    -0.0000358716
    6      H       2.1255167596    -0.7445791528    -0.8719179620
    7      H       2.1255356158    -0.7446330789     0.8717749798
    8      H       0.4751043180     1.1522403061    -0.8721486520
    9      H       0.4753383329     1.1520986645     0.8721993600
   10      H      -0.4753574597    -1.1520545341     0.8722157270
   11      H      -0.4750998870    -1.1522748100    -0.8721381074
   12      H      -2.1254967650     0.7446798175     0.8717678127
   13      H      -2.7604442202    -0.6225494449    -0.0000310196
   14      H      -2.1254997295     0.7445825606    -0.8719202237
 ----------------------------------------------------------------
 Molecular Point Group                 C1    NOp =  1
 Largest Abelian Subgroup              C1    NOp =  1
 Nuclear Repulsion Energy =         129.90082144 hartrees
 There are       17 alpha and       17 beta electrons

                       Distance Matrix (Angstroms)
             C (  1)   C (  2)   C (  3)   C (  4)   H (  5)   H (  6)
   C (  2)  1.551785
   C (  3)  2.588773  1.552029
   C (  4)  3.976270  2.588763  1.551785
   H (  5)  1.078911  2.188425  3.525678  4.770373
   H (  6)  1.077956  2.184087  2.845860  4.290468  1.741388
   H (  7)  1.077951  2.184111  2.845866  4.290487  1.741388  1.743693
   H (  8)  2.161758  1.080638  2.159747  2.803569  2.502768  2.514316
   H (  9)  2.161570  1.080648  2.159808  2.803768  2.502567  3.059807
   H ( 10)  2.803788  2.159792  1.080635  2.161541  3.792165  3.157940
   H ( 11)  2.803589  2.159769  1.080650  2.161781  3.792014  2.632380
   H ( 12)  4.290463  2.845832  2.184108  1.077959  4.964602  4.830057
   H ( 13)  4.770390  3.525678  2.188434  1.078913  5.659546  4.964644
   H ( 14)  4.290458  2.845846  2.184078  1.077948  4.964616  4.504303
             H (  7)   H (  8)   H (  9)   H ( 10)   H ( 11)   H ( 12)
   H (  8)  3.059955
   H (  9)  2.514109  1.744348
   H ( 10)  2.632610  3.042361  2.492578
   H ( 11)  3.157643  2.492725  3.042398  1.744354
   H ( 12)  4.504368  3.157606  2.632553  2.514073  3.059976
   H ( 13)  4.964650  3.791997  3.792156  2.502561  2.502794  1.741410
   H ( 14)  4.830066  2.632361  3.157908  3.059773  2.514336  1.743688
             H ( 13)
   H ( 14)  1.741377
 
 Applying Cartesian multipole field
    Component          Value
    ---------          -----
     (2,0,0)        1.00000E-11
     (0,2,0)        2.00000E-10
     (0,0,2)       -3.00000E-10
 Nucleus-field energy     =     0.0000000049 hartrees
 Requested basis set is STO-3G
 There are 18 shells and 30 basis functions
 A cutoff of  1.0D-12 yielded    168 shell pairs
 There are       486 function pairs
 Smallest overlap matrix eigenvalue = 2.01E-01
 Guess from superposition of atomic densities
 Warning:  Energy on first SCF cycle will be non-variational
 SAD guess density has 34.000000 electrons

 -----------------------------------------------------------------------
  General SCF calculation program by
  Eric Jon Sundstrom, Paul Horn, Yuezhi Mao, Dmitri Zuev, Alec White,
  David Stuck, Shaama M.S., Shane Yost, Joonho Lee, David Small,
  Daniel Levine, Susi Lehtola, Hugh Burton, Evgeny Epifanovsky,
  Bang C. Huynh
 -----------------------------------------------------------------------
 Hartree-Fock
 A restricted SCF calculation will be
 performed using DIIS
 SCF converges when DIIS error is below 1.0e-08
 ---------------------------------------
  Cycle       Energy         DIIS error
 ---------------------------------------
    1    -154.3711865678      1.83e-01  
    2    -155.4412725070      1.09e-02  
    3    -155.4642260373      2.80e-03  
    4    -155.4656936529      3.05e-04  
    5    -155.4657100727      1.85e-05  
    6    -155.4657101411      3.35e-06  
    7    -155.4657101430      3.25e-07  
    8    -155.4657101431      5.10e-08  
    9    -155.4657101431      6.28e-09  Convergence criterion met
 ---------------------------------------
 SCF time:   CPU 4.17s  wall 1.00s 
 SCF   energy in the final basis set =     -155.4657101431
 Total energy in the final basis set =     -155.4657101431
 
 --------------------------------------------------------------
 
                    Orbital Energies (a.u.)
 --------------------------------------------------------------
 
 Alpha MOs
 -- Occupied --
-11.0389 -11.0386 -11.0313 -11.0313  -1.0255  -0.9432  -0.8326  -0.7620
 -0.6114  -0.5547  -0.5441  -0.5399  -0.4860  -0.4741  -0.4368  -0.4294
 -0.4172
 -- Virtual --
  0.5942   0.6285   0.6476   0.6879   0.6947   0.7386   0.7602   0.7664
  0.7720   0.7756   0.8017   0.8059   0.8375
 --------------------------------------------------------------
 
          Ground-State Mulliken Net Atomic Charges

     Atom                 Charge (a.u.)
  ----------------------------------------
      1 C                    -0.184421
      2 C                    -0.097082
      3 C                    -0.097083
      4 C                    -0.184420
      5 H                     0.059460
      6 H                     0.058109
      7 H                     0.058116
      8 H                     0.052913
      9 H                     0.052906
     10 H                     0.052908
     11 H                     0.052911
     12 H                     0.058115
     13 H                     0.059459
     14 H                     0.058109
  ----------------------------------------
  Sum of atomic charges =     0.000000

 -----------------------------------------------------------------
                    Cartesian Multipole Moments
 -----------------------------------------------------------------
    Charge (ESU x 10^10)
                -0.0000
    Dipole Moment (Debye)
         X       0.0000      Y       0.0000      Z       0.0001
       Tot       0.0001
    Quadrupole Moments (Debye-Ang)
        XX     -27.1649     XY       0.1073     YY     -26.8222
        XZ       0.0000     YZ       0.0001     ZZ     -26.4727
    Octopole Moments (Debye-Ang^2)
       XXX      -0.0002    XXY      -0.0002    XYY      -0.0001
       YYY      -0.0005    XXZ       0.0018    XYZ       0.0001
       YYZ       0.0009    XZZ      -0.0000    YZZ      -0.0002
       ZZZ       0.0034
    Hexadecapole Moments (Debye-Ang^3)
      XXXX    -429.1262   XXXY       5.1624   XXYY     -82.4999
      XYYY       0.6371   YYYY     -77.8273   XXXZ       0.0002
      XXYZ       0.0000   XYYZ      -0.0001   YYYZ       0.0001
      XXZZ     -79.1731   XYZZ      -1.6418   YYZZ     -18.9845
      XZZZ      -0.0000   YZZZ      -0.0001   ZZZZ     -48.4405
 -----------------------------------------------------------------
 Calculating analytic gradient of the SCF energy
 Gradient of SCF Energy
            1           2           3           4           5           6
    1   0.0110077  -0.0030553   0.0030564  -0.0110077  -0.0026278   0.0005340
    2  -0.0033025   0.0116794  -0.0116795   0.0033008  -0.0067040   0.0043393
    3   0.0000296  -0.0000330  -0.0000248   0.0000236  -0.0000008   0.0063105
            7           8           9          10          11          12
    1   0.0005421   0.0003349   0.0003659  -0.0003685  -0.0003341  -0.0005412
    2   0.0043389  -0.0049582  -0.0049588   0.0049684   0.0049500  -0.0043326
    3  -0.0063161   0.0052372  -0.0052247  -0.0052329   0.0052279  -0.0063103
           13          14
    1   0.0026262  -0.0005328
    2   0.0067029  -0.0043442
    3  -0.0000036   0.0063172
 Max gradient component =       1.168E-02
 RMS gradient           =       5.126E-03
 Gradient time:  CPU 1.26 s  wall 0.08 s
 Geometry Optimization Parameters
   NAtoms,    NIC,     NZ,  NCons,   NDum,   NFix, NCnnct, MaxDiis
       14      92       0       1       0       0       0       0

 Cartesian Hessian Update
 Hessian updated using BFGS update


** CONSTRAINED OPTIMIZATION IN DELOCALIZED INTERNAL COORDINATES **
   Searching for a Minimum

   Optimization Cycle:   2

                       Coordinates (Angstroms)
     ATOM                X               Y               Z
      1  C         1.9841006700   -0.1266526869   -0.0000475044
      2  C         0.5743284688    0.5218689298   -0.0000451484
      3  C        -0.5743271927   -0.5218670420   -0.0000457415
      4  C        -1.9840916725    0.1266700300   -0.0000488254
      5  H         2.7604342319    0.6225839704   -0.0000358716
      6  H         2.1255167596   -0.7445791528   -0.8719179620
      7  H         2.1255356158   -0.7446330789    0.8717749798
      8  H         0.4751043180    1.1522403061   -0.8721486520
      9  H         0.4753383329    1.1520986645    0.8721993600
     10  H        -0.4753574597   -1.1520545341    0.8722157270
     11  H        -0.4750998870   -1.1522748100   -0.8721381074
     12  H        -2.1254967650    0.7446798175    0.8717678127
     13  H        -2.7604442202   -0.6225494449   -0.0000310196
     14  H        -2.1254997295    0.7445825606   -0.8719202237
   Point Group: c1    Number of degrees of freedom:    36


   Energy is   -155.465710143

              Constraints and their Current Values
                                        Value     Constraint
   Dihedral:        1   2   3   4     -180.000     -180.000
 Hessian updated using BFGS update

   Using Lagrange Multiplier Algorithm


 33 Hessian modes will be used to form the next step
  Hessian Eigenvalues:
    -0.977753    0.045000    0.045000    0.054294    0.069923    0.078764
     0.078992    0.083755    0.083759    0.084563    0.084563    0.101265
     0.101453    0.119040    0.130300    0.159919    0.164027    0.219918
     0.222863    0.292429    0.298033    0.300760    0.323911    0.323934
     0.323959    0.324403    0.325029    0.325044    0.325060    0.325399
     0.325604    0.454207    1.022753

 Minimum search - taking P-RFO step
 Searching for Lamda that maximizes along the constraint modes only
 Value Taken    Lamda =   0.00000000
 Searching for Lamda that minimizes along all other modes
 Value Taken    Lamda =  -0.00191061
 Step Taken.  Stepsize is  0.068726

                             Maximum     Tolerance    Cnvgd?
         Gradient            0.016994       0.000300      NO
         Displacement        0.040025       0.001200      NO
         Energy change     -0.005212       0.000001      NO


 New Cartesian Coordinates Obtained by Inverse Iteration

 Displacement from previous Coordinates is:  0.145266
 ----------------------------------------------------------------
             Standard Nuclear Orientation (Angstroms)
    I     Atom           X                Y                Z
 ----------------------------------------------------------------
    1      C       1.9641185464    -0.1280562850    -0.0000519102
    2      C       0.5680379424     0.5237484833    -0.0000571206
    3      C      -0.5680336261    -0.5237379288    -0.0000489336
    4      C      -1.9641111488     0.1280727558    -0.0000541115
    5      H       2.7385250031     0.6330804890    -0.0000077092
    6      H       2.0986382040    -0.7503686911    -0.8798386236
    7      H       2.0985607684    -0.7504126339     0.8797133262
    8      H       0.4689044089     1.1612168382    -0.8765412326
    9      H       0.4689920013     1.1610632289     0.8765505775
   10      H      -0.4689950269    -1.1610295179     0.8765784359
   11      H      -0.4688975555    -1.1612258316    -0.8765162983
   12      H      -2.0985429798     0.7504448062     0.8797001250
   13      H      -2.7385231741    -0.6330576578     0.0000015737
   14      H      -2.0986318929     0.7503754739    -0.8798492751
 ----------------------------------------------------------------
 Molecular Point Group                 C1    NOp =  1
 Largest Abelian Subgroup              C1    NOp =  1
 Nuclear Repulsion Energy =         130.28423753 hartrees
 There are       17 alpha and       17 beta electrons

                       Distance Matrix (Angstroms)
             C (  1)   C (  2)   C (  3)   C (  4)   H (  5)   H (  6)
   C (  2)  1.540743
   C (  3)  2.562881  1.545279
   C (  4)  3.936571  2.562877  1.540743
   H (  5)  1.085834  2.173239  3.503078  4.729674
   H (  6)  1.085999  2.177183  2.817185  4.248719  1.759969
   H (  7)  1.085997  2.177150  2.817106  4.248650  1.759976  1.759552
   H (  8)  2.160121  1.088310  2.163920  2.784813  2.489662  2.512012
   H (  9)  2.160015  1.088311  2.163886  2.784869  2.489558  3.064999
   H ( 10)  2.784880  2.163886  1.088313  2.160010  3.778283  3.137895
   H ( 11)  2.784815  2.163921  1.088308  2.160125  3.778275  2.600203
   H ( 12)  4.248641  2.817094  2.177145  1.085996  4.917813  4.792155
   H ( 13)  4.729679  3.503077  2.173241  1.085833  5.621491  4.917927
   H ( 14)  4.248721  2.817183  2.177187  1.086000  4.917923  4.457500
             H (  7)   H (  8)   H (  9)   H ( 10)   H ( 11)   H ( 12)
   H (  8)  3.065051
   H (  9)  2.511821  1.753092
   H ( 10)  2.600184  3.057108  2.504383
   H ( 11)  3.137667  2.504638  3.057108  1.753095
   H ( 12)  4.457382  3.137659  2.600164  2.511806  3.065049
   H ( 13)  4.917829  3.778272  3.778275  2.489558  2.489668  1.759978
   H ( 14)  4.792166  2.600201  3.137881  3.065000  2.512024  1.759549
             H ( 13)
   H ( 14)  1.759967
 
 Applying Cartesian multipole field
    Component          Value
    ---------          -----
     (2,0,0)        1.00000E-11
     (0,2,0)        2.00000E-10
     (0,0,2)       -3.00000E-10
 Nucleus-field energy     =     0.0000000049 hartrees
 Requested basis set is STO-3G
 There are 18 shells and 30 basis functions
 A cutoff of  1.0D-12 yielded    168 shell pairs
 There are       486 function pairs
 Smallest overlap matrix eigenvalue = 2.01E-01
 Guess from superposition of atomic densities
 Warning:  Energy on first SCF cycle will be non-variational
 SAD guess density has 34.000000 electrons

 -----------------------------------------------------------------------
  General SCF calculation program by
  Eric Jon Sundstrom, Paul Horn, Yuezhi Mao, Dmitri Zuev, Alec White,
  David Stuck, Shaama M.S., Shane Yost, Joonho Lee, David Small,
  Daniel Levine, Susi Lehtola, Hugh Burton, Evgeny Epifanovsky,
  Bang C. Huynh
 -----------------------------------------------------------------------
 Hartree-Fock
 A restricted SCF calculation will be
 performed using DIIS
 SCF converges when DIIS error is below 1.0e-08
 ---------------------------------------
  Cycle       Energy         DIIS error
 ---------------------------------------
    1    -154.3468460830      1.82e-01  
    2    -155.4419973794      1.09e-02  
    3    -155.4651444434      2.82e-03  
    4    -155.4666204055      3.26e-04  
    5    -155.4666391435      1.80e-05  
    6    -155.4666392089      3.17e-06  
    7    -155.4666392106      3.16e-07  
    8    -155.4666392106      4.83e-08  
    9    -155.4666392106      5.90e-09  Convergence criterion met
 ---------------------------------------
 SCF time:   CPU 3.92s  wall 0.00s 
 SCF   energy in the final basis set =     -155.4666392106
 Total energy in the final basis set =     -155.4666392106
 
 --------------------------------------------------------------
 
                    Orbital Energies (a.u.)
 --------------------------------------------------------------
 
 Alpha MOs
 -- Occupied --
-11.0384 -11.0381 -11.0315 -11.0315  -1.0277  -0.9427  -0.8271  -0.7584
 -0.6106  -0.5556  -0.5420  -0.5393  -0.4854  -0.4696  -0.4333  -0.4311
 -0.4142
 -- Virtual --
  0.6024   0.6177   0.6515   0.6836   0.6876   0.7372   0.7505   0.7660
  0.7674   0.7685   0.7978   0.8000   0.8323
 --------------------------------------------------------------
 
          Ground-State Mulliken Net Atomic Charges

     Atom                 Charge (a.u.)
  ----------------------------------------
      1 C                    -0.178191
      2 C                    -0.094410
      3 C                    -0.094410
      4 C                    -0.178191
      5 H                     0.057449
      6 H                     0.056399
      7 H                     0.056401
      8 H                     0.051177
      9 H                     0.051175
     10 H                     0.051175
     11 H                     0.051178
     12 H                     0.056401
     13 H                     0.057449
     14 H                     0.056398
  ----------------------------------------
  Sum of atomic charges =     0.000000

 -----------------------------------------------------------------
                    Cartesian Multipole Moments
 -----------------------------------------------------------------
    Charge (ESU x 10^10)
                -0.0000
    Dipole Moment (Debye)
         X       0.0000      Y       0.0000      Z       0.0001
       Tot       0.0001
    Quadrupole Moments (Debye-Ang)
        XX     -27.3603     XY       0.1461     YY     -26.7873
        XZ      -0.0000     YZ       0.0000     ZZ     -26.4456
    Octopole Moments (Debye-Ang^2)
       XXX      -0.0002    XXY      -0.0002    XYY      -0.0001
       YYY      -0.0006    XXZ       0.0013    XYZ       0.0001
       YYZ       0.0010    XZZ      -0.0001    YZZ      -0.0002
       ZZZ       0.0037
    Hexadecapole Moments (Debye-Ang^3)
      XXXX    -423.4169   XXXY       5.4569   XXYY     -81.1966
      XYYY       0.6836   YYYY     -78.5568   XXXZ       0.0000
      XXYZ       0.0000   XYYZ      -0.0000   YYYZ       0.0002
      XXZZ     -77.8975   XYZZ      -1.6811   YYZZ     -19.1077
      XZZZ       0.0000   YZZZ       0.0001   ZZZZ     -48.7753
 -----------------------------------------------------------------
 Calculating analytic gradient of the SCF energy
 Gradient of SCF Energy
            1           2           3           4           5           6
    1  -0.0003104  -0.0001178   0.0001178   0.0003104  -0.0003902   0.0000126
    2  -0.0004488   0.0014742  -0.0014749   0.0004474   0.0001204   0.0000019
    3   0.0000100  -0.0000145  -0.0000185   0.0000128  -0.0000011  -0.0000337
            7           8           9          10          11          12
    1   0.0000103   0.0001322   0.0001431  -0.0001436  -0.0001320  -0.0000094
    2   0.0000021  -0.0002740  -0.0002813   0.0002812   0.0002749  -0.0000022
    3   0.0000331  -0.0000640   0.0000705   0.0000722  -0.0000628   0.0000320
           13          14
    1   0.0003904  -0.0000133
    2  -0.0001200  -0.0000009
    3  -0.0000017  -0.0000344
 Max gradient component =       1.475E-03
 RMS gradient           =       3.688E-04
 Gradient time:  CPU 1.62 s  wall 0.11 s
 Geometry Optimization Parameters
   NAtoms,    NIC,     NZ,  NCons,   NDum,   NFix, NCnnct, MaxDiis
       14      92       0       1       0       0       0       0

 Cartesian Hessian Update
 Hessian updated using BFGS update


** CONSTRAINED OPTIMIZATION IN DELOCALIZED INTERNAL COORDINATES **
   Searching for a Minimum

   Optimization Cycle:   3

                       Coordinates (Angstroms)
     ATOM                X               Y               Z
      1  C         1.9641185464   -0.1280562850   -0.0000519102
      2  C         0.5680379424    0.5237484833   -0.0000571206
      3  C        -0.5680336261   -0.5237379288   -0.0000489336
      4  C        -1.9641111488    0.1280727558   -0.0000541115
      5  H         2.7385250031    0.6330804890   -0.0000077092
      6  H         2.0986382040   -0.7503686911   -0.8798386236
      7  H         2.0985607684   -0.7504126339    0.8797133262
      8  H         0.4689044089    1.1612168382   -0.8765412326
      9  H         0.4689920013    1.1610632289    0.8765505775
     10  H        -0.4689950269   -1.1610295179    0.8765784359
     11  H        -0.4688975555   -1.1612258316   -0.8765162983
     12  H        -2.0985429798    0.7504448062    0.8797001250
     13  H        -2.7385231741   -0.6330576578    0.0000015737
     14  H        -2.0986318929    0.7503754739   -0.8798492751
   Point Group: c1    Number of degrees of freedom:    36


   Energy is   -155.466639211

              Constraints and their Current Values
                                        Value     Constraint
   Dihedral:        1   2   3   4      180.000     -180.000
 Hessian updated using BFGS update

 32 Hessian modes will be used to form the next step
  Hessian Eigenvalues:
     0.045000    0.045000    0.054294    0.069923    0.078375    0.078992
     0.083725    0.083758    0.084563    0.084563    0.101265    0.101520
     0.119040    0.130300    0.159893    0.160000    0.166132    0.219918
     0.226083    0.292315    0.298033    0.302313    0.323911    0.323934
     0.323959    0.324350    0.325029    0.325044    0.325060    0.325368
     0.325604    0.456515

 Minimum search - taking simple RFO step
 Searching for Lamda that Minimizes Along All modes
 Value Taken    Lamda =  -0.00001542
 Step Taken.  Stepsize is  0.010409

                             Maximum     Tolerance    Cnvgd?
         Gradient           0.001058      0.000300      NO
         Displacement       0.007845      0.001200      NO
         Energy change     -0.000929      0.000001      NO


 New Cartesian Coordinates Obtained by Inverse Iteration

 Displacement from previous Coordinates is:  0.015098
 ----------------------------------------------------------------
             Standard Nuclear Orientation (Angstroms)
    I     Atom           X                Y                Z
 ----------------------------------------------------------------
    1      C       1.9663442179    -0.1274904014    -0.0000460256
    2      C       0.5688629349     0.5227195921    -0.0000520136
    3      C      -0.5688574160    -0.5227051470    -0.0000418128
    4      C      -1.9663381171     0.1275069973    -0.0000477685
    5      H       2.7425392967     0.6325055251    -0.0000102915
    6      H       2.1006299134    -0.7500852088    -0.8798514577
    7      H       2.1005770112    -0.7501156014     0.8797456128
    8      H       0.4691104446     1.1610921935    -0.8762740674
    9      H       0.4691396352     1.1609816052     0.8762555411
   10      H      -0.4691350564    -1.1609465371     0.8762806107
   11      H      -0.4691046163    -1.1610972355    -0.8762497992
   12      H      -2.1005701258     0.7501478530     0.8797332383
   13      H      -2.7425346260    -0.6324875491     0.0000003873
   14      H      -2.1006220254     0.7500874437    -0.8798633306
 ----------------------------------------------------------------
 Molecular Point Group                 C1    NOp =  1
 Largest Abelian Subgroup              C1    NOp =  1
 Nuclear Repulsion Energy =         130.22151080 hartrees
 There are       17 alpha and       17 beta electrons

                       Distance Matrix (Angstroms)
             C (  1)   C (  2)   C (  3)   C (  4)   H (  5)   H (  6)
   C (  2)  1.541339
   C (  3)  2.565822  1.545096
   C (  4)  3.940941  2.565821  1.541340
   H (  5)  1.086311  2.176447  3.507116  4.735879
   H (  6)  1.086147  2.177243  2.819917  4.252582  1.760036
   H (  7)  1.086146  2.177223  2.819862  4.252535  1.760036  1.759597
   H (  8)  2.161002  1.088685  2.163408  2.787020  2.493135  2.512860
   H (  9)  2.160946  1.088686  2.163362  2.787029  2.493085  3.065591
   H ( 10)  2.787031  2.163361  1.088686  2.160944  3.781429  3.139506
   H ( 11)  2.787021  2.163409  1.088685  2.161004  3.781463  2.602399
   H ( 12)  4.252535  2.819861  2.177224  1.086147  4.923769  4.795510
   H ( 13)  4.735880  3.507115  2.176448  1.086312  5.629054  4.923841
   H ( 14)  4.252580  2.819914  2.177244  1.086146  4.923838  4.461058
             H (  7)   H (  8)   H (  9)   H ( 10)   H ( 11)   H ( 12)
   H (  8)  3.065616
   H (  9)  2.512746  1.752530
   H ( 10)  2.602348  3.056733  2.504338
   H ( 11)  3.139377  2.504558  3.056735  1.752530
   H ( 12)  4.460990  3.139378  2.602346  2.512742  3.065618
   H ( 13)  4.923771  3.781461  3.781429  2.493087  2.493136  1.760037
   H ( 14)  4.795509  2.602396  3.139500  3.065590  2.512865  1.759597
             H ( 13)
   H ( 14)  1.760036
 
 Applying Cartesian multipole field
    Component          Value
    ---------          -----
     (2,0,0)        1.00000E-11
     (0,2,0)        2.00000E-10
     (0,0,2)       -3.00000E-10
 Nucleus-field energy     =     0.0000000049 hartrees
 Requested basis set is STO-3G
 There are 18 shells and 30 basis functions
 A cutoff of  1.0D-12 yielded    168 shell pairs
 There are       486 function pairs
 Smallest overlap matrix eigenvalue = 2.02E-01
 Guess from superposition of atomic densities
 Warning:  Energy on first SCF cycle will be non-variational
 SAD guess density has 34.000000 electrons

 -----------------------------------------------------------------------
  General SCF calculation program by
  Eric Jon Sundstrom, Paul Horn, Yuezhi Mao, Dmitri Zuev, Alec White,
  David Stuck, Shaama M.S., Shane Yost, Joonho Lee, David Small,
  Daniel Levine, Susi Lehtola, Hugh Burton, Evgeny Epifanovsky,
  Bang C. Huynh
 -----------------------------------------------------------------------
 Hartree-Fock
 A restricted SCF calculation will be
 performed using DIIS
 SCF converges when DIIS error is below 1.0e-08
 ---------------------------------------
  Cycle       Energy         DIIS error
 ---------------------------------------
    1    -154.3427003095      1.82e-01  
    2    -155.4419527652      1.09e-02  
    3    -155.4651469630      2.82e-03  
    4    -155.4666259978      3.28e-04  
    5    -155.4666450700      1.80e-05  
    6    -155.4666451359      3.21e-06  
    7    -155.4666451377      3.17e-07  
    8    -155.4666451377      4.82e-08  
    9    -155.4666451377      5.90e-09  Convergence criterion met
 ---------------------------------------
 SCF time:   CPU 4.06s  wall 0.00s 
 SCF   energy in the final basis set =     -155.4666451377
 Total energy in the final basis set =     -155.4666451377
 
 --------------------------------------------------------------
 
                    Orbital Energies (a.u.)
 --------------------------------------------------------------
 
 Alpha MOs
 -- Occupied --
-11.0385 -11.0382 -11.0317 -11.0317  -1.0274  -0.9425  -0.8273  -0.7583
 -0.6103  -0.5553  -0.5418  -0.5394  -0.4851  -0.4696  -0.4329  -0.4306
 -0.4150
 -- Virtual --
  0.6007   0.6175   0.6521   0.6837   0.6872   0.7365   0.7505   0.7655
  0.7673   0.7681   0.7974   0.7998   0.8314
 --------------------------------------------------------------
 
          Ground-State Mulliken Net Atomic Charges

     Atom                 Charge (a.u.)
  ----------------------------------------
      1 C                    -0.177997
      2 C                    -0.094301
      3 C                    -0.094301
      4 C                    -0.177997
      5 H                     0.057505
      6 H                     0.056367
      7 H                     0.056368
      8 H                     0.051029
      9 H                     0.051028
     10 H                     0.051028
     11 H                     0.051029
     12 H                     0.056368
     13 H                     0.057505
     14 H                     0.056367
  ----------------------------------------
  Sum of atomic charges =     0.000000

 -----------------------------------------------------------------
                    Cartesian Multipole Moments
 -----------------------------------------------------------------
    Charge (ESU x 10^10)
                -0.0000
    Dipole Moment (Debye)
         X      -0.0000      Y       0.0000      Z       0.0000
       Tot       0.0000
    Quadrupole Moments (Debye-Ang)
        XX     -27.3367     XY       0.1447     YY     -26.7931
        XZ      -0.0000     YZ       0.0000     ZZ     -26.4521
    Octopole Moments (Debye-Ang^2)
       XXX      -0.0002    XXY      -0.0002    XYY      -0.0001
       YYY      -0.0006    XXZ       0.0012    XYZ       0.0001
       YYZ       0.0009    XZZ      -0.0001    YZZ      -0.0002
       ZZZ       0.0033
    Hexadecapole Moments (Debye-Ang^3)
      XXXX    -424.0207   XXXY       5.4861   XXYY     -81.3457
      XYYY       0.6585   YYYY     -78.4722   XXXZ      -0.0000
      XXYZ       0.0000   XYYZ      -0.0000   YYYZ       0.0002
      XXZZ     -78.0569   XYZZ      -1.6915   YYZZ     -19.0981
      XZZZ       0.0001   YZZZ       0.0001   ZZZZ     -48.7807
 -----------------------------------------------------------------
 Calculating analytic gradient of the SCF energy
 Gradient of SCF Energy
            1           2           3           4           5           6
    1  -0.0000147  -0.0000554   0.0000556   0.0000145   0.0002745  -0.0000036
    2   0.0000178  -0.0001054   0.0001050  -0.0000177   0.0001012  -0.0000237
    3   0.0000039  -0.0000088  -0.0000096   0.0000039  -0.0000000  -0.0001290
            7           8           9          10          11          12
    1  -0.0000047  -0.0000171  -0.0000137   0.0000137   0.0000172   0.0000046
    2  -0.0000234  -0.0000361  -0.0000417   0.0000422   0.0000359   0.0000236
    3   0.0001295  -0.0002103   0.0002150   0.0002151  -0.0002103   0.0001296
           13          14
    1  -0.0002746   0.0000037
    2  -0.0001012   0.0000236
    3  -0.0000000  -0.0001288
 Max gradient component =       2.746E-04
 RMS gradient           =       1.044E-04
 Gradient time:  CPU 1.47 s  wall 0.10 s
 Geometry Optimization Parameters
   NAtoms,    NIC,     NZ,  NCons,   NDum,   NFix, NCnnct, MaxDiis
       14      92       0       1       0       0       0       0

 Cartesian Hessian Update
 Hessian updated using BFGS update


** CONSTRAINED OPTIMIZATION IN DELOCALIZED INTERNAL COORDINATES **
   Searching for a Minimum

   Optimization Cycle:   4

                       Coordinates (Angstroms)
     ATOM                X               Y               Z
      1  C         1.9663442179   -0.1274904014   -0.0000460256
      2  C         0.5688629349    0.5227195921   -0.0000520136
      3  C        -0.5688574160   -0.5227051470   -0.0000418128
      4  C        -1.9663381171    0.1275069973   -0.0000477685
      5  H         2.7425392967    0.6325055251   -0.0000102915
      6  H         2.1006299134   -0.7500852088   -0.8798514577
      7  H         2.1005770112   -0.7501156014    0.8797456128
      8  H         0.4691104446    1.1610921935   -0.8762740674
      9  H         0.4691396352    1.1609816052    0.8762555411
     10  H        -0.4691350564   -1.1609465371    0.8762806107
     11  H        -0.4691046163   -1.1610972355   -0.8762497992
     12  H        -2.1005701258    0.7501478530    0.8797332383
     13  H        -2.7425346260   -0.6324875491    0.0000003873
     14  H        -2.1006220254    0.7500874437   -0.8798633306
   Point Group: c1    Number of degrees of freedom:    36


   Energy is   -155.466645138

              Constraints and their Current Values
                                        Value     Constraint
   Dihedral:        1   2   3   4      180.000     -180.000
 Hessian updated using BFGS update

 29 Hessian modes will be used to form the next step
  Hessian Eigenvalues:
     0.045000    0.054273    0.064673    0.069923    0.083758    0.083901
     0.084563    0.084563    0.101265    0.101877    0.119040    0.130300
     0.159999    0.162027    0.173892    0.219917    0.251309    0.291798
     0.298033    0.321941    0.323911    0.323932    0.323959    0.324039
     0.325044    0.325060    0.325604    0.393238    0.447550

 Minimum search - taking simple RFO step
 Searching for Lamda that Minimizes Along All modes
 Value Taken    Lamda =  -0.00000212
 Step Taken.  Stepsize is  0.003303

                             Maximum     Tolerance    Cnvgd?
         Gradient           0.000398      0.000300      NO
         Displacement       0.001789      0.001200      NO
         Energy change     -0.000006      0.000001      NO


 New Cartesian Coordinates Obtained by Inverse Iteration

 Displacement from previous Coordinates is:  0.004235
 ----------------------------------------------------------------
             Standard Nuclear Orientation (Angstroms)
    I     Atom           X                Y                Z
 ----------------------------------------------------------------
    1      C       1.9658793490    -0.1276090352    -0.0000406870
    2      C       0.5687376971     0.5227969998    -0.0000471860
    3      C      -0.5687318770    -0.5227809824    -0.0000359715
    4      C      -1.9658734269     0.1276253329    -0.0000424381
    5      H       2.7415017800     0.6325125685    -0.0000197033
    6      H       2.1002934019    -0.7502484150    -0.8796035119
    7      H       2.1002619149    -0.7502619325     0.8795171095
    8      H       0.4690106328     1.1614922627    -0.8758185651
    9      H       0.4690264574     1.1614205768     0.8757795047
   10      H      -0.4690202574    -1.1613854537     0.8758044388
   11      H      -0.4690052094    -1.1614951090    -0.8757937843
   12      H      -2.1002568747     0.7502933584     0.8795046346
   13      H      -2.7414960012    -0.6324961843    -0.0000089321
   14      H      -2.1002861161     0.7502495424    -0.8796160845
 ----------------------------------------------------------------
 Molecular Point Group                 C1    NOp =  1
 Largest Abelian Subgroup              C1    NOp =  1
 Nuclear Repulsion Energy =         130.24174131 hartrees
 There are       17 alpha and       17 beta electrons

                       Distance Matrix (Angstroms)
             C (  1)   C (  2)   C (  3)   C (  4)   H (  5)   H (  6)
   C (  2)  1.541114
   C (  3)  2.565232  1.545015
   C (  4)  3.940028  2.565232  1.541114
   H (  5)  1.085990  2.175532  3.506045  4.734374
   H (  6)  1.085992  2.177137  2.819411  4.251823  1.759785
   H (  7)  1.085991  2.177126  2.819377  4.251796  1.759784  1.759121
   H (  8)  2.160876  1.088509  2.163488  2.786490  2.492200  2.513136
   H (  9)  2.160839  1.088510  2.163453  2.786491  2.492170  3.065433
   H ( 10)  2.786491  2.163453  1.088510  2.160839  3.780554  3.138768
   H ( 11)  2.786490  2.163488  1.088509  2.160876  3.780582  2.602006
   H ( 12)  4.251797  2.819379  2.177126  1.085991  4.922404  4.794863
   H ( 13)  4.734374  3.506045  2.175532  1.085990  5.627034  4.922446
   H ( 14)  4.251822  2.819408  2.177137  1.085991  4.922445  4.460534
             H (  7)   H (  8)   H (  9)   H ( 10)   H ( 11)   H ( 12)
   H (  8)  3.065451
   H (  9)  2.513061  1.751598
   H ( 10)  2.601970  3.056771  2.505067
   H ( 11)  3.138688  2.505223  3.056771  1.751598
   H ( 12)  4.460496  3.138691  2.601972  2.513058  3.065451
   H ( 13)  4.922403  3.780581  3.780555  2.492172  2.492199  1.759784
   H ( 14)  4.794861  2.602003  3.138764  3.065433  2.513137  1.759121
             H ( 13)
   H ( 14)  1.759785
 
 Applying Cartesian multipole field
    Component          Value
    ---------          -----
     (2,0,0)        1.00000E-11
     (0,2,0)        2.00000E-10
     (0,0,2)       -3.00000E-10
 Nucleus-field energy     =     0.0000000049 hartrees
 Requested basis set is STO-3G
 There are 18 shells and 30 basis functions
 A cutoff of  1.0D-12 yielded    168 shell pairs
 There are       486 function pairs
 Smallest overlap matrix eigenvalue = 2.02E-01
 Guess from superposition of atomic densities
 Warning:  Energy on first SCF cycle will be non-variational
 SAD guess density has 34.000000 electrons

 -----------------------------------------------------------------------
  General SCF calculation program by
  Eric Jon Sundstrom, Paul Horn, Yuezhi Mao, Dmitri Zuev, Alec White,
  David Stuck, Shaama M.S., Shane Yost, Joonho Lee, David Small,
  Daniel Levine, Susi Lehtola, Hugh Burton, Evgeny Epifanovsky,
  Bang C. Huynh
 -----------------------------------------------------------------------
 Hartree-Fock
 A restricted SCF calculation will be
 performed using DIIS
 SCF converges when DIIS error is below 1.0e-08
 ---------------------------------------
  Cycle       Energy         DIIS error
 ---------------------------------------
    1    -154.3450936363      1.82e-01  
    2    -155.4419669867      1.09e-02  
    3    -155.4651492925      2.82e-03  
    4    -155.4666271534      3.28e-04  
    5    -155.4666461630      1.80e-05  
    6    -155.4666462289      3.21e-06  
    7    -155.4666462307      3.18e-07  
    8    -155.4666462307      4.86e-08  
    9    -155.4666462307      5.94e-09  Convergence criterion met
 ---------------------------------------
 SCF time:   CPU 4.20s  wall 0.00s 
 SCF   energy in the final basis set =     -155.4666462307
 Total energy in the final basis set =     -155.4666462307
 
 --------------------------------------------------------------
 
                    Orbital Energies (a.u.)
 --------------------------------------------------------------
 
 Alpha MOs
 -- Occupied --
-11.0385 -11.0382 -11.0317 -11.0316  -1.0275  -0.9426  -0.8273  -0.7584
 -0.6103  -0.5555  -0.5418  -0.5395  -0.4853  -0.4696  -0.4329  -0.4309
 -0.4149
 -- Virtual --
  0.6012   0.6174   0.6521   0.6838   0.6872   0.7368   0.7507   0.7656
  0.7676   0.7683   0.7978   0.8002   0.8315
 --------------------------------------------------------------
 
          Ground-State Mulliken Net Atomic Charges

     Atom                 Charge (a.u.)
  ----------------------------------------
      1 C                    -0.178162
      2 C                    -0.094380
      3 C                    -0.094380
      4 C                    -0.178162
      5 H                     0.057561
      6 H                     0.056419
      7 H                     0.056419
      8 H                     0.051072
      9 H                     0.051071
     10 H                     0.051071
     11 H                     0.051072
     12 H                     0.056419
     13 H                     0.057561
     14 H                     0.056419
  ----------------------------------------
  Sum of atomic charges =     0.000000

 -----------------------------------------------------------------
                    Cartesian Multipole Moments
 -----------------------------------------------------------------
    Charge (ESU x 10^10)
                -0.0000
    Dipole Moment (Debye)
         X      -0.0000      Y       0.0000      Z       0.0000
       Tot       0.0000
    Quadrupole Moments (Debye-Ang)
        XX     -27.3389     XY       0.1440     YY     -26.7883
        XZ      -0.0000     YZ       0.0000     ZZ     -26.4544
    Octopole Moments (Debye-Ang^2)
       XXX      -0.0002    XXY      -0.0002    XYY      -0.0001
       YYY      -0.0006    XXZ       0.0011    XYZ       0.0000
       YYZ       0.0009    XZZ      -0.0001    YZZ      -0.0002
       ZZZ       0.0030
    Hexadecapole Moments (Debye-Ang^3)
      XXXX    -423.8711   XXXY       5.4774   XXYY     -81.3106
      XYYY       0.6684   YYYY     -78.4857   XXXZ      -0.0000
      XXYZ       0.0000   XYYZ      -0.0000   YYYZ       0.0002
      XXZZ     -78.0219   XYZZ      -1.6884   YYZZ     -19.0991
      XZZZ       0.0001   YZZZ       0.0001   ZZZZ     -48.7643
 -----------------------------------------------------------------
 Calculating analytic gradient of the SCF energy
 Gradient of SCF Energy
            1           2           3           4           5           6
    1   0.0000256  -0.0000136   0.0000136  -0.0000256  -0.0000057   0.0000015
    2   0.0000012   0.0000487  -0.0000488  -0.0000011  -0.0000281   0.0000097
    3   0.0000026  -0.0000064  -0.0000064   0.0000024   0.0000002   0.0000125
            7           8           9          10          11          12
    1   0.0000013  -0.0000050  -0.0000033   0.0000033   0.0000050  -0.0000013
    2   0.0000100  -0.0000196  -0.0000236   0.0000237   0.0000195  -0.0000100
    3  -0.0000123  -0.0000005   0.0000039   0.0000039  -0.0000006  -0.0000122
           13          14
    1   0.0000057  -0.0000014
    2   0.0000281  -0.0000098
    3   0.0000002   0.0000126
 Max gradient component =       4.881E-05
 RMS gradient           =       1.632E-05
 Gradient time:  CPU 1.45 s  wall 0.09 s
 Geometry Optimization Parameters
   NAtoms,    NIC,     NZ,  NCons,   NDum,   NFix, NCnnct, MaxDiis
       14      92       0       1       0       0       0       0

 Cartesian Hessian Update
 Hessian updated using BFGS update


** CONSTRAINED OPTIMIZATION IN DELOCALIZED INTERNAL COORDINATES **
   Searching for a Minimum

   Optimization Cycle:   5

                       Coordinates (Angstroms)
     ATOM                X               Y               Z
      1  C         1.9658793490   -0.1276090352   -0.0000406870
      2  C         0.5687376971    0.5227969998   -0.0000471860
      3  C        -0.5687318770   -0.5227809824   -0.0000359715
      4  C        -1.9658734269    0.1276253329   -0.0000424381
      5  H         2.7415017800    0.6325125685   -0.0000197033
      6  H         2.1002934019   -0.7502484150   -0.8796035119
      7  H         2.1002619149   -0.7502619325    0.8795171095
      8  H         0.4690106328    1.1614922627   -0.8758185651
      9  H         0.4690264574    1.1614205768    0.8757795047
     10  H        -0.4690202574   -1.1613854537    0.8758044388
     11  H        -0.4690052094   -1.1614951090   -0.8757937843
     12  H        -2.1002568747    0.7502933584    0.8795046346
     13  H        -2.7414960012   -0.6324961843   -0.0000089321
     14  H        -2.1002861161    0.7502495424   -0.8796160845
   Point Group: c1    Number of degrees of freedom:    36


   Energy is   -155.466646231

              Constraints and their Current Values
                                        Value     Constraint
   Dihedral:        1   2   3   4      180.000     -180.000
 Hessian updated using BFGS update

 33 Hessian modes will be used to form the next step
  Hessian Eigenvalues:
     0.045000    0.045000    0.054186    0.061397    0.069923    0.083751
     0.083759    0.084563    0.084563    0.101265    0.101518    0.119040
     0.130300    0.159998    0.160000    0.160000    0.162424    0.170501
     0.219917    0.251574    0.292084    0.298033    0.320782    0.323911
     0.323934    0.323959    0.324188    0.325030    0.325044    0.325060
     0.325604    0.390217    0.471294

 Minimum search - taking simple RFO step
 Searching for Lamda that Minimizes Along All modes
 Value Taken    Lamda =  -0.00000003
 Step Taken.  Stepsize is  0.000531

                             Maximum     Tolerance    Cnvgd?
         Gradient           0.000045      0.000300     YES
         Displacement       0.000312      0.001200     YES
         Energy change     -0.000001      0.000001      NO


                       Distance Matrix (Angstroms)
             C (  1)   C (  2)   C (  3)   C (  4)   H (  5)   H (  6)
   C (  2)  1.541114
   C (  3)  2.565232  1.545015
   C (  4)  3.940028  2.565232  1.541114
   H (  5)  1.085990  2.175532  3.506045  4.734374
   H (  6)  1.085992  2.177137  2.819411  4.251823  1.759785
   H (  7)  1.085991  2.177126  2.819377  4.251796  1.759784  1.759121
   H (  8)  2.160876  1.088509  2.163488  2.786490  2.492200  2.513136
   H (  9)  2.160839  1.088510  2.163453  2.786491  2.492170  3.065433
   H ( 10)  2.786491  2.163453  1.088510  2.160839  3.780554  3.138768
   H ( 11)  2.786490  2.163488  1.088509  2.160876  3.780582  2.602006
   H ( 12)  4.251797  2.819379  2.177126  1.085991  4.922404  4.794863
   H ( 13)  4.734374  3.506045  2.175532  1.085990  5.627034  4.922446
   H ( 14)  4.251822  2.819408  2.177137  1.085991  4.922445  4.460534
             H (  7)   H (  8)   H (  9)   H ( 10)   H ( 11)   H ( 12)
   H (  8)  3.065451
   H (  9)  2.513061  1.751598
   H ( 10)  2.601970  3.056771  2.505067
   H ( 11)  3.138688  2.505223  3.056771  1.751598
   H ( 12)  4.460496  3.138691  2.601972  2.513058  3.065451
   H ( 13)  4.922403  3.780581  3.780555  2.492172  2.492199  1.759784
   H ( 14)  4.794861  2.602003  3.138764  3.065433  2.513137  1.759121
             H ( 13)
   H ( 14)  1.759785
 
 Final energy is   -155.466646230695     


 ******************************
 **  OPTIMIZATION CONVERGED  **
 ******************************

                       Coordinates (Angstroms)
     ATOM                X               Y               Z
      1  C         1.9658793490   -0.1276090352   -0.0000406870
      2  C         0.5687376971    0.5227969998   -0.0000471860
      3  C        -0.5687318770   -0.5227809824   -0.0000359715
      4  C        -1.9658734269    0.1276253329   -0.0000424381
      5  H         2.7415017800    0.6325125685   -0.0000197033
      6  H         2.1002934019   -0.7502484150   -0.8796035119
      7  H         2.1002619149   -0.7502619325    0.8795171095
      8  H         0.4690106328    1.1614922627   -0.8758185651
      9  H         0.4690264574    1.1614205768    0.8757795047
     10  H        -0.4690202574   -1.1613854537    0.8758044388
     11  H        -0.4690052094   -1.1614951090   -0.8757937843
     12  H        -2.1002568747    0.7502933584    0.8795046346
     13  H        -2.7414960012   -0.6324961843   -0.0000089321
     14  H        -2.1002861161    0.7502495424   -0.8796160845

Z-matrix Print:
$molecule
0 1
C 
H  1 1.088509
H  1 1.088510 2 107.140449
C  1 1.541114 2 109.311082 3 -118.340955 0
H  4 1.085990 1 110.615076 2 58.488405 0
H  4 1.085991 1 110.741944 2 178.485246 0
H  4 1.085992 1 110.742810 2 -61.509140 0
C  1 1.545015 2 109.247023 3 118.230497 0
H  8 1.088509 1 109.247040 2 63.099537 0
H  8 1.088510 1 109.244216 2 -179.994314 0
C  8 1.541114 1 112.447121 2 -58.450245 0
H  11 1.085990 8 110.615074 1 -179.998570 0
H  11 1.085991 8 110.741935 1 -60.001756 0
H  11 1.085991 8 110.742804 1 60.003860 0
$end

PES scan, value: -180.0000 energy: -155.4666462307

                       Distance Matrix (Angstroms)
             C (  1)   C (  2)   C (  3)   C (  4)   H (  5)   H (  6)
   C (  2)  1.541114
   C (  3)  2.565232  1.545015
   C (  4)  3.940028  2.565232  1.541114
   H (  5)  1.085990  2.175532  3.506045  4.734374
   H (  6)  1.085992  2.177137  2.819411  4.251823  1.759785
   H (  7)  1.085991  2.177126  2.819377  4.251796  1.759784  1.759121
   H (  8)  2.160876  1.088509  2.163488  2.786490  2.492200  2.513136
   H (  9)  2.160839  1.088510  2.163453  2.786491  2.492170  3.065433
   H ( 10)  2.786491  2.163453  1.088510  2.160839  3.780554  3.138768
   H ( 11)  2.786490  2.163488  1.088509  2.160876  3.780582  2.602006
   H ( 12)  4.251797  2.819379  2.177126  1.085991  4.922404  4.794863
   H ( 13)  4.734374  3.506045  2.175532  1.085990  5.627034  4.922446
   H ( 14)  4.251822  2.819408  2.177137  1.085991  4.922445  4.460534
             H (  7)   H (  8)   H (  9)   H ( 10)   H ( 11)   H ( 12)
   H (  8)  3.065451
   H (  9)  2.513061  1.751598
   H ( 10)  2.601970  3.056771  2.505067
   H ( 11)  3.138688  2.505223  3.056771  1.751598
   H ( 12)  4.460496  3.138691  2.601972  2.513058  3.065451
   H ( 13)  4.922403  3.780581  3.780555  2.492172  2.492199  1.759784
   H ( 14)  4.794861  2.602003  3.138764  3.065433  2.513137  1.759121
             H ( 13)
   H ( 14)  1.759785
 
 Applying Cartesian multipole field
    Component          Value
    ---------          -----
     (2,0,0)        1.00000E-11
     (0,2,0)        2.00000E-10
     (0,0,2)       -3.00000E-10
 Nucleus-field energy     =     0.0000000049 hartrees
 Guess from superposition of atomic densities
 Warning:  Energy on first SCF cycle will be non-variational
 SAD guess density has 34.000000 electrons

 -----------------------------------------------------------------------
  General SCF calculation program by
  Eric Jon Sundstrom, Paul Horn, Yuezhi Mao, Dmitri Zuev, Alec White,
  David Stuck, Shaama M.S., Shane Yost, Joonho Lee, David Small,
  Daniel Levine, Susi Lehtola, Hugh Burton, Evgeny Epifanovsky,
  Bang C. Huynh
 -----------------------------------------------------------------------
 Hartree-Fock
 A restricted SCF calculation will be
 performed using DIIS
 SCF converges when DIIS error is below 1.0e-08
 ---------------------------------------
  Cycle       Energy         DIIS error
 ---------------------------------------
    1    -154.3450936314      1.82e-01  
    2    -155.4419669818      1.09e-02  
    3    -155.4651492876      2.82e-03  
    4    -155.4666271484      3.28e-04  
    5    -155.4666461581      1.80e-05  
    6    -155.4666462240      3.21e-06  
    7    -155.4666462258      3.18e-07  
    8    -155.4666462258      4.86e-08  
    9    -155.4666462258      5.94e-09  Convergence criterion met
 ---------------------------------------
 SCF time:   CPU 4.33s  wall 0.00s 
 SCF   energy in the final basis set =     -155.4666462258
 Total energy in the final basis set =     -155.4666462258
 
 --------------------------------------------------------------
 
                    Orbital Energies (a.u.)
 --------------------------------------------------------------
 
 Alpha MOs
 -- Occupied --
-11.0385 -11.0382 -11.0317 -11.0316  -1.0275  -0.9426  -0.8273  -0.7584
 -0.6103  -0.5555  -0.5418  -0.5395  -0.4853  -0.4696  -0.4329  -0.4309
 -0.4149
 -- Virtual --
  0.6012   0.6174   0.6521   0.6838   0.6872   0.7368   0.7507   0.7656
  0.7676   0.7683   0.7978   0.8002   0.8315
 --------------------------------------------------------------
 
          Ground-State Mulliken Net Atomic Charges

     Atom                 Charge (a.u.)
  ----------------------------------------
      1 C                    -0.178162
      2 C                    -0.094380
      3 C                    -0.094380
      4 C                    -0.178162
      5 H                     0.057561
      6 H                     0.056419
      7 H                     0.056419
      8 H                     0.051072
      9 H                     0.051071
     10 H                     0.051071
     11 H                     0.051072
     12 H                     0.056419
     13 H                     0.057561
     14 H                     0.056419
  ----------------------------------------
  Sum of atomic charges =     0.000000

 -----------------------------------------------------------------
                    Cartesian Multipole Moments
 -----------------------------------------------------------------
    Charge (ESU x 10^10)
                -0.0000
    Dipole Moment (Debye)
         X      -0.0000      Y       0.0000      Z       0.0000
       Tot       0.0000
    Quadrupole Moments (Debye-Ang)
        XX     -27.3389     XY       0.1440     YY     -26.7883
        XZ      -0.0000     YZ       0.0000     ZZ     -26.4544
    Octopole Moments (Debye-Ang^2)
       XXX      -0.0002    XXY      -0.0002    XYY      -0.0001
       YYY      -0.0006    XXZ       0.0011    XYZ       0.0000
       YYZ       0.0009    XZZ      -0.0001    YZZ      -0.0002
       ZZZ       0.0030
    Hexadecapole Moments (Debye-Ang^3)
      XXXX    -423.8711   XXXY       5.4774   XXYY     -81.3106
      XYYY       0.6684   YYYY     -78.4857   XXXZ      -0.0000
      XXYZ       0.0000   XYYZ      -0.0000   YYYZ       0.0002
      XXZZ     -78.0219   XYZZ      -1.6884   YYZZ     -19.0991
      XZZZ       0.0001   YZZZ       0.0001   ZZZZ     -48.7643
 -----------------------------------------------------------------
 Calculating analytic gradient of the SCF energy
 Gradient of SCF Energy
            1           2           3           4           5           6
    1   0.0000256  -0.0000136   0.0000136  -0.0000256  -0.0000057   0.0000015
    2   0.0000012   0.0000487  -0.0000488  -0.0000011  -0.0000281   0.0000097
    3   0.0000026  -0.0000064  -0.0000064   0.0000024   0.0000002   0.0000125
            7           8           9          10          11          12
    1   0.0000013  -0.0000050  -0.0000033   0.0000033   0.0000050  -0.0000013
    2   0.0000100  -0.0000196  -0.0000236   0.0000237   0.0000195  -0.0000100
    3  -0.0000123  -0.0000005   0.0000039   0.0000039  -0.0000006  -0.0000122
           13          14
    1   0.0000057  -0.0000014
    2   0.0000281  -0.0000098
    3   0.0000002   0.0000126
 Max gradient component =       4.881E-05
 RMS gradient           =       1.632E-05
 Gradient time:  CPU 1.41 s  wall 0.09 s
 Geometry Optimization Parameters
   NAtoms,    NIC,     NZ,  NCons,   NDum,   NFix, NCnnct, MaxDiis
       14      92       0       1       0       0       0       0


** CONSTRAINED OPTIMIZATION IN DELOCALIZED INTERNAL COORDINATES **
   Searching for a Minimum

   Optimization Cycle:   1

                       Coordinates (Angstroms)
     ATOM                X               Y               Z
      1  C         1.9658793490   -0.1276090352   -0.0000406870
      2  C         0.5687376971    0.5227969998   -0.0000471860
      3  C        -0.5687318770   -0.5227809824   -0.0000359715
      4  C        -1.9658734269    0.1276253329   -0.0000424381
      5  H         2.7415017800    0.6325125685   -0.0000197033
      6  H         2.1002934019   -0.7502484150   -0.8796035119
      7  H         2.1002619149   -0.7502619325    0.8795171095
      8  H         0.4690106328    1.1614922627   -0.8758185651
      9  H         0.4690264574    1.1614205768    0.8757795047
     10  H        -0.4690202574   -1.1613854537    0.8758044388
     11  H        -0.4690052094   -1.1614951090   -0.8757937843
     12  H        -2.1002568747    0.7502933584    0.8795046346
     13  H        -2.7414960012   -0.6324961843   -0.0000089321
     14  H        -2.1002861161    0.7502495424   -0.8796160845
   Point Group: c1    Number of degrees of freedom:    36


   Energy is   -155.466646226

              Constraints and their Current Values
                                        Value     Constraint
   Dihedral:        1   2   3   4      180.000     -165.000

 Attempting to generate delocalized internal coordinates
 Initial Hessian constructed with Jon Baker's OPTIMIZE code

   Using Lagrange Multiplier Algorithm


 37 Hessian modes will be used to form the next step
  Hessian Eigenvalues:
    -0.977753    0.045000    0.045000    0.053794    0.068588    0.078452
     0.078452    0.083298    0.083298    0.083382    0.083382    0.103226
     0.103226    0.120583    0.131791    0.160000    0.160000    0.160000
     0.160000    0.160000    0.160000    0.219568    0.219568    0.280793
     0.284205    0.284205    0.349854    0.349854    0.349855    0.349855
     0.352800    0.352800    0.352800    0.352800    0.352801    0.352802
     1.022753

 Minimum search - taking P-RFO step
 Searching for Lamda that maximizes along the constraint modes only
 Value Taken    Lamda =   0.03461007
 Searching for Lamda that minimizes along all other modes
 Value Taken    Lamda =  -0.03176889
 Step Taken.  Stepsize is  0.253369

                             Maximum     Tolerance    Cnvgd?
         Gradient            0.261799       0.000300      NO
         Displacement        0.253369       0.001200      NO
         Energy change     *********       0.000001      NO


 New Cartesian Coordinates Obtained by Inverse Iteration

 Displacement from previous Coordinates is:  0.852534
 ----------------------------------------------------------------
             Standard Nuclear Orientation (Angstroms)
    I     Atom           X                Y                Z
 ----------------------------------------------------------------
    1      C       1.9563394084    -0.1261321812    -0.0580479784
    2      C       0.5697128708     0.5217362389     0.1220764264
    3      C      -0.5697069171    -0.5217175724     0.1220877216
    4      C      -1.9563334849     0.1261472126    -0.0580496489
    5      H       2.7309087844     0.6339714186    -0.0996506479
    6      H       1.9953234769    -0.7018346480    -0.9780866311
    7      H       2.1793304629    -0.7937182572     0.7690116181
    8      H       0.4728732943     1.1598283448    -0.7544765988
    9      H       0.4651222879     1.1581763142     0.9989406985
   10      H      -0.4651159956    -1.1581388720     0.9989656290
   11      H      -0.4728677372    -1.1598283444    -0.7544517043
   12      H      -2.1793256947     0.7937474754     0.7689981533
   13      H      -2.7309025499    -0.6339573676    -0.0996399012
   14      H      -1.9953167357     0.7018337678    -0.9780983127
 ----------------------------------------------------------------
 Molecular Point Group                 C1    NOp =  1
 Largest Abelian Subgroup              C1    NOp =  1
 Nuclear Repulsion Energy =         130.34459476 hartrees
 There are       17 alpha and       17 beta electrons

                       Distance Matrix (Angstroms)
             C (  1)   C (  2)   C (  3)   C (  4)   H (  5)   H (  6)
   C (  2)  1.541075
   C (  3)  2.563171  1.545016
   C (  4)  3.920798  2.563171  1.541075
   H (  5)  1.086023  2.175437  3.504119  4.714855
   H (  6)  1.086013  2.177120  2.796821  4.140968  1.759862
   H (  7)  1.086013  2.177111  2.837200  4.316700  1.759861  1.759163
   H (  8)  2.083118  1.088524  2.164009  2.730303  2.409159  2.415294
   H (  9)  2.233921  1.088525  2.159117  2.836505  2.572058  3.116054
   H ( 10)  2.836505  2.159117  1.088525  2.233921  3.825335  3.189155
   H ( 11)  2.730303  2.164009  1.088524  2.083118  3.729701  2.520266
   H ( 12)  4.316701  2.837201  2.177111  1.086013  4.989036  4.766211
   H ( 13)  4.714855  3.504119  2.175437  1.086023  5.607051  4.807649
   H ( 14)  4.140967  2.796819  2.177120  1.086013  4.807648  4.230307
             H (  7)   H (  8)   H (  9)   H ( 10)   H ( 11)   H ( 12)
   H (  8)  3.008215
   H (  9)  2.607924  1.753435
   H ( 10)  2.679324  3.054072  2.496129
   H ( 11)  3.080444  2.505042  3.054072  1.753435
   H ( 12)  4.638742  3.080446  2.679326  2.607923  3.008215
   H ( 13)  4.989035  3.729699  3.825336  2.572059  2.409158  1.759861
   H ( 14)  4.766209  2.520263  3.189152  3.116054  2.415296  1.759163
             H ( 13)
   H ( 14)  1.759862
 
 Applying Cartesian multipole field
    Component          Value
    ---------          -----
     (2,0,0)        1.00000E-11
     (0,2,0)        2.00000E-10
     (0,0,2)       -3.00000E-10
 Nucleus-field energy     =     0.0000000045 hartrees
 Requested basis set is STO-3G
 There are 18 shells and 30 basis functions
 A cutoff of  1.0D-12 yielded    168 shell pairs
 There are       486 function pairs
 Smallest overlap matrix eigenvalue = 2.02E-01
 Guess from superposition of atomic densities
 Warning:  Energy on first SCF cycle will be non-variational
 SAD guess density has 34.000000 electrons

 -----------------------------------------------------------------------
  General SCF calculation program by
  Eric Jon Sundstrom, Paul Horn, Yuezhi Mao, Dmitri Zuev, Alec White,
  David Stuck, Shaama M.S., Shane Yost, Joonho Lee, David Small,
  Daniel Levine, Susi Lehtola, Hugh Burton, Evgeny Epifanovsky,
  Bang C. Huynh
 -----------------------------------------------------------------------
 Hartree-Fock
 A restricted SCF calculation will be
 performed using DIIS
 SCF converges when DIIS error is below 1.0e-08
 ---------------------------------------
  Cycle       Energy         DIIS error
 ---------------------------------------
    1    -154.3479507765      1.82e-01  
    2    -155.4368509196      1.09e-02  
    3    -155.4600427032      2.82e-03  
    4    -155.4615242569      3.24e-04  
    5    -155.4615429009      1.84e-05  
    6    -155.4615429710      3.33e-06  
    7    -155.4615429730      4.20e-07  
    8    -155.4615429730      7.35e-08  
    9    -155.4615429730      7.33e-09  Convergence criterion met
 ---------------------------------------
 SCF time:   CPU 4.13s  wall 1.00s 
 SCF   energy in the final basis set =     -155.4615429730
 Total energy in the final basis set =     -155.4615429730
 
 --------------------------------------------------------------
 
                    Orbital Energies (a.u.)
 --------------------------------------------------------------
 
 Alpha MOs
 -- Occupied --
-11.0376 -11.0373 -11.0319 -11.0318  -1.0278  -0.9427  -0.8273  -0.7580
 -0.6107  -0.5553  -0.5425  -0.5388  -0.4865  -0.4727  -0.4309  -0.4274
 -0.4126
 -- Virtual --
  0.6000   0.6136   0.6413   0.6852   0.6940   0.7362   0.7513   0.7593
  0.7686   0.7761   0.7975   0.7987   0.8372
 --------------------------------------------------------------
 
          Ground-State Mulliken Net Atomic Charges

     Atom                 Charge (a.u.)
  ----------------------------------------
      1 C                    -0.177223
      2 C                    -0.095594
      3 C                    -0.095594
      4 C                    -0.177223
      5 H                     0.057445
      6 H                     0.058391
      7 H                     0.054249
      8 H                     0.049414
      9 H                     0.053318
     10 H                     0.053318
     11 H                     0.049414
     12 H                     0.054249
     13 H                     0.057445
     14 H                     0.058391
  ----------------------------------------
[...]
      3 C                    -0.094367
      4 C                    -0.178150
      5 H                     0.057545
      6 H                     0.056421
      7 H                     0.056410
      8 H                     0.051061
      9 H                     0.051079
     10 H                     0.051079
     11 H                     0.051061
     12 H                     0.056410
     13 H                     0.057545
     14 H                     0.056421
  ----------------------------------------
  Sum of atomic charges =     0.000000

 -----------------------------------------------------------------
                    Cartesian Multipole Moments
 -----------------------------------------------------------------
    Charge (ESU x 10^10)
                -0.0000
    Dipole Moment (Debye)
         X      -0.0000      Y      -0.0000      Z      -0.0008
       Tot       0.0008
    Quadrupole Moments (Debye-Ang)
        XX     -27.0569     XY      -0.3118     YY     -27.0711
        XZ       0.0000     YZ       0.0000     ZZ     -26.4547
    Octopole Moments (Debye-Ang^2)
       XXX      -0.0002    XXY      -0.0002    XYY      -0.0001
       YYY      -0.0007    XXZ       0.0234    XYZ      -0.0154
       YYZ       0.0101    XZZ      -0.0001    YZZ      -0.0002
       ZZZ      -0.0403
    Hexadecapole Moments (Debye-Ang^3)
      XXXX    -315.9445   XXXY     -78.9849   XXYY     -86.1156
      XYYY     -79.1090   YYYY    -176.6779   XXXZ       0.0008
      XXYZ       0.0002   XYYZ       0.0003   YYYZ       0.0007
      XXZZ     -62.8884   XYZZ     -25.7765   YYZZ     -34.2108
      XZZZ       0.0008   YZZZ       0.0005   ZZZZ     -48.7632
 -----------------------------------------------------------------
 Calculating analytic gradient of the SCF energy
 Gradient of SCF Energy
            1           2           3           4           5           6
    1  -0.0000749  -0.0000961   0.0000961   0.0000749  -0.0000650  -0.0000189
    2   0.0000734  -0.0001041   0.0001041  -0.0000734  -0.0000556   0.0000755
    3   0.0000219   0.0000783   0.0000783   0.0000219   0.0000527  -0.0000451
            7           8           9          10          11          12
    1   0.0000396   0.0000125  -0.0000620   0.0000620  -0.0000125  -0.0000396
    2   0.0000210  -0.0000950   0.0000126  -0.0000126   0.0000950  -0.0000210
    3  -0.0000315  -0.0000243  -0.0000520  -0.0000520  -0.0000243  -0.0000315
           13          14
    1   0.0000650   0.0000189
    2   0.0000556  -0.0000755
    3   0.0000527  -0.0000451
 Max gradient component =       1.041E-04
 RMS gradient           =       5.990E-05
 Gradient time:  CPU 1.22 s  wall 0.08 s
 Geometry Optimization Parameters
   NAtoms,    NIC,     NZ,  NCons,   NDum,   NFix, NCnnct, MaxDiis
       14      92       0       1       0       0       0       0

 Cartesian Hessian Update
 Hessian updated using BFGS update


** CONSTRAINED OPTIMIZATION IN DELOCALIZED INTERNAL COORDINATES **
   Searching for a Minimum

   Optimization Cycle:   7

                       Coordinates (Angstroms)
     ATOM                X               Y               Z
      1  C         1.5973379247    1.1525284165    0.0000947724
      2  C         0.7594069882   -0.1409049593    0.0001078473
      3  C        -0.7594010638    0.1409211805    0.0001053130
      4  C        -1.5973320003   -1.1525121953    0.0001181623
      5  H         2.6580789710    0.9202094171    0.0135092166
      6  H         1.3709096363    1.7580601810    0.8727301032
      7  H         1.3902927042    1.7450912932   -0.8861756641
      8  H         1.0142398292   -0.7356089380    0.8755074232
      9  H         1.0140020983   -0.7346321559   -0.8760252523
     10  H        -1.0139964726    0.7346310102   -0.8760394685
     11  H        -1.0142336064    0.7356425113    0.8754931873
     12  H        -1.3902870820   -1.7450926396   -0.8861405987
     13  H        -2.6580730420   -0.9201929300    0.0135283632
     14  H        -1.3709034143   -1.7580266622    0.8727654187
   Point Group: c1    Number of degrees of freedom:    36


   Energy is   -155.466641697

              Constraints and their Current Values
                                        Value     Constraint
   Dihedral:        1   2   3   4      180.000      180.000
 Hessian updated using BFGS update

 18 Hessian modes will be used to form the next step
  Hessian Eigenvalues:
     0.019145    0.038166    0.078439    0.083688    0.084114    0.104931
     0.117478    0.160074    0.175987    0.200398    0.247106    0.286048
     0.325140    0.350673    0.351277    0.352753    0.356232    0.382960

 Minimum search - taking simple RFO step
 Searching for Lamda that Minimizes Along All modes
 Value Taken    Lamda =  -0.00000117
 Step Taken.  Stepsize is  0.004144

                             Maximum     Tolerance    Cnvgd?
         Gradient           0.000296      0.000300     YES
         Displacement       0.002856      0.001200      NO
         Energy change     -0.000003      0.000001      NO


 New Cartesian Coordinates Obtained by Inverse Iteration

 Displacement from previous Coordinates is:  0.004361
 ----------------------------------------------------------------
             Standard Nuclear Orientation (Angstroms)
    I     Atom           X                Y                Z
 ----------------------------------------------------------------
    1      C       1.5977210016     1.1525568214     0.0000023901
    2      C       0.7595951457    -0.1407198079     0.0000154635
    3      C      -0.7595892213     0.1407360273     0.0000129330
    4      C      -1.5977150772    -1.1525406020     0.0000257808
    5      H       2.6585676073     0.9204918059     0.0128741152
    6      H       1.3715649918     1.7576099084     0.8730181911
    7      H       1.3902112467     1.7453853226    -0.8859626171
    8      H       1.0147165891    -0.7349126761     0.8756574376
    9      H       1.0142803268    -0.7347453328    -0.8758565439
   10      H      -1.0142747010     0.7347441905    -0.8758707622
   11      H      -1.0147103661     0.7349462525     0.8756432157
   12      H      -1.3902056245    -1.7453866648    -0.8859275459
   13      H      -2.6585616786    -0.9204753314     0.0128932677
   14      H      -1.3715587697    -1.7575763840     0.8730534979
 ----------------------------------------------------------------
 Molecular Point Group                 C1    NOp =  1
 Largest Abelian Subgroup              C1    NOp =  1
 Nuclear Repulsion Energy =         130.23994218 hartrees
 There are       17 alpha and       17 beta electrons

                       Distance Matrix (Angstroms)
             C (  1)   C (  2)   C (  3)   C (  4)   H (  5)   H (  6)
   C (  2)  1.541110
   C (  3)  2.565286  1.545037
   C (  4)  3.940087  2.565286  1.541110
   H (  5)  1.086009  2.175415  3.505992  4.734297
   H (  6)  1.085998  2.177222  2.813936  4.248260  1.759827
   H (  7)  1.086020  2.177160  2.825154  4.255661  1.759854  1.759122
   H (  8)  2.160835  1.088532  2.163718  2.786744  2.487369  2.517939
   H (  9)  2.160889  1.088523  2.163383  2.786439  2.496664  3.065624
   H ( 10)  2.786439  2.163383  1.088523  2.160889  3.783403  3.130032
   H ( 11)  2.786744  2.163718  1.088532  2.160835  3.777799  2.596181
   H ( 12)  4.255661  2.825154  2.177160  1.086020  4.930245  4.795024
   H ( 13)  4.734297  3.505992  2.175415  1.086009  5.626813  4.914659
   H ( 14)  4.248260  2.813936  2.177222  1.085998  4.914659  4.458841
             H (  7)   H (  8)   H (  9)   H ( 10)   H ( 11)   H ( 12)
   H (  8)  3.065319
   H (  9)  2.508480  1.751514
   H ( 10)  2.608266  3.056885  2.504882
   H ( 11)  3.147680  2.505805  3.056885  1.751514
   H ( 12)  4.462758  3.147680  2.608266  2.508480  3.065319
   H ( 13)  4.930245  3.777799  3.783403  2.496664  2.487369  1.759854
   H ( 14)  4.795024  2.596181  3.130032  3.065624  2.517939  1.759122
             H ( 13)
   H ( 14)  1.759827
 
 Applying Cartesian multipole field
    Component          Value
    ---------          -----
     (2,0,0)        1.00000E-11
     (0,2,0)        2.00000E-10
     (0,0,2)       -3.00000E-10
 Nucleus-field energy     =     0.0000000187 hartrees
 Requested basis set is STO-3G
 There are 18 shells and 30 basis functions
 A cutoff of  1.0D-12 yielded    168 shell pairs
 There are       486 function pairs
 Smallest overlap matrix eigenvalue = 2.02E-01
 Guess from superposition of atomic densities
 Warning:  Energy on first SCF cycle will be non-variational
 SAD guess density has 34.000000 electrons

 -----------------------------------------------------------------------
  General SCF calculation program by
  Eric Jon Sundstrom, Paul Horn, Yuezhi Mao, Dmitri Zuev, Alec White,
  David Stuck, Shaama M.S., Shane Yost, Joonho Lee, David Small,
  Daniel Levine, Susi Lehtola, Hugh Burton, Evgeny Epifanovsky,
  Bang C. Huynh
 -----------------------------------------------------------------------
 Hartree-Fock
 A restricted SCF calculation will be
 performed using DIIS
 SCF converges when DIIS error is below 1.0e-08
 ---------------------------------------
  Cycle       Energy         DIIS error
 ---------------------------------------
    1    -154.3449210281      1.82e-01  
    2    -155.4419620834      1.09e-02  
    3    -155.4651454537      2.82e-03  
    4    -155.4666234108      3.28e-04  
    5    -155.4666424305      1.80e-05  
    6    -155.4666424964      3.21e-06  
    7    -155.4666424982      3.18e-07  
    8    -155.4666424982      4.87e-08  
    9    -155.4666424982      5.95e-09  Convergence criterion met
 ---------------------------------------
 SCF time:   CPU 4.12s  wall 0.00s 
 SCF   energy in the final basis set =     -155.4666424982
 Total energy in the final basis set =     -155.4666424982
 
 --------------------------------------------------------------
 
                    Orbital Energies (a.u.)
 --------------------------------------------------------------
 
 Alpha MOs
 -- Occupied --
-11.0385 -11.0382 -11.0317 -11.0316  -1.0275  -0.9426  -0.8273  -0.7584
 -0.6103  -0.5555  -0.5418  -0.5395  -0.4853  -0.4696  -0.4329  -0.4309
 -0.4149
 -- Virtual --
  0.6013   0.6174   0.6521   0.6838   0.6872   0.7368   0.7507   0.7655
  0.7677   0.7683   0.7978   0.8002   0.8315
 --------------------------------------------------------------
 
          Ground-State Mulliken Net Atomic Charges

     Atom                 Charge (a.u.)
  ----------------------------------------
      1 C                    -0.178149
      2 C                    -0.094375
      3 C                    -0.094375
      4 C                    -0.178149
      5 H                     0.057557
      6 H                     0.056428
      7 H                     0.056406
      8 H                     0.051052
      9 H                     0.051082
     10 H                     0.051082
     11 H                     0.051052
     12 H                     0.056406
     13 H                     0.057557
     14 H                     0.056428
  ----------------------------------------
  Sum of atomic charges =     0.000000

 -----------------------------------------------------------------
                    Cartesian Multipole Moments
 -----------------------------------------------------------------
    Charge (ESU x 10^10)
                -0.0000
    Dipole Moment (Debye)
         X      -0.0000      Y      -0.0000      Z      -0.0005
       Tot       0.0005
    Quadrupole Moments (Debye-Ang)
        XX     -27.0537     XY      -0.3111     YY     -27.0730
        XZ       0.0000     YZ       0.0000     ZZ     -26.4548
    Octopole Moments (Debye-Ang^2)
       XXX      -0.0002    XXY      -0.0002    XYY      -0.0001
       YYY      -0.0007    XXZ       0.0250    XYZ      -0.0141
       YYZ       0.0100    XZZ      -0.0001    YZZ      -0.0002
       ZZZ      -0.0331
    Hexadecapole Moments (Debye-Ang^3)
      XXXX    -316.0533   XXXY     -79.0007   XXYY     -86.1360
      XYYY     -79.1395   YYYY    -176.6816   XXXZ       0.0008
      XXYZ       0.0002   XYYZ       0.0003   YYYZ       0.0007
      XXZZ     -62.9108   XYZZ     -25.7855   YYZZ     -34.2113
      XZZZ       0.0008   YZZZ       0.0005   ZZZZ     -48.7639
 -----------------------------------------------------------------
 Calculating analytic gradient of the SCF energy
 Gradient of SCF Energy
            1           2           3           4           5           6
    1   0.0000008   0.0000232  -0.0000232  -0.0000008  -0.0000088  -0.0000262
    2   0.0000087  -0.0000261   0.0000261  -0.0000087  -0.0000042   0.0000319
    3   0.0000604   0.0000057   0.0000057   0.0000604   0.0000507  -0.0000399
            7           8           9          10          11          12
    1   0.0000318   0.0000627  -0.0000595   0.0000595  -0.0000627  -0.0000318
    2  -0.0000156  -0.0000271   0.0000191  -0.0000191   0.0000271   0.0000156
    3  -0.0000310  -0.0000220  -0.0000239  -0.0000239  -0.0000220  -0.0000310
           13          14
    1   0.0000088   0.0000262
    2   0.0000042  -0.0000319
    3   0.0000507  -0.0000399
 Max gradient component =       6.266E-05
 RMS gradient           =       3.294E-05
 Gradient time:  CPU 1.29 s  wall 0.08 s
 Geometry Optimization Parameters
   NAtoms,    NIC,     NZ,  NCons,   NDum,   NFix, NCnnct, MaxDiis
       14      92       0       1       0       0       0       0

 Cartesian Hessian Update
 Hessian updated using BFGS update


** CONSTRAINED OPTIMIZATION IN DELOCALIZED INTERNAL COORDINATES **
   Searching for a Minimum

   Optimization Cycle:   8

                       Coordinates (Angstroms)
     ATOM                X               Y               Z
      1  C         1.5977210016    1.1525568214    0.0000023901
      2  C         0.7595951457   -0.1407198079    0.0000154635
      3  C        -0.7595892213    0.1407360273    0.0000129330
      4  C        -1.5977150772   -1.1525406020    0.0000257808
      5  H         2.6585676073    0.9204918059    0.0128741152
      6  H         1.3715649918    1.7576099084    0.8730181911
      7  H         1.3902112467    1.7453853226   -0.8859626171
      8  H         1.0147165891   -0.7349126761    0.8756574376
      9  H         1.0142803268   -0.7347453328   -0.8758565439
     10  H        -1.0142747010    0.7347441905   -0.8758707622
     11  H        -1.0147103661    0.7349462525    0.8756432157
     12  H        -1.3902056245   -1.7453866648   -0.8859275459
     13  H        -2.6585616786   -0.9204753314    0.0128932677
     14  H        -1.3715587697   -1.7575763840    0.8730534979
   Point Group: c1    Number of degrees of freedom:    36


   Energy is   -155.466642498

              Constraints and their Current Values
                                        Value     Constraint
   Dihedral:        1   2   3   4      180.000      180.000
 Hessian updated using BFGS update

 18 Hessian modes will be used to form the next step
  Hessian Eigenvalues:
     0.016101    0.021660    0.078524    0.083716    0.084207    0.105965
     0.121656    0.160259    0.175791    0.197500    0.247034    0.286257
     0.343745    0.350951    0.351294    0.352760    0.358553    0.455799

 Minimum search - taking simple RFO step
 Searching for Lamda that Minimizes Along All modes
 Value Taken    Lamda =  -0.00000102
 Step Taken.  Stepsize is  0.007457

                             Maximum     Tolerance    Cnvgd?
         Gradient           0.000114      0.000300     YES
         Displacement       0.004932      0.001200      NO
         Energy change     -0.000001      0.000001     YES


                       Distance Matrix (Angstroms)
             C (  1)   C (  2)   C (  3)   C (  4)   H (  5)   H (  6)
   C (  2)  1.541110
   C (  3)  2.565286  1.545037
   C (  4)  3.940087  2.565286  1.541110
   H (  5)  1.086009  2.175415  3.505992  4.734297
   H (  6)  1.085998  2.177222  2.813936  4.248260  1.759827
   H (  7)  1.086020  2.177160  2.825154  4.255661  1.759854  1.759122
   H (  8)  2.160835  1.088532  2.163718  2.786744  2.487369  2.517939
   H (  9)  2.160889  1.088523  2.163383  2.786439  2.496664  3.065624
   H ( 10)  2.786439  2.163383  1.088523  2.160889  3.783403  3.130032
   H ( 11)  2.786744  2.163718  1.088532  2.160835  3.777799  2.596181
   H ( 12)  4.255661  2.825154  2.177160  1.086020  4.930245  4.795024
   H ( 13)  4.734297  3.505992  2.175415  1.086009  5.626813  4.914659
   H ( 14)  4.248260  2.813936  2.177222  1.085998  4.914659  4.458841
             H (  7)   H (  8)   H (  9)   H ( 10)   H ( 11)   H ( 12)
   H (  8)  3.065319
   H (  9)  2.508480  1.751514
   H ( 10)  2.608266  3.056885  2.504882
   H ( 11)  3.147680  2.505805  3.056885  1.751514
   H ( 12)  4.462758  3.147680  2.608266  2.508480  3.065319
   H ( 13)  4.930245  3.777799  3.783403  2.496664  2.487369  1.759854
   H ( 14)  4.795024  2.596181  3.130032  3.065624  2.517939  1.759122
             H ( 13)
   H ( 14)  1.759827
 
 Final energy is   -155.466642498186     


 ******************************
 **  OPTIMIZATION CONVERGED  **
 ******************************

                       Coordinates (Angstroms)
     ATOM                X               Y               Z
      1  C         1.5977210016    1.1525568214    0.0000023901
      2  C         0.7595951457   -0.1407198079    0.0000154635
      3  C        -0.7595892213    0.1407360273    0.0000129330
      4  C        -1.5977150772   -1.1525406020    0.0000257808
      5  H         2.6585676073    0.9204918059    0.0128741152
      6  H         1.3715649918    1.7576099084    0.8730181911
      7  H         1.3902112467    1.7453853226   -0.8859626171
      8  H         1.0147165891   -0.7349126761    0.8756574376
      9  H         1.0142803268   -0.7347453328   -0.8758565439
     10  H        -1.0142747010    0.7347441905   -0.8758707622
     11  H        -1.0147103661    0.7349462525    0.8756432157
     12  H        -1.3902056245   -1.7453866648   -0.8859275459
     13  H        -2.6585616786   -0.9204753314    0.0128932677
     14  H        -1.3715587697   -1.7575763840    0.8730534979

Z-matrix Print:
$molecule
0 1
C 
H  1 1.088523
H  1 1.088532 2 107.130506
C  1 1.541110 2 109.311603 3 118.334093 0
H  4 1.085998 1 110.749481 2 -179.221012 0
H  4 1.086009 1 110.604959 2 -59.223355 0
H  4 1.086020 1 110.743227 2 60.771242 0
C  1 1.545037 2 109.236542 3 -118.240563 0
H  8 1.088523 1 109.236542 2 -63.089682 0
H  8 1.088532 1 109.262162 2 -179.988093 0
C  8 1.541110 1 112.449765 2 58.455154 0
H  11 1.085998 8 110.749481 1 59.276945 0
H  11 1.086009 8 110.604959 1 179.274601 0
H  11 1.086020 8 110.743227 1 -60.730801 0
$end

PES scan, value:  180.0000 energy: -155.4666424982
------- Summary of potential scan: ------ 
 -180.0000      -155.4666462307
 -165.0000      -155.4658781610
 -150.0000      -155.4639988812
 -135.0000      -155.4620650340
 -120.0000      -155.4612373187
 -105.0000      -155.4620092434
  -90.0000      -155.4637468414
  -75.0000      -155.4650929797
  -60.0000      -155.4651809285
  -45.0000      -155.4638122986
  -30.0000      -155.4613127819
  -15.0000      -155.4588065276
    0.0000      -155.4577196449
   15.0000      -155.4588065140
   30.0000      -155.4613127784
   45.0000      -155.4638126846
   60.0000      -155.4651799807
   75.0000      -155.4650930094
   90.0000      -155.4637471245
  105.0000      -155.4620088131
  120.0000      -155.4612373224
  135.0000      -155.4620655754
  150.0000      -155.4639993537
  165.0000      -155.4658822402
  180.0000      -155.4666424982
----------------------------------------- 
 Total job time:  105.99s(wall), 1626.54s(cpu) 
 Tue Nov 28 23:41:36 2023

        *************************************************************
        *                                                           *
        *  Thank you very much for using Q-Chem.  Have a nice day.  *
        *                                                           *
        *************************************************************


