 Entering Gaussian System, Link 0=g09
 Initial command:
 /cm/shared/c3ddb/gaussian/09.d01/g09/l1.exe "/scratch/users/alongd/g09/a16442-7309105/Gau-57119.inp" -scrdir="/scratch/users/alongd/g09/a16442-7309105/"
 Entering Link 1 = /cm/shared/c3ddb/gaussian/09.d01/g09/l1.exe PID=     57120.
  
 Copyright (c) 1988,1990,1992,1993,1995,1998,2003,2009,2013,
            Gaussian, Inc.  All Rights Reserved.
  
 This is part of the Gaussian(R) 09 program.  It is based on
 the Gaussian(R) 03 system (copyright 2003, Gaussian, Inc.),
 the Gaussian(R) 98 system (copyright 1998, Gaussian, Inc.),
 the Gaussian(R) 94 system (copyright 1995, Gaussian, Inc.),
 the Gaussian 92(TM) system (copyright 1992, Gaussian, Inc.),
 the Gaussian 90(TM) system (copyright 1990, Gaussian, Inc.),
 the Gaussian 88(TM) system (copyright 1988, Gaussian, Inc.),
 the Gaussian 86(TM) system (copyright 1986, Carnegie Mellon
 University), and the Gaussian 82(TM) system (copyright 1983,
 Carnegie Mellon University). Gaussian is a federally registered
 trademark of Gaussian, Inc.
  
 This software contains proprietary and confidential information,
 including trade secrets, belonging to Gaussian, Inc.
  
 This software is provided under written license and may be
 used, copied, transmitted, or stored only in accord with that
 written license.
  
 The following legend is applicable only to US Government
 contracts under FAR:
  
                    RESTRICTED RIGHTS LEGEND
  
 Use, reproduction and disclosure by the US Government is
 subject to restrictions as set forth in subparagraphs (a)
 and (c) of the Commercial Computer Software - Restricted
 Rights clause in FAR 52.227-19.
  
 Gaussian, Inc.
 340 Quinnipiac St., Bldg. 40, Wallingford CT 06492
  
  
 ---------------------------------------------------------------
 Warning -- This program may not be used in any manner that
 competes with the business of Gaussian, Inc. or will provide
 assistance to any competitor of Gaussian, Inc.  The licensee
 of this program is prohibited from giving any competitor of
 Gaussian, Inc. access to this program.  By using this program,
 the user acknowledges that Gaussian, Inc. is engaged in the
 business of creating and licensing software in the field of
 computational chemistry and represents and warrants to the
 licensee that it is not a competitor of Gaussian, Inc. and that
 it will not use this program in any manner prohibited above.
 ---------------------------------------------------------------
  

 Cite this work as:
 Gaussian 09, Revision D.01,
 M. J. Frisch, G. W. Trucks, H. B. Schlegel, G. E. Scuseria, 
 M. A. Robb, J. R. Cheeseman, G. Scalmani, V. Barone, B. Mennucci, 
 G. A. Petersson, H. Nakatsuji, M. Caricato, X. Li, H. P. Hratchian, 
 A. F. Izmaylov, J. Bloino, G. Zheng, J. L. Sonnenberg, M. Hada, 
 M. Ehara, K. Toyota, R. Fukuda, J. Hasegawa, M. Ishida, T. Nakajima, 
 Y. Honda, O. Kitao, H. Nakai, T. Vreven, J. A. Montgomery, Jr., 
 J. E. Peralta, F. Ogliaro, M. Bearpark, J. J. Heyd, E. Brothers, 
 K. N. Kudin, V. N. Staroverov, T. Keith, R. Kobayashi, J. Normand, 
 K. Raghavachari, A. Rendell, J. C. Burant, S. S. Iyengar, J. Tomasi, 
 M. Cossi, N. Rega, J. M. Millam, M. Klene, J. E. Knox, J. B. Cross, 
 V. Bakken, C. Adamo, J. Jaramillo, R. Gomperts, R. E. Stratmann, 
 O. Yazyev, A. J. Austin, R. Cammi, C. Pomelli, J. W. Ochterski, 
 R. L. Martin, K. Morokuma, V. G. Zakrzewski, G. A. Voth, 
 P. Salvador, J. J. Dannenberg, S. Dapprich, A. D. Daniels, 
 O. Farkas, J. B. Foresman, J. V. Ortiz, J. Cioslowski, 
 and D. J. Fox, Gaussian, Inc., Wallingford CT, 2013.
 
 ******************************************
 Gaussian 09:  AS64L-G09RevD.01 24-Apr-2013
                15-Feb-2019 
 ******************************************
 %chk=check.chk
 %mem=1500mb
 %nproc=8
 Will use up to    8 processors via shared memory.
 ---------------------------------------------------------------------
 #P opt=(modredundant, calcfc, noeigentest) b3lyp/6-311+g(d,p) scf=xqc
 ---------------------------------------------------------------------
 1/10=4,11=1,14=-1,18=120,19=15,26=3,38=1/1,3;
 2/9=110,12=2,17=6,18=5,40=1/2;
 3/5=4,6=6,7=111,11=2,16=1,25=1,30=1,71=2,74=-5,140=1/1,2,3;
 4//1;
 5/5=2,8=3,13=1,38=5/2,8;
 8/6=4,10=90,11=11/1;
 11/6=1,8=1,9=11,15=111,16=1/1,2,10;
 10/6=1,13=1/2;
 6/7=2,8=2,9=2,10=2,28=1/1;
 7/10=1,18=20,25=1/1,2,3,16;
 1/10=4,11=1,14=-1,18=20,19=15,26=3/3(2);
 2/9=110/2;
 99//99;
 2/9=110/2;
 3/5=4,6=6,7=111,11=2,16=1,25=1,30=1,71=1,74=-5/1,2,3;
 4/5=5,16=3,69=1/1;
 5/5=2,8=3,13=1,38=5/2,8;
 7//1,2,3,16;
 1/11=1,14=-1,18=20,19=15,26=3/3(-5);
 2/9=110/2;
 6/7=2,8=2,9=2,10=2,19=2,28=1/1;
 99/9=1/99;
 Leave Link    1 at Fri Feb 15 20:13:30 2019, MaxMem=   196608000 cpu:         0.6
 (Enter /cm/shared/c3ddb/gaussian/09.d01/g09/l101.exe)
 ----
 name
 ----
 Symbolic Z-matrix:
 Charge =  0 Multiplicity = 1
 O                    -0.50312  -1.34261  -0.23353 
 C                    -0.47347  -0.0283    0.31629 
 C                     0.75204   0.66456  -0.26266 
 C                    -1.7615    0.72394   0.00795 
 C                     2.0639   -0.01502   0.11554 
 H                    -0.34985  -0.09763   1.40863 
 H                     0.64083   0.69203  -1.35262 
 H                     0.75302   1.70359   0.08454 
 H                     2.20415  -0.01782   1.20126 
 H                     2.07379  -1.05106  -0.22769 
 H                     2.91707   0.50281  -0.32972 
 H                    -2.63194   0.19906   0.41438 
 H                    -1.89397   0.82103  -1.07316 
 H                    -1.74111   1.72391   0.4501 
 H                    -1.25327  -1.81249   0.13208 
 
 The following ModRedundant input section has been read:
 D       2       3       5       9 S  45 8.0000                                
 
 NAtoms=     15 NQM=       15 NQMF=       0 NMMI=      0 NMMIF=      0
                NMic=       0 NMicF=      0.
                    Isotopes and Nuclear Properties:
 (Nuclear quadrupole moments (NQMom) in fm**2, nuclear magnetic moments (NMagM)
  in nuclear magnetons)

  Atom         1           2           3           4           5           6           7           8           9          10
 IAtWgt=          16          12          12          12          12           1           1           1           1           1
 AtmWgt=  15.9949146  12.0000000  12.0000000  12.0000000  12.0000000   1.0078250   1.0078250   1.0078250   1.0078250   1.0078250
 NucSpn=           0           0           0           0           0           1           1           1           1           1
 AtZEff=   0.0000000   0.0000000   0.0000000   0.0000000   0.0000000   0.0000000   0.0000000   0.0000000   0.0000000   0.0000000
 NQMom=    0.0000000   0.0000000   0.0000000   0.0000000   0.0000000   0.0000000   0.0000000   0.0000000   0.0000000   0.0000000
 NMagM=    0.0000000   0.0000000   0.0000000   0.0000000   0.0000000   2.7928460   2.7928460   2.7928460   2.7928460   2.7928460
 AtZNuc=   8.0000000   6.0000000   6.0000000   6.0000000   6.0000000   1.0000000   1.0000000   1.0000000   1.0000000   1.0000000

  Atom        11          12          13          14          15
 IAtWgt=           1           1           1           1           1
 AtmWgt=   1.0078250   1.0078250   1.0078250   1.0078250   1.0078250
 NucSpn=           1           1           1           1           1
 AtZEff=   0.0000000   0.0000000   0.0000000   0.0000000   0.0000000
 NQMom=    0.0000000   0.0000000   0.0000000   0.0000000   0.0000000
 NMagM=    2.7928460   2.7928460   2.7928460   2.7928460   2.7928460
 AtZNuc=   1.0000000   1.0000000   1.0000000   1.0000000   1.0000000
 Leave Link  101 at Fri Feb 15 20:13:30 2019, MaxMem=   196608000 cpu:         0.7
 (Enter /cm/shared/c3ddb/gaussian/09.d01/g09/l103.exe)

 GradGradGradGradGradGradGradGradGradGradGradGradGradGradGradGradGradGrad
 Berny optimization.
 Initialization pass.
                           ----------------------------
                           !    Initial Parameters    !
                           ! (Angstroms and Degrees)  !
 --------------------------                            --------------------------
 ! Name  Definition              Value          Derivative Info.                !
 --------------------------------------------------------------------------------
 ! R1    R(1,2)                  1.425          calculate D2E/DX2 analytically  !
 ! R2    R(1,15)                 0.9577         calculate D2E/DX2 analytically  !
 ! R3    R(2,3)                  1.5222         calculate D2E/DX2 analytically  !
 ! R4    R(2,4)                  1.5231         calculate D2E/DX2 analytically  !
 ! R5    R(2,6)                  1.1015         calculate D2E/DX2 analytically  !
 ! R6    R(3,5)                  1.5251         calculate D2E/DX2 analytically  !
 ! R7    R(3,7)                  1.096          calculate D2E/DX2 analytically  !
 ! R8    R(3,8)                  1.0955         calculate D2E/DX2 analytically  !
 ! R9    R(4,12)                 1.0947         calculate D2E/DX2 analytically  !
 ! R10   R(4,13)                 1.0935         calculate D2E/DX2 analytically  !
 ! R11   R(4,14)                 1.0936         calculate D2E/DX2 analytically  !
 ! R12   R(5,9)                  1.0947         calculate D2E/DX2 analytically  !
 ! R13   R(5,10)                 1.0915         calculate D2E/DX2 analytically  !
 ! R14   R(5,11)                 1.0928         calculate D2E/DX2 analytically  !
 ! A1    A(2,1,15)             108.7552         calculate D2E/DX2 analytically  !
 ! A2    A(1,2,3)              106.8471         calculate D2E/DX2 analytically  !
 ! A3    A(1,2,4)              111.0885         calculate D2E/DX2 analytically  !
 ! A4    A(1,2,6)              109.0824         calculate D2E/DX2 analytically  !
 ! A5    A(3,2,4)              112.2729         calculate D2E/DX2 analytically  !
 ! A6    A(3,2,6)              108.3892         calculate D2E/DX2 analytically  !
 ! A7    A(4,2,6)              109.071          calculate D2E/DX2 analytically  !
 ! A8    A(2,3,5)              113.2901         calculate D2E/DX2 analytically  !
 ! A9    A(2,3,7)              107.9369         calculate D2E/DX2 analytically  !
 ! A10   A(2,3,8)              108.1727         calculate D2E/DX2 analytically  !
 ! A11   A(5,3,7)              110.1867         calculate D2E/DX2 analytically  !
 ! A12   A(5,3,8)              110.0763         calculate D2E/DX2 analytically  !
 ! A13   A(7,3,8)              106.9488         calculate D2E/DX2 analytically  !
 ! A14   A(2,4,12)             111.1276         calculate D2E/DX2 analytically  !
 ! A15   A(2,4,13)             110.2691         calculate D2E/DX2 analytically  !
 ! A16   A(2,4,14)             110.732          calculate D2E/DX2 analytically  !
 ! A17   A(12,4,13)            108.2584         calculate D2E/DX2 analytically  !
 ! A18   A(12,4,14)            107.6472         calculate D2E/DX2 analytically  !
 ! A19   A(13,4,14)            108.712          calculate D2E/DX2 analytically  !
 ! A20   A(3,5,9)              110.9336         calculate D2E/DX2 analytically  !
 ! A21   A(3,5,10)             110.6581         calculate D2E/DX2 analytically  !
 ! A22   A(3,5,11)             111.0612         calculate D2E/DX2 analytically  !
 ! A23   A(9,5,10)             107.9562         calculate D2E/DX2 analytically  !
 ! A24   A(9,5,11)             107.7742         calculate D2E/DX2 analytically  !
 ! A25   A(10,5,11)            108.3352         calculate D2E/DX2 analytically  !
 ! D1    D(15,1,2,3)           178.4941         calculate D2E/DX2 analytically  !
 ! D2    D(15,1,2,4)           -58.7393         calculate D2E/DX2 analytically  !
 ! D3    D(15,1,2,6)            61.5232         calculate D2E/DX2 analytically  !
 ! D4    D(1,2,3,5)            -62.0525         calculate D2E/DX2 analytically  !
 ! D5    D(1,2,3,7)             60.2392         calculate D2E/DX2 analytically  !
 ! D6    D(1,2,3,8)            175.6276         calculate D2E/DX2 analytically  !
 ! D7    D(4,2,3,5)            175.923          calculate D2E/DX2 analytically  !
 ! D8    D(4,2,3,7)            -61.7853         calculate D2E/DX2 analytically  !
 ! D9    D(4,2,3,8)             53.6031         calculate D2E/DX2 analytically  !
 ! D10   D(6,2,3,5)             55.3759         calculate D2E/DX2 analytically  !
 ! D11   D(6,2,3,7)            177.6676         calculate D2E/DX2 analytically  !
 ! D12   D(6,2,3,8)            -66.944          calculate D2E/DX2 analytically  !
 ! D13   D(1,2,4,12)            59.2319         calculate D2E/DX2 analytically  !
 ! D14   D(1,2,4,13)           -60.8183         calculate D2E/DX2 analytically  !
 ! D15   D(1,2,4,14)           178.8205         calculate D2E/DX2 analytically  !
 ! D16   D(3,2,4,12)           178.8104         calculate D2E/DX2 analytically  !
 ! D17   D(3,2,4,13)            58.7601         calculate D2E/DX2 analytically  !
 ! D18   D(3,2,4,14)           -61.6011         calculate D2E/DX2 analytically  !
 ! D19   D(6,2,4,12)           -61.0373         calculate D2E/DX2 analytically  !
 ! D20   D(6,2,4,13)           178.9125         calculate D2E/DX2 analytically  !
 ! D21   D(6,2,4,14)            58.5513         calculate D2E/DX2 analytically  !
 ! D22   D(2,3,5,9)            -60.956          Scan                            !
 ! D23   D(2,3,5,10)            58.8448         calculate D2E/DX2 analytically  !
 ! D24   D(2,3,5,11)           179.2061         calculate D2E/DX2 analytically  !
 ! D25   D(7,3,5,9)            178.013          calculate D2E/DX2 analytically  !
 ! D26   D(7,3,5,10)           -62.1862         calculate D2E/DX2 analytically  !
 ! D27   D(7,3,5,11)            58.1751         calculate D2E/DX2 analytically  !
 ! D28   D(8,3,5,9)             60.2986         calculate D2E/DX2 analytically  !
 ! D29   D(8,3,5,10)          -179.9005         calculate D2E/DX2 analytically  !
 ! D30   D(8,3,5,11)           -59.5393         calculate D2E/DX2 analytically  !
 --------------------------------------------------------------------------------
 Trust Radius=3.00D-01 FncErr=1.00D-07 GrdErr=1.00D-06
 Number of optimizations in scan=  46
 Number of steps in this run=     79 maximum allowed number of steps=    100.
 GradGradGradGradGradGradGradGradGradGradGradGradGradGradGradGradGradGrad

 Leave Link  103 at Fri Feb 15 20:13:30 2019, MaxMem=   196608000 cpu:         0.1
 (Enter /cm/shared/c3ddb/gaussian/09.d01/g09/l202.exe)
                          Input orientation:                          
 ---------------------------------------------------------------------
 Center     Atomic      Atomic             Coordinates (Angstroms)
 Number     Number       Type             X           Y           Z
 ---------------------------------------------------------------------
      1          8           0       -0.503124   -1.342613   -0.233534
      2          6           0       -0.473469   -0.028303    0.316294
      3          6           0        0.752039    0.664560   -0.262658
      4          6           0       -1.761496    0.723942    0.007953
      5          6           0        2.063900   -0.015019    0.115542
      6          1           0       -0.349853   -0.097626    1.408626
      7          1           0        0.640832    0.692026   -1.352624
      8          1           0        0.753015    1.703590    0.084542
      9          1           0        2.204153   -0.017816    1.201263
     10          1           0        2.073792   -1.051059   -0.227688
     11          1           0        2.917065    0.502805   -0.329715
     12          1           0       -2.631943    0.199062    0.414384
     13          1           0       -1.893967    0.821026   -1.073164
     14          1           0       -1.741107    1.723914    0.450101
     15          1           0       -1.253271   -1.812489    0.132075
 ---------------------------------------------------------------------
                    Distance matrix (angstroms):
                    1          2          3          4          5
     1  O    0.000000
     2  C    1.424992   0.000000
     3  C    2.367494   1.522207   0.000000
     4  C    2.431556   1.523142   2.528758   0.000000
     5  C    2.911009   2.545333   1.525071   3.897601   0.000000
     6  H    2.066440   1.101488   2.142028   2.151649   2.739543
     7  H    2.588581   2.132095   1.095969   2.761045   2.163457
     8  H    3.310349   2.134813   1.095505   2.699693   2.161712
     9  H    3.338125   2.820096   2.171943   4.207204   1.094746
    10  H    2.593363   2.798300   2.166011   4.232681   1.091459
    11  H    3.887481   3.492152   2.172096   4.695940   1.092834
    12  H    2.707107   2.172631   3.482299   1.094698   4.710210
    13  H    2.705690   2.160965   2.771777   1.093521   4.216243
    14  H    3.376914   2.166812   2.801077   1.093551   4.196891
    15  H    0.957692   1.955850   3.211363   2.589823   3.772903
                    6          7          8          9         10
     6  H    0.000000
     7  H    3.038011   0.000000
     8  H    2.492769   1.761049   0.000000
     9  H    2.563653   3.077367   2.513186   0.000000
    10  H    3.075811   2.521349   3.070835   1.768187   0.000000
    11  H    3.749013   2.502675   2.509304   1.767253   1.770879
    12  H    2.506886   3.751851   3.718917   4.904492   4.911110
    13  H    3.063901   2.553418   3.020880   4.761435   4.467957
    14  H    2.484425   3.160418   2.520851   4.377550   4.765850
    15  H    2.320884   3.473406   4.048488   4.039529   3.431990
                   11         12         13         14         15
    11  H    0.000000
    12  H    5.606909   0.000000
    13  H    4.878525   1.773202   0.000000
    14  H    4.878298   1.766363   1.777332   0.000000
    15  H    4.792237   2.454949   2.966225   3.584030   0.000000
 Stoichiometry    C4H10O
 Framework group  C1[X(C4H10O)]
 Deg. of freedom    39
 Full point group                 C1      NOp   1
 Largest Abelian subgroup         C1      NOp   1
 Largest concise Abelian subgroup C1      NOp   1
                         Standard orientation:                         
 ---------------------------------------------------------------------
 Center     Atomic      Atomic             Coordinates (Angstroms)
 Number     Number       Type             X           Y           Z
 ---------------------------------------------------------------------
      1          8           0        0.478317    1.356001   -0.213507
      2          6           0        0.476567    0.034550    0.319751
      3          6           0       -0.732717   -0.677528   -0.269902
      4          6           0        1.781132   -0.685507    0.004172
      5          6           0       -2.059623   -0.031511    0.114579
      6          1           0        0.349929    0.087427    1.412657
      7          1           0       -0.619402   -0.688861   -1.359938
      8          1           0       -0.711515   -1.720614    0.064243
      9          1           0       -2.201433   -0.045419    1.200012
     10          1           0       -2.091631    1.008299   -0.215653
     11          1           0       -2.900660   -0.562171   -0.338569
     12          1           0        2.639347   -0.146929    0.418615
     13          1           0        1.917212   -0.766084   -1.077852
     14          1           0        1.781939   -1.691164    0.433715
     15          1           0        1.217519    1.837483    0.159225
 ---------------------------------------------------------------------
 Rotational constants (GHZ):      8.1225774      3.4606940      2.6847268
 Leave Link  202 at Fri Feb 15 20:13:30 2019, MaxMem=   196608000 cpu:         0.8
 (Enter /cm/shared/c3ddb/gaussian/09.d01/g09/l301.exe)
 Standard basis: 6-311+G(d,p) (5D, 7F)
 Ernie: Thresh=  0.10000D-02 Tol=  0.10000D-05 Strict=F.
 There are   175 symmetry adapted cartesian basis functions of A   symmetry.
 There are   170 symmetry adapted basis functions of A   symmetry.
   170 basis functions,   260 primitive gaussians,   175 cartesian basis functions
    21 alpha electrons       21 beta electrons
       nuclear repulsion energy       193.8094228541 Hartrees.
 IExCor=  402 DFT=T Ex+Corr=B3LYP ExCW=0 ScaHFX=  0.200000
 ScaDFX=  0.800000  0.720000  1.000000  0.810000 ScalE2=  1.000000  1.000000
 IRadAn=      0 IRanWt=     -1 IRanGd=            0 ICorTp=0 IEmpDi=  4
 NAtoms=   15 NActive=   15 NUniq=   15 SFac= 1.00D+00 NAtFMM=   60 NAOKFM=F Big=F
 Integral buffers will be    131072 words long.
 Raffenetti 2 integral format.
 Two-electron integral symmetry is turned on.
 Leave Link  301 at Fri Feb 15 20:13:30 2019, MaxMem=   196608000 cpu:         0.3
 (Enter /cm/shared/c3ddb/gaussian/09.d01/g09/l302.exe)
 NPDir=0 NMtPBC=     1 NCelOv=     1 NCel=       1 NClECP=     1 NCelD=      1
         NCelK=      1 NCelE2=     1 NClLst=     1 CellRange=     0.0.
 One-electron integrals computed using PRISM.
 NBasis=   170 RedAO= T EigKep=  2.28D-05  NBF=   170
 NBsUse=   170 1.00D-06 EigRej= -1.00D+00 NBFU=   170
 Precomputing XC quadrature grid using
 IXCGrd= 4 IRadAn=           0 IRanWt=          -1 IRanGd=           0 AccXCQ= 0.00D+00.
 Generated NRdTot=       0 NPtTot=           0 NUsed=           0 NTot=          32
 NSgBfM=   175   175   175   175   175 MxSgAt=    15 MxSgA2=    15.
 Leave Link  302 at Fri Feb 15 20:13:32 2019, MaxMem=   196608000 cpu:         8.1
 (Enter /cm/shared/c3ddb/gaussian/09.d01/g09/l303.exe)
 DipDrv:  MaxL=1.
 Leave Link  303 at Fri Feb 15 20:13:33 2019, MaxMem=   196608000 cpu:         1.8
 (Enter /cm/shared/c3ddb/gaussian/09.d01/g09/l401.exe)
 ExpMin= 4.38D-02 ExpMax= 8.59D+03 ExpMxC= 1.30D+03 IAcc=2 IRadAn=         4 AccDes= 0.00D+00
 Harris functional with IExCor=  402 and IRadAn=       4 diagonalized for initial guess.
 HarFok:  IExCor=  402 AccDes= 0.00D+00 IRadAn=         4 IDoV= 1 UseB2=F ITyADJ=14
 ICtDFT=  3500011 ScaDFX=  1.000000  1.000000  1.000000  1.000000
 FoFCou: FMM=F IPFlag=           0 FMFlag=      100000 FMFlg1=           0
         NFxFlg=           0 DoJE=T BraDBF=F KetDBF=T FulRan=T
         wScrn=  0.000000 ICntrl=     500 IOpCl=  0 I1Cent=   200000004 NGrid=           0
         NMat0=    1 NMatS0=      1 NMatT0=    0 NMatD0=    1 NMtDS0=    0 NMtDT0=    0
 Petite list used in FoFCou.
 Harris En= -233.821010364761    
 JPrj=0 DoOrth=F DoCkMO=F.
 Leave Link  401 at Fri Feb 15 20:13:35 2019, MaxMem=   196608000 cpu:        11.9
 (Enter /cm/shared/c3ddb/gaussian/09.d01/g09/l502.exe)
 Closed shell SCF:
 Using DIIS extrapolation, IDIIS=  1040.
 Integral symmetry usage will be decided dynamically.
 Keep R1 ints in memory in canonical form, NReq=108466717.
 IVT=      100537 IEndB=      100537 NGot=   196608000 MDV=    90867084
 LenX=    90867084 LenY=    90836018
 Requested convergence on RMS density matrix=1.00D-08 within  64 cycles.
 Requested convergence on MAX density matrix=1.00D-06.
 Requested convergence on             energy=1.00D-06.
 No special actions if energy rises.
 FoFCou: FMM=F IPFlag=           0 FMFlag=           0 FMFlg1=           0
         NFxFlg=           0 DoJE=F BraDBF=F KetDBF=F FulRan=T
         wScrn=  0.000000 ICntrl=     600 IOpCl=  0 I1Cent=           0 NGrid=           0
         NMat0=    1 NMatS0=  14535 NMatT0=    0 NMatD0=    1 NMtDS0=    0 NMtDT0=    0
 Symmetry not used in FoFCou.

 Cycle   1  Pass 1  IDiag  1:
 E= -233.509181414808    
 DIIS: error= 3.76D-02 at cycle   1 NSaved=   1.
 NSaved= 1 IEnMin= 1 EnMin= -233.509181414808     IErMin= 1 ErrMin= 3.76D-02
 ErrMax= 3.76D-02  0.00D+00 EMaxC= 1.00D-01 BMatC= 2.64D-01 BMatP= 2.64D-01
 IDIUse=3 WtCom= 6.24D-01 WtEn= 3.76D-01
 Coeff-Com:  0.100D+01
 Coeff-En:   0.100D+01
 Coeff:      0.100D+01
 Gap=     0.170 Goal=   None    Shift=    0.000
 GapD=    0.170 DampG=1.000 DampE=0.500 DampFc=0.5000 IDamp=-1.
 Damping current iteration by 5.00D-01
 RMSDP=1.14D-02 MaxDP=3.64D-01              OVMax= 2.03D-01

 Cycle   2  Pass 1  IDiag  1:
 E= -233.597748967778     Delta-E=       -0.088567552970 Rises=F Damp=T
 DIIS: error= 7.37D-03 at cycle   2 NSaved=   2.
 NSaved= 2 IEnMin= 2 EnMin= -233.597748967778     IErMin= 2 ErrMin= 7.37D-03
 ErrMax= 7.37D-03  0.00D+00 EMaxC= 1.00D-01 BMatC= 1.72D-02 BMatP= 2.64D-01
 IDIUse=3 WtCom= 9.26D-01 WtEn= 7.37D-02
 Coeff-Com:  0.133D+00 0.867D+00
 Coeff-En:   0.247D+00 0.753D+00
 Coeff:      0.142D+00 0.858D+00
 Gap=     0.295 Goal=   None    Shift=    0.000
 RMSDP=4.73D-03 MaxDP=2.61D-01 DE=-8.86D-02 OVMax= 1.43D-01

 Cycle   3  Pass 1  IDiag  1:
 E= -233.741859820401     Delta-E=       -0.144110852623 Rises=F Damp=F
 DIIS: error= 6.62D-03 at cycle   3 NSaved=   3.
 NSaved= 3 IEnMin= 3 EnMin= -233.741859820401     IErMin= 3 ErrMin= 6.62D-03
 ErrMax= 6.62D-03  0.00D+00 EMaxC= 1.00D-01 BMatC= 8.80D-03 BMatP= 1.72D-02
 IDIUse=3 WtCom= 9.34D-01 WtEn= 6.62D-02
 Coeff-Com:  0.214D-01 0.413D+00 0.565D+00
 Coeff-En:   0.000D+00 0.000D+00 0.100D+01
 Coeff:      0.200D-01 0.386D+00 0.594D+00
 Gap=     0.277 Goal=   None    Shift=    0.000
 RMSDP=7.56D-04 MaxDP=1.65D-02 DE=-1.44D-01 OVMax= 2.71D-02

 Cycle   4  Pass 1  IDiag  1:
 E= -233.746993969809     Delta-E=       -0.005134149409 Rises=F Damp=F
 DIIS: error= 2.70D-03 at cycle   4 NSaved=   4.
 NSaved= 4 IEnMin= 4 EnMin= -233.746993969809     IErMin= 4 ErrMin= 2.70D-03
 ErrMax= 2.70D-03  0.00D+00 EMaxC= 1.00D-01 BMatC= 1.83D-03 BMatP= 8.80D-03
 IDIUse=3 WtCom= 9.73D-01 WtEn= 2.70D-02
 Coeff-Com: -0.115D-01 0.882D-01 0.334D+00 0.589D+00
 Coeff-En:   0.000D+00 0.000D+00 0.173D+00 0.827D+00
 Coeff:     -0.112D-01 0.859D-01 0.329D+00 0.596D+00
 Gap=     0.277 Goal=   None    Shift=    0.000
 RMSDP=3.63D-04 MaxDP=1.65D-02 DE=-5.13D-03 OVMax= 8.15D-03

 Cycle   5  Pass 1  IDiag  1:
 E= -233.748419432759     Delta-E=       -0.001425462950 Rises=F Damp=F
 DIIS: error= 4.60D-04 at cycle   5 NSaved=   5.
 NSaved= 5 IEnMin= 5 EnMin= -233.748419432759     IErMin= 5 ErrMin= 4.60D-04
 ErrMax= 4.60D-04  0.00D+00 EMaxC= 1.00D-01 BMatC= 4.01D-05 BMatP= 1.83D-03
 IDIUse=3 WtCom= 9.95D-01 WtEn= 4.60D-03
 Coeff-Com: -0.512D-02 0.146D-01 0.955D-01 0.228D+00 0.667D+00
 Coeff-En:   0.000D+00 0.000D+00 0.000D+00 0.000D+00 0.100D+01
 Coeff:     -0.510D-02 0.146D-01 0.950D-01 0.227D+00 0.669D+00
 Gap=     0.277 Goal=   None    Shift=    0.000
 RMSDP=6.82D-05 MaxDP=1.85D-03 DE=-1.43D-03 OVMax= 1.32D-03

 Cycle   6  Pass 1  IDiag  1:
 E= -233.748446632400     Delta-E=       -0.000027199641 Rises=F Damp=F
 DIIS: error= 1.54D-04 at cycle   6 NSaved=   6.
 NSaved= 6 IEnMin= 6 EnMin= -233.748446632400     IErMin= 6 ErrMin= 1.54D-04
 ErrMax= 1.54D-04  0.00D+00 EMaxC= 1.00D-01 BMatC= 6.05D-06 BMatP= 4.01D-05
 IDIUse=3 WtCom= 9.98D-01 WtEn= 1.54D-03
 Coeff-Com: -0.162D-02 0.135D-02 0.268D-01 0.787D-01 0.354D+00 0.541D+00
 Coeff-En:   0.000D+00 0.000D+00 0.000D+00 0.000D+00 0.650D-01 0.935D+00
 Coeff:     -0.162D-02 0.134D-02 0.267D-01 0.786D-01 0.353D+00 0.542D+00
 Gap=     0.277 Goal=   None    Shift=    0.000
 RMSDP=1.48D-05 MaxDP=5.28D-04 DE=-2.72D-05 OVMax= 4.35D-04

 Cycle   7  Pass 1  IDiag  1:
 E= -233.748451959375     Delta-E=       -0.000005326975 Rises=F Damp=F
 DIIS: error= 1.73D-05 at cycle   7 NSaved=   7.
 NSaved= 7 IEnMin= 7 EnMin= -233.748451959375     IErMin= 7 ErrMin= 1.73D-05
 ErrMax= 1.73D-05  0.00D+00 EMaxC= 1.00D-01 BMatC= 6.24D-08 BMatP= 6.05D-06
 IDIUse=1 WtCom= 1.00D+00 WtEn= 0.00D+00
 Coeff-Com:  0.321D-04-0.536D-03 0.150D-02 0.651D-02 0.463D-01 0.127D+00
 Coeff-Com:  0.820D+00
 Coeff:      0.321D-04-0.536D-03 0.150D-02 0.651D-02 0.463D-01 0.127D+00
 Coeff:      0.820D+00
 Gap=     0.277 Goal=   None    Shift=    0.000
 RMSDP=3.96D-06 MaxDP=1.49D-04 DE=-5.33D-06 OVMax= 5.67D-05

 Cycle   8  Pass 1  IDiag  1:
 E= -233.748452018966     Delta-E=       -0.000000059591 Rises=F Damp=F
 DIIS: error= 4.49D-06 at cycle   8 NSaved=   8.
 NSaved= 8 IEnMin= 8 EnMin= -233.748452018966     IErMin= 8 ErrMin= 4.49D-06
 ErrMax= 4.49D-06  0.00D+00 EMaxC= 1.00D-01 BMatC= 3.38D-09 BMatP= 6.24D-08
 IDIUse=1 WtCom= 1.00D+00 WtEn= 0.00D+00
 Coeff-Com:  0.702D-04-0.232D-03-0.303D-03-0.319D-03 0.358D-02 0.235D-01
 Coeff-Com:  0.269D+00 0.705D+00
 Coeff:      0.702D-04-0.232D-03-0.303D-03-0.319D-03 0.358D-02 0.235D-01
 Coeff:      0.269D+00 0.705D+00
 Gap=     0.277 Goal=   None    Shift=    0.000
 RMSDP=9.67D-07 MaxDP=1.92D-05 DE=-5.96D-08 OVMax= 1.58D-05

 Cycle   9  Pass 1  IDiag  1:
 E= -233.748452022515     Delta-E=       -0.000000003549 Rises=F Damp=F
 DIIS: error= 7.73D-07 at cycle   9 NSaved=   9.
 NSaved= 9 IEnMin= 9 EnMin= -233.748452022515     IErMin= 9 ErrMin= 7.73D-07
 ErrMax= 7.73D-07  0.00D+00 EMaxC= 1.00D-01 BMatC= 1.33D-10 BMatP= 3.38D-09
 IDIUse=1 WtCom= 1.00D+00 WtEn= 0.00D+00
 Coeff-Com:  0.144D-04-0.427D-04-0.133D-03-0.243D-03-0.440D-03 0.271D-02
 Coeff-Com:  0.451D-01 0.200D+00 0.753D+00
 Coeff:      0.144D-04-0.427D-04-0.133D-03-0.243D-03-0.440D-03 0.271D-02
 Coeff:      0.451D-01 0.200D+00 0.753D+00
 Gap=     0.277 Goal=   None    Shift=    0.000
 RMSDP=1.45D-07 MaxDP=2.49D-06 DE=-3.55D-09 OVMax= 3.05D-06

 Cycle  10  Pass 1  IDiag  1:
 E= -233.748452022626     Delta-E=       -0.000000000111 Rises=F Damp=F
 DIIS: error= 4.00D-07 at cycle  10 NSaved=  10.
 NSaved=10 IEnMin=10 EnMin= -233.748452022626     IErMin=10 ErrMin= 4.00D-07
 ErrMax= 4.00D-07  0.00D+00 EMaxC= 1.00D-01 BMatC= 2.80D-11 BMatP= 1.33D-10
 IDIUse=1 WtCom= 1.00D+00 WtEn= 0.00D+00
 Coeff-Com:  0.126D-05-0.521D-05-0.425D-04-0.769D-04-0.365D-03-0.611D-04
 Coeff-Com:  0.413D-02 0.484D-01 0.372D+00 0.576D+00
 Coeff:      0.126D-05-0.521D-05-0.425D-04-0.769D-04-0.365D-03-0.611D-04
 Coeff:      0.413D-02 0.484D-01 0.372D+00 0.576D+00
 Gap=     0.277 Goal=   None    Shift=    0.000
 RMSDP=4.80D-08 MaxDP=9.10D-07 DE=-1.11D-10 OVMax= 1.11D-06

 Cycle  11  Pass 1  IDiag  1:
 E= -233.748452022654     Delta-E=       -0.000000000029 Rises=F Damp=F
 DIIS: error= 6.85D-08 at cycle  11 NSaved=  11.
 NSaved=11 IEnMin=11 EnMin= -233.748452022654     IErMin=11 ErrMin= 6.85D-08
 ErrMax= 6.85D-08  0.00D+00 EMaxC= 1.00D-01 BMatC= 9.61D-13 BMatP= 2.80D-11
 IDIUse=1 WtCom= 1.00D+00 WtEn= 0.00D+00
 Coeff-Com: -0.716D-06 0.108D-05-0.776D-05-0.133D-04-0.111D-03-0.219D-03
 Coeff-Com: -0.165D-02 0.273D-02 0.805D-01 0.212D+00 0.707D+00
 Coeff:     -0.716D-06 0.108D-05-0.776D-05-0.133D-04-0.111D-03-0.219D-03
 Coeff:     -0.165D-02 0.273D-02 0.805D-01 0.212D+00 0.707D+00
 Gap=     0.277 Goal=   None    Shift=    0.000
 RMSDP=1.32D-08 MaxDP=2.73D-07 DE=-2.85D-11 OVMax= 2.19D-07

 Cycle  12  Pass 1  IDiag  1:
 E= -233.748452022654     Delta-E=        0.000000000000 Rises=F Damp=F
 DIIS: error= 9.05D-09 at cycle  12 NSaved=  12.
 NSaved=12 IEnMin=11 EnMin= -233.748452022654     IErMin=12 ErrMin= 9.05D-09
 ErrMax= 9.05D-09  0.00D+00 EMaxC= 1.00D-01 BMatC= 1.81D-14 BMatP= 9.61D-13
 IDIUse=1 WtCom= 1.00D+00 WtEn= 0.00D+00
 Coeff-Com: -0.188D-06 0.370D-06-0.860D-06-0.152D-05-0.181D-04-0.494D-04
 Coeff-Com: -0.464D-03-0.928D-03 0.588D-02 0.284D-01 0.167D+00 0.800D+00
 Coeff:     -0.188D-06 0.370D-06-0.860D-06-0.152D-05-0.181D-04-0.494D-04
 Coeff:     -0.464D-03-0.928D-03 0.588D-02 0.284D-01 0.167D+00 0.800D+00
 Gap=     0.277 Goal=   None    Shift=    0.000
 RMSDP=2.42D-09 MaxDP=6.14D-08 DE= 3.41D-13 OVMax= 3.60D-08

 SCF Done:  E(RB3LYP) =  -233.748452023     A.U. after   12 cycles
            NFock= 12  Conv=0.24D-08     -V/T= 2.0043
 KE= 2.327457476165D+02 PE=-9.322653897013D+02 EE= 2.719617672080D+02
 Leave Link  502 at Fri Feb 15 20:14:00 2019, MaxMem=   196608000 cpu:       130.3
 (Enter /cm/shared/c3ddb/gaussian/09.d01/g09/l508.exe)
 QCSCF skips out because SCF is already converged.
 Leave Link  508 at Fri Feb 15 20:14:00 2019, MaxMem=   196608000 cpu:         0.0
 (Enter /cm/shared/c3ddb/gaussian/09.d01/g09/l801.exe)
 DoSCS=F DFT=T ScalE2(SS,OS)=  1.000000  1.000000
 Range of M.O.s used for correlation:     1   170
 NBasis=   170 NAE=    21 NBE=    21 NFC=     0 NFV=     0
 NROrb=    170 NOA=    21 NOB=    21 NVA=   149 NVB=   149

 **** Warning!!: The largest alpha MO coefficient is  0.49267591D+02

 Leave Link  801 at Fri Feb 15 20:14:00 2019, MaxMem=   196608000 cpu:         0.1
 (Enter /cm/shared/c3ddb/gaussian/09.d01/g09/l1101.exe)
 Using compressed storage, NAtomX=    15.
 Will process     16 centers per pass.
 Leave Link 1101 at Fri Feb 15 20:14:02 2019, MaxMem=   196608000 cpu:         8.2
 (Enter /cm/shared/c3ddb/gaussian/09.d01/g09/l1102.exe)
 Symmetrizing basis deriv contribution to polar:
 IMax=3 JMax=2 DiffMx= 0.00D+00
 Leave Link 1102 at Fri Feb 15 20:14:02 2019, MaxMem=   196608000 cpu:         1.0
 (Enter /cm/shared/c3ddb/gaussian/09.d01/g09/l1110.exe)
 Forming Gx(P) for the SCF density, NAtomX=    15.
 Integral derivatives from FoFJK, PRISM(SPDF).
 Do as many integral derivatives as possible in FoFJK.
 G2DrvN: MDV=     196607776.
 G2DrvN: will do    16 centers at a time, making    1 passes.
 Calling FoFCou, ICntrl=  3107 FMM=F I1Cent=   0 AccDes= 0.00D+00.
 FoFJK:  IHMeth= 1 ICntrl=    3107 DoSepK=F KAlg= 0 I1Cent=   0 FoldK=F
 IRaf=         0 NMat=   1 IRICut=       1 DoRegI=T DoRafI=F ISym2E= 0.
 FoFCou: FMM=F IPFlag=           0 FMFlag=      100000 FMFlg1=           0
         NFxFlg=           0 DoJE=F BraDBF=F KetDBF=F FulRan=T
         wScrn=  0.000000 ICntrl=    3107 IOpCl=  0 I1Cent=           0 NGrid=           0
         NMat0=    1 NMatS0=      1 NMatT0=    0 NMatD0=    1 NMtDS0=    0 NMtDT0=    0
 Symmetry not used in FoFCou.
 End of G2Drv F.D. properties file   721 does not exist.
 End of G2Drv F.D. properties file   722 does not exist.
 End of G2Drv F.D. properties file   788 does not exist.
 Leave Link 1110 at Fri Feb 15 20:14:44 2019, MaxMem=   196608000 cpu:       253.2
 (Enter /cm/shared/c3ddb/gaussian/09.d01/g09/l1002.exe)
 Minotr:  Closed shell wavefunction.
          IDoAtm=111111111111111
          Direct CPHF calculation.
          Differentiating once with respect to nuclear coordinates.
          Requested convergence is 1.0D-08 RMS, and 1.0D-07 maximum.
          Secondary convergence is 1.0D-12 RMS, and 1.0D-12 maximum.
          NewPWx=T KeepS1=F KeepF1=F KeepIn=T MapXYZ=F SortEE=F KeepMc=T.
          MDV=     196607676 using IRadAn=       2.
 Generate precomputed XC quadrature information.
 Keep R1 ints in memory in canonical form, NReq=108371193.
 FoFCou: FMM=F IPFlag=           0 FMFlag=           0 FMFlg1=           0
         NFxFlg=           0 DoJE=F BraDBF=F KetDBF=F FulRan=T
         wScrn=  0.000000 ICntrl=     600 IOpCl=  0 I1Cent=           0 NGrid=           0
         NMat0=    1 NMatS0=  14535 NMatT0=    0 NMatD0=    1 NMtDS0=    0 NMtDT0=    0
 Symmetry not used in FoFCou.
          Solving linear equations simultaneously, MaxMat=       0.
          There are    48 degrees of freedom in the 1st order CPHF.  IDoFFX=6 NUNeed=     0.
     42 vectors produced by pass  0 Test12= 6.52D-15 2.08D-09 XBig12= 8.45D-02 4.91D-02.
 AX will form    42 AO Fock derivatives at one time.
     42 vectors produced by pass  1 Test12= 6.52D-15 2.08D-09 XBig12= 8.59D-03 2.08D-02.
     42 vectors produced by pass  2 Test12= 6.52D-15 2.08D-09 XBig12= 1.10D-04 1.66D-03.
     42 vectors produced by pass  3 Test12= 6.52D-15 2.08D-09 XBig12= 2.89D-07 5.43D-05.
     42 vectors produced by pass  4 Test12= 6.52D-15 2.08D-09 XBig12= 3.74D-10 2.17D-06.
     23 vectors produced by pass  5 Test12= 6.52D-15 2.08D-09 XBig12= 3.84D-13 9.90D-08.
     10 vectors produced by pass  6 Test12= 6.52D-15 2.08D-09 XBig12= 8.14D-15 1.81D-08.
 InvSVY:  IOpt=1 It=  1 EMax= 1.78D-15
 Solved reduced A of dimension   243 with    42 vectors.
 End of Minotr F.D. properties file   721 does not exist.
 End of Minotr F.D. properties file   722 does not exist.
 End of Minotr F.D. properties file   788 does not exist.
 Leave Link 1002 at Fri Feb 15 20:16:02 2019, MaxMem=   196608000 cpu:       308.3
 (Enter /cm/shared/c3ddb/gaussian/09.d01/g09/l601.exe)
 Copying SCF densities to generalized density rwf, IOpCl= 0 IROHF=0.

 **********************************************************************

            Population analysis using the SCF density.

 **********************************************************************

 Orbital symmetries:
       Occupied  (A) (A) (A) (A) (A) (A) (A) (A) (A) (A) (A) (A)
                 (A) (A) (A) (A) (A) (A) (A) (A) (A)
       Virtual   (A) (A) (A) (A) (A) (A) (A) (A) (A) (A) (A) (A)
                 (A) (A) (A) (A) (A) (A) (A) (A) (A) (A) (A) (A)
                 (A) (A) (A) (A) (A) (A) (A) (A) (A) (A) (A) (A)
                 (A) (A) (A) (A) (A) (A) (A) (A) (A) (A) (A) (A)
                 (A) (A) (A) (A) (A) (A) (A) (A) (A) (A) (A) (A)
                 (A) (A) (A) (A) (A) (A) (A) (A) (A) (A) (A) (A)
                 (A) (A) (A) (A) (A) (A) (A) (A) (A) (A) (A) (A)
                 (A) (A) (A) (A) (A) (A) (A) (A) (A) (A) (A) (A)
                 (A) (A) (A) (A) (A) (A) (A) (A) (A) (A) (A) (A)
                 (A) (A) (A) (A) (A) (A) (A) (A) (A) (A) (A) (A)
                 (A) (A) (A) (A) (A) (A) (A) (A) (A) (A) (A) (A)
                 (A) (A) (A) (A) (A) (A) (A) (A) (A) (A) (A) (A)
                 (A) (A) (A) (A) (A)
 The electronic state is 1-A.
 Alpha  occ. eigenvalues --  -19.12154 -10.22165 -10.16380 -10.16379 -10.15164
 Alpha  occ. eigenvalues --   -1.02827  -0.79073  -0.72949  -0.64046  -0.58122
 Alpha  occ. eigenvalues --   -0.52371  -0.45300  -0.44079  -0.42482  -0.40906
 Alpha  occ. eigenvalues --   -0.38312  -0.35877  -0.35293  -0.34053  -0.32068
 Alpha  occ. eigenvalues --   -0.27881
 Alpha virt. eigenvalues --   -0.00195   0.02082   0.02498   0.03300   0.04706
 Alpha virt. eigenvalues --    0.06127   0.06385   0.06772   0.07845   0.08342
 Alpha virt. eigenvalues --    0.09642   0.10382   0.11414   0.13869   0.14475
 Alpha virt. eigenvalues --    0.15024   0.17723   0.17863   0.18106   0.18785
 Alpha virt. eigenvalues --    0.19164   0.20905   0.21439   0.22471   0.24063
 Alpha virt. eigenvalues --    0.24632   0.25350   0.26684   0.26965   0.28015
 Alpha virt. eigenvalues --    0.28506   0.30981   0.33606   0.34745   0.40865
 Alpha virt. eigenvalues --    0.41389   0.41879   0.44355   0.47393   0.50834
 Alpha virt. eigenvalues --    0.53527   0.54436   0.55085   0.56561   0.61275
 Alpha virt. eigenvalues --    0.62651   0.63301   0.64047   0.65370   0.66436
 Alpha virt. eigenvalues --    0.67715   0.68692   0.70055   0.71999   0.73192
 Alpha virt. eigenvalues --    0.75294   0.82948   0.91591   0.92879   0.96809
 Alpha virt. eigenvalues --    1.01193   1.04805   1.10260   1.11695   1.15043
 Alpha virt. eigenvalues --    1.20838   1.25550   1.31955   1.33266   1.37592
 Alpha virt. eigenvalues --    1.40787   1.45302   1.46793   1.48236   1.52073
 Alpha virt. eigenvalues --    1.54233   1.55070   1.56008   1.56372   1.58265
 Alpha virt. eigenvalues --    1.59374   1.61416   1.64733   1.65512   1.69883
 Alpha virt. eigenvalues --    1.72169   1.74265   1.77711   1.79148   1.82012
 Alpha virt. eigenvalues --    1.86534   1.92937   1.94828   1.99342   2.03914
 Alpha virt. eigenvalues --    2.05691   2.07516   2.13924   2.17181   2.18518
 Alpha virt. eigenvalues --    2.22822   2.28319   2.34380   2.36687   2.38290
 Alpha virt. eigenvalues --    2.43969   2.46226   2.50361   2.52243   2.53604
 Alpha virt. eigenvalues --    2.55757   2.56171   2.58241   2.60032   2.62925
 Alpha virt. eigenvalues --    2.63670   2.65771   2.66591   2.72718   2.72829
 Alpha virt. eigenvalues --    2.77693   2.82838   2.91115   2.91933   2.97643
 Alpha virt. eigenvalues --    3.00167   3.14855   3.19556   3.26622   3.32685
 Alpha virt. eigenvalues --    3.43954   3.77788   3.79996   3.81147   3.81789
 Alpha virt. eigenvalues --    3.84967   3.89452   3.93910   4.11651   4.21638
 Alpha virt. eigenvalues --    4.36368   5.06172   5.40474   5.67549  23.77816
 Alpha virt. eigenvalues --   23.89021  23.94952  23.98694  49.92351
          Condensed to atoms (all electrons):
               1          2          3          4          5          6
     1  O    8.113813   0.256589  -0.158423  -0.073325   0.000467  -0.058250
     2  C    0.256589   5.272270   0.103385   0.082227   0.087517   0.431785
     3  C   -0.158423   0.103385   5.443656   0.072738   0.013263  -0.099111
     4  C   -0.073325   0.082227   0.072738   5.392964  -0.101813  -0.040388
     5  C    0.000467   0.087517   0.013263  -0.101813   5.355735   0.008343
     6  H   -0.058250   0.431785  -0.099111  -0.040388   0.008343   0.635961
     7  H   -0.009894  -0.046497   0.447162  -0.012331  -0.050986   0.009418
     8  H    0.013490  -0.062566   0.417806   0.003777  -0.034490  -0.004715
     9  H   -0.001789  -0.033631  -0.003061   0.005880   0.391661   0.005168
    10  H    0.005034  -0.023082  -0.042757  -0.001018   0.440043   0.000274
    11  H   -0.000245   0.027447  -0.058295  -0.000203   0.406572  -0.000260
    12  H   -0.013415  -0.042200   0.019037   0.399974   0.000568  -0.009870
    13  H   -0.007578  -0.003679  -0.035534   0.404836   0.003504   0.008011
    14  H    0.012339  -0.064538   0.003124   0.418080  -0.000444  -0.003424
    15  H    0.211847  -0.012966   0.028175   0.008057  -0.008587  -0.009667
               7          8          9         10         11         12
     1  O   -0.009894   0.013490  -0.001789   0.005034  -0.000245  -0.013415
     2  C   -0.046497  -0.062566  -0.033631  -0.023082   0.027447  -0.042200
     3  C    0.447162   0.417806  -0.003061  -0.042757  -0.058295   0.019037
     4  C   -0.012331   0.003777   0.005880  -0.001018  -0.000203   0.399974
     5  C   -0.050986  -0.034490   0.391661   0.440043   0.406572   0.000568
     6  H    0.009418  -0.004715   0.005168   0.000274  -0.000260  -0.009870
     7  H    0.545558  -0.035059   0.007871  -0.005755  -0.005676  -0.000284
     8  H   -0.035059   0.575975  -0.008319   0.007427  -0.006021   0.000183
     9  H    0.007871  -0.008319   0.570407  -0.030996  -0.028068  -0.000017
    10  H   -0.005755   0.007427  -0.030996   0.518833  -0.026312  -0.000010
    11  H   -0.005676  -0.006021  -0.028068  -0.026312   0.557411   0.000020
    12  H   -0.000284   0.000183  -0.000017  -0.000010   0.000020   0.569572
    13  H    0.004708  -0.000303   0.000017  -0.000006  -0.000029  -0.029092
    14  H   -0.000217   0.000502   0.000000   0.000009  -0.000038  -0.026029
    15  H   -0.000139  -0.000790   0.000127  -0.001063   0.000074   0.006724
              13         14         15
     1  O   -0.007578   0.012339   0.211847
     2  C   -0.003679  -0.064538  -0.012966
     3  C   -0.035534   0.003124   0.028175
     4  C    0.404836   0.418080   0.008057
     5  C    0.003504  -0.000444  -0.008587
     6  H    0.008011  -0.003424  -0.009667
     7  H    0.004708  -0.000217  -0.000139
     8  H   -0.000303   0.000502  -0.000790
     9  H    0.000017   0.000000   0.000127
    10  H   -0.000006   0.000009  -0.001063
    11  H   -0.000029  -0.000038   0.000074
    12  H   -0.029092  -0.026029   0.006724
    13  H    0.532771  -0.030034  -0.001442
    14  H   -0.030034   0.553021   0.000241
    15  H   -0.001442   0.000241   0.540516
 Mulliken charges:
               1
     1  O   -0.290660
     2  C    0.027939
     3  C   -0.151164
     4  C   -0.559455
     5  C   -0.511354
     6  H    0.126727
     7  H    0.152119
     8  H    0.133101
     9  H    0.124750
    10  H    0.159378
    11  H    0.133623
    12  H    0.124839
    13  H    0.153852
    14  H    0.137409
    15  H    0.238895
 Sum of Mulliken charges =   0.00000
 Mulliken charges with hydrogens summed into heavy atoms:
               1
     1  O   -0.051764
     2  C    0.154665
     3  C    0.134056
     4  C   -0.143355
     5  C   -0.093603
 APT charges:
               1
     1  O   -0.706411
     2  C   -0.262511
     3  C   -0.576450
     4  C   -1.135996
     5  C   -1.161406
     6  H    0.312375
     7  H    0.314539
     8  H    0.363145
     9  H    0.321682
    10  H    0.293733
    11  H    0.503323
    12  H    0.429153
    13  H    0.326044
    14  H    0.365848
    15  H    0.612933
 Sum of APT charges =   0.00000
 APT charges with hydrogens summed into heavy atoms:
               1
     1  O   -0.093478
     2  C    0.049864
     3  C    0.101233
     4  C   -0.014952
     5  C   -0.042667
 Electronic spatial extent (au):  <R**2>=            521.6523
 Charge=              0.0000 electrons
 Dipole moment (field-independent basis, Debye):
    X=              1.1096    Y=             -0.6665    Z=              1.0250  Tot=              1.6510
 Quadrupole moment (field-independent basis, Debye-Ang):
   XX=            -32.2844   YY=            -33.6924   ZZ=            -34.0042
   XY=              2.3569   XZ=              1.1450   YZ=              1.5670
 Traceless Quadrupole moment (field-independent basis, Debye-Ang):
   XX=              1.0426   YY=             -0.3654   ZZ=             -0.6772
   XY=              2.3569   XZ=              1.1450   YZ=              1.5670
 Octapole moment (field-independent basis, Debye-Ang**2):
  XXX=              6.2244  YYY=              7.8765  ZZZ=             -0.3383  XYY=              5.9305
  XXY=              6.2282  XXZ=              0.1436  XZZ=              0.6592  YZZ=              1.0352
  YYZ=              2.8482  XYZ=              1.5101
 Hexadecapole moment (field-independent basis, Debye-Ang**3):
 XXXX=           -466.3594 YYYY=           -167.5817 ZZZZ=            -75.6250 XXXY=             15.0652
 XXXZ=              5.5329 YYYX=             14.7955 YYYZ=              0.6144 ZZZX=             -1.3203
 ZZZY=              1.3414 XXYY=            -98.8784 XXZZ=            -90.0191 YYZZ=            -44.6372
 XXYZ=              2.1705 YYXZ=              3.7030 ZZXY=              1.1076
 N-N= 1.938094228541D+02 E-N=-9.322653892599D+02  KE= 2.327457476165D+02
  Exact polarizability:   0.000   0.000   0.000   0.000   0.000   0.000
 Approx polarizability:  71.661   0.875  73.350   0.584  -0.708  72.027
 No NMR shielding tensors so no spin-rotation constants.
 Leave Link  601 at Fri Feb 15 20:16:03 2019, MaxMem=   196608000 cpu:         4.9
 (Enter /cm/shared/c3ddb/gaussian/09.d01/g09/l701.exe)
 Compute integral second derivatives.
 ... and contract with generalized density number  0.
 Leave Link  701 at Fri Feb 15 20:16:05 2019, MaxMem=   196608000 cpu:         6.5
 (Enter /cm/shared/c3ddb/gaussian/09.d01/g09/l702.exe)
 L702 exits ... SP integral derivatives will be done elsewhere.
 Leave Link  702 at Fri Feb 15 20:16:05 2019, MaxMem=   196608000 cpu:         0.2
 (Enter /cm/shared/c3ddb/gaussian/09.d01/g09/l703.exe)
 Compute integral second derivatives, UseDBF=F ICtDFT=           0.
 Integral derivatives from FoFJK, PRISM(SPDF).
 Calling FoFJK, ICntrl=    100147 FMM=F ISym2X=0 I1Cent= 0 IOpClX= 0 NMat=1 NMatS=1 NMatT=0.
 FoFJK:  IHMeth= 1 ICntrl=  100147 DoSepK=F KAlg= 0 I1Cent=   0 FoldK=F
 IRaf=         0 NMat=   1 IRICut=       1 DoRegI=T DoRafI=F ISym2E= 0.
 FoFCou: FMM=F IPFlag=           0 FMFlag=      100000 FMFlg1=         800
         NFxFlg=           0 DoJE=F BraDBF=F KetDBF=F FulRan=T
         wScrn=  0.000000 ICntrl=  100147 IOpCl=  0 I1Cent=           0 NGrid=           0
         NMat0=    1 NMatS0=      1 NMatT0=    0 NMatD0=    1 NMtDS0=    0 NMtDT0=    0
 Symmetry not used in FoFCou.
 Leave Link  703 at Fri Feb 15 20:17:28 2019, MaxMem=   196608000 cpu:       333.0
 (Enter /cm/shared/c3ddb/gaussian/09.d01/g09/l716.exe)
 Dipole        = 4.36535986D-01-2.62206381D-01 4.03262517D-01
 Polarizability= 0.00000000D+00 0.00000000D+00 0.00000000D+00
                 0.00000000D+00 0.00000000D+00 0.00000000D+00
 ***** Axes restored to original set *****
 -------------------------------------------------------------------
 Center     Atomic                   Forces (Hartrees/Bohr)
 Number     Number              X              Y              Z
 -------------------------------------------------------------------
      1        8           0.002794685   -0.004092836   -0.003565315
      2        6          -0.000123509    0.004088393    0.002719009
      3        6           0.000284100    0.001696894   -0.000748787
      4        6          -0.001728516    0.000979595   -0.000083991
      5        6           0.001977313   -0.000877532    0.000166143
      6        1          -0.000129801    0.000097335    0.000345018
      7        1           0.000143244    0.000190271   -0.000197794
      8        1           0.000109316    0.000228214   -0.000164908
      9        1           0.000410018   -0.000136142    0.000151325
     10        1           0.000415788    0.000001405    0.000068100
     11        1           0.000462236    0.000018380    0.000003157
     12        1          -0.000411711    0.000013768    0.000005036
     13        1          -0.000366861    0.000106167   -0.000013255
     14        1          -0.000384941    0.000352746   -0.000036094
     15        1          -0.003451360   -0.002666657    0.001352357
 -------------------------------------------------------------------
 Cartesian Forces:  Max     0.004092836 RMS     0.001460243
 FormGI is forming the generalized inverse of G from B-inverse, IUseBI=4.
 Leave Link  716 at Fri Feb 15 20:17:29 2019, MaxMem=   196608000 cpu:         1.4
 (Enter /cm/shared/c3ddb/gaussian/09.d01/g09/l103.exe)

 GradGradGradGradGradGradGradGradGradGradGradGradGradGradGradGradGradGrad
 Berny optimization.
 Red2BG is reusing G-inverse.
 Internal  Forces:  Max     0.007106416 RMS     0.001295250
 Search for a local minimum.
 Step number   1 out of a maximum of   79 on scan point     1 out of    46
 All quantities printed in internal units (Hartrees-Bohrs-Radians)
 RMS Force = .13047D-02 SwitMx=.10000D-02 MixMth= 1
 Mixed Optimization -- RFO/linear search
 Second derivative matrix not updated -- analytic derivatives used.
 ITU=  0
     Eigenvalues ---    0.00238   0.00266   0.00371   0.01417   0.03831
     Eigenvalues ---    0.03908   0.04135   0.04477   0.04495   0.04608
     Eigenvalues ---    0.05760   0.06759   0.07217   0.10163   0.12193
     Eigenvalues ---    0.12268   0.12855   0.13895   0.14054   0.15604
     Eigenvalues ---    0.15914   0.18054   0.19988   0.21567   0.28486
     Eigenvalues ---    0.29074   0.30437   0.31376   0.32472   0.32990
     Eigenvalues ---    0.33037   0.33325   0.33375   0.33666   0.34003
     Eigenvalues ---    0.34418   0.37055   0.546161000.000001000.00000
     Eigenvalues --- 1000.000001000.000001000.000001000.000001000.00000
     Eigenvalues --- 1000.000001000.000001000.000001000.000001000.00000
     Eigenvalues --- 1000.000001000.000001000.000001000.000001000.00000
     Eigenvalues --- 1000.000001000.000001000.000001000.000001000.00000
     Eigenvalues --- 1000.000001000.000001000.000001000.000001000.00000
     Eigenvalues --- 1000.000001000.000001000.000001000.00000
 RFO step:  Lambda=-3.27785591D-04 EMin= 2.37749150D-03
 Linear search not attempted -- first point.
 Iteration  1 RMS(Cart)=  0.01026646 RMS(Int)=  0.00003215
 Iteration  2 RMS(Cart)=  0.00002728 RMS(Int)=  0.00000428
 Iteration  3 RMS(Cart)=  0.00000000 RMS(Int)=  0.00000428
 Iteration  1 RMS(Cart)=  0.00000050 RMS(Int)=  0.00000053
 ITry= 1 IFail=0 DXMaxC= 3.34D-02 DCOld= 1.00D+10 DXMaxT= 3.00D-01 DXLimC= 3.00D+00 Rises=F
 Variable       Old X    -DE/DX   Delta X   Delta X   Delta X     New X
                                 (Linear)    (Quad)   (Total)
    R1        2.69284   0.00711   0.00000   0.02166   0.02166   2.71450
    R2        1.80978   0.00453   0.00000   0.00834   0.00834   1.81812
    R3        2.87655   0.00385   0.00000   0.00924   0.00924   2.88580
    R4        2.87832   0.00319   0.00000   0.00823   0.00823   2.88655
    R5        2.08151   0.00032   0.00000  -0.00046  -0.00046   2.08105
    R6        2.88197   0.00334   0.00000   0.01019   0.01019   2.89216
    R7        2.07108   0.00019   0.00000   0.00033   0.00033   2.07141
    R8        2.07021   0.00017   0.00000   0.00049   0.00049   2.07070
    R9        2.06868   0.00032   0.00000   0.00079   0.00079   2.06947
   R10        2.06645   0.00007   0.00000   0.00008   0.00008   2.06653
   R11        2.06651   0.00030   0.00000   0.00090   0.00090   2.06741
   R12        2.06877   0.00020   0.00000   0.00045   0.00045   2.06922
   R13        2.06256  -0.00002   0.00000  -0.00019  -0.00019   2.06237
   R14        2.06516   0.00037   0.00000   0.00112   0.00112   2.06627
    A1        1.89814   0.00107   0.00000  -0.00005  -0.00005   1.89808
    A2        1.86483   0.00007   0.00000  -0.00090  -0.00089   1.86394
    A3        1.93886  -0.00025   0.00000  -0.00190  -0.00190   1.93696
    A4        1.90385   0.00006   0.00000  -0.00360  -0.00360   1.90024
    A5        1.95953   0.00067   0.00000   0.00545   0.00544   1.96498
    A6        1.89175  -0.00023   0.00000   0.00189   0.00189   1.89364
    A7        1.90365  -0.00032   0.00000  -0.00108  -0.00109   1.90256
    A8        1.97729   0.00164   0.00000   0.00740   0.00740   1.98468
    A9        1.88385  -0.00036   0.00000   0.00082   0.00083   1.88468
   A10        1.88797  -0.00043   0.00000  -0.00120  -0.00120   1.88677
   A11        1.92312  -0.00057   0.00000  -0.00329  -0.00330   1.91982
   A12        1.92119  -0.00050   0.00000  -0.00208  -0.00209   1.91911
   A13        1.86661   0.00014   0.00000  -0.00209  -0.00210   1.86451
   A14        1.93954   0.00016   0.00000  -0.00085  -0.00085   1.93869
   A15        1.92456   0.00037   0.00000   0.00292   0.00292   1.92748
   A16        1.93264   0.00050   0.00000   0.00255   0.00255   1.93518
   A17        1.88947  -0.00035   0.00000  -0.00185  -0.00185   1.88762
   A18        1.87880  -0.00035   0.00000  -0.00154  -0.00154   1.87726
   A19        1.89738  -0.00039   0.00000  -0.00145  -0.00146   1.89593
   A20        1.93616   0.00044   0.00000   0.00337   0.00336   1.93952
   A21        1.93135   0.00045   0.00000   0.00301   0.00301   1.93435
   A22        1.93838   0.00017   0.00000  -0.00238  -0.00238   1.93601
   A23        1.88419  -0.00037   0.00000  -0.00024  -0.00025   1.88394
   A24        1.88102  -0.00038   0.00000  -0.00246  -0.00246   1.87855
   A25        1.89081  -0.00037   0.00000  -0.00148  -0.00148   1.88933
    D1        3.11531  -0.00026   0.00000   0.00986   0.00986   3.12517
    D2       -1.02519   0.00046   0.00000   0.01483   0.01483  -1.01036
    D3        1.07378  -0.00006   0.00000   0.00997   0.00998   1.08376
    D4       -1.08302   0.00008   0.00000   0.00613   0.00613  -1.07689
    D5        1.05137   0.00017   0.00000   0.00739   0.00739   1.05877
    D6        3.06528  -0.00007   0.00000   0.00475   0.00475   3.07003
    D7        3.07044  -0.00007   0.00000   0.00576   0.00576   3.07619
    D8       -1.07836   0.00003   0.00000   0.00701   0.00702  -1.07134
    D9        0.93555  -0.00021   0.00000   0.00438   0.00438   0.93993
   D10        0.96649   0.00007   0.00000   0.00241   0.00240   0.96889
   D11        3.10088   0.00016   0.00000   0.00366   0.00366   3.10455
   D12       -1.16839  -0.00008   0.00000   0.00103   0.00102  -1.16737
   D13        1.03379  -0.00024   0.00000   0.00323   0.00324   1.03703
   D14       -1.06148  -0.00015   0.00000   0.00418   0.00418  -1.05730
   D15        3.12101  -0.00023   0.00000   0.00242   0.00242   3.12343
   D16        3.12083   0.00013   0.00000   0.00446   0.00446   3.12529
   D17        1.02556   0.00022   0.00000   0.00541   0.00541   1.03097
   D18       -1.07514   0.00013   0.00000   0.00365   0.00365  -1.07149
   D19       -1.06530   0.00005   0.00000   0.00959   0.00959  -1.05572
   D20        3.12261   0.00014   0.00000   0.01053   0.01053   3.13314
   D21        1.02191   0.00006   0.00000   0.00878   0.00877   1.03069
   D22       -1.06388  -0.00003   0.00000   0.00000   0.00000  -1.06389
   D23        1.02704   0.00009   0.00000   0.00388   0.00388   1.03092
   D24        3.12774   0.00004   0.00000   0.00244   0.00244   3.13018
   D25        3.10691  -0.00028   0.00000  -0.00377  -0.00377   3.10314
   D26       -1.08535  -0.00017   0.00000   0.00011   0.00012  -1.08524
   D27        1.01535  -0.00021   0.00000  -0.00133  -0.00132   1.01402
   D28        1.05241   0.00019   0.00000   0.00204   0.00204   1.05445
   D29       -3.13986   0.00030   0.00000   0.00592   0.00592  -3.13393
   D30       -1.03916   0.00026   0.00000   0.00449   0.00448  -1.03467
         Item               Value     Threshold  Converged?
 Maximum Force            0.007106     0.000450     NO 
 RMS     Force            0.001305     0.000300     NO 
 Maximum Displacement     0.033431     0.001800     NO 
 RMS     Displacement     0.010265     0.001200     NO 
 Predicted change in Energy=-1.642398D-04
 Lowest energy point so far.  Saving SCF results.
 GradGradGradGradGradGradGradGradGradGradGradGradGradGradGradGradGradGrad

 Leave Link  103 at Fri Feb 15 20:17:45 2019, MaxMem=   196608000 cpu:        59.1
 (Enter /cm/shared/c3ddb/gaussian/09.d01/g09/l202.exe)
                          Input orientation:                          
 ---------------------------------------------------------------------
 Center     Atomic      Atomic             Coordinates (Angstroms)
 Number     Number       Type             X           Y           Z
 ---------------------------------------------------------------------
      1          8           0       -0.506903   -1.351664   -0.230836
      2          6           0       -0.476960   -0.025028    0.319194
      3          6           0        0.756480    0.664820   -0.259392
      4          6           0       -1.769875    0.725910    0.006622
      5          6           0        2.074987   -0.016152    0.114957
      6          1           0       -0.357930   -0.094930    1.411754
      7          1           0        0.646834    0.695692   -1.349603
      8          1           0        0.760183    1.703846    0.088622
      9          1           0        2.221844   -0.022300    1.200031
     10          1           0        2.089681   -1.050734   -0.232157
     11          1           0        2.925144    0.506898   -0.331391
     12          1           0       -2.639004    0.201974    0.418181
     13          1           0       -1.907077    0.816366   -1.074522
     14          1           0       -1.752856    1.729468    0.441908
     15          1           0       -1.267980   -1.818166    0.128029
 ---------------------------------------------------------------------
                    Distance matrix (angstroms):
                    1          2          3          4          5
     1  O    0.000000
     2  C    1.436451   0.000000
     3  C    2.379740   1.527098   0.000000
     4  C    2.442908   1.527494   2.541056   0.000000
     5  C    2.927340   2.560122   1.530464   3.917315   0.000000
     6  H    2.073566   1.101246   2.147524   2.154475   2.758074
     7  H    2.602771   2.137108   1.096145   2.771415   2.165936
     8  H    3.323207   2.138386   1.095765   2.713720   2.165132
     9  H    3.355689   2.838913   2.179298   4.232950   1.094985
    10  H    2.613964   2.818458   2.172854   4.255544   1.091359
    11  H    3.904269   3.504358   2.175598   4.712264   1.093424
    12  H    2.716775   2.176180   3.493228   1.095114   4.728766
    13  H    2.715263   2.166938   2.789613   1.093563   4.238488
    14  H    3.390923   2.172838   2.814616   1.094025   4.219771
    15  H    0.962105   1.969162   3.227035   2.595951   3.797743
                    6          7          8          9         10
     6  H    0.000000
     7  H    3.042980   0.000000
     8  H    2.497289   1.760032   0.000000
     9  H    2.589466   3.081688   2.520171   0.000000
    10  H    3.099485   2.525965   3.075415   1.768137   0.000000
    11  H    3.765545   2.502618   2.509213   1.766334   1.770329
    12  H    2.505721   3.763714   3.730778   4.928431   4.934843
    13  H    3.067879   2.571516   3.042170   4.787999   4.491071
    14  H    2.492960   3.168078   2.537880   4.409272   4.790510
    15  H    2.333599   3.488465   4.064428   4.068562   3.463030
                   11         12         13         14         15
    11  H    0.000000
    12  H    5.622685   0.000000
    13  H    4.898814   1.772387   0.000000
    14  H    4.896566   1.766086   1.776822   0.000000
    15  H    4.816564   2.458630   2.965693   3.594348   0.000000
 Stoichiometry    C4H10O
 Framework group  C1[X(C4H10O)]
 Deg. of freedom    39
 Full point group                 C1      NOp   1
 RotChk:  IX=0 Diff= 8.28D-04
 Largest Abelian subgroup         C1      NOp   1
 Largest concise Abelian subgroup C1      NOp   1
                         Standard orientation:                         
 ---------------------------------------------------------------------
 Center     Atomic      Atomic             Coordinates (Angstroms)
 Number     Number       Type             X           Y           Z
 ---------------------------------------------------------------------
      1          8           0        0.482516    1.363854   -0.211555
      2          6           0        0.479970    0.030033    0.321650
      3          6           0       -0.737721   -0.678458   -0.267668
      4          6           0        1.788982   -0.689295    0.001815
      5          6           0       -2.070920   -0.030398    0.113015
      6          1           0        0.357934    0.083575    1.414803
      7          1           0       -0.625898   -0.693210   -1.357994
      8          1           0       -0.719854   -1.721645    0.067210
      9          1           0       -2.219414   -0.041087    1.197831
     10          1           0       -2.107088    1.007945   -0.221050
     11          1           0       -2.909146   -0.565682   -0.341326
     12          1           0        2.646204   -0.152283    0.421413
     13          1           0        1.929607   -0.763144   -1.080151
     14          1           0        1.792660   -1.698411    0.424382
     15          1           0        1.233006    1.841823    0.154446
 ---------------------------------------------------------------------
 Rotational constants (GHZ):      8.0649494      3.4266289      2.6574260
 Leave Link  202 at Fri Feb 15 20:17:45 2019, MaxMem=   196608000 cpu:         0.5
 (Enter /cm/shared/c3ddb/gaussian/09.d01/g09/l301.exe)
 Standard basis: 6-311+G(d,p) (5D, 7F)
 Ernie: Thresh=  0.10000D-02 Tol=  0.10000D-05 Strict=F.
 There are   175 symmetry adapted cartesian basis functions of A   symmetry.
 There are   170 symmetry adapted basis functions of A   symmetry.
   170 basis functions,   260 primitive gaussians,   175 cartesian basis functions
    21 alpha electrons       21 beta electrons
       nuclear repulsion energy       193.0452281838 Hartrees.
 IExCor=  402 DFT=T Ex+Corr=B3LYP ExCW=0 ScaHFX=  0.200000
 ScaDFX=  0.800000  0.720000  1.000000  0.810000 ScalE2=  1.000000  1.000000
 IRadAn=      0 IRanWt=     -1 IRanGd=            0 ICorTp=0 IEmpDi=  4
 NAtoms=   15 NActive=   15 NUniq=   15 SFac= 1.00D+00 NAtFMM=   60 NAOKFM=F Big=F
 Integral buffers will be    131072 words long.
 Raffenetti 2 integral format.
 Two-electron integral symmetry is turned on.
 Leave Link  301 at Fri Feb 15 20:17:45 2019, MaxMem=   196608000 cpu:         0.4
 (Enter /cm/shared/c3ddb/gaussian/09.d01/g09/l302.exe)
 NPDir=0 NMtPBC=     1 NCelOv=     1 NCel=       1 NClECP=     1 NCelD=      1
         NCelK=      1 NCelE2=     1 NClLst=     1 CellRange=     0.0.
 One-electron integrals computed using PRISM.
 NBasis=   170 RedAO= T EigKep=  2.35D-05  NBF=   170
 NBsUse=   170 1.00D-06 EigRej= -1.00D+00 NBFU=   170
 Precomputing XC quadrature grid using
 IXCGrd= 4 IRadAn=           0 IRanWt=          -1 IRanGd=           0 AccXCQ= 0.00D+00.
 Generated NRdTot=       0 NPtTot=           0 NUsed=           0 NTot=          32
 NSgBfM=   175   175   175   175   175 MxSgAt=    15 MxSgA2=    15.
 Leave Link  302 at Fri Feb 15 20:17:47 2019, MaxMem=   196608000 cpu:         6.8
 (Enter /cm/shared/c3ddb/gaussian/09.d01/g09/l303.exe)
 DipDrv:  MaxL=1.
 Leave Link  303 at Fri Feb 15 20:17:47 2019, MaxMem=   196608000 cpu:         1.4
 (Enter /cm/shared/c3ddb/gaussian/09.d01/g09/l401.exe)
 Initial guess from the checkpoint file:  "check.chk"
 B after Tr=     0.000000    0.000000    0.000000
         Rot=    1.000000   -0.000514   -0.000008    0.000390 Ang=  -0.07 deg.
 Guess basis will be translated and rotated to current coordinates.
 JPrj=2 DoOrth=T DoCkMO=T.
 Generating alternative initial guess.
 ExpMin= 4.38D-02 ExpMax= 8.59D+03 ExpMxC= 1.30D+03 IAcc=2 IRadAn=         4 AccDes= 0.00D+00
 Harris functional with IExCor=  402 and IRadAn=       4 diagonalized for initial guess.
 HarFok:  IExCor=  402 AccDes= 0.00D+00 IRadAn=         4 IDoV= 1 UseB2=F ITyADJ=14
 ICtDFT=  3500011 ScaDFX=  1.000000  1.000000  1.000000  1.000000
 FoFCou: FMM=F IPFlag=           0 FMFlag=      100000 FMFlg1=           0
         NFxFlg=           0 DoJE=T BraDBF=F KetDBF=T FulRan=T
         wScrn=  0.000000 ICntrl=     500 IOpCl=  0 I1Cent=   200000004 NGrid=           0
         NMat0=    1 NMatS0=      1 NMatT0=    0 NMatD0=    1 NMtDS0=    0 NMtDT0=    0
 Petite list used in FoFCou.
 Harris En= -233.820061102485    
 Leave Link  401 at Fri Feb 15 20:17:52 2019, MaxMem=   196608000 cpu:        17.0
 (Enter /cm/shared/c3ddb/gaussian/09.d01/g09/l502.exe)
 Closed shell SCF:
 Using DIIS extrapolation, IDIIS=  1040.
 Integral symmetry usage will be decided dynamically.
 Keep R1 ints in memory in canonical form, NReq=108466717.
 IVT=      100537 IEndB=      100537 NGot=   196608000 MDV=    90867084
 LenX=    90867084 LenY=    90836018
 Requested convergence on RMS density matrix=1.00D-08 within  64 cycles.
 Requested convergence on MAX density matrix=1.00D-06.
 Requested convergence on             energy=1.00D-06.
 No special actions if energy rises.
 FoFCou: FMM=F IPFlag=           0 FMFlag=           0 FMFlg1=           0
         NFxFlg=           0 DoJE=F BraDBF=F KetDBF=F FulRan=T
         wScrn=  0.000000 ICntrl=     600 IOpCl=  0 I1Cent=           0 NGrid=           0
         NMat0=    1 NMatS0=  14535 NMatT0=    0 NMatD0=    1 NMtDS0=    0 NMtDT0=    0
 Symmetry not used in FoFCou.

 Cycle   1  Pass 1  IDiag  1:
 E= -233.748500140141    
 DIIS: error= 4.76D-04 at cycle   1 NSaved=   1.
 NSaved= 1 IEnMin= 1 EnMin= -233.748500140141     IErMin= 1 ErrMin= 4.76D-04
 ErrMax= 4.76D-04  0.00D+00 EMaxC= 1.00D-01 BMatC= 9.63D-05 BMatP= 9.63D-05
 IDIUse=3 WtCom= 9.95D-01 WtEn= 4.76D-03
 Coeff-Com:  0.100D+01
 Coeff-En:   0.100D+01
 Coeff:      0.100D+01
 Gap=     0.505 Goal=   None    Shift=    0.000
 RMSDP=1.51D-04 MaxDP=4.58D-03              OVMax= 3.13D-03

 Cycle   2  Pass 1  IDiag  1:
 E= -233.748612965234     Delta-E=       -0.000112825093 Rises=F Damp=F
 DIIS: error= 1.81D-04 at cycle   2 NSaved=   2.
 NSaved= 2 IEnMin= 2 EnMin= -233.748612965234     IErMin= 2 ErrMin= 1.81D-04
 ErrMax= 1.81D-04  0.00D+00 EMaxC= 1.00D-01 BMatC= 7.27D-06 BMatP= 9.63D-05
 IDIUse=3 WtCom= 9.98D-01 WtEn= 1.81D-03
 Coeff-Com:  0.837D-01 0.916D+00
 Coeff-En:   0.000D+00 0.100D+01
 Coeff:      0.836D-01 0.916D+00
 Gap=     0.277 Goal=   None    Shift=    0.000
 RMSDP=3.97D-05 MaxDP=8.00D-04 DE=-1.13D-04 OVMax= 1.28D-03

 Cycle   3  Pass 1  IDiag  1:
 E= -233.748611106293     Delta-E=        0.000001858941 Rises=F Damp=F
 DIIS: error= 2.35D-04 at cycle   3 NSaved=   3.
 NSaved= 3 IEnMin= 2 EnMin= -233.748612965234     IErMin= 2 ErrMin= 1.81D-04
 ErrMax= 2.35D-04  0.00D+00 EMaxC= 1.00D-01 BMatC= 9.92D-06 BMatP= 7.27D-06
 IDIUse=3 WtCom= 3.95D-01 WtEn= 6.05D-01
 Coeff-Com: -0.246D-01 0.547D+00 0.478D+00
 Coeff-En:   0.000D+00 0.562D+00 0.438D+00
 Coeff:     -0.971D-02 0.556D+00 0.454D+00
 Gap=     0.277 Goal=   None    Shift=    0.000
 RMSDP=2.66D-05 MaxDP=5.74D-04 DE= 1.86D-06 OVMax= 7.35D-04

 Cycle   4  Pass 1  IDiag  1:
 E= -233.748618933985     Delta-E=       -0.000007827692 Rises=F Damp=F
 DIIS: error= 3.38D-05 at cycle   4 NSaved=   4.
 NSaved= 4 IEnMin= 4 EnMin= -233.748618933985     IErMin= 4 ErrMin= 3.38D-05
 ErrMax= 3.38D-05  0.00D+00 EMaxC= 1.00D-01 BMatC= 1.34D-07 BMatP= 7.27D-06
 IDIUse=1 WtCom= 1.00D+00 WtEn= 0.00D+00
 Coeff-Com: -0.125D-01 0.194D+00 0.194D+00 0.624D+00
 Coeff:     -0.125D-01 0.194D+00 0.194D+00 0.624D+00
 Gap=     0.277 Goal=   None    Shift=    0.000
 RMSDP=4.20D-06 MaxDP=1.55D-04 DE=-7.83D-06 OVMax= 8.40D-05

 Cycle   5  Pass 1  IDiag  1:
 E= -233.748619007187     Delta-E=       -0.000000073202 Rises=F Damp=F
 DIIS: error= 1.35D-05 at cycle   5 NSaved=   5.
 NSaved= 5 IEnMin= 5 EnMin= -233.748619007187     IErMin= 5 ErrMin= 1.35D-05
 ErrMax= 1.35D-05  0.00D+00 EMaxC= 1.00D-01 BMatC= 3.26D-08 BMatP= 1.34D-07
 IDIUse=1 WtCom= 1.00D+00 WtEn= 0.00D+00
 Coeff-Com: -0.338D-02 0.380D-01 0.502D-01 0.348D+00 0.567D+00
 Coeff:     -0.338D-02 0.380D-01 0.502D-01 0.348D+00 0.567D+00
 Gap=     0.277 Goal=   None    Shift=    0.000
 RMSDP=1.40D-06 MaxDP=4.45D-05 DE=-7.32D-08 OVMax= 3.42D-05

 Cycle   6  Pass 1  IDiag  1:
 E= -233.748619034701     Delta-E=       -0.000000027513 Rises=F Damp=F
 DIIS: error= 1.17D-06 at cycle   6 NSaved=   6.
 NSaved= 6 IEnMin= 6 EnMin= -233.748619034701     IErMin= 6 ErrMin= 1.17D-06
 ErrMax= 1.17D-06  0.00D+00 EMaxC= 1.00D-01 BMatC= 3.76D-10 BMatP= 3.26D-08
 IDIUse=1 WtCom= 1.00D+00 WtEn= 0.00D+00
 Coeff-Com: -0.105D-03-0.397D-02-0.857D-03 0.463D-01 0.142D+00 0.816D+00
 Coeff:     -0.105D-03-0.397D-02-0.857D-03 0.463D-01 0.142D+00 0.816D+00
 Gap=     0.277 Goal=   None    Shift=    0.000
 RMSDP=2.19D-07 MaxDP=3.73D-06 DE=-2.75D-08 OVMax= 5.22D-06

 Cycle   7  Pass 1  IDiag  1:
 E= -233.748619035008     Delta-E=       -0.000000000307 Rises=F Damp=F
 DIIS: error= 4.23D-07 at cycle   7 NSaved=   7.
 NSaved= 7 IEnMin= 7 EnMin= -233.748619035008     IErMin= 7 ErrMin= 4.23D-07
 ErrMax= 4.23D-07  0.00D+00 EMaxC= 1.00D-01 BMatC= 3.35D-11 BMatP= 3.76D-10
 IDIUse=1 WtCom= 1.00D+00 WtEn= 0.00D+00
 Coeff-Com:  0.606D-04-0.299D-02-0.218D-02 0.861D-02 0.430D-01 0.341D+00
 Coeff-Com:  0.612D+00
 Coeff:      0.606D-04-0.299D-02-0.218D-02 0.861D-02 0.430D-01 0.341D+00
 Coeff:      0.612D+00
 Gap=     0.277 Goal=   None    Shift=    0.000
 RMSDP=5.58D-08 MaxDP=1.13D-06 DE=-3.07D-10 OVMax= 1.59D-06

 Cycle   8  Pass 1  IDiag  1:
 E= -233.748619035039     Delta-E=       -0.000000000031 Rises=F Damp=F
 DIIS: error= 8.17D-08 at cycle   8 NSaved=   8.
 NSaved= 8 IEnMin= 8 EnMin= -233.748619035039     IErMin= 8 ErrMin= 8.17D-08
 ErrMax= 8.17D-08  0.00D+00 EMaxC= 1.00D-01 BMatC= 2.16D-12 BMatP= 3.35D-11
 IDIUse=1 WtCom= 1.00D+00 WtEn= 0.00D+00
 Coeff-Com:  0.273D-04-0.763D-03-0.736D-03 0.428D-03 0.628D-02 0.664D-01
 Coeff-Com:  0.234D+00 0.694D+00
 Coeff:      0.273D-04-0.763D-03-0.736D-03 0.428D-03 0.628D-02 0.664D-01
 Coeff:      0.234D+00 0.694D+00
 Gap=     0.277 Goal=   None    Shift=    0.000
 RMSDP=1.58D-08 MaxDP=6.43D-07 DE=-3.12D-11 OVMax= 4.61D-07

 Cycle   9  Pass 1  IDiag  1:
 E= -233.748619035039     Delta-E=        0.000000000000 Rises=F Damp=F
 DIIS: error= 2.58D-08 at cycle   9 NSaved=   9.
 NSaved= 9 IEnMin= 9 EnMin= -233.748619035039     IErMin= 9 ErrMin= 2.58D-08
 ErrMax= 2.58D-08  0.00D+00 EMaxC= 1.00D-01 BMatC= 1.84D-13 BMatP= 2.16D-12
 IDIUse=1 WtCom= 1.00D+00 WtEn= 0.00D+00
 Coeff-Com:  0.562D-05-0.448D-04-0.109D-03-0.487D-03-0.112D-02-0.268D-02
 Coeff-Com:  0.414D-01 0.283D+00 0.680D+00
 Coeff:      0.562D-05-0.448D-04-0.109D-03-0.487D-03-0.112D-02-0.268D-02
 Coeff:      0.414D-01 0.283D+00 0.680D+00
 Gap=     0.277 Goal=   None    Shift=    0.000
 RMSDP=5.78D-09 MaxDP=1.66D-07 DE=-2.27D-13 OVMax= 1.07D-07

 SCF Done:  E(RB3LYP) =  -233.748619035     A.U. after    9 cycles
            NFock=  9  Conv=0.58D-08     -V/T= 2.0046
 KE= 2.326879296981D+02 PE=-9.307040073912D+02 EE= 2.712222304742D+02
 Leave Link  502 at Fri Feb 15 20:18:26 2019, MaxMem=   196608000 cpu:       128.9
 (Enter /cm/shared/c3ddb/gaussian/09.d01/g09/l508.exe)
 QCSCF skips out because SCF is already converged.
 Leave Link  508 at Fri Feb 15 20:18:26 2019, MaxMem=   196608000 cpu:         0.0
 (Enter /cm/shared/c3ddb/gaussian/09.d01/g09/l701.exe)
 Compute integral first derivatives.
 ... and contract with generalized density number  0.
 Leave Link  701 at Fri Feb 15 20:18:28 2019, MaxMem=   196608000 cpu:         5.6
 (Enter /cm/shared/c3ddb/gaussian/09.d01/g09/l702.exe)
 L702 exits ... SP integral derivatives will be done elsewhere.
 Leave Link  702 at Fri Feb 15 20:18:28 2019, MaxMem=   196608000 cpu:         0.2
 (Enter /cm/shared/c3ddb/gaussian/09.d01/g09/l703.exe)
 Compute integral first derivatives, UseDBF=F ICtDFT=           0.
 Integral derivatives from FoFJK, PRISM(SPDF).
 Calling FoFJK, ICntrl=      2127 FMM=F ISym2X=0 I1Cent= 0 IOpClX= 0 NMat=1 NMatS=1 NMatT=0.
 FoFJK:  IHMeth= 1 ICntrl=    2127 DoSepK=F KAlg= 0 I1Cent=   0 FoldK=F
 IRaf=         0 NMat=   1 IRICut=       1 DoRegI=T DoRafI=F ISym2E= 0.
 FoFCou: FMM=F IPFlag=           0 FMFlag=      100000 FMFlg1=         800
         NFxFlg=           0 DoJE=F BraDBF=F KetDBF=F FulRan=T
         wScrn=  0.000000 ICntrl=    2127 IOpCl=  0 I1Cent=           0 NGrid=           0
         NMat0=    1 NMatS0=      1 NMatT0=    0 NMatD0=    1 NMtDS0=    0 NMtDT0=    0
 Symmetry not used in FoFCou.
 Leave Link  703 at Fri Feb 15 20:18:37 2019, MaxMem=   196608000 cpu:        37.8
 (Enter /cm/shared/c3ddb/gaussian/09.d01/g09/l716.exe)
 Dipole        = 4.40347994D-01-2.81501945D-01 4.01369926D-01
 ***** Axes restored to original set *****
 -------------------------------------------------------------------
 Center     Atomic                   Forces (Hartrees/Bohr)
 Number     Number              X              Y              Z
 -------------------------------------------------------------------
      1        8           0.000046678   -0.000193159   -0.000092803
      2        6          -0.000005896    0.000230251    0.000128720
      3        6          -0.000001049   -0.000031062   -0.000073206
      4        6          -0.000036326    0.000022810   -0.000003422
      5        6           0.000090842    0.000074446    0.000020749
      6        1          -0.000002891   -0.000001582    0.000005665
      7        1          -0.000000949    0.000002038    0.000000076
      8        1           0.000004396   -0.000000194   -0.000004474
      9        1          -0.000031084   -0.000067338    0.000004012
     10        1           0.000003425   -0.000001883    0.000000480
     11        1           0.000002653   -0.000003828   -0.000000210
     12        1          -0.000001459    0.000004785    0.000002687
     13        1          -0.000003463   -0.000001462   -0.000000681
     14        1          -0.000000719    0.000005852   -0.000005626
     15        1          -0.000064159   -0.000039674    0.000018034
 -------------------------------------------------------------------
 Cartesian Forces:  Max     0.000230251 RMS     0.000058098
 Leave Link  716 at Fri Feb 15 20:18:38 2019, MaxMem=   196608000 cpu:         0.3
 (Enter /cm/shared/c3ddb/gaussian/09.d01/g09/l103.exe)

 GradGradGradGradGradGradGradGradGradGradGradGradGradGradGradGradGradGrad
 Berny optimization.
 Using GEDIIS/GDIIS optimizer.
 FormGI is forming the generalized inverse of G from B-inverse, IUseBI=4.
 Internal  Forces:  Max     0.000248008 RMS     0.000035727
 Search for a local minimum.
 Step number   2 out of a maximum of   79 on scan point     1 out of    46
 All quantities printed in internal units (Hartrees-Bohrs-Radians)
 RMS Force = .34450D-04 SwitMx=.10000D-02 MixMth= 2
 Mixed Optimization -- En-DIIS/RFO-DIIS
 Update second derivatives using D2CorX and points    1    2
 DE= -1.67D-04 DEPred=-1.64D-04 R= 1.02D+00
 TightC=F SS=  1.41D+00  RLast= 4.59D-02 DXNew= 5.0454D-01 1.3783D-01
 Trust test= 1.02D+00 RLast= 4.59D-02 DXMaxT set to 3.00D-01
 ITU=  1  0
 Use linear search instead of GDIIS.
     Eigenvalues ---    0.00238   0.00266   0.00371   0.01415   0.03831
     Eigenvalues ---    0.03908   0.04133   0.04477   0.04494   0.04607
     Eigenvalues ---    0.05756   0.06759   0.07218   0.10169   0.12194
     Eigenvalues ---    0.12270   0.12856   0.13892   0.14054   0.15591
     Eigenvalues ---    0.15914   0.18054   0.19982   0.21554   0.28479
     Eigenvalues ---    0.29068   0.30370   0.31388   0.32472   0.32990
     Eigenvalues ---    0.33039   0.33324   0.33374   0.33677   0.33996
     Eigenvalues ---    0.34420   0.36389   0.545711000.000001000.00000
     Eigenvalues --- 1000.000001000.000001000.000001000.000001000.00000
     Eigenvalues --- 1000.000001000.000001000.000001000.000001000.00000
     Eigenvalues --- 1000.000001000.000001000.000001000.000001000.00000
     Eigenvalues --- 1000.000001000.000001000.000001000.000001000.00000
     Eigenvalues --- 1000.000001000.000001000.000001000.000001000.00000
     Eigenvalues --- 1000.000001000.000001000.000001000.00000
 RFO step:  Lambda=-1.09083491D-07 EMin= 2.37703524D-03
 Quartic linear search produced a step of  0.02792.
 Iteration  1 RMS(Cart)=  0.00083390 RMS(Int)=  0.00000075
 Iteration  2 RMS(Cart)=  0.00000074 RMS(Int)=  0.00000012
 Iteration  1 RMS(Cart)=  0.00000033 RMS(Int)=  0.00000036
 ITry= 1 IFail=0 DXMaxC= 3.01D-03 DCOld= 1.00D+10 DXMaxT= 3.00D-01 DXLimC= 3.00D+00 Rises=F
 Variable       Old X    -DE/DX   Delta X   Delta X   Delta X     New X
                                 (Linear)    (Quad)   (Total)
    R1        2.71450   0.00025   0.00060   0.00024   0.00084   2.71534
    R2        1.81812   0.00007   0.00023  -0.00008   0.00015   1.81826
    R3        2.88580   0.00007   0.00026  -0.00012   0.00013   2.88593
    R4        2.88655   0.00005   0.00023  -0.00015   0.00008   2.88662
    R5        2.08105   0.00001  -0.00001  -0.00001  -0.00003   2.08103
    R6        2.89216   0.00006   0.00028  -0.00009   0.00019   2.89235
    R7        2.07141   0.00000   0.00001  -0.00001   0.00000   2.07141
    R8        2.07070   0.00000   0.00001  -0.00001   0.00001   2.07070
    R9        2.06947   0.00000   0.00002  -0.00002   0.00001   2.06947
   R10        2.06653   0.00000   0.00000  -0.00001  -0.00001   2.06653
   R11        2.06741   0.00000   0.00003  -0.00002   0.00000   2.06741
   R12        2.06922   0.00000   0.00001  -0.00002  -0.00001   2.06921
   R13        2.06237   0.00000  -0.00001  -0.00001  -0.00002   2.06235
   R14        2.06627   0.00000   0.00003  -0.00002   0.00001   2.06628
    A1        1.89808   0.00002   0.00000  -0.00013  -0.00013   1.89795
    A2        1.86394   0.00000  -0.00002   0.00002  -0.00001   1.86394
    A3        1.93696   0.00000  -0.00005  -0.00004  -0.00009   1.93687
    A4        1.90024   0.00000  -0.00010  -0.00015  -0.00025   1.90000
    A5        1.96498   0.00001   0.00015   0.00000   0.00016   1.96513
    A6        1.89364   0.00000   0.00005   0.00006   0.00011   1.89375
    A7        1.90256   0.00000  -0.00003   0.00010   0.00006   1.90262
    A8        1.98468   0.00004   0.00021   0.00000   0.00020   1.98488
    A9        1.88468   0.00001   0.00002   0.00001   0.00003   1.88471
   A10        1.88677  -0.00003  -0.00003  -0.00005  -0.00009   1.88669
   A11        1.91982  -0.00001  -0.00009   0.00005  -0.00005   1.91977
   A12        1.91911  -0.00001  -0.00006   0.00000  -0.00006   1.91904
   A13        1.86451   0.00000  -0.00006   0.00001  -0.00005   1.86446
   A14        1.93869   0.00000  -0.00002   0.00000  -0.00002   1.93867
   A15        1.92748   0.00000   0.00008  -0.00007   0.00001   1.92749
   A16        1.93518   0.00001   0.00007  -0.00006   0.00001   1.93520
   A17        1.88762   0.00000  -0.00005   0.00008   0.00003   1.88765
   A18        1.87726   0.00000  -0.00004   0.00001  -0.00003   1.87723
   A19        1.89593   0.00000  -0.00004   0.00003  -0.00001   1.89592
   A20        1.93952   0.00001   0.00009  -0.00004   0.00005   1.93957
   A21        1.93435  -0.00001   0.00008  -0.00003   0.00005   1.93440
   A22        1.93601   0.00001  -0.00007  -0.00006  -0.00013   1.93588
   A23        1.88394  -0.00002  -0.00001   0.00006   0.00005   1.88399
   A24        1.87855   0.00002  -0.00007   0.00004  -0.00003   1.87852
   A25        1.88933   0.00000  -0.00004   0.00005   0.00001   1.88933
    D1        3.12517   0.00000   0.00028   0.00209   0.00237   3.12754
[...]
           D25        139.18836 147.32026 155.18726 162.84857 170.35650
           D26        -98.55562 -90.27254 -82.65321 -75.56764 -68.78174
           D27         20.63682  29.09736  36.94183  44.27192  51.29304
           D28         21.66156  29.83695  37.74795  45.42808  52.96745
           D29        143.91758 152.24415 159.90748 167.01186 173.82921
           D30        -96.88997 -88.38595 -80.49748 -73.14858 -66.09600
                          46
     Eigenvalues --  -233.74862
           R1           1.43692
           R2           0.96218
           R3           1.52716
           R4           1.52753
           R5           1.10123
           R6           1.53055
           R7           1.09614
           R8           1.09576
           R9           1.09512
           R10          1.09356
           R11          1.09403
           R12          1.09497
           R13          1.09136
           R14          1.09342
           A1         108.74448
           A2         106.79440
           A3         110.97441
           A4         108.86163
           A5         112.59519
           A6         108.50271
           A7         109.01303
           A8         113.72459
           A9         107.98415
           A10        108.10175
           A11        109.99680
           A12        109.94615
           A13        106.83174
           A14        111.07838
           A15        110.43689
           A16        110.87835
           A17        108.15416
           A18        107.55748
           A19        108.62804
           A20        111.11975
           A21        110.83663
           A22        110.91671
           A23        107.94562
           A24        107.63270
           A25        108.25616
           D1         179.16876
           D2         -57.77139
           D3          62.20636
           D4         -61.65913
           D5          60.71086
           D6         175.95015
           D7         176.29579
           D8         -61.33421
           D9          53.90507
           D10         55.54064
           D11        177.91063
           D12        -66.85009
           D13         59.46252
           D14        -60.53557
           D15        179.00245
           D16        179.11279
           D17         59.11470
           D18        -61.34728
           D19        -60.42500
           D20        179.57691
           D21         59.11493
           D22        -60.95565
           D23         59.07247
           D24        179.35721
           D25        177.79104
           D26        -62.18083
           D27         58.10390
           D28         60.41252
           D29       -179.55936
           D30        -59.27463
 Largest change from initial coordinates is atom    9       0.018 Angstoms.
 Leave Link  103 at Fri Feb 15 21:53:27 2019, MaxMem=   196608000 cpu:        19.3
 (Enter /cm/shared/c3ddb/gaussian/09.d01/g09/l202.exe)
                          Input orientation:                          
 ---------------------------------------------------------------------
 Center     Atomic      Atomic             Coordinates (Angstroms)
 Number     Number       Type             X           Y           Z
 ---------------------------------------------------------------------
      1          8           0       -0.549973   -0.977248    1.058734
      2          6           0       -0.403192    0.318791    0.455844
      3          6           0        0.672275    0.185657   -0.620200
      4          6           0       -1.734928    0.815553   -0.103681
      5          6           0        2.042141   -0.224306   -0.074317
      6          1           0       -0.047751    1.028383    1.219288
      7          1           0        0.326228   -0.550086   -1.355354
      8          1           0        0.750432    1.144957   -1.143967
      9          1           0        2.423275    0.518971    0.633666
     10          1           0        1.982445   -1.182835    0.444065
     11          1           0        2.772667   -0.316931   -0.882598
     12          1           0       -2.491414    0.886886    0.684938
     13          1           0       -2.106125    0.130414   -0.870930
     14          1           0       -1.625154    1.809866   -0.546611
     15          1           0       -1.214361   -0.922074    1.752520
 ---------------------------------------------------------------------
                    Distance matrix (angstroms):
                    1          2          3          4          5
     1  O    0.000000
     2  C    1.436920   0.000000
     3  C    2.380138   1.527162   0.000000
     4  C    2.443249   1.527534   2.541296   0.000000
     5  C    2.927419   2.560406   1.530553   3.917706   0.000000
     6  H    2.073779   1.101229   2.147635   2.154556   2.758675
     7  H    2.603462   2.137156   1.096138   2.771284   2.165998
     8  H    3.323657   2.138409   1.095763   2.714353   2.165074
     9  H    3.355526   2.839121   2.179284   4.233473   1.094972
    10  H    2.614044   2.818915   2.173012   4.255872   1.091358
    11  H    3.904449   3.504519   2.175568   4.712499   1.093419
    12  H    2.717336   2.176210   3.493427   1.095116   4.729095
    13  H    2.715167   2.166979   2.790237   1.093560   4.238931
    14  H    3.391335   2.172881   2.814542   1.094028   4.220186
    15  H    0.962182   1.969546   3.227424   2.595346   3.798555
                    6          7          8          9         10
     6  H    0.000000
     7  H    3.043058   0.000000
     8  H    2.497130   1.760058   0.000000
     9  H    2.590062   3.081670   2.519969   0.000000
    10  H    3.100347   2.526131   3.075438   1.768169   0.000000
    11  H    3.765973   2.502584   2.508958   1.766313   1.770388
    12  H    2.505403   3.763879   3.731093   4.928708   4.935300
    13  H    3.067942   2.571787   3.043643   4.788554   4.491130
    14  H    2.493455   3.167228   2.538177   4.410130   4.790874
    15  H    2.334437   3.488649   4.064808   4.069501   3.464047
                   11         12         13         14         15
    11  H    0.000000
    12  H    5.622891   0.000000
    13  H    4.899273   1.772406   0.000000
    14  H    4.896630   1.766073   1.776816   0.000000
    15  H    4.817306   2.458238   2.964029   3.594197   0.000000
 Stoichiometry    C4H10O
 Framework group  C1[X(C4H10O)]
 Deg. of freedom    39
 Full point group                 C1      NOp   1
 RotChk:  IX=0 Diff= 1.28D-15
 Largest Abelian subgroup         C1      NOp   1
 Largest concise Abelian subgroup C1      NOp   1
                         Standard orientation:                         
 ---------------------------------------------------------------------
 Center     Atomic      Atomic             Coordinates (Angstroms)
 Number     Number       Type             X           Y           Z
 ---------------------------------------------------------------------
      1          8           0        0.482394    1.364144   -0.211295
      2          6           0        0.480046    0.029774    0.321799
      3          6           0       -0.737821   -0.678644   -0.267410
      4          6           0        1.789175   -0.689260    0.001592
      5          6           0       -2.071108   -0.030267    0.112782
      6          1           0        0.358237    0.083347    1.414959
      7          1           0       -0.625842   -0.693906   -1.357706
      8          1           0       -0.720295   -1.721669    0.067983
      9          1           0       -2.219708   -0.040591    1.197575
     10          1           0       -2.107246    1.007940   -0.221705
     11          1           0       -2.909202   -0.565847   -0.341441
     12          1           0        2.646288   -0.152615    0.421888
     13          1           0        1.930041   -0.762143   -1.080406
     14          1           0        1.792792   -1.698757    0.423254
     15          1           0        1.234035    1.841471    0.153382
 ---------------------------------------------------------------------
 Rotational constants (GHZ):      8.0635661      3.4260930      2.6568538
 Leave Link  202 at Fri Feb 15 21:53:27 2019, MaxMem=   196608000 cpu:         0.3
 (Enter /cm/shared/c3ddb/gaussian/09.d01/g09/l601.exe)
 Copying SCF densities to generalized density rwf, IOpCl= 0 IROHF=0.

 **********************************************************************

            Population analysis using the SCF density.

 **********************************************************************

 Orbital symmetries:
       Occupied  (A) (A) (A) (A) (A) (A) (A) (A) (A) (A) (A) (A)
                 (A) (A) (A) (A) (A) (A) (A) (A) (A)
       Virtual   (A) (A) (A) (A) (A) (A) (A) (A) (A) (A) (A) (A)
                 (A) (A) (A) (A) (A) (A) (A) (A) (A) (A) (A) (A)
                 (A) (A) (A) (A) (A) (A) (A) (A) (A) (A) (A) (A)
                 (A) (A) (A) (A) (A) (A) (A) (A) (A) (A) (A) (A)
                 (A) (A) (A) (A) (A) (A) (A) (A) (A) (A) (A) (A)
                 (A) (A) (A) (A) (A) (A) (A) (A) (A) (A) (A) (A)
                 (A) (A) (A) (A) (A) (A) (A) (A) (A) (A) (A) (A)
                 (A) (A) (A) (A) (A) (A) (A) (A) (A) (A) (A) (A)
                 (A) (A) (A) (A) (A) (A) (A) (A) (A) (A) (A) (A)
                 (A) (A) (A) (A) (A) (A) (A) (A) (A) (A) (A) (A)
                 (A) (A) (A) (A) (A) (A) (A) (A) (A) (A) (A) (A)
                 (A) (A) (A) (A) (A) (A) (A) (A) (A) (A) (A) (A)
                 (A) (A) (A) (A) (A)
 The electronic state is 1-A.
 Alpha  occ. eigenvalues --  -19.12142 -10.22327 -10.16518 -10.16489 -10.15244
 Alpha  occ. eigenvalues --   -1.02330  -0.78928  -0.72904  -0.64057  -0.58066
 Alpha  occ. eigenvalues --   -0.52095  -0.45170  -0.44006  -0.42430  -0.40882
 Alpha  occ. eigenvalues --   -0.38276  -0.35832  -0.35249  -0.34088  -0.32137
 Alpha  occ. eigenvalues --   -0.27873
 Alpha virt. eigenvalues --   -0.00203   0.02062   0.02501   0.03287   0.04677
 Alpha virt. eigenvalues --    0.06084   0.06369   0.06760   0.07863   0.08331
 Alpha virt. eigenvalues --    0.09613   0.10364   0.11403   0.13817   0.14447
 Alpha virt. eigenvalues --    0.14972   0.17607   0.17802   0.18061   0.18719
 Alpha virt. eigenvalues --    0.19100   0.20756   0.21410   0.22416   0.23790
 Alpha virt. eigenvalues --    0.24520   0.25217   0.26579   0.26885   0.27945
 Alpha virt. eigenvalues --    0.28449   0.30699   0.33544   0.34682   0.40847
 Alpha virt. eigenvalues --    0.41313   0.41820   0.44371   0.47393   0.50776
 Alpha virt. eigenvalues --    0.53317   0.54333   0.54988   0.56322   0.60979
 Alpha virt. eigenvalues --    0.62552   0.63359   0.63835   0.65097   0.66298
 Alpha virt. eigenvalues --    0.67617   0.68555   0.70043   0.71957   0.73171
 Alpha virt. eigenvalues --    0.75318   0.82848   0.91614   0.92787   0.96727
 Alpha virt. eigenvalues --    1.01234   1.04826   1.10163   1.11532   1.15004
 Alpha virt. eigenvalues --    1.20690   1.25265   1.31718   1.33019   1.37674
 Alpha virt. eigenvalues --    1.40986   1.45321   1.46743   1.48080   1.52000
 Alpha virt. eigenvalues --    1.54318   1.55199   1.55719   1.56320   1.58317
 Alpha virt. eigenvalues --    1.59193   1.61340   1.64526   1.64937   1.69465
 Alpha virt. eigenvalues --    1.72098   1.73751   1.77678   1.78609   1.81910
 Alpha virt. eigenvalues --    1.86138   1.92730   1.94473   1.99151   2.03522
 Alpha virt. eigenvalues --    2.05485   2.07427   2.13668   2.16870   2.18208
 Alpha virt. eigenvalues --    2.22654   2.28133   2.34232   2.36185   2.38108
 Alpha virt. eigenvalues --    2.43685   2.45983   2.50211   2.51966   2.53407
 Alpha virt. eigenvalues --    2.55623   2.55960   2.57953   2.59774   2.62709
 Alpha virt. eigenvalues --    2.63376   2.65465   2.66306   2.72375   2.72704
 Alpha virt. eigenvalues --    2.77305   2.82243   2.90613   2.91392   2.96687
 Alpha virt. eigenvalues --    2.99306   3.14481   3.18447   3.25726   3.31427
 Alpha virt. eigenvalues --    3.42760   3.77515   3.79719   3.80794   3.81443
 Alpha virt. eigenvalues --    3.84631   3.89123   3.93264   4.10654   4.20496
 Alpha virt. eigenvalues --    4.35539   5.05891   5.39268   5.65606  23.76892
 Alpha virt. eigenvalues --   23.88340  23.94654  23.98385  49.91998
          Condensed to atoms (all electrons):
               1          2          3          4          5          6
     1  O    8.114675   0.254187  -0.155159  -0.070350   0.001443  -0.057317
     2  C    0.254187   5.263968   0.110434   0.079777   0.086479   0.428946
     3  C   -0.155159   0.110434   5.434300   0.069567   0.018195  -0.098832
     4  C   -0.070350   0.079777   0.069567   5.396478  -0.100143  -0.037729
     5  C    0.001443   0.086479   0.018195  -0.100143   5.351246   0.008302
     6  H   -0.057317   0.428946  -0.098832  -0.037729   0.008302   0.633262
     7  H   -0.009577  -0.047865   0.447504  -0.011329  -0.051285   0.009313
     8  H    0.013222  -0.061524   0.417155   0.002849  -0.034081  -0.004665
     9  H   -0.001700  -0.033266  -0.002911   0.005559   0.391730   0.004975
    10  H    0.005016  -0.022756  -0.041822  -0.001035   0.439038   0.000247
    11  H   -0.000201   0.027323  -0.058577  -0.000234   0.406642  -0.000279
    12  H   -0.013297  -0.039125   0.018264   0.397541   0.000622  -0.009928
    13  H   -0.007556  -0.004884  -0.033760   0.404814   0.003152   0.007856
    14  H    0.012015  -0.064448   0.002624   0.418526  -0.000354  -0.003339
    15  H    0.209995  -0.011853   0.026893   0.008647  -0.008701  -0.009326
               7          8          9         10         11         12
     1  O   -0.009577   0.013222  -0.001700   0.005016  -0.000201  -0.013297
     2  C   -0.047865  -0.061524  -0.033266  -0.022756   0.027323  -0.039125
     3  C    0.447504   0.417155  -0.002911  -0.041822  -0.058577   0.018264
     4  C   -0.011329   0.002849   0.005559  -0.001035  -0.000234   0.397541
     5  C   -0.051285  -0.034081   0.391730   0.439038   0.406642   0.000622
     6  H    0.009313  -0.004665   0.004975   0.000247  -0.000279  -0.009928
     7  H    0.545255  -0.035092   0.007756  -0.005645  -0.005649  -0.000277
     8  H   -0.035092   0.575848  -0.008100   0.007312  -0.006002   0.000157
     9  H    0.007756  -0.008100   0.569521  -0.030821  -0.028224  -0.000016
    10  H   -0.005645   0.007312  -0.030821   0.518121  -0.026389  -0.000010
    11  H   -0.005649  -0.006002  -0.028224  -0.026389   0.557844   0.000020
    12  H   -0.000277   0.000157  -0.000016  -0.000010   0.000020   0.569017
    13  H    0.004569  -0.000251   0.000017  -0.000004  -0.000028  -0.029011
    14  H   -0.000206   0.000573   0.000000   0.000007  -0.000036  -0.026086
    15  H   -0.000116  -0.000771   0.000121  -0.001038   0.000072   0.006491
              13         14         15
     1  O   -0.007556   0.012015   0.209995
     2  C   -0.004884  -0.064448  -0.011853
     3  C   -0.033760   0.002624   0.026893
     4  C    0.404814   0.418526   0.008647
     5  C    0.003152  -0.000354  -0.008701
     6  H    0.007856  -0.003339  -0.009326
     7  H    0.004569  -0.000206  -0.000116
     8  H   -0.000251   0.000573  -0.000771
     9  H    0.000017   0.000000   0.000121
    10  H   -0.000004   0.000007  -0.001038
    11  H   -0.000028  -0.000036   0.000072
    12  H   -0.029011  -0.026086   0.006491
    13  H    0.531776  -0.030052  -0.001491
    14  H   -0.030052   0.552611   0.000285
    15  H   -0.001491   0.000285   0.542658
 Mulliken charges:
               1
     1  O   -0.295396
     2  C    0.034608
     3  C   -0.153874
     4  C   -0.562938
     5  C   -0.512286
     6  H    0.128514
     7  H    0.152643
     8  H    0.133368
     9  H    0.125359
    10  H    0.159778
    11  H    0.133718
    12  H    0.125638
    13  H    0.154853
    14  H    0.137880
    15  H    0.238135
 Sum of Mulliken charges =   0.00000
 Mulliken charges with hydrogens summed into heavy atoms:
               1
     1  O   -0.057261
     2  C    0.163122
     3  C    0.132137
     4  C   -0.144566
     5  C   -0.093431
 Electronic spatial extent (au):  <R**2>=            525.8665
 Charge=              0.0000 electrons
 Dipole moment (field-independent basis, Debye):
    X=              1.1211    Y=             -0.7185    Z=              1.0183  Tot=              1.6763
 Quadrupole moment (field-independent basis, Debye-Ang):
   XX=            -32.1416   YY=            -33.7732   ZZ=            -34.0092
   XY=              2.3483   XZ=              1.1362   YZ=              1.5418
 Traceless Quadrupole moment (field-independent basis, Debye-Ang):
   XX=              1.1664   YY=             -0.4652   ZZ=             -0.7012
   XY=              2.3483   XZ=              1.1362   YZ=              1.5418
 Octapole moment (field-independent basis, Debye-Ang**2):
  XXX=              6.3591  YYY=              7.6603  ZZZ=             -0.2907  XYY=              5.9921
  XXY=              6.2897  XXZ=              0.1603  XZZ=              0.6619  YZZ=              1.0120
  YYZ=              2.7792  XYZ=              1.4917
 Hexadecapole moment (field-independent basis, Debye-Ang**3):
 XXXX=           -470.1631 YYYY=           -169.0916 ZZZZ=            -75.4561 XXXY=             15.1162
 XXXZ=              5.4622 YYYX=             14.8637 YYYZ=              0.5017 ZZZX=             -1.3476
 ZZZY=              1.3630 XXYY=            -99.5234 XXZZ=            -90.6928 YYZZ=            -44.9116
 XXYZ=              2.1668 YYXZ=              3.6851 ZZXY=              1.0959
 N-N= 1.930284497155D+02 E-N=-9.306697523319D+02  KE= 2.326866884663D+02
 No NMR shielding tensors so no spin-rotation constants.
 Leave Link  601 at Fri Feb 15 21:53:28 2019, MaxMem=   196608000 cpu:         3.5
 (Enter /cm/shared/c3ddb/gaussian/09.d01/g09/l9999.exe)
 1\1\GINC-NODE061\Scan\RB3LYP\6-311+G(d,p)\C4H10O1\ALONGD\15-Feb-2019\0
 \\#P opt=(modredundant, calcfc, noeigentest) b3lyp/6-311+g(d,p) scf=xq
 c\\name\\0,1\O,-0.5499725782,-0.9772475837,1.0587344977\C,-0.403191865
 7,0.3187908907,0.4558436121\C,0.6722746788,0.1856574709,-0.6201998826\
 C,-1.7349278334,0.8155532017,-0.1036812547\C,2.0421414128,-0.224305752
 ,-0.074317059\H,-0.0477505217,1.0283829228,1.2192875952\H,0.3262277601
 ,-0.5500860337,-1.3553536427\H,0.7504316046,1.1449571627,-1.1439671109
 \H,2.4232747546,0.5189705976,0.6336661947\H,1.9824454014,-1.182834919,
 0.4440652847\H,2.772667479,-0.3169310074,-0.8825977489\H,-2.4914141863
 ,0.8868864272,0.6849377971\H,-2.1061253734,0.1304139806,-0.8709302047\
 H,-1.6251539389,1.8098664462,-0.5466114174\H,-1.2143607937,-0.92207380
 45,1.7525203394\\Version=AS64L-G09RevD.01\State=1-A\HF=-233.7486192,-2
 33.7484673,-233.7480066,-233.7472898,-233.7464316,-233.7455679,-233.74
 48574,-233.7444265,-233.7443734,-233.74472,-233.7453843,-233.7462437,-
 233.7471365,-233.7479066,-233.7484238,-233.7486191,-233.7484607,-233.7
 479859,-233.7472497,-233.7463708,-233.7454972,-233.7447979,-233.744400
 6,-233.7443944,-233.7447813,-233.7454652,-233.7463169,-233.7471814,-23
 3.7479209,-233.7484211,-233.7486184,-233.748478,-233.7480247,-233.7473
 077,-233.7464348,-233.745555,-233.7448358,-233.7444133,-233.744385,-23
 3.744762,-233.7454475,-233.7463098,-233.7471867,-233.7479319,-233.7484
 308,-233.7486192\RMSD=3.640e-09,2.243e-09,8.659e-09,1.550e-09,2.544e-0
 9,2.565e-09,3.971e-09,5.616e-09,4.701e-09,3.742e-09,8.854e-09,9.938e-0
 9,1.883e-09,1.414e-09,1.955e-09,1.512e-09,3.797e-09,2.241e-09,1.762e-0
 9,2.256e-09,2.812e-09,3.368e-09,2.957e-09,4.589e-09,4.451e-09,3.275e-0
 9,2.293e-09,2.110e-09,2.570e-09,4.687e-09,3.066e-09,3.178e-09,2.617e-0
 9,8.916e-09,7.986e-09,3.295e-09,3.823e-09,5.311e-09,5.166e-09,2.526e-0
 9,3.167e-09,3.030e-09,2.332e-09,2.199e-09,9.722e-09,1.763e-09\PG=C01 [
 X(C4H10O1)]\\@


 REALITY IS FOR PEOPLE WHO CAN'T FACE SCIENCE FICTION.
 Job cpu time:       0 days  8 hours 49 minutes  2.5 seconds.
 File lengths (MBytes):  RWF=     46 Int=      0 D2E=      0 Chk=      7 Scr=      1
 Normal termination of Gaussian 09 at Fri Feb 15 21:53:28 2019.
