 Entering Gaussian System, Link 0=g09
 Initial command:
 /usr/local/g09/l1.exe "/gtmp/jintaowu/scratch/g09/802178.zeus-master/Gau-1114382.inp" -scrdir="/gtmp/jintaowu/scratch/g09/802178.zeus-master/"
 Entering Link 1 = /usr/local/g09/l1.exe PID=   1114383.
  
 Copyright (c) 1988,1990,1992,1993,1995,1998,2003,2009,2013,
            Gaussian, Inc.  All Rights Reserved.
  
 This is part of the Gaussian(R) 09 program.  It is based on
 the Gaussian(R) 03 system (copyright 2003, Gaussian, Inc.),
 the Gaussian(R) 98 system (copyright 1998, Gaussian, Inc.),
 the Gaussian(R) 94 system (copyright 1995, Gaussian, Inc.),
 the Gaussian 92(TM) system (copyright 1992, Gaussian, Inc.),
 the Gaussian 90(TM) system (copyright 1990, Gaussian, Inc.),
 the Gaussian 88(TM) system (copyright 1988, Gaussian, Inc.),
 the Gaussian 86(TM) system (copyright 1986, Carnegie Mellon
 University), and the Gaussian 82(TM) system (copyright 1983,
 Carnegie Mellon University). Gaussian is a federally registered
 trademark of Gaussian, Inc.
  
 This software contains proprietary and confidential information,
 including trade secrets, belonging to Gaussian, Inc.
  
 This software is provided under written license and may be
 used, copied, transmitted, or stored only in accord with that
 written license.
  
 The following legend is applicable only to US Government
 contracts under FAR:
  
                    RESTRICTED RIGHTS LEGEND
  
 Use, reproduction and disclosure by the US Government is
 subject to restrictions as set forth in subparagraphs (a)
 and (c) of the Commercial Computer Software - Restricted
 Rights clause in FAR 52.227-19.
  
 Gaussian, Inc.
 340 Quinnipiac St., Bldg. 40, Wallingford CT 06492
  
  
 ---------------------------------------------------------------
 Warning -- This program may not be used in any manner that
 competes with the business of Gaussian, Inc. or will provide
 assistance to any competitor of Gaussian, Inc.  The licensee
 of this program is prohibited from giving any competitor of
 Gaussian, Inc. access to this program.  By using this program,
 the user acknowledges that Gaussian, Inc. is engaged in the
 business of creating and licensing software in the field of
 computational chemistry and represents and warrants to the
 licensee that it is not a competitor of Gaussian, Inc. and that
 it will not use this program in any manner prohibited above.
 ---------------------------------------------------------------
  

 Cite this work as:
 Gaussian 09, Revision D.01,
 M. J. Frisch, G. W. Trucks, H. B. Schlegel, G. E. Scuseria, 
 M. A. Robb, J. R. Cheeseman, G. Scalmani, V. Barone, B. Mennucci, 
 G. A. Petersson, H. Nakatsuji, M. Caricato, X. Li, H. P. Hratchian, 
 A. F. Izmaylov, J. Bloino, G. Zheng, J. L. Sonnenberg, M. Hada, 
 M. Ehara, K. Toyota, R. Fukuda, J. Hasegawa, M. Ishida, T. Nakajima, 
 Y. Honda, O. Kitao, H. Nakai, T. Vreven, J. A. Montgomery, Jr., 
 J. E. Peralta, F. Ogliaro, M. Bearpark, J. J. Heyd, E. Brothers, 
 K. N. Kudin, V. N. Staroverov, T. Keith, R. Kobayashi, J. Normand, 
 K. Raghavachari, A. Rendell, J. C. Burant, S. S. Iyengar, J. Tomasi, 
 M. Cossi, N. Rega, J. M. Millam, M. Klene, J. E. Knox, J. B. Cross, 
 V. Bakken, C. Adamo, J. Jaramillo, R. Gomperts, R. E. Stratmann, 
 O. Yazyev, A. J. Austin, R. Cammi, C. Pomelli, J. W. Ochterski, 
 R. L. Martin, K. Morokuma, V. G. Zakrzewski, G. A. Voth, 
 P. Salvador, J. J. Dannenberg, S. Dapprich, A. D. Daniels, 
 O. Farkas, J. B. Foresman, J. V. Ortiz, J. Cioslowski, 
 and D. J. Fox, Gaussian, Inc., Wallingford CT, 2013.
 
 ******************************************
 Gaussian 09:  EM64L-G09RevD.01 24-Apr-2013
                27-Nov-2024 
 ******************************************
 %chk=check.chk
 %mem=184320mb
 %NProcShared=16
 Will use up to   16 processors via shared memory.
 ----------------------------------------------------------------------
 #P opt=(calcfc,maxStep=5,modredundant,noeigentest) integral=(grid=ultr
 afine, Acc2E=12) guess=mix wb97xd/def2tzvp IOp(2/9=2000) scf=(direct,t
 ight)
 ----------------------------------------------------------------------
 1/8=5,10=4,11=1,14=-1,18=120,19=15,26=4,38=1/1,3;
 2/9=2000,12=2,17=6,18=5,40=1/2;
 3/5=44,7=101,11=2,16=1,25=1,30=1,71=2,74=-58,75=-5,140=1/1,2,3;
 4/13=-1/1;
 5/5=2,32=2,38=5,87=12/2;
 8/6=4,10=90,11=11,87=12/1;
 11/6=1,8=1,9=11,15=111,16=1,87=12/1,2,10;
 10/6=1,13=1,87=12/2;
 6/7=2,8=2,9=2,10=2,28=1/1;
 7/10=1,18=20,25=1,87=12/1,2,3,16;
 1/8=5,10=4,11=1,14=-1,18=20,19=15,26=4/3(2);
 2/9=2000/2;
 99//99;
 2/9=2000/2;
 3/5=44,7=101,11=2,16=1,25=1,30=1,71=1,74=-58,75=-5/1,2,3;
 4/5=5,16=3,69=1/1;
 5/5=2,32=2,38=5,87=12/2;
 7/87=12/1,2,3,16;
 1/8=5,11=1,14=-1,18=20,19=15,26=4/3(-5);
 2/9=2000/2;
 6/7=2,8=2,9=2,10=2,19=2,28=1/1;
 99/9=1/99;
 Leave Link    1 at Wed Nov 27 13:31:31 2024, MaxMem= 24159191040 cpu:         0.4
 (Enter /usr/local/g09/l101.exe)
 ---
 NNN
 ---
 Symbolic Z-matrix:
 Charge =  0 Multiplicity = 1
 N                    -1.29398   0.19364   0.02362 
 N                    -0.00434   0.3586   -0.52195 
 N                     0.98238  -0.56378  -0.11739 
 H                    -1.25784  -0.08823   1.00182 
 H                    -1.77502  -0.52701  -0.49712 
 H                     0.31772   1.2783   -0.26305 
 H                     0.8941   -0.80425   0.86851 
 H                     0.87637  -1.40922  -0.66136 
 
 The following ModRedundant input section has been read:
 D       1       2       3       7 S  45 8.0000                                
 D       4       1       2       3 S  45 8.0000                                
 
 NAtoms=      8 NQM=        8 NQMF=       0 NMMI=      0 NMMIF=      0
                NMic=       0 NMicF=      0.
                    Isotopes and Nuclear Properties:
 (Nuclear quadrupole moments (NQMom) in fm**2, nuclear magnetic moments (NMagM)
  in nuclear magnetons)

  Atom         1           2           3           4           5           6           7           8
 IAtWgt=          14          14          14           1           1           1           1           1
 AtmWgt=  14.0030740  14.0030740  14.0030740   1.0078250   1.0078250   1.0078250   1.0078250   1.0078250
 NucSpn=           2           2           2           1           1           1           1           1
 AtZEff=   0.0000000   0.0000000   0.0000000   0.0000000   0.0000000   0.0000000   0.0000000   0.0000000
 NQMom=    2.0440000   2.0440000   2.0440000   0.0000000   0.0000000   0.0000000   0.0000000   0.0000000
 NMagM=    0.4037610   0.4037610   0.4037610   2.7928460   2.7928460   2.7928460   2.7928460   2.7928460
 AtZNuc=   7.0000000   7.0000000   7.0000000   1.0000000   1.0000000   1.0000000   1.0000000   1.0000000
 Leave Link  101 at Wed Nov 27 13:31:31 2024, MaxMem= 24159191040 cpu:         1.5
 (Enter /usr/local/g09/l103.exe)

 GradGradGradGradGradGradGradGradGradGradGradGradGradGradGradGradGradGrad
 Berny optimization.
 Initialization pass.
                           ----------------------------
                           !    Initial Parameters    !
                           ! (Angstroms and Degrees)  !
 --------------------------                            --------------------------
 ! Name  Definition              Value          Derivative Info.                !
 --------------------------------------------------------------------------------
 ! R1    R(1,2)                  1.41           calculate D2E/DX2 analytically  !
 ! R2    R(1,4)                  1.0186         calculate D2E/DX2 analytically  !
 ! R3    R(1,5)                  1.0109         calculate D2E/DX2 analytically  !
 ! R4    R(2,3)                  1.41           calculate D2E/DX2 analytically  !
 ! R5    R(2,6)                  1.0083         calculate D2E/DX2 analytically  !
 ! R6    R(3,7)                  1.0186         calculate D2E/DX2 analytically  !
 ! R7    R(3,8)                  1.0109         calculate D2E/DX2 analytically  !
 ! A1    A(2,1,4)              111.8074         calculate D2E/DX2 analytically  !
 ! A2    A(2,1,5)              108.6224         calculate D2E/DX2 analytically  !
 ! A3    A(4,1,5)              108.3176         calculate D2E/DX2 analytically  !
 ! A4    A(1,2,3)              116.9064         calculate D2E/DX2 analytically  !
 ! A5    A(1,2,6)              107.4285         calculate D2E/DX2 analytically  !
 ! A6    A(3,2,6)              107.4284         calculate D2E/DX2 analytically  !
 ! A7    A(2,3,7)              111.8074         calculate D2E/DX2 analytically  !
 ! A8    A(2,3,8)              108.6224         calculate D2E/DX2 analytically  !
 ! A9    A(7,3,8)              108.3175         calculate D2E/DX2 analytically  !
 ! D1    D(4,1,2,3)             38.3277         Scan                            !
 ! D2    D(4,1,2,6)            -82.4256         calculate D2E/DX2 analytically  !
 ! D3    D(5,1,2,3)            -81.1471         calculate D2E/DX2 analytically  !
 ! D4    D(5,1,2,6)            158.0996         calculate D2E/DX2 analytically  !
 ! D5    D(1,2,3,7)            -38.3277         Scan                            !
 ! D6    D(1,2,3,8)             81.147          calculate D2E/DX2 analytically  !
 ! D7    D(6,2,3,7)             82.4257         calculate D2E/DX2 analytically  !
 ! D8    D(6,2,3,8)           -158.0996         calculate D2E/DX2 analytically  !
 --------------------------------------------------------------------------------
 Trust Radius=5.00D-02 FncErr=1.00D-07 GrdErr=1.00D-06
 Number of optimizations in scan=2116
 Number of steps in this run=     34 maximum allowed number of steps=    100.
 GradGradGradGradGradGradGradGradGradGradGradGradGradGradGradGradGradGrad

 Leave Link  103 at Wed Nov 27 13:31:31 2024, MaxMem= 24159191040 cpu:         0.0
 (Enter /usr/local/g09/l202.exe)
                          Input orientation:                          
 ---------------------------------------------------------------------
 Center     Atomic      Atomic             Coordinates (Angstroms)
 Number     Number       Type             X           Y           Z
 ---------------------------------------------------------------------
      1          7           0       -1.293982    0.193644    0.023618
      2          7           0       -0.004336    0.358596   -0.521945
      3          7           0        0.982377   -0.563776   -0.117392
      4          1           0       -1.257840   -0.088233    1.001816
      5          1           0       -1.775024   -0.527012   -0.497117
      6          1           0        0.317718    1.278301   -0.263052
      7          1           0        0.894096   -0.804254    0.868514
      8          1           0        0.876372   -1.409220   -0.661358
 ---------------------------------------------------------------------
                    Distance matrix (angstroms):
                    1          2          3          4          5
     1  N    0.000000
     2  N    1.409977   0.000000
     3  N    2.403202   1.409977   0.000000
     4  H    1.018642   2.023061   2.548988   0.000000
     5  H    1.010896   1.979963   2.783667   1.645238   0.000000
     6  H    1.963730   1.008267   1.963730   2.439198   2.773718
     7  H    2.548987   2.023061   1.018643   2.271846   3.010982
     8  H    2.783667   1.979964   1.010896   3.010982   2.799137
                    6          7          8
     6  H    0.000000
     7  H    2.439198   0.000000
     8  H    2.773718   1.645237   0.000000
 Stoichiometry    H5N3
 Framework group  CS[SG(HN),X(H4N2)]
 Deg. of freedom    10
 Full point group                 CS      NOp   2
 Largest Abelian subgroup         CS      NOp   2
 Largest concise Abelian subgroup CS      NOp   2
                         Standard orientation:                         
 ---------------------------------------------------------------------
 Center     Atomic      Atomic             Coordinates (Angstroms)
 Number     Number       Type             X           Y           Z
 ---------------------------------------------------------------------
      1          7           0        0.004101   -0.162660   -1.201601
      2          7           0        0.004101    0.575032    0.000000
      3          7           0        0.004101   -0.162660    1.201601
      4          1           0       -0.582412   -0.992914   -1.135923
      5          1           0        0.950657   -0.457195   -1.399568
      6          1           0       -0.822601    1.152237    0.000000
      7          1           0       -0.582412   -0.992914    1.135923
      8          1           0        0.950657   -0.457195    1.399568
 ---------------------------------------------------------------------
 Rotational constants (GHZ):     41.2833012     10.0871363      9.0066771
 Leave Link  202 at Wed Nov 27 13:31:31 2024, MaxMem= 24159191040 cpu:         0.0
 (Enter /usr/local/g09/l301.exe)
 Standard basis: def2TZVP (5D, 7F)
 Ernie: Thresh=  0.10000D-02 Tol=  0.10000D-05 Strict=F.
 There are    78 symmetry adapted cartesian basis functions of A'  symmetry.
 There are    60 symmetry adapted cartesian basis functions of A"  symmetry.
 There are    69 symmetry adapted basis functions of A'  symmetry.
 There are    54 symmetry adapted basis functions of A"  symmetry.
   123 basis functions,   193 primitive gaussians,   138 cartesian basis functions
    13 alpha electrons       13 beta electrons
       nuclear repulsion energy        84.8217952177 Hartrees.
 IExCor= 4639 DFT=T Ex+Corr=wB97XD ExCW=0 ScaHFX=  1.000000
 ScaDFX=  1.000000  1.000000  1.000000  1.000000 ScalE2=  1.000000  1.000000
 IRadAn=      5 IRanWt=     -1 IRanGd=            0 ICorTp=0 IEmpDi=121
  HFx wShort=  0.000000 wLong=  0.200000 cFull=  0.222036 cShort=  0.000000 cLong=  0.777964
  DFx wShort=  0.000000 wLong=  0.200000 cFull=  0.000000 cShort=  0.000000 cLong=  1.000000
 NAtoms=    8 NActive=    8 NUniq=    5 SFac= 2.56D+00 NAtFMM=   60 NAOKFM=F Big=F
 Integral buffers will be    131072 words long.
 Raffenetti 2 integral format.
 Two-electron integral symmetry is turned on.
 R6Disp:  Grimme-D2 Dispersion energy=       -0.0019984064 Hartrees.
 Nuclear repulsion after empirical dispersion term =       84.8197968113 Hartrees.
 Leave Link  301 at Wed Nov 27 13:31:31 2024, MaxMem= 24159191040 cpu:         0.2
 (Enter /usr/local/g09/l302.exe)
 NPDir=0 NMtPBC=     1 NCelOv=     1 NCel=       1 NClECP=     1 NCelD=      1
         NCelK=      1 NCelE2=     1 NClLst=     1 CellRange=     0.0.
 One-electron integrals computed using PRISM.
 One-electron integral symmetry used in STVInt
   2 Symmetry operations used in ECPInt.
 ECPInt:  NShTT=    1431 NPrTT=    4176 LenC2=    1427 LenP2D=    3688.
 LDataN:  DoStor=T MaxTD1= 6 Len=  172
 NBasis=   123 RedAO= T EigKep=  1.57D-03  NBF=    69    54
 NBsUse=   123 1.00D-06 EigRej= -1.00D+00 NBFU=    69    54
 Precomputing XC quadrature grid using
 IXCGrd= 4 IRadAn=           5 IRanWt=          -1 IRanGd=           0 AccXCQ= 0.00D+00.
 Generated NRdTot=       0 NPtTot=           0 NUsed=           0 NTot=          32
 NSgBfM=   138   138   138   138   138 MxSgAt=     8 MxSgA2=     8.
 Leave Link  302 at Wed Nov 27 13:31:31 2024, MaxMem= 24159191040 cpu:         1.3
 (Enter /usr/local/g09/l303.exe)
 DipDrv:  MaxL=1.
 Leave Link  303 at Wed Nov 27 13:31:31 2024, MaxMem= 24159191040 cpu:         0.2
 (Enter /usr/local/g09/l401.exe)
 ExpMin= 1.03D-01 ExpMax= 1.97D+04 ExpMxC= 6.73D+02 IAcc=3 IRadAn=         5 AccDes= 0.00D+00
 Harris functional with IExCor= 4639 and IRadAn=       5 diagonalized for initial guess.
 HarFok:  IExCor= 4639 AccDes= 0.00D+00 IRadAn=         5 IDoV= 1 UseB2=F ITyADJ=14
 ICtDFT=  3500011 ScaDFX=  1.000000  1.000000  1.000000  1.000000
 FoFCou: FMM=F IPFlag=           0 FMFlag=      100000 FMFlg1=           0
         NFxFlg=           0 DoJE=T BraDBF=F KetDBF=T FulRan=T
         wScrn=  0.000000 ICntrl=     500 IOpCl=  0 I1Cent=   200000004 NGrid=           0
         NMat0=    1 NMatS0=      1 NMatT0=    0 NMatD0=    1 NMtDS0=    0 NMtDT0=    0
 Petite list used in FoFCou.
 Harris En= -160.276706252802    
 JPrj=0 DoOrth=F DoCkMO=T.
 Mixing orbitals, IMix= 1 IMixAn=  0 NRI=1 NE=   13 Coef=  7.07106781D-01  7.07106781D-01
 Initial guess orbital symmetries:
       Occupied  (A") (A') (A') (A') (A") (A') (A') (A") (A") (A')
                 (A') (A") (A')
       Virtual   (A') (A') (A") (A') (A") (A') (A") (A') (A") (A")
                 (A') (A") (A') (A') (A') (A') (A') (A') (A") (A')
                 (A") (A") (A') (A") (A') (A") (A') (A") (A') (A")
                 (A') (A") (A") (A') (A') (A") (A') (A") (A') (A')
                 (A") (A') (A') (A") (A') (A") (A') (A") (A') (A")
                 (A') (A") (A') (A') (A") (A") (A') (A') (A") (A')
                 (A") (A') (A') (A") (A') (A') (A") (A") (A') (A")
                 (A') (A") (A") (A') (A') (A') (A") (A") (A') (A')
                 (A") (A') (A') (A") (A') (A") (A') (A") (A") (A')
                 (A') (A") (A") (A') (A') (A') (A") (A') (A") (A")
                 (A') (A') (A") (A') (A") (A") (A') (A") (A') (A')
 The electronic state of the initial guess is 1-A'.
 Leave Link  401 at Wed Nov 27 13:31:31 2024, MaxMem= 24159191040 cpu:         2.2
 (Enter /usr/local/g09/l502.exe)
 Closed shell SCF:
 Using DIIS extrapolation, IDIIS=  1040.
 Integral symmetry usage will be decided dynamically.
 Keep R1 ints in memory in symmetry-blocked form, NReq=87359752.
 IVT=       79090 IEndB=       79090 NGot= 24159191040 MDV= 24144545265
 LenX= 24144545265 LenY= 24144525780
 Requested convergence on RMS density matrix=1.00D-08 within 128 cycles.
 Requested convergence on MAX density matrix=1.00D-06.
 Requested convergence on             energy=1.00D-06.
 No special actions if energy rises.
 FoFCou: FMM=F IPFlag=           0 FMFlag=           0 FMFlg1=           0
         NFxFlg=           0 DoJE=F BraDBF=F KetDBF=F FulRan=T
         wScrn=  0.000000 ICntrl=     600 IOpCl=  0 I1Cent=           0 NGrid=           0
         NMat0=    1 NMatS0=   7626 NMatT0=    0 NMatD0=    1 NMtDS0=    0 NMtDT0=    0
 Petite list used in FoFCou.
 Integral accuracy reduced to 1.0D-05 until final iterations.
 An orbital has undefined symmetry, so N**3 symmetry is turned off.

 Cycle   1  Pass 0  IDiag  1:
 E= -166.799843346535    
 DIIS: error= 6.43D-02 at cycle   1 NSaved=   1.
 NSaved= 1 IEnMin= 1 EnMin= -166.799843346535     IErMin= 1 ErrMin= 6.43D-02
 ErrMax= 6.43D-02  0.00D+00 EMaxC= 1.00D-01 BMatC= 5.39D-01 BMatP= 5.39D-01
 IDIUse=3 WtCom= 3.57D-01 WtEn= 6.43D-01
 Coeff-Com:  0.100D+01
 Coeff-En:   0.100D+01
 Coeff:      0.100D+01
 Gap=     0.209 Goal=   None    Shift=    0.000
 GapD=    0.209 DampG=1.000 DampE=0.500 DampFc=0.5000 IDamp=-1.
 Damping current iteration by 5.00D-01
 RMSDP=2.62D-02 MaxDP=6.92D-01              OVMax= 4.95D-01

 Cycle   2  Pass 0  IDiag  1:
 E= -166.960426096177     Delta-E=       -0.160582749642 Rises=F Damp=T
 DIIS: error= 3.00D-02 at cycle   2 NSaved=   2.
 NSaved= 2 IEnMin= 2 EnMin= -166.960426096177     IErMin= 2 ErrMin= 3.00D-02
 ErrMax= 3.00D-02  0.00D+00 EMaxC= 1.00D-01 BMatC= 9.78D-02 BMatP= 5.39D-01
 IDIUse=3 WtCom= 7.00D-01 WtEn= 3.00D-01
 Coeff-Com: -0.120D+00 0.112D+01
 Coeff-En:   0.000D+00 0.100D+01
 Coeff:     -0.841D-01 0.108D+01
 Gap=     0.406 Goal=   None    Shift=    0.000
 RMSDP=1.28D-02 MaxDP=3.34D-01 DE=-1.61D-01 OVMax= 1.52D-01

 Cycle   3  Pass 0  IDiag  1:
 E= -167.186770238062     Delta-E=       -0.226344141885 Rises=F Damp=F
 DIIS: error= 8.90D-03 at cycle   3 NSaved=   3.
 NSaved= 3 IEnMin= 3 EnMin= -167.186770238062     IErMin= 3 ErrMin= 8.90D-03
 ErrMax= 8.90D-03  0.00D+00 EMaxC= 1.00D-01 BMatC= 1.19D-02 BMatP= 9.78D-02
 IDIUse=3 WtCom= 9.11D-01 WtEn= 8.90D-02
 Coeff-Com: -0.123D+00 0.281D+00 0.842D+00
 Coeff-En:   0.000D+00 0.000D+00 0.100D+01
 Coeff:     -0.112D+00 0.256D+00 0.856D+00
 Gap=     0.405 Goal=   None    Shift=    0.000
 RMSDP=2.52D-03 MaxDP=3.62D-02 DE=-2.26D-01 OVMax= 1.04D-01

 Cycle   4  Pass 0  IDiag  1:
 E= -167.205818678370     Delta-E=       -0.019048440308 Rises=F Damp=F
 DIIS: error= 2.34D-03 at cycle   4 NSaved=   4.
 NSaved= 4 IEnMin= 4 EnMin= -167.205818678370     IErMin= 4 ErrMin= 2.34D-03
 ErrMax= 2.34D-03  0.00D+00 EMaxC= 1.00D-01 BMatC= 1.36D-03 BMatP= 1.19D-02
 IDIUse=3 WtCom= 9.77D-01 WtEn= 2.34D-02
 Coeff-Com: -0.349D-01 0.526D-01 0.247D+00 0.735D+00
 Coeff-En:   0.000D+00 0.000D+00 0.000D+00 0.100D+01
 Coeff:     -0.341D-01 0.514D-01 0.241D+00 0.742D+00
 Gap=     0.426 Goal=   None    Shift=    0.000
 RMSDP=7.80D-04 MaxDP=1.33D-02 DE=-1.90D-02 OVMax= 3.58D-02

 Cycle   5  Pass 0  IDiag  1:
 E= -167.208596349187     Delta-E=       -0.002777670817 Rises=F Damp=F
 DIIS: error= 1.39D-03 at cycle   5 NSaved=   5.
 NSaved= 5 IEnMin= 5 EnMin= -167.208596349187     IErMin= 5 ErrMin= 1.39D-03
 ErrMax= 1.39D-03  0.00D+00 EMaxC= 1.00D-01 BMatC= 3.08D-04 BMatP= 1.36D-03
 IDIUse=3 WtCom= 9.86D-01 WtEn= 1.39D-02
 Coeff-Com:  0.107D-01-0.279D-01-0.160D+00 0.156D+00 0.102D+01
 Coeff-En:   0.000D+00 0.000D+00 0.000D+00 0.000D+00 0.100D+01
 Coeff:      0.105D-01-0.275D-01-0.158D+00 0.154D+00 0.102D+01
 Gap=     0.432 Goal=   None    Shift=    0.000
 RMSDP=6.68D-04 MaxDP=1.23D-02 DE=-2.78D-03 OVMax= 3.27D-02

 Cycle   6  Pass 0  IDiag  1:
 E= -167.209616236413     Delta-E=       -0.001019887227 Rises=F Damp=F
 DIIS: error= 3.34D-04 at cycle   6 NSaved=   6.
 NSaved= 6 IEnMin= 6 EnMin= -167.209616236413     IErMin= 6 ErrMin= 3.34D-04
 ErrMax= 3.34D-04  0.00D+00 EMaxC= 1.00D-01 BMatC= 2.01D-05 BMatP= 3.08D-04
 IDIUse=3 WtCom= 9.97D-01 WtEn= 3.34D-03
 Coeff-Com: -0.512D-02 0.101D-01-0.301D-02-0.864D-01-0.234D-01 0.111D+01
 Coeff-En:   0.000D+00 0.000D+00 0.000D+00 0.000D+00 0.000D+00 0.100D+01
 Coeff:     -0.511D-02 0.101D-01-0.300D-02-0.861D-01-0.234D-01 0.111D+01
 Gap=     0.426 Goal=   None    Shift=    0.000
 RMSDP=1.72D-04 MaxDP=3.10D-03 DE=-1.02D-03 OVMax= 8.50D-03

 Cycle   7  Pass 0  IDiag  1:
 E= -167.209681708155     Delta-E=       -0.000065471742 Rises=F Damp=F
 DIIS: error= 8.68D-05 at cycle   7 NSaved=   7.
 NSaved= 7 IEnMin= 7 EnMin= -167.209681708155     IErMin= 7 ErrMin= 8.68D-05
 ErrMax= 8.68D-05  0.00D+00 EMaxC= 1.00D-01 BMatC= 5.46D-07 BMatP= 2.01D-05
 IDIUse=1 WtCom= 1.00D+00 WtEn= 0.00D+00
 Coeff-Com: -0.392D-03 0.839D-03 0.559D-02-0.336D-02-0.555D-01-0.160D-01
 Coeff-Com:  0.107D+01
 Coeff:     -0.392D-03 0.839D-03 0.559D-02-0.336D-02-0.555D-01-0.160D-01
 Coeff:      0.107D+01
 Gap=     0.426 Goal=   None    Shift=    0.000
 RMSDP=3.41D-05 MaxDP=6.07D-04 DE=-6.55D-05 OVMax= 1.66D-03

 Cycle   8  Pass 0  IDiag  1:
 E= -167.209683681872     Delta-E=       -0.000001973717 Rises=F Damp=F
 DIIS: error= 8.25D-06 at cycle   8 NSaved=   8.
 NSaved= 8 IEnMin= 8 EnMin= -167.209683681872     IErMin= 8 ErrMin= 8.25D-06
 ErrMax= 8.25D-06  0.00D+00 EMaxC= 1.00D-01 BMatC= 1.70D-08 BMatP= 5.46D-07
 IDIUse=1 WtCom= 1.00D+00 WtEn= 0.00D+00
 Coeff-Com:  0.161D-03-0.361D-03 0.612D-03 0.142D-02-0.700D-02-0.262D-01
 Coeff-Com:  0.143D+00 0.889D+00
 Coeff:      0.161D-03-0.361D-03 0.612D-03 0.142D-02-0.700D-02-0.262D-01
 Coeff:      0.143D+00 0.889D+00
 Gap=     0.426 Goal=   None    Shift=    0.000
 RMSDP=2.77D-06 MaxDP=5.37D-05 DE=-1.97D-06 OVMax= 1.27D-04

 Initial convergence to 1.0D-05 achieved.  Increase integral accuracy.
 Cycle   9  Pass 1  IDiag  1:
 E= -167.209696603814     Delta-E=       -0.000012921942 Rises=F Damp=F
 DIIS: error= 1.66D-05 at cycle   1 NSaved=   1.
 NSaved= 1 IEnMin= 1 EnMin= -167.209696603814     IErMin= 1 ErrMin= 1.66D-05
 ErrMax= 1.66D-05  0.00D+00 EMaxC= 1.00D-01 BMatC= 3.72D-08 BMatP= 3.72D-08
 IDIUse=1 WtCom= 1.00D+00 WtEn= 0.00D+00
 Coeff-Com:  0.100D+01
 Coeff:      0.100D+01
 Gap=     0.426 Goal=   None    Shift=    0.000
 RMSDP=2.77D-06 MaxDP=5.37D-05 DE=-1.29D-05 OVMax= 4.23D-05

 Cycle  10  Pass 1  IDiag  1:
 E= -167.209696625990     Delta-E=       -0.000000022176 Rises=F Damp=F
 DIIS: error= 1.88D-06 at cycle   2 NSaved=   2.
 NSaved= 2 IEnMin= 2 EnMin= -167.209696625990     IErMin= 2 ErrMin= 1.88D-06
 ErrMax= 1.88D-06  0.00D+00 EMaxC= 1.00D-01 BMatC= 6.18D-10 BMatP= 3.72D-08
 IDIUse=1 WtCom= 1.00D+00 WtEn= 0.00D+00
 Coeff-Com: -0.494D-01 0.105D+01
 Coeff:     -0.494D-01 0.105D+01
 Gap=     0.426 Goal=   None    Shift=    0.000
 RMSDP=4.01D-07 MaxDP=5.10D-06 DE=-2.22D-08 OVMax= 1.77D-05

 Cycle  11  Pass 1  IDiag  1:
 E= -167.209696626522     Delta-E=       -0.000000000531 Rises=F Damp=F
 DIIS: error= 1.45D-06 at cycle   3 NSaved=   3.
 NSaved= 3 IEnMin= 3 EnMin= -167.209696626522     IErMin= 3 ErrMin= 1.45D-06
 ErrMax= 1.45D-06  0.00D+00 EMaxC= 1.00D-01 BMatC= 4.67D-10 BMatP= 6.18D-10
 IDIUse=1 WtCom= 1.00D+00 WtEn= 0.00D+00
 Coeff-Com: -0.379D-01 0.510D+00 0.528D+00
 Coeff:     -0.379D-01 0.510D+00 0.528D+00
 Gap=     0.426 Goal=   None    Shift=    0.000
 RMSDP=1.08D-07 MaxDP=1.92D-06 DE=-5.31D-10 OVMax= 4.32D-06

 Cycle  12  Pass 1  IDiag  1:
 E= -167.209696626867     Delta-E=       -0.000000000345 Rises=F Damp=F
 DIIS: error= 2.40D-07 at cycle   4 NSaved=   4.
 NSaved= 4 IEnMin= 4 EnMin= -167.209696626867     IErMin= 4 ErrMin= 2.40D-07
 ErrMax= 2.40D-07  0.00D+00 EMaxC= 1.00D-01 BMatC= 7.41D-12 BMatP= 4.67D-10
 IDIUse=1 WtCom= 1.00D+00 WtEn= 0.00D+00
 Coeff-Com:  0.541D-02-0.113D+00-0.155D-01 0.112D+01
 Coeff:      0.541D-02-0.113D+00-0.155D-01 0.112D+01
 Gap=     0.426 Goal=   None    Shift=    0.000
 RMSDP=9.59D-08 MaxDP=1.52D-06 DE=-3.45D-10 OVMax= 4.42D-06

 Cycle  13  Pass 1  IDiag  1:
 E= -167.209696626890     Delta-E=       -0.000000000023 Rises=F Damp=F
 DIIS: error= 9.09D-08 at cycle   5 NSaved=   5.
 NSaved= 5 IEnMin= 5 EnMin= -167.209696626890     IErMin= 5 ErrMin= 9.09D-08
 ErrMax= 9.09D-08  0.00D+00 EMaxC= 1.00D-01 BMatC= 9.88D-13 BMatP= 7.41D-12
 IDIUse=1 WtCom= 1.00D+00 WtEn= 0.00D+00
 Coeff-Com:  0.322D-02-0.528D-01-0.364D-01 0.246D+00 0.840D+00
 Coeff:      0.322D-02-0.528D-01-0.364D-01 0.246D+00 0.840D+00
 Gap=     0.426 Goal=   None    Shift=    0.000
 RMSDP=2.40D-08 MaxDP=3.67D-07 DE=-2.32D-11 OVMax= 1.01D-06

 Cycle  14  Pass 1  IDiag  1:
 E= -167.209696626894     Delta-E=       -0.000000000003 Rises=F Damp=F
 DIIS: error= 3.08D-08 at cycle   6 NSaved=   6.
 NSaved= 6 IEnMin= 6 EnMin= -167.209696626894     IErMin= 6 ErrMin= 3.08D-08
 ErrMax= 3.08D-08  0.00D+00 EMaxC= 1.00D-01 BMatC= 1.80D-13 BMatP= 9.88D-13
 IDIUse=1 WtCom= 1.00D+00 WtEn= 0.00D+00
 Coeff-Com:  0.312D-03-0.643D-04-0.115D-01-0.101D+00 0.295D+00 0.817D+00
 Coeff:      0.312D-03-0.643D-04-0.115D-01-0.101D+00 0.295D+00 0.817D+00
 Gap=     0.426 Goal=   None    Shift=    0.000
 RMSDP=1.04D-08 MaxDP=1.70D-07 DE=-3.24D-12 OVMax= 4.70D-07

 Cycle  15  Pass 1  IDiag  1:
 E= -167.209696626894     Delta-E=        0.000000000000 Rises=F Damp=F
 DIIS: error= 5.28D-09 at cycle   7 NSaved=   7.
 NSaved= 7 IEnMin= 7 EnMin= -167.209696626894     IErMin= 7 ErrMin= 5.28D-09
 ErrMax= 5.28D-09  0.00D+00 EMaxC= 1.00D-01 BMatC= 3.85D-15 BMatP= 1.80D-13
 IDIUse=1 WtCom= 1.00D+00 WtEn= 0.00D+00
 Coeff-Com: -0.159D-03 0.270D-02 0.141D-02-0.148D-01-0.390D-01 0.490D-01
 Coeff-Com:  0.100D+01
 Coeff:     -0.159D-03 0.270D-02 0.141D-02-0.148D-01-0.390D-01 0.490D-01
 Coeff:      0.100D+01
 Gap=     0.426 Goal=   None    Shift=    0.000
 RMSDP=2.29D-09 MaxDP=3.93D-08 DE=-3.98D-13 OVMax= 7.71D-08

 SCF Done:  E(RwB97XD) =  -167.209696627     A.U. after   15 cycles
            NFock= 15  Conv=0.23D-08     -V/T= 2.0044
 KE= 1.664833499029D+02 PE=-5.607932748412D+02 EE= 1.422804315001D+02
 Leave Link  502 at Wed Nov 27 13:31:33 2024, MaxMem= 24159191040 cpu:        28.5
 (Enter /usr/local/g09/l801.exe)
 DoSCS=F DFT=T ScalE2(SS,OS)=  1.000000  1.000000
 Range of M.O.s used for correlation:     1   123
 NBasis=   123 NAE=    13 NBE=    13 NFC=     0 NFV=     0
 NROrb=    123 NOA=    13 NOB=    13 NVA=   110 NVB=   110

 **** Warning!!: The largest alpha MO coefficient is  0.10950473D+02

 Leave Link  801 at Wed Nov 27 13:31:33 2024, MaxMem= 24159191040 cpu:         0.1
 (Enter /usr/local/g09/l1101.exe)
 Using compressed storage, NAtomX=     8.
 Will process      9 centers per pass.
   2 Symmetry operations used in ECPInt.
 ECPInt:  NShTT=    1431 NPrTT=    4176 LenC2=    1427 LenP2D=    3688.
 LDataN:  DoStor=T MaxTD1= 7 Len=  274
 R6Disp: Adding Grimme-D2 dispersion energy 1st derivatives to the gradient.
 Leave Link 1101 at Wed Nov 27 13:31:33 2024, MaxMem= 24159191040 cpu:         3.2
 (Enter /usr/local/g09/l1102.exe)
 Symmetrizing basis deriv contribution to polar:
 IMax=3 JMax=2 DiffMx= 0.00D+00
 Leave Link 1102 at Wed Nov 27 13:31:33 2024, MaxMem= 24159191040 cpu:         0.1
 (Enter /usr/local/g09/l1110.exe)
 Forming Gx(P) for the SCF density, NAtomX=     8.
 Integral derivatives from FoFJK, PRISM(SPDF).
 Do as many integral derivatives as possible in FoFJK.
 G2DrvN: MDV=   24159190872.
 G2DrvN: will do     9 centers at a time, making    1 passes.
 Calling FoFCou, ICntrl=  3107 FMM=F I1Cent=   0 AccDes= 1.00D-12.
 FoFJK:  IHMeth= 1 ICntrl=    3107 DoSepK=T KAlg= 0 I1Cent=   0 FoldK=F
 IRaf=         1 NMat=   1 IRICut=       1 DoRegI=T DoRafI=F ISym2E= 1.
 FoFCou: FMM=F IPFlag=           0 FMFlag=      100000 FMFlg1=           0
         NFxFlg=           0 DoJE=F BraDBF=F KetDBF=F FulRan=T
         wScrn=  0.000000 ICntrl=    3507 IOpCl=  0 I1Cent=           0 NGrid=           0
         NMat0=    1 NMatS0=      1 NMatT0=    0 NMatD0=    1 NMtDS0=    0 NMtDT0=    0
 Petite list used in FoFCou.
 End of G2Drv F.D. properties file   721 does not exist.
 End of G2Drv F.D. properties file   722 does not exist.
 End of G2Drv F.D. properties file   788 does not exist.
 Leave Link 1110 at Wed Nov 27 13:31:36 2024, MaxMem= 24159191040 cpu:        43.7
 (Enter /usr/local/g09/l1002.exe)
 Minotr:  Closed shell wavefunction.
          IDoAtm=11111111
          Direct CPHF calculation.
          Differentiating once with respect to nuclear coordinates.
          Using symmetry in CPHF.
          Requested convergence is 1.0D-08 RMS, and 1.0D-07 maximum.
          Secondary convergence is 1.0D-12 RMS, and 1.0D-12 maximum.
          NewPWx=T KeepS1=F KeepF1=F KeepIn=T MapXYZ=F SortEE=F KeepMc=T.
          MDV=   24159190833 using IRadAn=       1.
 Generate precomputed XC quadrature information.
 Keep R1 ints in memory in canonical form, NReq=60206289.
 FoFCou: FMM=F IPFlag=           0 FMFlag=           0 FMFlg1=           0
         NFxFlg=           0 DoJE=F BraDBF=F KetDBF=F FulRan=T
         wScrn=  0.000000 ICntrl=     600 IOpCl=  0 I1Cent=           0 NGrid=           0
         NMat0=    1 NMatS0=   7626 NMatT0=    0 NMatD0=    1 NMtDS0=    0 NMtDT0=    0
 Symmetry not used in FoFCou.
          Solving linear equations simultaneously, MaxMat=       0.
          There are    18 degrees of freedom in the 1st order CPHF.  IDoFFX=4 NUNeed=    18.
     15 vectors produced by pass  0 Test12= 7.94D-15 5.56D-09 XBig12= 6.39D-02 8.40D-02.
 AX will form    15 AO Fock derivatives at one time.
     15 vectors produced by pass  1 Test12= 7.94D-15 5.56D-09 XBig12= 5.62D-03 2.24D-02.
     15 vectors produced by pass  2 Test12= 7.94D-15 5.56D-09 XBig12= 2.99D-04 6.38D-03.
     15 vectors produced by pass  3 Test12= 7.94D-15 5.56D-09 XBig12= 5.91D-06 5.13D-04.
     15 vectors produced by pass  4 Test12= 7.94D-15 5.56D-09 XBig12= 6.93D-08 4.88D-05.
     15 vectors produced by pass  5 Test12= 7.94D-15 5.56D-09 XBig12= 8.43D-10 4.90D-06.
     15 vectors produced by pass  6 Test12= 7.94D-15 5.56D-09 XBig12= 6.53D-12 5.07D-07.
      6 vectors produced by pass  7 Test12= 7.94D-15 5.56D-09 XBig12= 3.42D-14 3.24D-08.
 InvSVY:  IOpt=1 It=  1 EMax= 6.66D-16
 Solved reduced A of dimension   111 with    15 vectors.
 FullF1:  Do perturbations    4 to    18.
 End of Minotr F.D. properties file   721 does not exist.
 End of Minotr F.D. properties file   722 does not exist.
 End of Minotr F.D. properties file   788 does not exist.
 Leave Link 1002 at Wed Nov 27 13:31:43 2024, MaxMem= 24159191040 cpu:       116.3
 (Enter /usr/local/g09/l601.exe)
 Copying SCF densities to generalized density rwf, IOpCl= 0 IROHF=0.

 **********************************************************************

            Population analysis using the SCF density.

 **********************************************************************

 Orbital symmetries:
       Occupied  (A') (A") (A') (A') (A") (A') (A') (A") (A') (A")
                 (A') (A') (A")
       Virtual   (A') (A') (A") (A') (A") (A') (A") (A') (A") (A")
                 (A') (A") (A') (A') (A') (A') (A') (A") (A') (A')
                 (A") (A") (A') (A") (A') (A") (A') (A") (A') (A")
                 (A') (A") (A") (A') (A') (A") (A') (A") (A') (A')
                 (A") (A') (A') (A") (A') (A") (A') (A") (A') (A")
                 (A') (A") (A') (A') (A") (A") (A') (A') (A") (A')
                 (A") (A') (A') (A") (A') (A') (A") (A") (A') (A")
                 (A') (A") (A") (A') (A') (A') (A") (A") (A') (A')
                 (A") (A') (A') (A") (A') (A") (A') (A") (A") (A')
                 (A') (A") (A") (A') (A') (A') (A") (A') (A") (A")
                 (A') (A') (A") (A') (A") (A") (A') (A") (A') (A')
 The electronic state is 1-A'.
 Alpha  occ. eigenvalues --  -14.47032 -14.44209 -14.44208  -1.10505  -0.95687
 Alpha  occ. eigenvalues --   -0.81190  -0.61975  -0.59523  -0.55719  -0.55534
 Alpha  occ. eigenvalues --   -0.37854  -0.33398  -0.32859
 Alpha virt. eigenvalues --    0.09718   0.14760   0.14803   0.16045   0.21088
 Alpha virt. eigenvalues --    0.24308   0.33384   0.37463   0.40712   0.41923
 Alpha virt. eigenvalues --    0.44659   0.44801   0.45549   0.48889   0.51030
 Alpha virt. eigenvalues --    0.52119   0.56349   0.57734   0.57993   0.60256
 Alpha virt. eigenvalues --    0.61051   0.63331   0.68195   0.80955   0.96620
 Alpha virt. eigenvalues --    0.97863   1.17005   1.17460   1.23785   1.32112
 Alpha virt. eigenvalues --    1.34932   1.38398   1.44285   1.44953   1.49348
 Alpha virt. eigenvalues --    1.51736   1.54942   1.69666   1.73938   1.75881
 Alpha virt. eigenvalues --    1.80366   1.90192   1.96020   1.97581   2.00391
 Alpha virt. eigenvalues --    2.07388   2.08484   2.08900   2.10816   2.14115
 Alpha virt. eigenvalues --    2.15037   2.33624   2.33904   2.42041   2.44088
 Alpha virt. eigenvalues --    2.48987   2.49111   2.50961   2.55988   2.64098
 Alpha virt. eigenvalues --    2.71283   2.72047   2.75984   2.77595   3.04846
 Alpha virt. eigenvalues --    3.13588   3.15535   3.23483   3.47688   3.50158
 Alpha virt. eigenvalues --    3.74304   3.80264   3.88300   3.90255   3.94560
 Alpha virt. eigenvalues --    4.26538   4.30210   4.37991   4.40778   4.46484
 Alpha virt. eigenvalues --    4.46996   4.61166   4.67770   4.69626   4.73583
 Alpha virt. eigenvalues --    4.78347   4.79021   4.82871   4.90550   4.93042
 Alpha virt. eigenvalues --    4.97496   4.98851   5.00031   5.10913   5.17395
 Alpha virt. eigenvalues --    5.19665   5.28371   5.46691   5.60196   5.63184
 Alpha virt. eigenvalues --    5.64029   5.77766   5.78538   5.95123   5.97188
 Alpha virt. eigenvalues --    6.60826   6.91999  31.82187  31.82264  32.00342
          Condensed to atoms (all electrons):
               1          2          3          4          5          6
     1  N    6.516768   0.276983  -0.081144   0.380745   0.388529  -0.049639
     2  N    0.276983   6.483553   0.276983  -0.066740  -0.060380   0.379325
     3  N   -0.081144   0.276983   6.516768   0.001700   0.009334  -0.049639
     4  H    0.380745  -0.066740   0.001700   0.531583  -0.049757  -0.002997
     5  H    0.388529  -0.060380   0.009334  -0.049757   0.480405   0.007983
     6  H   -0.049639   0.379325  -0.049639  -0.002997   0.007983   0.484082
     7  H    0.001700  -0.066740   0.380745   0.018247  -0.002249  -0.002997
     8  H    0.009334  -0.060380   0.388529  -0.002249   0.003973   0.007983
               7          8
     1  N    0.001700   0.009334
     2  N   -0.066740  -0.060380
     3  N    0.380745   0.388529
     4  H    0.018247  -0.002249
     5  H   -0.002249   0.003973
     6  H   -0.002997   0.007983
     7  H    0.531583  -0.049757
     8  H   -0.049757   0.480405
 Mulliken charges:
               1
     1  N   -0.443276
     2  N   -0.162605
     3  N   -0.443276
     4  H    0.189469
     5  H    0.222161
     6  H    0.225898
     7  H    0.189469
     8  H    0.222161
 Sum of Mulliken charges =   0.00000
 Mulliken charges with hydrogens summed into heavy atoms:
               1
     1  N   -0.031646
     2  N    0.063293
     3  N   -0.031646
 APT charges:
               1
     1  N   -0.831574
     2  N   -0.428206
     3  N   -0.831574
     4  H    0.363130
     5  H    0.443908
     6  H    0.477279
     7  H    0.363130
     8  H    0.443908
 Sum of APT charges =   0.00000
 APT charges with hydrogens summed into heavy atoms:
               1
     1  N   -0.024536
     2  N    0.049072
     3  N   -0.024536
 Electronic spatial extent (au):  <R**2>=            172.5356
 Charge=              0.0000 electrons
 Dipole moment (field-independent basis, Debye):
    X=             -0.1081    Y=             -2.3960    Z=              0.0000  Tot=              2.3984
 Quadrupole moment (field-independent basis, Debye-Ang):
   XX=            -16.4026   YY=            -17.9478   ZZ=            -23.4677
   XY=             -1.3028   XZ=              0.0000   YZ=              0.0000
 Traceless Quadrupole moment (field-independent basis, Debye-Ang):
   XX=              2.8701   YY=              1.3249   ZZ=             -4.1950
   XY=             -1.3028   XZ=              0.0000   YZ=              0.0000
 Octapole moment (field-independent basis, Debye-Ang**2):
  XXX=              1.1723  YYY=             -2.3332  ZZZ=              0.0000  XYY=             -3.4719
  XXY=             -1.4919  XXZ=              0.0000  XZZ=              4.9970  YZZ=             -6.1207
  YYZ=              0.0000  XYZ=              0.0000
 Hexadecapole moment (field-independent basis, Debye-Ang**3):
 XXXX=            -24.8386 YYYY=            -43.6031 ZZZZ=           -165.9809 XXXY=             -1.2280
 XXXZ=              0.0000 YYYX=             -0.7323 YYYZ=              0.0000 ZZZX=              0.0000
 ZZZY=              0.0000 XXYY=            -10.0919 XXZZ=            -24.2759 YYZZ=            -28.5342
 XXYZ=              0.0000 YYXZ=              0.0000 ZZXY=              0.0350
 N-N= 8.481979681129D+01 E-N=-5.607932744757D+02  KE= 1.664833499029D+02
 Symmetry A'   KE= 1.085316986252D+02
 Symmetry A"   KE= 5.795165127765D+01
  Exact polarizability:   0.000   0.000   0.000   0.000   0.000   0.000
 Approx polarizability:  26.767   0.168  28.048   0.000   0.000  29.644
 No NMR shielding tensors so no spin-rotation constants.
 Leave Link  601 at Wed Nov 27 13:31:43 2024, MaxMem= 24159191040 cpu:         1.3
 (Enter /usr/local/g09/l701.exe)
 Compute integral second derivatives.
 ... and contract with generalized density number  0.
 R6Disp: Adding Grimme-D2 dispersion energy 2nd derivatives to the Hessian.
   2 Symmetry operations used in ECPInt.
 ECPInt:  NShTT=    1431 NPrTT=    4176 LenC2=    1427 LenP2D=    3688.
 LDataN:  DoStor=T MaxTD1= 8 Len=  415
 Leave Link  701 at Wed Nov 27 13:31:44 2024, MaxMem= 24159191040 cpu:         3.4
 (Enter /usr/local/g09/l702.exe)
 L702 exits ... SP integral derivatives will be done elsewhere.
 Leave Link  702 at Wed Nov 27 13:31:44 2024, MaxMem= 24159191040 cpu:         0.1
 (Enter /usr/local/g09/l703.exe)
 Compute integral second derivatives, UseDBF=F ICtDFT=           0.
 Integral derivatives from FoFJK, PRISM(SPDF).
 Calling FoFJK, ICntrl=    100147 FMM=F ISym2X=1 I1Cent= 0 IOpClX= 0 NMat=1 NMatS=1 NMatT=0.
 FoFJK:  IHMeth= 1 ICntrl=  100147 DoSepK=T KAlg= 0 I1Cent=   0 FoldK=F
 IRaf=         1 NMat=   1 IRICut=       1 DoRegI=T DoRafI=F ISym2E= 1.
 FoFCou: FMM=F IPFlag=           0 FMFlag=      100000 FMFlg1=         800
         NFxFlg=           0 DoJE=F BraDBF=F KetDBF=F FulRan=T
         wScrn=  0.000000 ICntrl=  100547 IOpCl=  0 I1Cent=           0 NGrid=           0
         NMat0=    1 NMatS0=      1 NMatT0=    0 NMatD0=    1 NMtDS0=    0 NMtDT0=    0
 Petite list used in FoFCou.
 Leave Link  703 at Wed Nov 27 13:31:48 2024, MaxMem= 24159191040 cpu:        66.0
 (Enter /usr/local/g09/l716.exe)
 Dipole        =-4.25270461D-02-9.42640364D-01 4.10782519D-15
 Polarizability= 0.00000000D+00 0.00000000D+00 0.00000000D+00
                 0.00000000D+00 0.00000000D+00 0.00000000D+00
 ***** Axes restored to original set *****
 -------------------------------------------------------------------
 Center     Atomic                   Forces (Hartrees/Bohr)
 Number     Number              X              Y              Z
 -------------------------------------------------------------------
      1        7          -0.000056992   -0.000017328   -0.000052064
      2        7           0.000005987    0.000016536    0.000007822
      3        7           0.000029144   -0.000045989   -0.000057399
      4        1          -0.000015165    0.000009466    0.000014707
      5        1          -0.000022989    0.000021891    0.000029241
      6        1           0.000006097    0.000014702    0.000019449
      7        1           0.000019334   -0.000002013    0.000012570
      8        1           0.000034585    0.000002734    0.000025675
 -------------------------------------------------------------------
 Cartesian Forces:  Max     0.000057399 RMS     0.000027627
 Force constants in Cartesian coordinates: 
                1             2             3             4             5 
      1  0.436204D+00
      2  0.194405D+00  0.368788D+00
      3  0.654520D-01  0.461964D-01  0.636883D+00
      4 -0.194413D+00 -0.688034D-01  0.831177D-01  0.461293D+00
      5 -0.247221D-01 -0.942902D-01  0.617203D-02  0.906378D-01  0.699303D+00
      6  0.151092D-01  0.177725D-01 -0.101062D+00 -0.363800D-02  0.239641D-01
      7 -0.591928D-01  0.368172D-01 -0.123076D-01 -0.120288D+00  0.448487D-01
      8  0.140624D-01  0.943857D-02  0.136767D-02  0.874007D-01 -0.177620D+00
      9  0.174745D-01 -0.995138D-02 -0.305931D-02 -0.573730D-01  0.470805D-01
     10 -0.551612D-01 -0.106049D-01 -0.471895D-01 -0.149123D-01 -0.127155D-01
     11 -0.159008D-01 -0.563172D-01  0.120186D+00  0.578942D-02 -0.456928D-02
     12 -0.266349D-01  0.742681D-01 -0.371202D+00  0.109939D-01  0.126288D-01
     13 -0.108007D+00 -0.118371D+00 -0.746299D-01 -0.282503D-01 -0.334711D-01
     14 -0.162701D+00 -0.230780D+00 -0.166908D+00  0.379541D-02 -0.877260D-02
     15 -0.894658D-01 -0.142022D+00 -0.167477D+00  0.132046D-01  0.176564D-01
     16 -0.275859D-01 -0.320785D-01 -0.967973D-02 -0.859032D-01 -0.116711D+00
     17 -0.252211D-02  0.412911D-03 -0.442826D-02 -0.113316D+00 -0.370177D+00
     18  0.167842D-01  0.173822D-01 -0.227621D-02 -0.464858D-01 -0.139160D+00
     19  0.799422D-02 -0.163859D-02 -0.725526D-02 -0.116981D-01  0.181684D-01
     20 -0.310572D-02  0.424934D-03 -0.231485D-02  0.288234D-03 -0.133708D-01
     21  0.172253D-02 -0.456357D-02  0.821910D-02 -0.157236D-02  0.148306D-01
     22  0.162193D-03  0.273828D-03  0.249234D-02 -0.582767D-02  0.339649D-01
     23  0.484102D-03  0.232228D-02 -0.270831D-03 -0.579230D-02 -0.305031D-01
     24 -0.441658D-03  0.917962D-03 -0.248326D-04  0.175291D-02  0.168272D-01
                6             7             8             9            10 
      6  0.243911D+00
      7  0.242051D-02  0.224792D+00
      8  0.107905D-01 -0.781760D-01  0.573588D+00
      9 -0.918581D-01  0.186282D-01  0.830188D-01  0.643495D+00
     10  0.453037D-01  0.758109D-02 -0.414074D-02  0.432938D-02  0.641947D-01
     11  0.568674D-02 -0.276580D-02  0.119012D-02 -0.618199D-02  0.146179D-01
     12 -0.151024D-01 -0.415322D-02 -0.244500D-02  0.786704D-02  0.185937D-01
     13 -0.982872D-02  0.432281D-03  0.116420D-02 -0.216440D-02 -0.706624D-03
     14  0.604411D-03  0.931746D-03  0.184718D-02  0.124533D-02  0.101725D-01
     15  0.112951D-01  0.888734D-03  0.414576D-03  0.180183D-03 -0.179877D-01
     16 -0.282477D-01 -0.646799D-03  0.352903D-01  0.621296D-02 -0.110779D-03
     17 -0.843464D-01  0.253433D-02 -0.266678D-01 -0.105848D-01  0.609949D-03
     18 -0.482708D-01 -0.306418D-02  0.192580D-01 -0.213454D-02  0.976010D-03
     19 -0.325265D-01 -0.274804D-01  0.263595D-02  0.716327D-01 -0.359219D-03
     20  0.318579D-01  0.122392D-01 -0.731506D-01  0.783360D-01  0.153697D-02
     21 -0.951508D-02  0.279413D-01  0.547181D-01 -0.382049D+00 -0.358877D-02
     22  0.114074D-01 -0.251975D-01 -0.582368D-01 -0.587404D-01 -0.525720D-03
     23 -0.632979D-02 -0.164293D-01 -0.308626D+00 -0.182963D+00  0.523807D-03
     24  0.106030D-01 -0.303538D-01 -0.167123D+00 -0.172441D+00 -0.436852D-03
               11            12            13            14            15 
     11  0.560406D-01
     12 -0.942612D-01  0.401805D+00
     13 -0.414792D-03 -0.310447D-02  0.143351D+00
     14  0.361858D-02  0.115734D-01  0.150847D+00  0.231672D+00
     15 -0.297563D-01 -0.203096D-01  0.886839D-01  0.153513D+00  0.176769D+00
     16 -0.130293D-02  0.366045D-03 -0.550221D-02 -0.285609D-02  0.492368D-02
     17 -0.817445D-03 -0.266270D-03 -0.522403D-04  0.236729D-02  0.126282D-02
     18  0.360593D-02 -0.117148D-02  0.147424D-02  0.388507D-03  0.288105D-03
     19 -0.348307D-03  0.333431D-02 -0.928392D-03 -0.141595D-03  0.234252D-03
     20  0.129153D-02 -0.150242D-02 -0.529966D-05 -0.608817D-04 -0.391347D-03
     21  0.917904D-03 -0.103320D-02 -0.472723D-03  0.412657D-03 -0.826676D-03
     22  0.325227D-03  0.604679D-03 -0.387802D-03 -0.475192D-04 -0.481747D-03
     23 -0.436841D-03  0.465111D-05  0.303452D-03  0.108110D-03 -0.677228D-03
     24 -0.196823D-03 -0.853389D-03  0.420335D-04 -0.829766D-03  0.813678D-04
               16            17            18            19            20 
     16  0.121394D+00
     17  0.110752D+00  0.397931D+00
     18  0.297147D-01  0.946823D-01  0.538175D-01
     19  0.560373D-04 -0.123692D-02  0.120370D-02  0.357954D-01
     20  0.111578D-02 -0.102618D-02  0.337690D-02 -0.139185D-01  0.781747D-01
     21 -0.548747D-03  0.149076D-03 -0.112956D-02 -0.310967D-01 -0.753745D-01
     22 -0.170107D-02  0.323047D-02 -0.602794D-03 -0.337959D-02  0.184938D-02
     23  0.579024D-02 -0.202272D-02  0.465657D-03 -0.352045D-02  0.771725D-02
     24 -0.274122D-02  0.353149D-02  0.876986D-03 -0.552653D-02 -0.339876D-01
               21            22            23            24 
     21  0.408070D+00
     22  0.761543D-02  0.368572D-01
     23  0.890983D-02  0.186405D-01  0.331441D+00
     24 -0.217353D-01  0.377051D-01  0.180860D+00  0.183493D+00
 FormGI is forming the generalized inverse of G from B-inverse, IUseBI=4.
 Force constants in internal coordinates: 
                1             2             3             4             5 
      1  0.357001D+00
      2  0.136843D-01  0.425982D+00
      3  0.687734D-02  0.461703D-04  0.455666D+00
      4  0.283475D-01  0.553997D-02  0.107890D-02  0.357001D+00
      5  0.525641D-02 -0.319757D-03 -0.172118D-02  0.525641D-02  0.460788D+00
      6  0.553997D-02 -0.120450D-02  0.247450D-03  0.136843D-01 -0.319759D-03
      7  0.107890D-02  0.247450D-03 -0.433635D-03  0.687734D-02 -0.172118D-02
      8  0.406638D-01  0.369060D-02  0.170118D-03 -0.111867D-01 -0.212156D-02
      9  0.511814D-01 -0.366659D-03  0.527925D-02  0.445853D-02  0.496272D-02
     10 -0.258797D-01  0.115913D-01  0.978390D-02  0.403899D-03 -0.123540D-02
     11  0.203197D-01 -0.835568D-02 -0.440344D-02  0.203197D-01  0.326677D-02
     12  0.289338D-01  0.348505D-02  0.389188D-02 -0.228957D-01  0.270423D-02
     13 -0.228957D-01  0.121340D-02 -0.795505D-03  0.289338D-01  0.270423D-02
     14 -0.111867D-01  0.665550D-02  0.219484D-03  0.406638D-01 -0.212156D-02
     15  0.445853D-02 -0.766651D-03  0.987012D-03  0.511814D-01  0.496272D-02
     16  0.403898D-03 -0.120219D-02 -0.160836D-03 -0.258797D-01 -0.123540D-02
     17  0.171411D-01  0.616289D-02  0.759604D-02  0.134253D-01  0.409266D-02
     18  0.109691D-01  0.744592D-02  0.854712D-02 -0.200916D-01 -0.371781D-02
     19 -0.899020D-02 -0.102283D-01 -0.806636D-02  0.168863D-01  0.369872D-02
     20 -0.151622D-01 -0.894525D-02 -0.711528D-02 -0.166306D-01 -0.411175D-02
     21 -0.134253D-01 -0.766351D-03 -0.129299D-02 -0.171411D-01 -0.409266D-02
     22 -0.168863D-01  0.132653D-02 -0.716122D-03  0.899020D-02 -0.369872D-02
     23  0.200916D-01 -0.850868D-03  0.228963D-03 -0.109691D-01  0.371781D-02
     24  0.166306D-01  0.124202D-02  0.805831D-03  0.151622D-01  0.411175D-02
                6             7             8             9            10 
      6  0.425982D+00
      7  0.461706D-04  0.455666D+00
      8  0.665550D-02  0.219484D-03  0.168133D+00
      9 -0.766651D-03  0.987011D-03 -0.395455D-01  0.163762D+00
     10 -0.120219D-02 -0.160836D-03 -0.533496D-01 -0.541130D-01  0.646630D-01
     11 -0.835567D-02 -0.440344D-02 -0.102168D-01 -0.400940D-02  0.607862D-02
     12  0.121340D-02 -0.795505D-03  0.173775D-02  0.101093D-01 -0.616530D-02
     13  0.348505D-02  0.389188D-02  0.410710D-02 -0.613392D-02  0.142773D-02
     14  0.369060D-02  0.170118D-03  0.240996D-02  0.198626D-02 -0.133088D-02
     15 -0.366660D-03  0.527925D-02  0.198626D-02  0.268309D-03 -0.306686D-03
     16  0.115913D-01  0.978390D-02 -0.133088D-02 -0.306686D-03  0.916024D-03
     17  0.766351D-03  0.129299D-02  0.549709D-02  0.648567D-02  0.672432D-02
     18  0.850867D-03 -0.228962D-03  0.560414D-02  0.930708D-02  0.559763D-02
     19 -0.132653D-02  0.716121D-03 -0.577584D-02 -0.865173D-02 -0.552787D-02
     20 -0.124202D-02 -0.805830D-03 -0.566880D-02 -0.583032D-02 -0.665456D-02
     21 -0.616289D-02 -0.759604D-02  0.109087D-03 -0.377407D-02  0.145699D-02
     22  0.102283D-01  0.806636D-02  0.122861D-02 -0.276176D-02  0.157684D-02
     23 -0.744592D-02 -0.854712D-02 -0.124801D-02  0.197432D-02 -0.142235D-02
     24  0.894525D-02  0.711528D-02 -0.128486D-03  0.298664D-02 -0.130250D-02
               11            12            13            14            15 
     11  0.279958D+00
     12 -0.826925D-01  0.851947D-01
     13 -0.826925D-01 -0.284200D-01  0.851947D-01
     14 -0.102168D-01  0.410710D-02  0.173775D-02  0.168133D+00
     15 -0.400940D-02 -0.613392D-02  0.101093D-01 -0.395455D-01  0.163762D+00
     16  0.607862D-02  0.142773D-02 -0.616530D-02 -0.533496D-01 -0.541130D-01
     17  0.766555D-02 -0.129951D-01  0.169395D-01 -0.109087D-03  0.377407D-02
     18 -0.695396D-02  0.130445D-01 -0.169632D-01  0.124801D-02 -0.197432D-02
     19  0.900311D-02 -0.129911D-01  0.166389D-01 -0.122861D-02  0.276176D-02
     20 -0.561640D-02  0.130486D-01 -0.172638D-01  0.128486D-03 -0.298664D-02
     21 -0.766555D-02 -0.169395D-01  0.129951D-01 -0.549709D-02 -0.648567D-02
     22 -0.900311D-02 -0.166389D-01  0.129911D-01  0.577584D-02  0.865173D-02
     23  0.695396D-02  0.169632D-01 -0.130445D-01 -0.560414D-02 -0.930708D-02
     24  0.561640D-02  0.172638D-01 -0.130486D-01  0.566880D-02  0.583032D-02
               16            17            18            19            20 
     16  0.646630D-01
     17 -0.145699D-02  0.188896D-01
     18  0.142235D-02  0.177160D-02  0.184072D-01
     19 -0.157684D-02  0.296840D-02 -0.146529D-01  0.189857D-01
     20  0.130250D-02 -0.141496D-01  0.198274D-02  0.136441D-02  0.174967D-01
     21 -0.672432D-02 -0.156049D-02 -0.235811D-03 -0.979804D-03  0.344876D-03
     22  0.552787D-02 -0.979804D-03  0.100892D-02 -0.189224D-02  0.964924D-04
     23 -0.559763D-02 -0.235811D-03 -0.103958D-02  0.100892D-02  0.205150D-03
     24  0.665456D-02  0.344876D-03  0.205150D-03  0.964925D-04 -0.432331D-04
               21            22            23            24 
     21  0.188896D-01
     22  0.296840D-02  0.189857D-01
     23  0.177160D-02 -0.146529D-01  0.184072D-01
     24 -0.141496D-01  0.136441D-02  0.198274D-02  0.174967D-01
 Leave Link  716 at Wed Nov 27 13:31:48 2024, MaxMem= 24159191040 cpu:         0.1
 (Enter /usr/local/g09/l103.exe)

 GradGradGradGradGradGradGradGradGradGradGradGradGradGradGradGradGradGrad
 Berny optimization.
 Red2BG is reusing G-inverse.
 Internal  Forces:  Max     0.000143773 RMS     0.000045960
 Search for a local minimum.
 Step number   1 out of a maximum of   34 on scan point     1 out of  2116
 All quantities printed in internal units (Hartrees-Bohrs-Radians)
 RMS Force = .47066D-04 SwitMx=.10000D-02 MixMth= 2
 Mixed Optimization -- En-DIIS/RFO-DIIS
 Second derivative matrix not updated -- analytic derivatives used.
 ITU=  0
     Eigenvalues ---    0.01676   0.02563   0.04457   0.10900   0.14727
     Eigenvalues ---    0.15838   0.20377   0.20847   0.32649   0.37471
     Eigenvalues ---    0.40256   0.42901   0.43560   0.45753   0.45780
     Eigenvalues ---    0.463221000.000001000.000001000.000001000.00000
     Eigenvalues --- 1000.000001000.000001000.000001000.00000
 RFO step:  Lambda=-1.71243033D-07 EMin= 1.67576415D-02
 Linear search not attempted -- first point.
 Iteration  1 RMS(Cart)=  0.00056700 RMS(Int)=  0.00000014
 Iteration  2 RMS(Cart)=  0.00000012 RMS(Int)=  0.00000004
 Iteration  1 RMS(Cart)=  0.00000017 RMS(Int)=  0.00000013
 ITry= 1 IFail=0 DXMaxC= 1.52D-03 DCOld= 1.00D+10 DXMaxT= 5.00D-02 DXLimC= 3.00D+00 Rises=F
 ClnCor:  largest displacement from symmetrization is 6.89D-07 for atom     7.
 Variable       Old X    -DE/DX   Delta X   Delta X   Delta X     New X
                                 (Linear)    (Quad)   (Total)
    R1        2.66447   0.00008   0.00000   0.00012   0.00012   2.66459
    R2        1.92496   0.00001   0.00000   0.00000   0.00000   1.92496
    R3        1.91032  -0.00002   0.00000  -0.00006  -0.00006   1.91026
    R4        2.66447   0.00008   0.00000   0.00012   0.00012   2.66459
    R5        1.90535   0.00002   0.00000   0.00004   0.00004   1.90539
    R6        1.92496   0.00001   0.00000   0.00000   0.00000   1.92496
    R7        1.91032  -0.00002   0.00000  -0.00006  -0.00006   1.91026
    A1        1.95141   0.00002   0.00000   0.00019   0.00019   1.95160
    A2        1.89582   0.00006   0.00000   0.00038   0.00038   1.89619
    A3        1.89050  -0.00002   0.00000   0.00006   0.00006   1.89056
    A4        2.04040   0.00014   0.00000   0.00042   0.00042   2.04082
    A5        1.87498  -0.00004   0.00000  -0.00020  -0.00020   1.87478
    A6        1.87498  -0.00004   0.00000  -0.00020  -0.00020   1.87478
    A7        1.95141   0.00002   0.00000   0.00019   0.00019   1.95160
    A8        1.89582   0.00006   0.00000   0.00038   0.00038   1.89619
    A9        1.89050  -0.00002   0.00000   0.00006   0.00006   1.89056
    D1        0.66895   0.00002   0.00000   0.00000   0.00000   0.66895
    D2       -1.43860   0.00001   0.00000   0.00013   0.00013  -1.43847
    D3       -1.41628  -0.00001   0.00000  -0.00044  -0.00044  -1.41672
    D4        2.75936  -0.00002   0.00000  -0.00030  -0.00030   2.75905
    D5       -0.66895  -0.00002   0.00000   0.00000   0.00000  -0.66895
    D6        1.41628   0.00001   0.00000   0.00044   0.00044   1.41672
    D7        1.43860  -0.00001   0.00000  -0.00013  -0.00013   1.43847
    D8       -2.75936   0.00002   0.00000   0.00030   0.00030  -2.75905
         Item               Value     Threshold  Converged?
 Maximum Force            0.000140     0.000450     YES
 RMS     Force            0.000047     0.000300     YES
 Maximum Displacement     0.001516     0.001800     YES
 RMS     Displacement     0.000567     0.001200     YES
 Predicted change in Energy=-8.561970D-08
 Optimization completed.
    -- Stationary point found.
                           ----------------------------
                           !   Optimized Parameters   !
                           ! (Angstroms and Degrees)  !
 --------------------------                            --------------------------
 ! Name  Definition              Value          Derivative Info.                !
 --------------------------------------------------------------------------------
 ! R1    R(1,2)                  1.41           -DE/DX =    0.0001              !
 ! R2    R(1,4)                  1.0186         -DE/DX =    0.0                 !
 ! R3    R(1,5)                  1.0109         -DE/DX =    0.0                 !
 ! R4    R(2,3)                  1.41           -DE/DX =    0.0001              !
 ! R5    R(2,6)                  1.0083         -DE/DX =    0.0                 !
 ! R6    R(3,7)                  1.0186         -DE/DX =    0.0                 !
 ! R7    R(3,8)                  1.0109         -DE/DX =    0.0                 !
 ! A1    A(2,1,4)              111.8074         -DE/DX =    0.0                 !
 ! A2    A(2,1,5)              108.6224         -DE/DX =    0.0001              !
 ! A3    A(4,1,5)              108.3176         -DE/DX =    0.0                 !
 ! A4    A(1,2,3)              116.9064         -DE/DX =    0.0001              !
 ! A5    A(1,2,6)              107.4285         -DE/DX =    0.0                 !
 ! A6    A(3,2,6)              107.4285         -DE/DX =    0.0                 !
 ! A7    A(2,3,7)              111.8074         -DE/DX =    0.0                 !
 ! A8    A(2,3,8)              108.6224         -DE/DX =    0.0001              !
 ! A9    A(7,3,8)              108.3176         -DE/DX =    0.0                 !
 ! D1    D(4,1,2,3)             38.3277         -DE/DX =    0.0                 !
 ! D2    D(4,1,2,6)            -82.4256         -DE/DX =    0.0                 !
 ! D3    D(5,1,2,3)            -81.1471         -DE/DX =    0.0                 !
 ! D4    D(5,1,2,6)            158.0996         -DE/DX =    0.0                 !
 ! D5    D(1,2,3,7)            -38.3277         -DE/DX =    0.0                 !
 ! D6    D(1,2,3,8)             81.1471         -DE/DX =    0.0                 !
 ! D7    D(6,2,3,7)             82.4256         -DE/DX =    0.0                 !
 ! D8    D(6,2,3,8)           -158.0996         -DE/DX =    0.0                 !
 --------------------------------------------------------------------------------
 Lowest energy point so far.  Saving SCF results.
 Iteration  1 RMS(Cart)=  0.02432887 RMS(Int)=  0.01893103
 Iteration  2 RMS(Cart)=  0.00078947 RMS(Int)=  0.01891363
 Iteration  3 RMS(Cart)=  0.00002237 RMS(Int)=  0.01891363
 Iteration  4 RMS(Cart)=  0.00000066 RMS(Int)=  0.01891363
 Iteration  1 RMS(Cart)=  0.01101130 RMS(Int)=  0.00867586
 Iteration  2 RMS(Cart)=  0.00522864 RMS(Int)=  0.00967329
 Iteration  3 RMS(Cart)=  0.00257892 RMS(Int)=  0.01074769
 Iteration  4 RMS(Cart)=  0.00130373 RMS(Int)=  0.01138027
 Iteration  5 RMS(Cart)=  0.00066805 RMS(Int)=  0.01171903
 Iteration  6 RMS(Cart)=  0.00034467 RMS(Int)=  0.01189593
 Iteration  7 RMS(Cart)=  0.00017842 RMS(Int)=  0.01198759
 Iteration  8 RMS(Cart)=  0.00009251 RMS(Int)=  0.01203499
 Iteration  9 RMS(Cart)=  0.00004800 RMS(Int)=  0.01205949
 Iteration 10 RMS(Cart)=  0.00002491 RMS(Int)=  0.01207217
 Iteration 11 RMS(Cart)=  0.00001293 RMS(Int)=  0.01207873
 Iteration 12 RMS(Cart)=  0.00000671 RMS(Int)=  0.01208213
 Iteration 13 RMS(Cart)=  0.00000349 RMS(Int)=  0.01208389
 Iteration 14 RMS(Cart)=  0.00000181 RMS(Int)=  0.01208481
 Iteration 15 RMS(Cart)=  0.00000094 RMS(Int)=  0.01208528
 GradGradGradGradGradGradGradGradGradGradGradGradGradGradGradGradGradGrad

 Leave Link  103 at Wed Nov 27 13:31:48 2024, MaxMem= 24159191040 cpu:         1.0
 (Enter /usr/local/g09/l202.exe)
                          Input orientation:                          
 ---------------------------------------------------------------------
 Center     Atomic      Atomic             Coordinates (Angstroms)
 Number     Number       Type             X           Y           Z
 ---------------------------------------------------------------------
      1          7           0       -1.289700    0.176472    0.015579
      2          7           0        0.008859    0.355644   -0.503952
      3          7           0        0.998555   -0.572513   -0.120202
      4          1           0       -1.299020   -0.008472    1.017695
      5          1           0       -1.768462   -0.555837   -0.490769
      6          1           0        0.294781    1.290252   -0.255889
      7          1           0        0.900180   -0.843883    0.856755
      8          1           0        0.894188   -1.403616   -0.686132
 ---------------------------------------------------------------------
                    Distance matrix (angstroms):
                    1          2          3          4          5
     1  N    0.000000
     2  N    1.410060   0.000000
     3  N    2.411540   1.410049   0.000000
     4  H    1.019082   2.039249   2.625224   0.000000
     5  H    1.010879   1.997459   2.791770   1.671959   0.000000
     6  H    1.955705   1.008354   1.995896   2.418451   2.778522
     7  H    2.558178   2.021099   1.018707   2.358028   3.003405
     8  H    2.785398   1.977876   1.010891   3.107992   2.801179
                    6          7          8
     6  H    0.000000
     7  H    2.481737   0.000000
     8  H    2.793084   1.641291   0.000000
 Stoichiometry    H5N3
 Framework group  C1[X(H5N3)]
 Deg. of freedom    18
 Full point group                 C1      NOp   1
 Omega: Change in point group or standard orientation.

 Old FWG=CS   [SG(H1N1),X(H4N2)]
 New FWG=C01  [X(H5N3)]
 RotChk:  IX=0 Diff= 2.01D+00
 Largest Abelian subgroup         C1      NOp   1
 Largest concise Abelian subgroup C1      NOp   1
                         Standard orientation:                         
 ---------------------------------------------------------------------
 Center     Atomic      Atomic             Coordinates (Angstroms)
 Number     Number       Type             X           Y           Z
 ---------------------------------------------------------------------
      1          7           0       -1.201398   -0.162497    0.014849
      2          7           0        0.004513    0.556283   -0.117078
      3          7           0        1.210064   -0.159299    0.034012
      4          1           0       -1.214861   -0.778138    0.826843
      5          1           0       -1.392317   -0.679254   -0.832729
      6          1           0       -0.034705    1.314171    0.546883
      7          1           0        1.141071   -0.859914    0.770315
      8          1           0        1.408562   -0.638273   -0.833792
 ---------------------------------------------------------------------
 Rotational constants (GHZ):     41.5355322      9.9832158      8.9470993
 Leave Link  202 at Wed Nov 27 13:31:48 2024, MaxMem= 24159191040 cpu:         0.0
 (Enter /usr/local/g09/l301.exe)
 Standard basis: def2TZVP (5D, 7F)
 Ernie: Thresh=  0.10000D-02 Tol=  0.10000D-05 Strict=F.
 There are   138 symmetry adapted cartesian basis functions of A   symmetry.
 There are   123 symmetry adapted basis functions of A   symmetry.
   123 basis functions,   193 primitive gaussians,   138 cartesian basis functions
    13 alpha electrons       13 beta electrons
       nuclear repulsion energy        84.6569158063 Hartrees.
 IExCor= 4639 DFT=T Ex+Corr=wB97XD ExCW=0 ScaHFX=  1.000000
 ScaDFX=  1.000000  1.000000  1.000000  1.000000 ScalE2=  1.000000  1.000000
 IRadAn=      5 IRanWt=     -1 IRanGd=            0 ICorTp=0 IEmpDi=121
  HFx wShort=  0.000000 wLong=  0.200000 cFull=  0.222036 cShort=  0.000000 cLong=  0.777964
  DFx wShort=  0.000000 wLong=  0.200000 cFull=  0.000000 cShort=  0.000000 cLong=  1.000000
 NAtoms=    8 NActive=    8 NUniq=    8 SFac= 1.00D+00 NAtFMM=   60 NAOKFM=F Big=F
 Integral buffers will be    131072 words long.
 Raffenetti 2 integral format.
 Two-electron integral symmetry is turned on.
 R6Disp:  Grimme-D2 Dispersion energy=       -0.0020060189 Hartrees.
 Nuclear repulsion after empirical dispersion term =       84.6549097873 Hartrees.
 Leave Link  301 at Wed Nov 27 13:31:48 2024, MaxMem= 24159191040 cpu:         0.2
 (Enter /usr/local/g09/l302.exe)
 NPDir=0 NMtPBC=     1 NCelOv=     1 NCel=       1 NClECP=     1 NCelD=      1
         NCelK=      1 NCelE2=     1 NClLst=     1 CellRange=     0.0.
 One-electron integrals computed using PRISM.
   1 Symmetry operations used in ECPInt.
 ECPInt:  NShTT=    1431 NPrTT=    4176 LenC2=    1427 LenP2D=    3686.
 LDataN:  DoStor=T MaxTD1= 6 Len=  172
 NBasis=   123 RedAO= T EigKep=  1.61D-03  NBF=   123
 NBsUse=   123 1.00D-06 EigRej= -1.00D+00 NBFU=   123
 Precomputing XC quadrature grid using
 IXCGrd= 4 IRadAn=           5 IRanWt=          -1 IRanGd=           0 AccXCQ= 0.00D+00.
 Generated NRdTot=       0 NPtTot=           0 NUsed=           0 NTot=          32
 NSgBfM=   138   138   138   138   138 MxSgAt=     8 MxSgA2=     8.
 Leave Link  302 at Wed Nov 27 13:31:48 2024, MaxMem= 24159191040 cpu:         1.4
 (Enter /usr/local/g09/l303.exe)
 DipDrv:  MaxL=1.
 Leave Link  303 at Wed Nov 27 13:31:48 2024, MaxMem= 24159191040 cpu:         0.1
 (Enter /usr/local/g09/l401.exe)
 Initial guess from the checkpoint file:  "check.chk"
 B after Tr=     0.000000    0.000000    0.000000
         Rot=    0.704970    0.077520   -0.700605    0.078483 Ang=  90.35 deg.
 Guess basis will be translated and rotated to current coordinates.
 JPrj=2 DoOrth=T DoCkMO=T.
 Generating alternative initial guess.
 ExpMin= 1.03D-01 ExpMax= 1.97D+04 ExpMxC= 6.73D+02 IAcc=2 IRadAn=         4 AccDes= 0.00D+00
 Harris functional with IExCor= 4639 and IRadAn=       4 diagonalized for initial guess.
 HarFok:  IExCor= 4639 AccDes= 0.00D+00 IRadAn=         4 IDoV= 1 UseB2=F ITyADJ=14
 ICtDFT=  3500011 ScaDFX=  1.000000  1.000000  1.000000  1.000000
 FoFCou: FMM=F IPFlag=           0 FMFlag=      100000 FMFlg1=           0
         NFxFlg=           0 DoJE=T BraDBF=F KetDBF=T FulRan=T
         wScrn=  0.000000 ICntrl=     500 IOpCl=  0 I1Cent=   200000004 NGrid=           0
         NMat0=    1 NMatS0=      1 NMatT0=    0 NMatD0=    1 NMtDS0=    0 NMtDT0=    0
 Petite list used in FoFCou.
 Harris En= -160.273463933006    
 Leave Link  401 at Wed Nov 27 13:31:48 2024, MaxMem= 24159191040 cpu:         2.2
 (Enter /usr/local/g09/l502.exe)
 Closed shell SCF:
 Using DIIS extrapolation, IDIIS=  1040.
 Integral symmetry usage will be decided dynamically.
 Keep R1 ints in memory in canonical form, NReq=60258235.
 IVT=       78910 IEndB=       78910 NGot= 24159191040 MDV= 24100948629
 LenX= 24100948629 LenY= 24100929144
 Requested convergence on RMS density matrix=1.00D-08 within 128 cycles.
 Requested convergence on MAX density matrix=1.00D-06.
 Requested convergence on             energy=1.00D-06.
 No special actions if energy rises.
 FoFCou: FMM=F IPFlag=           0 FMFlag=           0 FMFlg1=           0
         NFxFlg=           0 DoJE=F BraDBF=F KetDBF=F FulRan=T
         wScrn=  0.000000 ICntrl=     600 IOpCl=  0 I1Cent=           0 NGrid=           0
         NMat0=    1 NMatS0=   7626 NMatT0=    0 NMatD0=    1 NMtDS0=    0 NMtDT0=    0
 Symmetry not used in FoFCou.
 Integral accuracy reduced to 1.0D-05 until final iterations.

 Cycle   1  Pass 0  IDiag  1:
 E= -167.207416470852    
 DIIS: error= 2.23D-03 at cycle   1 NSaved=   1.
 NSaved= 1 IEnMin= 1 EnMin= -167.207416470852     IErMin= 1 ErrMin= 2.23D-03
 ErrMax= 2.23D-03  0.00D+00 EMaxC= 1.00D-01 BMatC= 1.39D-03 BMatP= 1.39D-03
 IDIUse=3 WtCom= 9.78D-01 WtEn= 2.23D-02
 Coeff-Com:  0.100D+01
 Coeff-En:   0.100D+01
 Coeff:      0.100D+01
 Gap=     0.809 Goal=   None    Shift=    0.000
 GapD=    0.809 DampG=2.000 DampE=1.000 DampFc=2.0000 IDamp=-1.
 RMSDP=3.02D-04 MaxDP=4.94D-03              OVMax= 1.09D-02

 Cycle   2  Pass 0  IDiag  1:
 E= -167.209011353979     Delta-E=       -0.001594883128 Rises=F Damp=F
 DIIS: error= 3.44D-04 at cycle   2 NSaved=   2.
 NSaved= 2 IEnMin= 2 EnMin= -167.209011353979     IErMin= 2 ErrMin= 3.44D-04
 ErrMax= 3.44D-04  0.00D+00 EMaxC= 1.00D-01 BMatC= 3.43D-05 BMatP= 1.39D-03
 IDIUse=3 WtCom= 9.97D-01 WtEn= 3.44D-03
 Coeff-Com: -0.136D+00 0.114D+01
 Coeff-En:   0.000D+00 0.100D+01
 Coeff:     -0.136D+00 0.114D+01
 Gap=     0.422 Goal=   None    Shift=    0.000
 RMSDP=9.71D-05 MaxDP=1.89D-03 DE=-1.59D-03 OVMax= 3.35D-03

 Cycle   3  Pass 0  IDiag  1:
 E= -167.209087889749     Delta-E=       -0.000076535769 Rises=F Damp=F
 DIIS: error= 7.97D-05 at cycle   3 NSaved=   3.
 NSaved= 3 IEnMin= 3 EnMin= -167.209087889749     IErMin= 3 ErrMin= 7.97D-05
 ErrMax= 7.97D-05  0.00D+00 EMaxC= 1.00D-01 BMatC= 2.25D-06 BMatP= 3.43D-05
 IDIUse=1 WtCom= 1.00D+00 WtEn= 0.00D+00
 Coeff-Com: -0.201D-01 0.806D-01 0.940D+00
 Coeff:     -0.201D-01 0.806D-01 0.940D+00
 Gap=     0.422 Goal=   None    Shift=    0.000
 RMSDP=2.32D-05 MaxDP=4.47D-04 DE=-7.65D-05 OVMax= 7.69D-04

 Cycle   4  Pass 0  IDiag  1:
 E= -167.209090641350     Delta-E=       -0.000002751602 Rises=F Damp=F
 DIIS: error= 7.38D-05 at cycle   4 NSaved=   4.
 NSaved= 4 IEnMin= 4 EnMin= -167.209090641350     IErMin= 4 ErrMin= 7.38D-05
 ErrMax= 7.38D-05  0.00D+00 EMaxC= 1.00D-01 BMatC= 1.08D-06 BMatP= 2.25D-06
 IDIUse=1 WtCom= 1.00D+00 WtEn= 0.00D+00
 Coeff-Com:  0.116D-01-0.137D+00 0.431D+00 0.695D+00
 Coeff:      0.116D-01-0.137D+00 0.431D+00 0.695D+00
 Gap=     0.422 Goal=   None    Shift=    0.000
 RMSDP=9.90D-06 MaxDP=1.49D-04 DE=-2.75D-06 OVMax= 3.20D-04

 Initial convergence to 1.0D-05 achieved.  Increase integral accuracy.
 Cycle   5  Pass 1  IDiag  1:
 E= -167.209108880658     Delta-E=       -0.000018239308 Rises=F Damp=F
 DIIS: error= 1.87D-05 at cycle   1 NSaved=   1.
 NSaved= 1 IEnMin= 1 EnMin= -167.209108880658     IErMin= 1 ErrMin= 1.87D-05
 ErrMax= 1.87D-05  0.00D+00 EMaxC= 1.00D-01 BMatC= 8.04D-08 BMatP= 8.04D-08
 IDIUse=1 WtCom= 1.00D+00 WtEn= 0.00D+00
 Coeff-Com:  0.100D+01
 Coeff:      0.100D+01
 Gap=     0.422 Goal=   None    Shift=    0.000
 RMSDP=9.90D-06 MaxDP=1.49D-04 DE=-1.82D-05 OVMax= 1.00D-04

 Cycle   6  Pass 1  IDiag  1:
 E= -167.209108925335     Delta-E=       -0.000000044677 Rises=F Damp=F
 DIIS: error= 1.37D-05 at cycle   2 NSaved=   2.
 NSaved= 2 IEnMin= 2 EnMin= -167.209108925335     IErMin= 2 ErrMin= 1.37D-05
 ErrMax= 1.37D-05  0.00D+00 EMaxC= 1.00D-01 BMatC= 2.40D-08 BMatP= 8.04D-08
 IDIUse=1 WtCom= 1.00D+00 WtEn= 0.00D+00
 Coeff-Com:  0.293D+00 0.707D+00
 Coeff:      0.293D+00 0.707D+00
 Gap=     0.422 Goal=   None    Shift=    0.000
 RMSDP=1.14D-06 MaxDP=1.88D-05 DE=-4.47D-08 OVMax= 4.69D-05

 Cycle   7  Pass 1  IDiag  1:
 E= -167.209108940429     Delta-E=       -0.000000015093 Rises=F Damp=F
 DIIS: error= 6.88D-06 at cycle   3 NSaved=   3.
 NSaved= 3 IEnMin= 3 EnMin= -167.209108940429     IErMin= 3 ErrMin= 6.88D-06
 ErrMax= 6.88D-06  0.00D+00 EMaxC= 1.00D-01 BMatC= 6.11D-09 BMatP= 2.40D-08
 IDIUse=1 WtCom= 1.00D+00 WtEn= 0.00D+00
 Coeff-Com: -0.387D-01 0.321D+00 0.718D+00
 Coeff:     -0.387D-01 0.321D+00 0.718D+00
 Gap=     0.422 Goal=   None    Shift=    0.000
 RMSDP=5.39D-07 MaxDP=1.07D-05 DE=-1.51D-08 OVMax= 2.23D-05

 Cycle   8  Pass 1  IDiag  1:
 E= -167.209108945635     Delta-E=       -0.000000005206 Rises=F Damp=F
 DIIS: error= 4.63D-07 at cycle   4 NSaved=   4.
 NSaved= 4 IEnMin= 4 EnMin= -167.209108945635     IErMin= 4 ErrMin= 4.63D-07
 ErrMax= 4.63D-07  0.00D+00 EMaxC= 1.00D-01 BMatC= 5.03D-11 BMatP= 6.11D-09
 IDIUse=1 WtCom= 1.00D+00 WtEn= 0.00D+00
 Coeff-Com: -0.710D-02-0.148D-01 0.520D-02 0.102D+01
 Coeff:     -0.710D-02-0.148D-01 0.520D-02 0.102D+01
 Gap=     0.422 Goal=   None    Shift=    0.000
 RMSDP=2.27D-07 MaxDP=5.65D-06 DE=-5.21D-09 OVMax= 8.84D-06

 Cycle   9  Pass 1  IDiag  1:
 E= -167.209108945811     Delta-E=       -0.000000000176 Rises=F Damp=F
 DIIS: error= 2.20D-07 at cycle   5 NSaved=   5.
 NSaved= 5 IEnMin= 5 EnMin= -167.209108945811     IErMin= 5 ErrMin= 2.20D-07
 ErrMax= 2.20D-07  0.00D+00 EMaxC= 1.00D-01 BMatC= 1.05D-11 BMatP= 5.03D-11
 IDIUse=1 WtCom= 1.00D+00 WtEn= 0.00D+00
 Coeff-Com:  0.482D-02-0.488D-01-0.103D+00 0.171D+00 0.976D+00
 Coeff:      0.482D-02-0.488D-01-0.103D+00 0.171D+00 0.976D+00
 Gap=     0.422 Goal=   None    Shift=    0.000
 RMSDP=1.04D-07 MaxDP=2.58D-06 DE=-1.76D-10 OVMax= 4.16D-06

 Cycle  10  Pass 1  IDiag  1:
 E= -167.209108945838     Delta-E=       -0.000000000027 Rises=F Damp=F
 DIIS: error= 1.20D-07 at cycle   6 NSaved=   6.
 NSaved= 6 IEnMin= 6 EnMin= -167.209108945838     IErMin= 6 ErrMin= 1.20D-07
 ErrMax= 1.20D-07  0.00D+00 EMaxC= 1.00D-01 BMatC= 1.41D-12 BMatP= 1.05D-11
 IDIUse=1 WtCom= 1.00D+00 WtEn= 0.00D+00
 Coeff-Com:  0.235D-02-0.177D-01-0.404D-01-0.103D-01 0.368D+00 0.698D+00
 Coeff:      0.235D-02-0.177D-01-0.404D-01-0.103D-01 0.368D+00 0.698D+00
 Gap=     0.422 Goal=   None    Shift=    0.000
 RMSDP=1.84D-08 MaxDP=4.40D-07 DE=-2.71D-11 OVMax= 8.55D-07

 Cycle  11  Pass 1  IDiag  1:
 E= -167.209108945841     Delta-E=       -0.000000000003 Rises=F Damp=F
 DIIS: error= 1.89D-08 at cycle   7 NSaved=   7.
 NSaved= 7 IEnMin= 7 EnMin= -167.209108945841     IErMin= 7 ErrMin= 1.89D-08
 ErrMax= 1.89D-08  0.00D+00 EMaxC= 1.00D-01 BMatC= 5.59D-14 BMatP= 1.41D-12
 IDIUse=1 WtCom= 1.00D+00 WtEn= 0.00D+00
 Coeff-Com: -0.263D-03 0.340D-02 0.654D-02-0.179D-01-0.689D-01 0.674D-01
 Coeff-Com:  0.101D+01
 Coeff:     -0.263D-03 0.340D-02 0.654D-02-0.179D-01-0.689D-01 0.674D-01
 Coeff:      0.101D+01
 Gap=     0.422 Goal=   None    Shift=    0.000
 RMSDP=6.69D-09 MaxDP=1.19D-07 DE=-2.50D-12 OVMax= 3.13D-07

 SCF Done:  E(RwB97XD) =  -167.209108946     A.U. after   11 cycles
            NFock= 11  Conv=0.67D-08     -V/T= 2.0045
 KE= 1.664577992863D+02 PE=-5.604717090662D+02 EE= 1.421498910466D+02
 Leave Link  502 at Wed Nov 27 13:31:50 2024, MaxMem= 24159191040 cpu:        35.4
 (Enter /usr/local/g09/l701.exe)
 Compute integral first derivatives.
 ... and contract with generalized density number  0.
 R6Disp: Adding Grimme-D2 dispersion energy 1st derivatives to the gradient.
   1 Symmetry operations used in ECPInt.
 ECPInt:  NShTT=    1431 NPrTT=    4176 LenC2=    1427 LenP2D=    3686.
 LDataN:  DoStor=T MaxTD1= 7 Len=  274
 Leave Link  701 at Wed Nov 27 13:31:51 2024, MaxMem= 24159191040 cpu:         2.9
 (Enter /usr/local/g09/l702.exe)
 L702 exits ... SP integral derivatives will be done elsewhere.
 Leave Link  702 at Wed Nov 27 13:31:51 2024, MaxMem= 24159191040 cpu:         0.1
 (Enter /usr/local/g09/l703.exe)
 Compute integral first derivatives, UseDBF=F ICtDFT=           0.
 Integral derivatives from FoFJK, PRISM(SPDF).
 Calling FoFJK, ICntrl=      2127 FMM=F ISym2X=0 I1Cent= 0 IOpClX= 0 NMat=1 NMatS=1 NMatT=0.
 FoFJK:  IHMeth= 1 ICntrl=    2127 DoSepK=T KAlg= 0 I1Cent=   0 FoldK=F
 IRaf=         1 NMat=   1 IRICut=       1 DoRegI=T DoRafI=F ISym2E= 0.
 FoFCou: FMM=F IPFlag=           0 FMFlag=      100000 FMFlg1=         800
         NFxFlg=           0 DoJE=F BraDBF=F KetDBF=F FulRan=T
         wScrn=  0.000000 ICntrl=    2527 IOpCl=  0 I1Cent=           0 NGrid=           0
         NMat0=    1 NMatS0=      1 NMatT0=    0 NMatD0=    1 NMtDS0=    0 NMtDT0=    0
 Symmetry not used in FoFCou.
 Leave Link  703 at Wed Nov 27 13:31:52 2024, MaxMem= 24159191040 cpu:        15.7
 (Enter /usr/local/g09/l716.exe)
 Dipole        =-5.12902259D-02-8.90973079D-01 2.69906954D-01
 ***** Axes restored to original set *****
 -------------------------------------------------------------------
 Center     Atomic                   Forces (Hartrees/Bohr)
 Number     Number              X              Y              Z
 -------------------------------------------------------------------
      1        7           0.001259800    0.003659847   -0.000285362
      2        7          -0.007161677   -0.002209431   -0.002273397
      3        7          -0.000891613    0.003205835    0.002685306
      4        1           0.000519095   -0.003016593   -0.002580410
      5        1           0.001805432   -0.000030252    0.002075469
      6        1           0.004259033   -0.002529745    0.000890158
      7        1           0.000238587    0.000417149    0.000103104
      8        1          -0.000028657    0.000503190   -0.000614867
 -------------------------------------------------------------------
 Cartesian Forces:  Max     0.007161677 RMS     0.002453625
 Leave Link  716 at Wed Nov 27 13:31:52 2024, MaxMem= 24159191040 cpu:         0.1
 (Enter /usr/local/g09/l103.exe)

 GradGradGradGradGradGradGradGradGradGradGradGradGradGradGradGradGradGrad
 Berny optimization.
 FormGI is forming the generalized inverse of G from B-inverse, IUseBI=4.
 Internal  Forces:  Max     0.004650750 RMS     0.002099659
 Search for a local minimum.
 Step number   1 out of a maximum of   34 on scan point     2 out of  2116
 All quantities printed in internal units (Hartrees-Bohrs-Radians)
 RMS Force = .17544D-02 SwitMx=.10000D-02 MixMth= 1
 Mixed Optimization -- RFO/linear search
 Second derivative matrix not updated -- first step.
 ITU=  0
     Eigenvalues ---    0.01662   0.02542   0.04452   0.10985   0.14702
     Eigenvalues ---    0.15821   0.20375   0.20849   0.32617   0.37467
     Eigenvalues ---    0.40230   0.42900   0.43554   0.45751   0.45778
     Eigenvalues ---    0.463201000.000001000.000001000.000001000.00000
     Eigenvalues --- 1000.000001000.000001000.000001000.00000
 RFO step:  Lambda=-5.79328944D-04 EMin= 1.66209443D-02
 Linear search not attempted -- first point.
 Maximum step size (   0.050) exceeded in Quadratic search.
    -- Step size scaled by   0.950
 Iteration  1 RMS(Cart)=  0.02081254 RMS(Int)=  0.00050655
 Iteration  2 RMS(Cart)=  0.00044749 RMS(Int)=  0.00014569
 Iteration  3 RMS(Cart)=  0.00000006 RMS(Int)=  0.00014569
 Iteration  1 RMS(Cart)=  0.00002719 RMS(Int)=  0.00001992
 Iteration  2 RMS(Cart)=  0.00001062 RMS(Int)=  0.00002213
 Iteration  3 RMS(Cart)=  0.00000438 RMS(Int)=  0.00002405
 Iteration  4 RMS(Cart)=  0.00000193 RMS(Int)=  0.00002497
 Iteration  5 RMS(Cart)=  0.00000091 RMS(Int)=  0.00002538
 ITry= 1 IFail=0 DXMaxC= 4.60D-02 DCOld= 1.00D+10 DXMaxT= 5.00D-02 DXLimC= 3.00D+00 Rises=F
 Variable       Old X    -DE/DX   Delta X   Delta X   Delta X     New X
                                 (Linear)    (Quad)   (Total)
    R1        2.66463  -0.00367   0.00000  -0.00734  -0.00734   2.65729
    R2        1.92579  -0.00199   0.00000  -0.00169  -0.00169   1.92410
    R3        1.91029  -0.00187   0.00000  -0.00209  -0.00209   1.90820
    R4        2.66461  -0.00260   0.00000   0.00096   0.00096   2.66556
    R5        1.90551  -0.00092   0.00000  -0.00089  -0.00089   1.90463
    R6        1.92508  -0.00004   0.00000  -0.00021  -0.00021   1.92487
    R7        1.91031  -0.00007   0.00000  -0.00032  -0.00032   1.90998
    A1        1.97555  -0.00132   0.00000  -0.01023  -0.01045   1.96511
    A2        1.92160  -0.00132   0.00000  -0.01204  -0.01227   1.90934
    A3        1.93559  -0.00137   0.00000  -0.02116  -0.02157   1.91402
    A4        2.05158  -0.00141   0.00000  -0.00691  -0.00700   2.04458
    A5        1.86321   0.00386   0.00000   0.01904   0.01878   1.88199
    A6        1.92211  -0.00465   0.00000  -0.03430  -0.03429   1.88782
    A7        1.94826   0.00017   0.00000   0.00188   0.00185   1.95011
    A8        1.89268  -0.00067   0.00000   0.00165   0.00162   1.89430
    A9        1.88379   0.00063   0.00000   0.00699   0.00693   1.89072
    D1        0.80857  -0.00454   0.00000   0.00000   0.00000   0.80857
    D2       -1.35946  -0.00054   0.00000   0.03494   0.03519  -1.32428
    D3       -1.36881  -0.00073   0.00000   0.04480   0.04452  -1.32429
    D4        2.74634   0.00327   0.00000   0.07975   0.07971   2.82605
    D5       -0.66895  -0.00029   0.00000   0.00000   0.00000  -0.66895
    D6        1.40407   0.00017   0.00000   0.01078   0.01071   1.41478
    D7        1.46926  -0.00006   0.00000  -0.00857  -0.00837   1.46088
    D8       -2.74091   0.00039   0.00000   0.00221   0.00233  -2.73857
         Item               Value     Threshold  Converged?
 Maximum Force            0.003670     0.000450     NO 
 RMS     Force            0.001754     0.000300     NO 
 Maximum Displacement     0.045960     0.001800     NO 
 RMS     Displacement     0.020824     0.001200     NO 
 Predicted change in Energy=-2.925407D-04
 Lowest energy point so far.  Saving SCF results.
 GradGradGradGradGradGradGradGradGradGradGradGradGradGradGradGradGradGrad

 Leave Link  103 at Wed Nov 27 13:31:52 2024, MaxMem= 24159191040 cpu:         0.7
 (Enter /usr/local/g09/l202.exe)
[...]
 .482e-09,5.974e-09,6.685e-09,5.569e-09,3.384e-09,2.865e-09,9.241e-09,2
 .583e-09,2.265e-09,2.469e-09,6.856e-09,3.045e-09,3.803e-09,5.753e-09,5
 .256e-09,9.988e-09,7.853e-09,8.785e-09,4.362e-09,9.024e-09,6.292e-09,6
 .411e-09,7.559e-09,5.650e-09,7.059e-09,5.639e-09,7.128e-09,7.409e-09,5
 .104e-09,9.491e-09,4.759e-09,6.049e-09,9.909e-09,6.784e-09,5.282e-09,4
 .329e-09,8.101e-09,2.991e-09,3.307e-09,9.982e-09,6.145e-09,4.985e-09,4
 .327e-09,9.983e-09,5.484e-09,4.204e-09,8.296e-09,7.170e-09,9.774e-09,7
 .923e-09,7.344e-09,7.512e-09,3.645e-09,4.695e-09,3.557e-09,5.835e-09,3
 .952e-09,8.908e-09,4.222e-09,3.474e-09,5.812e-09,6.980e-09,8.275e-09,3
 .924e-09,5.321e-09,5.640e-09,6.697e-09,9.185e-09,6.368e-09,7.321e-09,7
 .824e-09,6.996e-09,6.076e-09,6.054e-09,9.019e-09,4.833e-09,5.936e-09,6
 .782e-09,6.792e-09,5.644e-09,3.138e-09,8.595e-09,4.049e-09,5.343e-09,9
 .632e-09,8.788e-09,2.362e-09,4.944e-09,5.107e-09,3.877e-09,7.257e-09,3
 .806e-09,3.529e-09,4.139e-09,9.719e-09,3.999e-09,6.244e-09,3.623e-09,2
 .757e-09,2.167e-09,1.928e-09,2.126e-09,2.703e-09,3.198e-09,3.485e-09,3
 .775e-09,7.049e-09,2.811e-09,4.835e-09,7.739e-09,5.235e-09,8.835e-09,4
 .257e-09,3.564e-09,6.202e-09,3.618e-09,3.269e-09,9.942e-09,3.010e-09,4
 .808e-09,4.545e-09,8.656e-09,5.140e-09,9.916e-09,9.496e-09,6.015e-09,2
 .852e-09,5.700e-09,8.376e-09,4.052e-09,3.325e-09,8.511e-09,5.625e-09,4
 .000e-09,2.611e-09,5.658e-09,7.959e-09,9.232e-09,3.313e-09,8.359e-09,8
 .686e-09,3.343e-09,2.954e-09,8.579e-09,8.685e-09,3.526e-09,9.258e-09,3
 .141e-09,3.911e-09,2.595e-09,6.909e-09,4.378e-09,2.928e-09,5.354e-09,5
 .354e-09,5.398e-09,5.750e-09,6.533e-09,7.080e-09,2.217e-09,8.275e-09,5
 .864e-09,9.744e-09,2.998e-09,7.687e-09,7.219e-09,9.379e-09,5.430e-09,6
 .845e-09,7.420e-09,6.222e-09,4.264e-09,2.700e-09,8.133e-09,3.988e-09,4
 .289e-09,6.794e-09,3.420e-09,6.497e-09,5.886e-09,3.340e-09,5.920e-09,5
 .410e-09,4.641e-09,7.026e-09,3.011e-09,8.782e-09,4.232e-09,6.723e-09,5
 .322e-09,4.273e-09,9.458e-09,5.169e-09,9.062e-09,5.243e-09,7.790e-09,6
 .315e-09,5.110e-09,5.541e-09,6.086e-09,5.109e-09,2.756e-09,4.267e-09,9
 .607e-09,3.294e-09,6.778e-09,3.211e-09,5.064e-09,3.959e-09,3.298e-09,2
 .307e-09,7.094e-09,5.557e-09,2.636e-09,6.279e-09,3.994e-09,8.108e-09,3
 .797e-09,4.264e-09,6.633e-09,6.655e-09,4.621e-09,6.056e-09,8.321e-09,2
 .147e-09,8.925e-09,5.719e-09,5.765e-09,3.883e-09,3.274e-09,1.721e-09,2
 .300e-09,3.734e-09,8.283e-09,7.424e-09,8.976e-09,6.576e-09,3.756e-09,3
 .299e-09,3.951e-09,5.193e-09,8.835e-09,8.651e-09,9.463e-09,5.393e-09,5
 .665e-09,9.098e-09,8.796e-09,5.216e-09,6.384e-09,6.377e-09,6.866e-09,8
 .350e-09,3.910e-09,8.125e-09,7.174e-09,7.760e-09,6.899e-09,9.436e-09,6
 .079e-09,7.775e-09,8.055e-09,7.193e-09,4.492e-09,2.878e-09,9.564e-09,7
 .748e-09,9.452e-09,2.608e-09,8.216e-09,2.942e-09,9.092e-09,7.791e-09,7
 .413e-09,6.475e-09,8.585e-09,3.131e-09,6.078e-09,5.848e-09,8.802e-09,7
 .552e-09,6.289e-09,5.478e-09,4.924e-09,4.208e-09,3.212e-09,2.443e-09,3
 .044e-09,2.970e-09,7.165e-09,7.568e-09,8.330e-09,5.999e-09,7.339e-09,5
 .310e-09,5.330e-09,7.206e-09,6.062e-09,6.732e-09,2.825e-09,3.329e-09,2
 .600e-09,8.694e-09,4.991e-09,5.577e-09,7.429e-09,3.404e-09,8.413e-09,9
 .448e-09,4.941e-09,8.667e-09,4.641e-09,5.493e-09,7.120e-09,9.155e-09,3
 .105e-09,9.299e-09,5.064e-09,8.420e-09,9.238e-09,6.304e-09,9.274e-09,7
 .964e-09,7.095e-09,4.427e-09,4.113e-09,6.320e-09,9.764e-09,6.247e-09,4
 .414e-09,4.755e-09,6.683e-09,7.270e-09,5.754e-09,4.996e-09,3.470e-09,6
 .988e-09,7.542e-09,8.839e-09,4.033e-09,5.240e-09,5.397e-09,5.687e-09,7
 .049e-09,7.139e-09,3.266e-09,8.166e-09,4.203e-09,8.138e-09,6.795e-09,5
 .529e-09,6.617e-09,8.470e-09,7.384e-09,6.560e-09,3.918e-09,3.216e-09,4
 .475e-09,2.884e-09,4.570e-09,2.839e-09,2.445e-09,5.184e-09,6.647e-09,4
 .985e-09,8.978e-09,6.243e-09,4.702e-09,6.783e-09,3.408e-09,3.448e-09,7
 .323e-09,6.026e-09,4.616e-09,4.207e-09,3.756e-09,3.287e-09,2.730e-09,2
 .819e-09,4.341e-09,3.732e-09,7.364e-09,8.596e-09,6.190e-09,6.995e-09,8
 .413e-09,6.892e-09,7.296e-09,5.458e-09,6.035e-09,4.631e-09,9.843e-09,3
 .298e-09,2.635e-09,8.596e-09,2.659e-09,6.103e-09,6.217e-09,5.787e-09,5
 .958e-09,4.024e-09,2.982e-09,8.475e-09,2.651e-09,5.537e-09,7.946e-09,4
 .595e-09,2.575e-09,7.813e-09,3.306e-09,4.284e-09,6.044e-09,3.606e-09,8
 .942e-09,8.662e-09,5.553e-09,4.020e-09,8.378e-09,4.051e-09,5.317e-09,4
 .125e-09,6.944e-09,4.589e-09,7.936e-09,3.160e-09,4.761e-09,5.357e-09,3
 .746e-09,7.076e-09,7.942e-09,9.164e-09,4.064e-09,5.337e-09,5.036e-09,6
 .140e-09,9.822e-09,5.416e-09,4.730e-09,7.458e-09,3.911e-09,7.956e-09,6
 .978e-09,6.541e-09,7.265e-09,9.857e-09,8.903e-09,6.484e-09,4.405e-09,4
 .889e-09,5.981e-09,5.560e-09,5.388e-09,2.542e-09,3.861e-09,4.745e-09,6
 .462e-09,6.248e-09,7.195e-09,5.029e-09,7.977e-09,8.158e-09,6.531e-09,6
 .179e-09,4.297e-09,3.118e-09,2.789e-09,2.708e-09,3.284e-09,3.335e-09,3
 .127e-09,4.228e-09,5.637e-09,5.230e-09,8.102e-09,9.356e-09,6.691e-09,5
 .209e-09,7.176e-09,7.411e-09,3.409e-09,8.100e-09,4.378e-09,6.182e-09,8
 .798e-09,9.910e-09,2.398e-09,7.700e-09,9.104e-09,6.158e-09,2.900e-09,2
 .316e-09,7.269e-09,6.203e-09,3.448e-09,9.953e-09,3.028e-09,6.129e-09,8
 .811e-09,4.859e-09,5.385e-09,4.321e-09,9.249e-09,5.266e-09,4.958e-09,5
 .819e-09,4.213e-09,5.334e-09,3.966e-09,3.780e-09,7.278e-09,3.584e-09,6
 .007e-09,6.032e-09,6.025e-09,5.357e-09,4.564e-09,8.452e-09,7.463e-09,3
 .245e-09,6.995e-09,5.118e-09,7.140e-09,6.308e-09,8.810e-09,5.285e-09,5
 .490e-09,5.780e-09,4.377e-09,3.253e-09,5.161e-09,8.545e-09,9.057e-09,2
 .105e-09,4.369e-09,5.988e-09,9.030e-09,4.240e-09,4.486e-09,8.156e-09,5
 .859e-09,6.829e-09,4.181e-09,9.893e-09,6.285e-09,3.822e-09,3.754e-09,3
 .678e-09,4.336e-09,6.962e-09,6.954e-09,9.414e-09,5.407e-09,5.789e-09,3
 .815e-09,3.815e-09,4.054e-09,3.762e-09,3.628e-09,3.617e-09,3.773e-09,3
 .624e-09,3.601e-09,4.294e-09,5.509e-09,8.380e-09,6.872e-09,5.861e-09,7
 .194e-09,9.528e-09,4.075e-09,9.766e-09,8.012e-09,5.538e-09,3.061e-09,7
 .976e-09,8.323e-09,8.401e-09,9.742e-09,3.096e-09,4.066e-09,5.171e-09,9
 .099e-09,7.877e-09,3.275e-09,9.450e-09,5.630e-09,3.905e-09,4.511e-09,7
 .095e-09,4.063e-09,4.379e-09,4.698e-09,7.684e-09,4.523e-09,8.873e-09,4
 .213e-09,5.892e-09,7.536e-09,4.911e-09,6.683e-09,5.581e-09,8.656e-09,3
 .652e-09,6.161e-09,4.007e-09,5.839e-09,5.067e-09,5.516e-09,4.808e-09,8
 .982e-09,4.222e-09,8.909e-09,9.494e-09,8.308e-09,7.614e-09,5.431e-09,4
 .698e-09,5.925e-09,8.438e-09,5.186e-09,3.292e-09,6.446e-09,5.760e-09,3
 .606e-09,9.153e-09,6.623e-09,7.857e-09,9.934e-09,4.953e-09,5.720e-09,5
 .867e-09,8.853e-09,5.904e-09,5.252e-09,4.514e-09,7.754e-09,4.367e-09,9
 .396e-09,5.330e-09,9.590e-09,6.880e-09,7.346e-09,9.714e-09,6.120e-09,7
 .147e-09,4.621e-09,9.619e-09,2.277e-09,2.943e-09,3.079e-09,2.872e-09,2
 .714e-09,2.680e-09,2.825e-09,3.547e-09,5.542e-09,9.389e-09,5.147e-09,7
 .513e-09,2.673e-09,7.977e-09,6.686e-09,9.852e-09,4.982e-09,6.944e-09,8
 .875e-09,8.129e-09,8.362e-09,6.611e-09,8.357e-09,5.545e-09,9.110e-09,5
 .675e-09,2.571e-09,5.114e-09,6.150e-09,5.713e-09,6.483e-09,4.845e-09,9
 .407e-09,2.984e-09,3.439e-09,6.573e-09,5.658e-09,4.523e-09,9.649e-09,5
 .744e-09,7.383e-09,6.804e-09,4.817e-09,3.345e-09,9.974e-09,2.884e-09,8
 .166e-09,4.209e-09,4.778e-09,8.888e-09,3.865e-09,7.759e-09,6.403e-09,4
 .369e-09,3.443e-09,4.281e-09,5.332e-09,6.072e-09,7.160e-09,7.593e-09,7
 .475e-09,5.246e-09,5.922e-09,7.480e-09,6.371e-09,3.365e-09,4.799e-09,3
 .430e-09,9.908e-09,9.467e-09,7.547e-09,9.375e-09,3.836e-09,6.032e-09,8
 .504e-09,9.207e-09,7.619e-09,7.215e-09,6.158e-09,5.001e-09,5.288e-09,5
 .701e-09,5.179e-09,7.140e-09,5.349e-09,5.573e-09,3.247e-09,7.236e-09,5
 .177e-09,9.093e-09,3.834e-09,2.422e-09,1.942e-09,1.942e-09,2.052e-09,2
 .160e-09,2.402e-09,2.764e-09,3.062e-09,4.019e-09,5.927e-09,8.516e-09,8
 .120e-09,9.094e-09,3.625e-09,5.759e-09,6.555e-09,8.256e-09,5.502e-09,6
 .973e-09,5.863e-09,5.128e-09,4.064e-09,3.506e-09,7.404e-09,4.168e-09,5
 .622e-09,3.366e-09,3.337e-09,6.756e-09,6.030e-09,9.050e-09,5.489e-09,9
 .616e-09,2.206e-09,2.279e-09,2.824e-09,3.157e-09,3.322e-09,7.053e-09,8
 .631e-09,6.115e-09,5.064e-09,4.553e-09,3.953e-09,4.224e-09,9.579e-09,6
 .588e-09,9.328e-09,6.510e-09,4.940e-09,4.671e-09,6.659e-09,3.841e-09,3
 .233e-09,2.719e-09,2.868e-09,1.592e-09,5.858e-09,4.212e-09,7.719e-09,6
 .191e-09,4.841e-09,7.109e-09,5.291e-09,3.869e-09,4.897e-09,5.739e-09,3
 .001e-09,3.084e-09,7.385e-09,7.881e-09,5.425e-09,7.013e-09,4.631e-09,6
 .408e-09,8.037e-09,8.622e-09,7.059e-09,4.827e-09,4.935e-09,4.364e-09,3
 .710e-09,5.642e-09,5.930e-09,3.484e-09,3.883e-09,3.263e-09,9.998e-09,4
 .931e-09,4.153e-09,3.044e-09,9.603e-09,9.169e-09,8.217e-09,2.127e-09,2
 .002e-09,2.296e-09,2.716e-09,2.981e-09,3.414e-09,4.361e-09,5.711e-09,7
 .554e-09,7.644e-09,7.066e-09,2.911e-09,5.514e-09,3.412e-09,6.188e-09,8
 .982e-09,9.780e-09,7.093e-09,4.851e-09,4.204e-09,4.692e-09,6.441e-09,6
 .462e-09,8.077e-09,4.179e-09,2.898e-09,6.177e-09,5.889e-09,6.342e-09,3
 .277e-09,5.901e-09,9.252e-09,2.310e-09,3.083e-09,3.691e-09,4.371e-09,8
 .746e-09,4.107e-09,3.504e-09,3.119e-09,2.980e-09,2.612e-09,5.523e-09,5
 .406e-09,6.010e-09,3.060e-09,4.856e-09,2.569e-09,6.004e-09,4.601e-09,4
 .888e-09,3.421e-09,2.745e-09,8.777e-09,2.728e-09,4.896e-09,6.954e-09,6
 .520e-09,8.719e-09,9.116e-09,5.428e-09,4.480e-09,3.461e-09,6.712e-09,6
 .142e-09,3.817e-09,7.067e-09,3.387e-09,6.902e-09,8.630e-09,7.279e-09,6
 .259e-09,6.839e-09,8.290e-09,8.191e-09,6.485e-09,4.155e-09,3.416e-09,2
 .770e-09,4.014e-09,2.705e-09,5.644e-09,3.980e-09,2.476e-09,4.052e-09,3
 .859e-09,5.619e-09,1.876e-09,2.695e-09,5.992e-09,9.380e-09,7.210e-09,9
 .197e-09,2.389e-09,2.418e-09,2.632e-09,2.978e-09,3.413e-09,4.005e-09,5
 .255e-09,7.156e-09,5.003e-09,2.780e-09,3.327e-09,5.594e-09,3.594e-09,5
 .323e-09,6.213e-09,4.386e-09,7.675e-09,6.010e-09,4.594e-09,5.821e-09,8
 .966e-09,8.125e-09,7.089e-09,4.885e-09,3.452e-09,7.720e-09,6.401e-09,8
 .302e-09,3.559e-09,8.288e-09,2.445e-09,3.022e-09,3.706e-09,3.918e-09,5
 .471e-09,5.855e-09,3.670e-09,3.736e-09,2.042e-09,3.921e-09,5.687e-09,9
 .669e-09,9.508e-09,4.109e-09,2.447e-09,4.793e-09,9.493e-09,5.442e-09,4
 .000e-09,4.059e-09,4.372e-09,3.167e-09,8.746e-09,3.541e-09,3.907e-09,8
 .706e-09,4.393e-09,2.990e-09,5.689e-09,6.231e-09,6.267e-09,6.505e-09,8
 .550e-09,4.014e-09,5.237e-09,5.566e-09,6.418e-09,8.311e-09,8.449e-09,4
 .304e-09,5.922e-09,8.077e-09,8.823e-09,8.694e-09,6.811e-09,4.275e-09,3
 .320e-09,7.897e-09,7.226e-09,6.303e-09,5.498e-09,7.645e-09,2.381e-09,4
 .798e-09,4.223e-09,4.841e-09,3.969e-09,3.603e-09,2.821e-09,9.618e-09,2
 .772e-09,2.570e-09,2.826e-09,2.762e-09,2.571e-09,2.617e-09,2.922e-09,3
 .419e-09,4.570e-09,6.431e-09,6.949e-09,7.729e-09,7.164e-09,7.812e-09,4
 .477e-09,4.346e-09,7.771e-09,9.927e-09,5.883e-09,5.635e-09,6.058e-09,8
 .402e-09,8.986e-09,3.090e-09,9.077e-09,6.245e-09,5.326e-09,6.106e-09,5
 .650e-09,3.863e-09,2.863e-09,4.563e-09,9.078e-09,3.291e-09,4.055e-09,5
 .842e-09,6.092e-09,7.471e-09,6.251e-09,4.695e-09,8.869e-09,7.259e-09,6
 .632e-09,3.584e-09,3.671e-09,4.447e-09,3.755e-09,3.663e-09,4.251e-09,9
 .284e-09,6.255e-09,8.241e-09,4.863e-09,3.426e-09,5.198e-09,4.216e-09,7
 .532e-09,9.150e-09,4.213e-09,5.740e-09,7.157e-09,7.492e-09,8.089e-09,8
 .645e-09,3.152e-09,3.031e-09,7.401e-09,6.867e-09,7.291e-09,9.270e-09,8
 .756e-09,4.692e-09,6.419e-09,7.967e-09,3.087e-09,7.556e-09,7.706e-09,3
 .905e-09,9.824e-09,4.230e-09,6.441e-09,2.893e-09,8.425e-09,7.659e-09,9
 .170e-09,3.644e-09,3.222e-09,3.085e-09,4.308e-09,3.949e-09,2.627e-09,9
 .381e-09,8.420e-09,8.099e-09,2.962e-09,3.089e-09,2.771e-09,2.730e-09,3
 .041e-09,3.709e-09,5.388e-09,5.535e-09,6.640e-09,5.353e-09,4.132e-09,5
 .009e-09,4.617e-09,5.654e-09,5.123e-09,2.912e-09,7.700e-09,7.275e-09,3
 .759e-09,7.435e-09,3.967e-09,3.884e-09,2.981e-09,8.842e-09,3.356e-09,6
 .493e-09,6.357e-09,5.709e-09,3.338e-09,4.814e-09,9.374e-09,3.763e-09,5
 .018e-09,2.235e-09,2.922e-09,3.894e-09,7.014e-09,6.444e-09,8.855e-09,5
 .582e-09,7.584e-09,9.842e-09,7.004e-09,4.459e-09,8.500e-09,6.612e-09,8
 .790e-09,6.433e-09,9.173e-09,6.092e-09,9.549e-09,6.127e-09,2.753e-09,6
 .004e-09,5.030e-09,8.629e-09,9.910e-09,6.271e-09,7.159e-09,8.364e-09,9
 .956e-09,3.568e-09,5.777e-09,3.927e-09,8.483e-09,7.104e-09,9.480e-09,7
 .466e-09,6.236e-09,7.744e-09,4.180e-09,6.941e-09,7.050e-09,7.496e-09,6
 .593e-09,4.096e-09,9.271e-09,4.806e-09,4.787e-09,5.679e-09,5.610e-09,6
 .472e-09,4.813e-09,2.618e-09,5.370e-09,6.851e-09,4.468e-09,3.797e-09,4
 .486e-09,7.376e-09,2.693e-09,3.730e-09,3.927e-09,3.696e-09,3.294e-09,3
 .316e-09,3.668e-09,4.569e-09,6.309e-09,5.570e-09,5.191e-09,2.790e-09,9
 .431e-09,5.008e-09,9.547e-09,4.358e-09,9.086e-09,3.684e-09,8.636e-09,5
 .823e-09,5.281e-09,8.671e-09,5.083e-09,4.460e-09,3.595e-09,9.296e-09,4
 .002e-09,3.705e-09,5.596e-09,2.823e-09,7.294e-09,6.988e-09,2.928e-09,3
 .847e-09,5.118e-09,3.873e-09,7.183e-09,5.091e-09,4.339e-09,3.702e-09,6
 .760e-09,8.149e-09,9.670e-09,3.068e-09,5.299e-09,4.945e-09,5.719e-09,3
 .537e-09,9.780e-09,4.806e-09,3.967e-09,6.100e-09,2.951e-09,6.495e-09,6
 .705e-09,7.913e-09,7.456e-09,8.676e-09,4.424e-09,6.088e-09,7.969e-09,3
 .357e-09,9.157e-09,3.637e-09,7.371e-09,3.351e-09,4.346e-09,8.965e-09,8
 .688e-09,6.283e-09,7.114e-09,2.696e-09,4.734e-09,5.136e-09,8.348e-09,7
 .994e-09,7.205e-09,5.232e-09,6.402e-09,3.115e-09,2.775e-09,4.869e-09,5
 .788e-09,6.256e-09,5.926e-09,1.941e-09,5.251e-09,4.290e-09,8.968e-09,7
 .394e-09,8.881e-09,2.823e-09,6.288e-09,5.387e-09,3.977e-09,8.553e-09,4
 .126e-09,3.816e-09,3.158e-09,5.981e-09,5.518e-09,6.087e-09,7.294e-09,8
 .498e-09,7.080e-09,3.129e-09,6.430e-09,6.667e-09,7.144e-09,3.496e-09,9
 .022e-09,4.677e-09,7.144e-09,9.052e-09,8.484e-09,4.688e-09,3.296e-09,9
 .804e-09,8.365e-09,2.689e-09,6.033e-09,9.936e-09,3.752e-09,5.283e-09,2
 .892e-09,3.790e-09,2.796e-09,6.349e-09,4.059e-09,4.906e-09,8.232e-09,6
 .794e-09,5.724e-09,3.442e-09,3.167e-09,7.994e-09,5.972e-09,3.893e-09,9
 .186e-09,6.633e-09,2.985e-09,8.029e-09,6.499e-09,8.580e-09,8.845e-09,9
 .986e-09,6.950e-09,3.279e-09,6.982e-09,6.197e-09,8.360e-09,6.902e-09,2
 .475e-09,2.228e-09,8.261e-09,4.657e-09,3.084e-09,4.583e-09,4.912e-09,5
 .000e-09,9.851e-09,9.429e-09,2.404e-09,4.314e-09,5.623e-09,6.056e-09,9
 .331e-09,3.327e-09,7.009e-09,3.915e-09,3.735e-09,3.367e-09,3.293e-09,3
 .283e-09,2.991e-09,9.825e-09,8.473e-09,5.254e-09,4.804e-09,7.222e-09,2
 .348e-09,4.762e-09,6.307e-09,4.988e-09,4.081e-09,7.142e-09,5.204e-09,4
 .250e-09,5.222e-09,5.379e-09,5.833e-09,6.405e-09,7.322e-09,8.230e-09,5
 .635e-09,2.373e-09,7.030e-09,5.055e-09,6.222e-09,5.072e-09,8.615e-09,3
 .307e-09,5.987e-09,2.093e-09,9.006e-09,9.499e-09,7.396e-09,9.339e-09,9
 .462e-09,4.727e-09,5.735e-09,5.768e-09,2.874e-09,7.147e-09,8.025e-09,8
 .266e-09,3.162e-09,2.665e-09,3.211e-09,3.570e-09,3.769e-09,8.920e-09,2
 .227e-09,6.917e-09,7.973e-09,5.786e-09,2.520e-09,8.514e-09,6.782e-09,7
 .147e-09,8.875e-09,8.638e-09,6.008e-09,2.861e-09,5.063e-09,5.752e-09,5
 .557e-09,5.621e-09,2.777e-09,4.595e-09,6.384e-09,4.321e-09,6.526e-09,9
 .461e-09,3.466e-09,3.999e-09,4.688e-09,6.035e-09,8.313e-09,6.221e-09,3
 .273e-09,4.408e-09,3.287e-09,4.440e-09,3.881e-09,5.320e-09,7.474e-09,9
 .249e-09,6.016e-09,7.369e-09,9.153e-09,6.545e-09,4.321e-09,4.928e-09,6
 .206e-09,4.837e-09,3.427e-09,6.174e-09,2.660e-09,7.720e-09,5.349e-09,2
 .923e-09,5.265e-09,6.866e-09,3.299e-09,7.006e-09,4.617e-09,5.778e-09,6
 .692e-09,5.458e-09,5.717e-09,6.150e-09,6.541e-09,7.119e-09,8.223e-09,3
 .138e-09,4.046e-09,5.831e-09,5.836e-09,9.891e-09,4.685e-09,3.456e-09,5
 .937e-09,3.239e-09,7.166e-09,4.442e-09,5.638e-09,7.222e-09,3.540e-09,3
 .737e-09,2.732e-09,3.998e-09,3.895e-09,2.431e-09,4.273e-09,6.980e-09,5
 .423e-09,6.772e-09,9.576e-09,2.298e-09,3.291e-09,3.167e-09,7.608e-09,3
 .066e-09,4.787e-09,5.694e-09,3.959e-09,9.634e-09,3.395e-09,5.599e-09,3
 .403e-09,2.116e-09,4.714e-09,9.734e-09,4.628e-09,4.356e-09,6.418e-09,3
 .745e-09,3.121e-09,3.874e-09,5.577e-09,3.732e-09,4.262e-09,5.025e-09,4
 .961e-09,6.463e-09,8.113e-09,8.230e-09,9.253e-09,3.510e-09,2.125e-09,5
 .530e-09,2.729e-09,4.495e-09,8.059e-09,2.508e-09,5.377e-09,7.828e-09,3
 .552e-09,6.944e-09,6.932e-09,7.709e-09,6.000e-09,5.046e-09,4.661e-09,3
 .828e-09,3.230e-09,2.718e-09,5.287e-09,2.373e-09,3.322e-09,2.713e-09,3
 .446e-09,2.662e-09,3.446e-09,2.675e-09,2.404e-09,6.668e-09,9.225e-09,1
 .929e-09,2.217e-09,2.492e-09,2.823e-09,3.080e-09,3.601e-09,4.395e-09,5
 .700e-09,6.451e-09,4.641e-09,2.847e-09,6.638e-09,6.095e-09,3.112e-09,4
 .704e-09,4.237e-09,9.576e-09,3.198e-09,4.581e-09,4.095e-09,4.841e-09,6
 .275e-09,7.284e-09,4.889e-09,2.603e-09,3.121e-09,9.803e-09,7.700e-09,3
 .569e-09,8.308e-09,1.984e-09,2.276e-09,2.607e-09,2.965e-09,3.633e-09,4
 .365e-09,3.959e-09,3.561e-09,2.577e-09,9.177e-09,7.652e-09,6.345e-09,5
 .294e-09,3.370e-09,3.031e-09,6.969e-09,9.653e-09,6.941e-09,3.792e-09,3
 .950e-09,3.351e-09,3.280e-09,2.996e-09,4.337e-09,2.262e-09,6.415e-09,5
 .353e-09,8.266e-09,6.813e-09,8.198e-09,8.868e-09,9.748e-09,4.368e-09,7
 .118e-09,5.911e-09,4.150e-09,9.979e-09,3.916e-09,2.759e-09,2.354e-09,9
 .784e-09,4.260e-09,6.638e-09,8.308e-09,8.294e-09,6.070e-09,4.625e-09,2
 .911e-09,8.662e-09,6.973e-09,9.249e-09,5.819e-09,8.206e-09,9.657e-09,4
 .618e-09,4.354e-09,2.379e-09,3.666e-09,2.542e-09,9.314e-09,2.997e-09,6
 .670e-09,8.555e-09,2.398e-09,2.356e-09,2.568e-09,2.857e-09,3.301e-09,4
 .040e-09,5.300e-09,9.565e-09,4.794e-09,2.182e-09,4.197e-09,3.536e-09,4
 .515e-09,5.898e-09,8.326e-09,6.381e-09,8.258e-09,7.867e-09,4.593e-09,7
 .123e-09,8.438e-09,9.343e-09,7.731e-09,6.157e-09,2.971e-09,2.557e-09,3
 .505e-09,3.793e-09,3.567e-09,6.843e-09,2.458e-09,3.128e-09,3.926e-09,4
 .781e-09,5.712e-09,6.229e-09,4.655e-09,9.070e-09,2.046e-09,7.438e-09,7
 .766e-09,4.725e-09,4.971e-09,2.570e-09,6.797e-09,1.828e-09,6.117e-09,4
 .199e-09,4.970e-09,5.113e-09,3.500e-09,4.086e-09,7.464e-09,2.885e-09,7
 .365e-09,6.144e-09,8.270e-09,8.994e-09,9.387e-09,2.733e-09,3.386e-09,4
 .223e-09,8.539e-09,9.665e-09,6.237e-09,5.410e-09,8.786e-09,7.334e-09,4
 .337e-09,9.438e-09,7.805e-09,8.446e-09,8.817e-09,8.059e-09,6.083e-09,3
 .950e-09,3.377e-09,9.861e-09,3.186e-09,4.820e-09,2.780e-09,7.090e-09,4
 .747e-09,8.523e-09,4.869e-09,3.943e-09,3.988e-09,6.292e-09,4.414e-09,2
 .999e-09,9.030e-09,3.060e-09,3.733e-09,3.148e-09,3.151e-09,3.269e-09,3
 .598e-09,4.105e-09,5.293e-09,7.045e-09,6.731e-09,6.583e-09,5.001e-09,8
 .659e-09,5.959e-09,9.818e-09,6.437e-09,5.918e-09,7.442e-09,2.507e-09,3
 .638e-09,6.896e-09,3.061e-09,3.209e-09,9.214e-09,8.324e-09,5.701e-09,5
 .285e-09,9.406e-09,9.585e-09,5.102e-09,8.770e-09,2.935e-09,3.646e-09,4
 .790e-09,6.433e-09,8.729e-09,2.537e-09,5.678e-09,4.162e-09,5.590e-09,5
 .137e-09,5.929e-09,5.467e-09,5.425e-09,7.451e-09,2.799e-09,4.040e-09,4
 .588e-09,4.478e-09,3.968e-09,5.058e-09,2.517e-09,2.732e-09,2.865e-09,4
 .001e-09,4.218e-09,6.838e-09,4.707e-09,5.024e-09,3.420e-09,4.813e-09,4
 .490e-09,5.464e-09,5.551e-09,2.937e-09,8.919e-09,4.735e-09,2.142e-09,8
 .639e-09,3.926e-09,5.388e-09,7.230e-09,9.188e-09,9.579e-09,8.417e-09,6
 .099e-09,3.831e-09,3.193e-09,7.803e-09,5.652e-09,3.581e-09,9.359e-09,7
 .756e-09,9.538e-09,2.082e-09,4.194e-09,6.266e-09,4.490e-09,7.516e-09,4
 .700e-09,2.290e-09,1.822e-09,9.051e-09,3.470e-09,3.574e-09,3.348e-09,3
 .313e-09,3.558e-09,4.188e-09,5.937e-09,5.729e-09,7.219e-09,8.696e-09,5
 .159e-09,8.344e-09,4.906e-09,6.423e-09,8.425e-09,8.055e-09,6.706e-09,4
 .586e-09,4.435e-09,9.092e-09,3.305e-09,3.349e-09,3.249e-09,2.579e-09,7
 .756e-09,3.740e-09,6.373e-09,4.665e-09,2.893e-09,7.801e-09,6.563e-09,9
 .659e-09,4.189e-09,3.890e-09,7.979e-09,5.633e-09,2.794e-09,3.519e-09,3
 .777e-09,3.617e-09,6.691e-09,6.830e-09,5.442e-09,5.899e-09,4.810e-09,2
 .742e-09,3.371e-09,4.829e-09,4.190e-09,6.457e-09,4.152e-09,9.505e-09,2
 .848e-09,7.086e-09,4.203e-09,8.130e-09,9.217e-09,5.593e-09,6.619e-09,5
 .783e-09,7.160e-09,4.517e-09\PG=C01 [X(H5N3)]\\@


 A MAN BEGINS CUTTING HIS WISDOM TEETH THE 1ST
 TIME HE BITES OFF MORE THAN HE CAN CHEW.
 Job cpu time:       4 days 17 hours  5 minutes  8.5 seconds.
 File lengths (MBytes):  RWF=    110 Int=      0 D2E=      0 Chk=     99 Scr=      1
 Normal termination of Gaussian 09 at Wed Nov 27 20:47:06 2024.
