 Entering Gaussian System, Link 0=/Local/ce_dana/g09/g09
 Initial command:
 /Local/ce_dana/g09/l1.exe "/storage/ce_dana/alongd/scratch/g09/Gau-11270.inp" -scrdir="/storage/ce_dana/alongd/scratch/g09/"
 Entering Link 1 = /Local/ce_dana/g09/l1.exe PID=     11271.
  
 Copyright (c) 1988,1990,1992,1993,1995,1998,2003,2009,2013,
            Gaussian, Inc.  All Rights Reserved.
  
 This is part of the Gaussian(R) 09 program.  It is based on
 the Gaussian(R) 03 system (copyright 2003, Gaussian, Inc.),
 the Gaussian(R) 98 system (copyright 1998, Gaussian, Inc.),
 the Gaussian(R) 94 system (copyright 1995, Gaussian, Inc.),
 the Gaussian 92(TM) system (copyright 1992, Gaussian, Inc.),
 the Gaussian 90(TM) system (copyright 1990, Gaussian, Inc.),
 the Gaussian 88(TM) system (copyright 1988, Gaussian, Inc.),
 the Gaussian 86(TM) system (copyright 1986, Carnegie Mellon
 University), and the Gaussian 82(TM) system (copyright 1983,
 Carnegie Mellon University). Gaussian is a federally registered
 trademark of Gaussian, Inc.
  
 This software contains proprietary and confidential information,
 including trade secrets, belonging to Gaussian, Inc.
  
 This software is provided under written license and may be
 used, copied, transmitted, or stored only in accord with that
 written license.
  
 The following legend is applicable only to US Government
 contracts under FAR:
  
                    RESTRICTED RIGHTS LEGEND
  
 Use, reproduction and disclosure by the US Government is
 subject to restrictions as set forth in subparagraphs (a)
 and (c) of the Commercial Computer Software - Restricted
 Rights clause in FAR 52.227-19.
  
 Gaussian, Inc.
 340 Quinnipiac St., Bldg. 40, Wallingford CT 06492
  
  
 ---------------------------------------------------------------
 Warning -- This program may not be used in any manner that
 competes with the business of Gaussian, Inc. or will provide
 assistance to any competitor of Gaussian, Inc.  The licensee
 of this program is prohibited from giving any competitor of
 Gaussian, Inc. access to this program.  By using this program,
 the user acknowledges that Gaussian, Inc. is engaged in the
 business of creating and licensing software in the field of
 computational chemistry and represents and warrants to the
 licensee that it is not a competitor of Gaussian, Inc. and that
 it will not use this program in any manner prohibited above.
 ---------------------------------------------------------------
  

 Cite this work as:
 Gaussian 09, Revision D.01,
 M. J. Frisch, G. W. Trucks, H. B. Schlegel, G. E. Scuseria, 
 M. A. Robb, J. R. Cheeseman, G. Scalmani, V. Barone, B. Mennucci, 
 G. A. Petersson, H. Nakatsuji, M. Caricato, X. Li, H. P. Hratchian, 
 A. F. Izmaylov, J. Bloino, G. Zheng, J. L. Sonnenberg, M. Hada, 
 M. Ehara, K. Toyota, R. Fukuda, J. Hasegawa, M. Ishida, T. Nakajima, 
 Y. Honda, O. Kitao, H. Nakai, T. Vreven, J. A. Montgomery, Jr., 
 J. E. Peralta, F. Ogliaro, M. Bearpark, J. J. Heyd, E. Brothers, 
 K. N. Kudin, V. N. Staroverov, T. Keith, R. Kobayashi, J. Normand, 
 K. Raghavachari, A. Rendell, J. C. Burant, S. S. Iyengar, J. Tomasi, 
 M. Cossi, N. Rega, J. M. Millam, M. Klene, J. E. Knox, J. B. Cross, 
 V. Bakken, C. Adamo, J. Jaramillo, R. Gomperts, R. E. Stratmann, 
 O. Yazyev, A. J. Austin, R. Cammi, C. Pomelli, J. W. Ochterski, 
 R. L. Martin, K. Morokuma, V. G. Zakrzewski, G. A. Voth, 
 P. Salvador, J. J. Dannenberg, S. Dapprich, A. D. Daniels, 
 O. Farkas, J. B. Foresman, J. V. Ortiz, J. Cioslowski, 
 and D. J. Fox, Gaussian, Inc., Wallingford CT, 2013.
 
 ******************************************
 Gaussian 09:  ES64L-G09RevD.01 24-Apr-2013
                 6-Jun-2021 
 ******************************************
 %chk=check.chk
 %mem=25600mb
 %NProcShared=10
 Will use up to   10 processors via shared memory.
 ----------------------------------------------------------------------
 #P opt=(ts, modredundant, calcfc, noeigentest, maxStep=5) scf=(tight, 
 direct) integral=(grid=ultrafine, Acc2E=12) guess=read uhf/3-21g IOp(2
 /9=2000) scf=xqc
 ----------------------------------------------------------------------
 1/5=1,8=5,10=4,11=1,18=120,38=1/1,3;
 2/9=2000,12=2,17=6,18=5,40=1/2;
 3/5=5,11=2,16=1,25=1,30=1,71=2,75=-5,116=2,140=1/1,2,3;
 4/5=1/1;
 5/5=2,8=3,13=1,32=2,38=6,87=12/2,8;
 8/6=4,10=90,11=11,87=12/1;
 11/6=1,8=1,9=11,15=111,16=1,87=12/1,2,10;
 10/6=1,13=1,87=12/2;
 6/7=2,8=2,9=2,10=2,28=1/1;
 7/10=1,18=20,25=1,87=12/1,2,3,16;
 1/5=1,8=5,10=4,11=1,18=20/3(2);
 2/9=2000/2;
 99//99;
 2/9=2000/2;
 3/5=5,11=2,16=1,25=1,30=1,71=1,75=-5,116=2/1,2,3;
 4/5=5,16=3,69=1/1;
 5/5=2,8=3,13=1,32=2,38=5,87=12/2,8;
 7/87=12/1,2,3,16;
 1/5=1,8=5,11=1,18=20/3(-5);
 2/9=2000/2;
 6/7=2,8=2,9=2,10=2,19=2,28=1/1;
 99/9=1/99;
 Leave Link    1 at Sun Jun  6 17:24:10 2021, MaxMem=  3355443200 cpu:         0.1
 (Enter /Local/ce_dana/g09/l101.exe)
 ---
 TS0
 ---
 Symbolic Z-matrix:
 Charge =  0 Multiplicity = 2
 C                    -0.09085   1.87736   0.30366 
 C                     0.50869   0.5032    0.40651 
 C                    -0.33725  -0.69626   0.05672 
 H                     0.11919   1.22976   1.43894 
 H                     0.55854   2.71805   0.16523 
 H                    -1.12369   1.96732   0.03143 
 H                     0.08867  -1.60998   0.4543 
 H                     1.57595   0.43191   0.32365 
 H                    -0.42404  -0.80497  -1.02271 
 H                    -1.34102  -0.59313   0.45682 
 
 Add virtual bond connecting atoms H4         and C1         Dist= 2.50D+00.
 Add virtual bond connecting atoms H4         and C2         Dist= 2.50D+00.
 The following ModRedundant input section has been read:
 D       4       1       2       3 S  12 30.000                                
 
 NAtoms=     10 NQM=       10 NQMF=       0 NMMI=      0 NMMIF=      0
                NMic=       0 NMicF=      0.
                    Isotopes and Nuclear Properties:
 (Nuclear quadrupole moments (NQMom) in fm**2, nuclear magnetic moments (NMagM)
  in nuclear magnetons)

  Atom         1           2           3           4           5           6           7           8           9          10
 IAtWgt=          12          12          12           1           1           1           1           1           1           1
 AtmWgt=  12.0000000  12.0000000  12.0000000   1.0078250   1.0078250   1.0078250   1.0078250   1.0078250   1.0078250   1.0078250
 NucSpn=           0           0           0           1           1           1           1           1           1           1
 AtZEff=   0.0000000   0.0000000   0.0000000   0.0000000   0.0000000   0.0000000   0.0000000   0.0000000   0.0000000   0.0000000
 NQMom=    0.0000000   0.0000000   0.0000000   0.0000000   0.0000000   0.0000000   0.0000000   0.0000000   0.0000000   0.0000000
 NMagM=    0.0000000   0.0000000   0.0000000   2.7928460   2.7928460   2.7928460   2.7928460   2.7928460   2.7928460   2.7928460
 AtZNuc=   6.0000000   6.0000000   6.0000000   1.0000000   1.0000000   1.0000000   1.0000000   1.0000000   1.0000000   1.0000000
 Leave Link  101 at Sun Jun  6 17:24:11 2021, MaxMem=  3355443200 cpu:         0.7
 (Enter /Local/ce_dana/g09/l103.exe)

 GradGradGradGradGradGradGradGradGradGradGradGradGradGradGradGradGradGrad
 Berny optimization.
 Initialization pass.
                           ----------------------------
                           !    Initial Parameters    !
                           ! (Angstroms and Degrees)  !
 --------------------------                            --------------------------
 ! Name  Definition              Value          Derivative Info.                !
 --------------------------------------------------------------------------------
 ! R1    R(1,2)                  1.5028         calculate D2E/DX2 analytically  !
 ! R2    R(1,4)                  1.3238         calculate D2E/DX2 analytically  !
 ! R3    R(1,5)                  1.0713         calculate D2E/DX2 analytically  !
 ! R4    R(1,6)                  1.0719         calculate D2E/DX2 analytically  !
 ! R5    R(2,3)                  1.5089         calculate D2E/DX2 analytically  !
 ! R6    R(2,4)                  1.3212         calculate D2E/DX2 analytically  !
 ! R7    R(2,8)                  1.0728         calculate D2E/DX2 analytically  !
 ! R8    R(3,7)                  1.0837         calculate D2E/DX2 analytically  !
 ! R9    R(3,9)                  1.0884         calculate D2E/DX2 analytically  !
 ! R10   R(3,10)                 1.0855         calculate D2E/DX2 analytically  !
 ! A1    A(2,1,5)              118.9862         calculate D2E/DX2 analytically  !
 ! A2    A(2,1,6)              118.5906         calculate D2E/DX2 analytically  !
 ! A3    A(4,1,5)              113.4871         calculate D2E/DX2 analytically  !
 ! A4    A(4,1,6)              114.3152         calculate D2E/DX2 analytically  !
 ! A5    A(5,1,6)              119.0395         calculate D2E/DX2 analytically  !
 ! A6    A(1,2,3)              119.1673         calculate D2E/DX2 analytically  !
 ! A7    A(1,2,8)              116.8946         calculate D2E/DX2 analytically  !
 ! A8    A(3,2,4)              116.9391         calculate D2E/DX2 analytically  !
 ! A9    A(3,2,8)              119.1439         calculate D2E/DX2 analytically  !
 ! A10   A(4,2,8)              112.9655         calculate D2E/DX2 analytically  !
 ! A11   A(2,3,7)              111.3989         calculate D2E/DX2 analytically  !
 ! A12   A(2,3,9)              110.7346         calculate D2E/DX2 analytically  !
 ! A13   A(2,3,10)             110.9451         calculate D2E/DX2 analytically  !
 ! A14   A(7,3,9)              108.1191         calculate D2E/DX2 analytically  !
 ! A15   A(7,3,10)             107.9576         calculate D2E/DX2 analytically  !
 ! A16   A(9,3,10)             107.5369         calculate D2E/DX2 analytically  !
 ! D1    D(4,1,2,3)            104.2219         Scan                            !
 ! D2    D(5,1,2,3)           -155.9586         calculate D2E/DX2 analytically  !
 ! D3    D(5,1,2,8)             -0.666          calculate D2E/DX2 analytically  !
 ! D4    D(6,1,2,3)              3.0954         calculate D2E/DX2 analytically  !
 ! D5    D(6,1,2,8)            158.388          calculate D2E/DX2 analytically  !
 ! D6    D(1,2,3,7)           -162.4339         calculate D2E/DX2 analytically  !
 ! D7    D(1,2,3,9)             77.2015         calculate D2E/DX2 analytically  !
 ! D8    D(1,2,3,10)           -42.1314         calculate D2E/DX2 analytically  !
 ! D9    D(4,2,3,7)            -98.8406         calculate D2E/DX2 analytically  !
 ! D10   D(4,2,3,9)            140.7948         calculate D2E/DX2 analytically  !
 ! D11   D(4,2,3,10)            21.4619         calculate D2E/DX2 analytically  !
 ! D12   D(8,2,3,7)             42.8314         calculate D2E/DX2 analytically  !
 ! D13   D(8,2,3,9)            -77.5333         calculate D2E/DX2 analytically  !
 ! D14   D(8,2,3,10)           163.1339         calculate D2E/DX2 analytically  !
 --------------------------------------------------------------------------------
 Trust Radius=5.00D-02 FncErr=1.00D-07 GrdErr=1.00D-07
 Number of optimizations in scan=  13
 Number of steps in this run=     50 maximum allowed number of steps=    100.
 Search for a saddle point of order  1.
 GradGradGradGradGradGradGradGradGradGradGradGradGradGradGradGradGradGrad

 Leave Link  103 at Sun Jun  6 17:24:11 2021, MaxMem=  3355443200 cpu:         0.0
 (Enter /Local/ce_dana/g09/l202.exe)
                          Input orientation:                          
 ---------------------------------------------------------------------
 Center     Atomic      Atomic             Coordinates (Angstroms)
 Number     Number       Type             X           Y           Z
 ---------------------------------------------------------------------
      1          6           0       -0.090851    1.877355    0.303655
      2          6           0        0.508693    0.503196    0.406511
      3          6           0       -0.337246   -0.696256    0.056715
      4          1           0        0.119194    1.229763    1.438938
      5          1           0        0.558535    2.718050    0.165227
      6          1           0       -1.123686    1.967317    0.031429
      7          1           0        0.088674   -1.609978    0.454298
      8          1           0        1.575950    0.431912    0.323645
      9          1           0       -0.424038   -0.804968   -1.022710
     10          1           0       -1.341021   -0.593134    0.456823
 ---------------------------------------------------------------------
                    Distance matrix (angstroms):
                    1          2          3          4          5
     1  C    0.000000
     2  C    1.502779   0.000000
     3  C    2.597145   1.508859   0.000000
     4  H    1.323768   1.321179   2.414214   0.000000
     5  H    1.071276   2.228515   3.531527   2.007575   0.000000
     6  H    1.071890   2.224634   2.777364   2.017379   1.846989
     7  H    3.495199   2.155042   1.083683   3.005757   4.363045
     8  H    2.206339   1.072840   2.237037   2.000646   2.507321
     9  H    3.010833   2.150338   1.088352   3.239590   3.845556
    10  H    2.773031   2.150793   1.085488   2.533719   3.828483
                    6          7          8          9         10
     6  H    0.000000
     7  H    3.800747   0.000000
     8  H    3.119438   2.529501   0.000000
     9  H    3.047340   1.758541   2.709704   0.000000
    10  H    2.604631   1.754425   3.094701   1.753496   0.000000
 Stoichiometry    C3H7(2)
 Framework group  C1[X(C3H7)]
 Deg. of freedom    24
 Full point group                 C1      NOp   1
 Largest Abelian subgroup         C1      NOp   1
 Largest concise Abelian subgroup C1      NOp   1
                         Standard orientation:                         
 ---------------------------------------------------------------------
 Center     Atomic      Atomic             Coordinates (Angstroms)
 Number     Number       Type             X           Y           Z
 ---------------------------------------------------------------------
      1          6           0       -1.317282   -0.260825   -0.032641
      2          6           0       -0.041482    0.531342    0.023472
      3          6           0        1.279065   -0.197054   -0.023972
      4          1           0       -0.820490    0.291202    1.063180
      5          1           0       -2.209624    0.216383   -0.384255
      6          1           0       -1.256196   -1.330749   -0.054519
      7          1           0        2.089952    0.431241    0.325420
      8          1           0       -0.088153    1.550625   -0.307994
      9          1           0        1.508865   -0.512444   -1.039960
     10          1           0        1.253837   -1.087039    0.596974
 ---------------------------------------------------------------------
 Rotational constants (GHZ):     37.1238772      8.5777781      7.5881360
 Leave Link  202 at Sun Jun  6 17:24:11 2021, MaxMem=  3355443200 cpu:         0.0
 (Enter /Local/ce_dana/g09/l301.exe)
 Standard basis: 3-21G (6D, 7F)
 Ernie: Thresh=  0.10000D-02 Tol=  0.10000D-05 Strict=F.
 There are    41 symmetry adapted cartesian basis functions of A   symmetry.
 There are    41 symmetry adapted basis functions of A   symmetry.
    41 basis functions,    66 primitive gaussians,    41 cartesian basis functions
    13 alpha electrons       12 beta electrons
       nuclear repulsion energy        76.0975346839 Hartrees.
 IExCor=    0 DFT=F Ex=HF Corr=None ExCW=0 ScaHFX=  1.000000
 ScaDFX=  1.000000  1.000000  1.000000  1.000000 ScalE2=  1.000000  1.000000
 IRadAn=      5 IRanWt=     -1 IRanGd=            0 ICorTp=0 IEmpDi=  4
 NAtoms=   10 NActive=   10 NUniq=   10 SFac= 1.00D+00 NAtFMM=   60 NAOKFM=F Big=F
 Integral buffers will be    131072 words long.
 Raffenetti 2 integral format.
 Two-electron integral symmetry is turned on.
 Leave Link  301 at Sun Jun  6 17:24:11 2021, MaxMem=  3355443200 cpu:         0.1
 (Enter /Local/ce_dana/g09/l302.exe)
 NPDir=0 NMtPBC=     1 NCelOv=     1 NCel=       1 NClECP=     1 NCelD=      1
         NCelK=      1 NCelE2=     1 NClLst=     1 CellRange=     0.0.
 One-electron integrals computed using PRISM.
 NBasis=    41 RedAO= T EigKep=  1.56D-02  NBF=    41
 NBsUse=    41 1.00D-06 EigRej= -1.00D+00 NBFU=    41
 Leave Link  302 at Sun Jun  6 17:24:11 2021, MaxMem=  3355443200 cpu:         0.7
 (Enter /Local/ce_dana/g09/l303.exe)
 DipDrv:  MaxL=1.
 Leave Link  303 at Sun Jun  6 17:24:11 2021, MaxMem=  3355443200 cpu:         0.1
 (Enter /Local/ce_dana/g09/l401.exe)
 Initial guess from the checkpoint file:  "check.chk"
 B after Tr=     0.000000    0.000000    0.000000
         Rot=    1.000000    0.000000    0.000000    0.000000 Ang=   0.00 deg.
 Guess basis will be translated and rotated to current coordinates.
 JPrj=2 DoOrth=T DoCkMO=T.
 Initial guess <Sx>= 0.0000 <Sy>= 0.0000 <Sz>= 0.5000 <S**2>= 0.8059 S= 0.5276
 Leave Link  401 at Sun Jun  6 17:24:11 2021, MaxMem=  3355443200 cpu:         0.1
 (Enter /Local/ce_dana/g09/l502.exe)
 UHF open shell SCF:
 Using DIIS extrapolation, IDIIS=  1040.
 Integral symmetry usage will be decided dynamically.
 Keep R1 and R2 ints in memory in canonical form, NReq=1569039.
 IVT=       11725 IEndB=       11725 NGot=  3355443200 MDV=  3354689294
 LenX=  3354689294 LenY=  3354687172
 Requested convergence on RMS density matrix=1.00D-08 within  64 cycles.
 Requested convergence on MAX density matrix=1.00D-06.
 Requested convergence on             energy=1.00D-06.
 No special actions if energy rises.
 FoFCou: FMM=F IPFlag=           0 FMFlag=           0 FMFlg1=           0
         NFxFlg=           0 DoJE=F BraDBF=F KetDBF=F FulRan=T
         wScrn=  0.000000 ICntrl=     600 IOpCl=  0 I1Cent=           0 NGrid=           0
         NMat0=    1 NMatS0=    861 NMatT0=    0 NMatD0=    1 NMtDS0=    0 NMtDT0=    0
 Symmetry not used in FoFCou.

 Cycle   1  Pass 1  IDiag  1:
 E= -116.887377317774    
 DIIS: error= 7.07D-09 at cycle   1 NSaved=   1.
 NSaved= 1 IEnMin= 1 EnMin= -116.887377317774     IErMin= 1 ErrMin= 7.07D-09
 ErrMax= 7.07D-09  0.00D+00 EMaxC= 1.00D-01 BMatC= 1.19D-14 BMatP= 1.19D-14
 IDIUse=1 WtCom= 1.00D+00 WtEn= 0.00D+00
 Coeff-Com:  0.100D+01
 Coeff:      0.100D+01
 Gap=     0.520 Goal=   None    Shift=    0.000
 Gap=     0.581 Goal=   None    Shift=    0.000
 RMSDP=2.39D-09 MaxDP=2.58D-08              OVMax= 2.69D-08

 SCF Done:  E(UHF) =  -116.887377318     A.U. after    1 cycles
            NFock=  1  Conv=0.24D-08     -V/T= 2.0015
 <Sx>= 0.0000 <Sy>= 0.0000 <Sz>= 0.5000 <S**2>= 0.8059 S= 0.5276
 <L.S>=  0.00000000000    
 KE= 1.167129082731D+02 PE=-4.233674985123D+02 EE= 1.136696782376D+02
 Annihilation of the first spin contaminant:
 S**2 before annihilation     0.8059,   after     0.7507
 Leave Link  502 at Sun Jun  6 17:24:11 2021, MaxMem=  3355443200 cpu:         0.6
 (Enter /Local/ce_dana/g09/l508.exe)
 QCSCF skips out because SCF is already converged.
 Leave Link  508 at Sun Jun  6 17:24:11 2021, MaxMem=  3355443200 cpu:         0.0
 (Enter /Local/ce_dana/g09/l801.exe)
 Range of M.O.s used for correlation:     1    41
 NBasis=    41 NAE=    13 NBE=    12 NFC=     0 NFV=     0
 NROrb=     41 NOA=    13 NOB=    12 NVA=    28 NVB=    29
 Leave Link  801 at Sun Jun  6 17:24:11 2021, MaxMem=  3355443200 cpu:         0.0
 (Enter /Local/ce_dana/g09/l1101.exe)
 Using compressed storage, NAtomX=    10.
 Will process     11 centers per pass.
 Leave Link 1101 at Sun Jun  6 17:24:12 2021, MaxMem=  3355443200 cpu:         3.0
 (Enter /Local/ce_dana/g09/l1102.exe)
 Symmetrizing basis deriv contribution to polar:
 IMax=3 JMax=2 DiffMx= 0.00D+00
 Leave Link 1102 at Sun Jun  6 17:24:12 2021, MaxMem=  3355443200 cpu:         0.1
 (Enter /Local/ce_dana/g09/l1110.exe)
 Forming Gx(P) for the SCF density, NAtomX=    10.
 Integral derivatives from FoFJK, PRISM(SPDF).
 Do as many integral derivatives as possible in FoFJK.
 G2DrvN: MDV=    3355443016.
 G2DrvN: will do    11 centers at a time, making    1 passes.
 Calling FoFCou, ICntrl=  3107 FMM=F I1Cent=   0 AccDes= 1.00D-12.
 FoFJK:  IHMeth= 1 ICntrl=    3107 DoSepK=F KAlg= 0 I1Cent=   0 FoldK=F
 IRaf=         0 NMat=   1 IRICut=       1 DoRegI=T DoRafI=F ISym2E= 0.
 FoFCou: FMM=F IPFlag=           0 FMFlag=      100000 FMFlg1=           0
         NFxFlg=           0 DoJE=F BraDBF=F KetDBF=F FulRan=T
         wScrn=  0.000000 ICntrl=    3107 IOpCl=  1 I1Cent=           0 NGrid=           0
         NMat0=    1 NMatS0=      1 NMatT0=    0 NMatD0=    1 NMtDS0=    0 NMtDT0=    0
 Symmetry not used in FoFCou.
 End of G2Drv F.D. properties file   721 does not exist.
 End of G2Drv F.D. properties file   722 does not exist.
 End of G2Drv F.D. properties file   788 does not exist.
 Leave Link 1110 at Sun Jun  6 17:24:12 2021, MaxMem=  3355443200 cpu:         0.7
 (Enter /Local/ce_dana/g09/l1002.exe)
 Minotr:  UHF open shell wavefunction.
          IDoAtm=1111111111
          Direct CPHF calculation.
          Differentiating once with respect to nuclear coordinates.
          Requested convergence is 1.0D-08 RMS, and 1.0D-07 maximum.
          Secondary convergence is 1.0D-12 RMS, and 1.0D-12 maximum.
          NewPWx=T KeepS1=F KeepF1=F KeepIn=T MapXYZ=F SortEE=F KeepMc=T.
          MDV=    3355443014 using IRadAn=       1.
 Keep R1 and R2 ints in memory in canonical form, NReq=1562897.
 FoFCou: FMM=F IPFlag=           0 FMFlag=           0 FMFlg1=           0
         NFxFlg=           0 DoJE=F BraDBF=F KetDBF=F FulRan=T
         wScrn=  0.000000 ICntrl=     600 IOpCl=  0 I1Cent=           0 NGrid=           0
         NMat0=    1 NMatS0=    861 NMatT0=    0 NMatD0=    1 NMtDS0=    0 NMtDT0=    0
 Symmetry not used in FoFCou.
          Solving linear equations simultaneously, MaxMat=       0.
          There are    33 degrees of freedom in the 1st order CPHF.  IDoFFX=6 NUNeed=     0.
     27 vectors produced by pass  0 Test12= 2.16D-15 3.03D-09 XBig12= 8.00D-02 1.15D-01.
 AX will form    27 AO Fock derivatives at one time.
     27 vectors produced by pass  1 Test12= 2.16D-15 3.03D-09 XBig12= 3.06D-03 1.76D-02.
     27 vectors produced by pass  2 Test12= 2.16D-15 3.03D-09 XBig12= 4.30D-05 2.14D-03.
     27 vectors produced by pass  3 Test12= 2.16D-15 3.03D-09 XBig12= 1.08D-06 2.25D-04.
     27 vectors produced by pass  4 Test12= 2.16D-15 3.03D-09 XBig12= 1.80D-08 2.11D-05.
     27 vectors produced by pass  5 Test12= 2.16D-15 3.03D-09 XBig12= 1.47D-10 1.95D-06.
     27 vectors produced by pass  6 Test12= 2.16D-15 3.03D-09 XBig12= 1.37D-12 1.61D-07.
      9 vectors produced by pass  7 Test12= 2.16D-15 3.03D-09 XBig12= 1.03D-14 1.41D-08.
 InvSVY:  IOpt=1 It=  1 EMax= 1.89D-15
 Solved reduced A of dimension   198 with    27 vectors.
 End of Minotr F.D. properties file   721 does not exist.
 End of Minotr F.D. properties file   722 does not exist.
 End of Minotr F.D. properties file   788 does not exist.
 Leave Link 1002 at Sun Jun  6 17:24:12 2021, MaxMem=  3355443200 cpu:         1.6
 (Enter /Local/ce_dana/g09/l601.exe)
 Copying SCF densities to generalized density rwf, IOpCl= 1 IROHF=0.

 **********************************************************************

            Population analysis using the SCF density.

 **********************************************************************

 Orbital symmetries:
 Alpha Orbitals:
       Occupied  (A) (A) (A) (A) (A) (A) (A) (A) (A) (A) (A) (A)
                 (A)
       Virtual   (A) (A) (A) (A) (A) (A) (A) (A) (A) (A) (A) (A)
                 (A) (A) (A) (A) (A) (A) (A) (A) (A) (A) (A) (A)
                 (A) (A) (A) (A)
 Beta  Orbitals:
       Occupied  (A) (A) (A) (A) (A) (A) (A) (A) (A) (A) (A) (A)
       Virtual   (A) (A) (A) (A) (A) (A) (A) (A) (A) (A) (A) (A)
                 (A) (A) (A) (A) (A) (A) (A) (A) (A) (A) (A) (A)
                 (A) (A) (A) (A) (A)
 The electronic state is 2-A.
 Alpha  occ. eigenvalues --  -11.17893 -11.16801 -11.15720  -1.08899  -0.94609
 Alpha  occ. eigenvalues --   -0.79124  -0.65039  -0.61020  -0.57415  -0.53476
 Alpha  occ. eigenvalues --   -0.50528  -0.45993  -0.26145
 Alpha virt. eigenvalues --    0.25852   0.29467   0.31699   0.32111   0.35822
 Alpha virt. eigenvalues --    0.36026   0.36524   0.45763   0.49256   0.87148
 Alpha virt. eigenvalues --    0.93166   0.94784   0.98702   0.99680   1.04129
 Alpha virt. eigenvalues --    1.10290   1.13851   1.26702   1.28197   1.33597
 Alpha virt. eigenvalues --    1.34738   1.37934   1.39584   1.42062   1.53930
 Alpha virt. eigenvalues --    1.88622   1.93147   2.26473
  Beta  occ. eigenvalues --  -11.16278 -11.15903 -11.15271  -1.04682  -0.92600
  Beta  occ. eigenvalues --   -0.74175  -0.63001  -0.58482  -0.55970  -0.52454
  Beta  occ. eigenvalues --   -0.49631  -0.40415
  Beta virt. eigenvalues --    0.17713   0.27329   0.30271   0.32371   0.33285
  Beta virt. eigenvalues --    0.36155   0.37142   0.38269   0.47942   0.50853
  Beta virt. eigenvalues --    0.87388   0.93982   0.95779   1.00242   1.05357
  Beta virt. eigenvalues --    1.09594   1.11540   1.15814   1.26539   1.29033
  Beta virt. eigenvalues --    1.34574   1.35540   1.38082   1.40306   1.42538
  Beta virt. eigenvalues --    1.54878   1.90305   1.95646   2.27450
          Condensed to atoms (all electrons):
               1          2          3          4          5          6
     1  C    5.769863   0.072422  -0.066854   0.062614   0.374289   0.376539
     2  C    0.072422   5.857279   0.234136   0.089401  -0.036773  -0.039074
     3  C   -0.066854   0.234136   5.316864  -0.008820   0.001983  -0.000665
     4  H    0.062614   0.089401  -0.008820   0.596554  -0.001885  -0.001315
     5  H    0.374289  -0.036773   0.001983  -0.001885   0.453585  -0.014475
     6  H    0.376539  -0.039074  -0.000665  -0.001315  -0.014475   0.454432
     7  H    0.003287  -0.043867   0.380231  -0.001887  -0.000038  -0.000022
     8  H   -0.031852   0.382354  -0.025984  -0.001462  -0.001443   0.001455
     9  H   -0.001168  -0.054217   0.373331   0.001707   0.000020   0.000796
    10  H    0.002898  -0.050199   0.382638  -0.000815  -0.000015   0.000699
               7          8          9         10
     1  C    0.003287  -0.031852  -0.001168   0.002898
     2  C   -0.043867   0.382354  -0.054217  -0.050199
     3  C    0.380231  -0.025984   0.373331   0.382638
     4  H   -0.001887  -0.001462   0.001707  -0.000815
     5  H   -0.000038  -0.001443   0.000020  -0.000015
     6  H   -0.000022   0.001455   0.000796   0.000699
     7  H    0.508765  -0.001730  -0.028064  -0.024517
     8  H   -0.001730   0.448610  -0.000606   0.002113
     9  H   -0.028064  -0.000606   0.528290  -0.029144
    10  H   -0.024517   0.002113  -0.029144   0.513715
          Atomic-Atomic Spin Densities.
               1          2          3          4          5          6
     1  C    1.102057  -0.359945   0.010715   0.023915  -0.020883  -0.021646
     2  C   -0.359945   1.153689  -0.052612   0.037565   0.005417   0.006326
     3  C    0.010715  -0.052612  -0.092230  -0.000187  -0.000417  -0.000111
     4  H    0.023915   0.037565  -0.000187  -0.335277  -0.000110  -0.000257
     5  H   -0.020883   0.005417  -0.000417  -0.000110  -0.040661   0.002437
     6  H   -0.021646   0.006326  -0.000111  -0.000257   0.002437  -0.042405
     7  H    0.000085  -0.004368   0.006633   0.000812   0.000001  -0.000016
     8  H    0.007682  -0.022176   0.003417  -0.001792  -0.000487  -0.000484
     9  H    0.001596  -0.017297   0.002430  -0.000309   0.000079   0.000509
    10  H    0.003076  -0.009271   0.009243  -0.000619  -0.000036  -0.000778
               7          8          9         10
     1  C    0.000085   0.007682   0.001596   0.003076
     2  C   -0.004368  -0.022176  -0.017297  -0.009271
     3  C    0.006633   0.003417   0.002430   0.009243
     4  H    0.000812  -0.001792  -0.000309  -0.000619
     5  H    0.000001  -0.000487   0.000079  -0.000036
     6  H   -0.000016  -0.000484   0.000509  -0.000778
     7  H    0.004037   0.000621  -0.002724   0.000748
     8  H    0.000621  -0.037732  -0.001358   0.000203
     9  H   -0.002724  -0.001358   0.072445  -0.007610
    10  H    0.000748   0.000203  -0.007610   0.020043
 Mulliken charges and spin densities:
               1          2
     1  C   -0.562038   0.746653
     2  C   -0.411461   0.737329
     3  C   -0.586860  -0.113120
     4  H    0.265909  -0.276258
     5  H    0.224753  -0.054660
     6  H    0.221630  -0.056424
     7  H    0.207842   0.005828
     8  H    0.228544  -0.052106
     9  H    0.209054   0.047760
    10  H    0.202627   0.015000
 Sum of Mulliken charges =  -0.00000   1.00000
 Mulliken charges and spin densities with hydrogens summed into heavy atoms:
               1          2
     1  C   -0.115655   0.635569
     2  C    0.082991   0.408964
     3  C    0.032664  -0.044533
 APT charges:
               1
     1  C   -1.087577
     2  C   -0.402925
     3  C   -1.318411
     4  H    0.253937
     5  H    0.510875
     6  H    0.384242
     7  H    0.454020
     8  H    0.450520
     9  H    0.385887
    10  H    0.369432
 Sum of APT charges =  -0.00000
 APT charges with hydrogens summed into heavy atoms:
               1
     1  C   -0.192460
     2  C    0.301532
     3  C   -0.109072
 Electronic spatial extent (au):  <R**2>=            214.9401
 Charge=             -0.0000 electrons
 Dipole moment (field-independent basis, Debye):
    X=              0.0985    Y=              0.0387    Z=              0.0928  Tot=              0.1408
 Quadrupole moment (field-independent basis, Debye-Ang):
   XX=            -21.2913   YY=            -20.4950   ZZ=            -22.5210
   XY=             -0.4015   XZ=              0.2090   YZ=             -0.3851
 Traceless Quadrupole moment (field-independent basis, Debye-Ang):
   XX=              0.1445   YY=              0.9408   ZZ=             -1.0853
   XY=             -0.4015   XZ=              0.2090   YZ=             -0.3851
 Octapole moment (field-independent basis, Debye-Ang**2):
  XXX=              0.5578  YYY=             -0.3661  ZZZ=             -0.4660  XYY=             -0.3009
  XXY=              1.4264  XXZ=             -1.5565  XZZ=              1.2887  YZZ=             -0.3410
  YYZ=             -0.7220  XYZ=             -0.0489
 Hexadecapole moment (field-independent basis, Debye-Ang**3):
 XXXX=           -196.0596 YYYY=            -54.3205 ZZZZ=            -36.3108 XXXY=             -1.0982
 XXXZ=              5.9858 YYYX=              1.0298 YYYZ=             -2.2752 ZZZX=             -0.8488
 ZZZY=             -0.1531 XXYY=            -42.2859 XXZZ=            -40.8794 YYZZ=            -16.4709
 XXYZ=              0.4782 YYXZ=              0.9082 ZZXY=             -1.4025
 N-N= 7.609753468391D+01 E-N=-4.233674984931D+02  KE= 1.167129082731D+02
  Exact polarizability:   0.000   0.000   0.000   0.000   0.000   0.000
 Approx polarizability:  27.908   2.484  25.071   0.216  -0.016  21.040
                          Isotropic Fermi Contact Couplings
        Atom                 a.u.       MegaHertz       Gauss      10(-4) cm-1
     1  C(13)              0.15310     172.11445      61.41471      57.41120
     2  C(13)              0.17138     192.66296      68.74693      64.26545
     3  C(13)             -0.02671     -30.03005     -10.71547     -10.01695
     4  H(1)              -0.07210    -322.29075    -115.00135    -107.50462
     5  H(1)              -0.01256     -56.12791     -20.02783     -18.72226
     6  H(1)              -0.01304     -58.29360     -20.80060     -19.44465
     7  H(1)               0.00212       9.47849       3.38216       3.16169
     8  H(1)              -0.01179     -52.68801     -18.80039     -17.57483
     9  H(1)               0.01558      69.66168      24.85702      23.23664
    10  H(1)               0.00533      23.81004       8.49601       7.94217
 --------------------------------------------------------
       Center         ----  Spin Dipole Couplings  ----
                      3XX-RR        3YY-RR        3ZZ-RR
 --------------------------------------------------------
     1   Atom       -0.301253     -0.289813      0.591067
     2   Atom       -0.318985     -0.299238      0.618222
     3   Atom        0.013090      0.001342     -0.014432
     4   Atom        0.037898     -0.045500      0.007603
     5   Atom        0.030509     -0.026978     -0.003532
     6   Atom       -0.048367      0.059430     -0.011063
     7   Atom        0.014472     -0.009300     -0.005172
     8   Atom       -0.049053      0.053925     -0.004871
     9   Atom        0.010738     -0.000965     -0.009773
    10   Atom        0.005973      0.000697     -0.006669
 --------------------------------------------------------
                        XY            XZ            YZ
 --------------------------------------------------------
     1   Atom       -0.022089     -0.108716      0.123413
     2   Atom       -0.017374     -0.083988      0.128660
     3   Atom       -0.003711      0.000116      0.000699
     4   Atom        0.081840     -0.011111      0.018331
     5   Atom       -0.041248      0.021255     -0.007072
     6   Atom       -0.004023     -0.003523      0.002045
     7   Atom       -0.003912      0.000860     -0.001123
     8   Atom       -0.003102     -0.002738     -0.022692
     9   Atom       -0.006756     -0.004742      0.000819
    10   Atom       -0.011358      0.005206     -0.000007
 --------------------------------------------------------


 ---------------------------------------------------------------------------------
              Anisotropic Spin Dipole Couplings in Principal Axis System
 ---------------------------------------------------------------------------------

       Atom             a.u.   MegaHertz   Gauss  10(-4) cm-1        Axes

              Baa    -0.3187   -42.765   -15.260   -14.265  0.8551  0.5174  0.0320
     1 C(13)  Bbb    -0.3026   -40.610   -14.491   -13.546 -0.5045  0.8448 -0.1780
              Bcc     0.6213    83.375    29.750    27.811 -0.1192  0.1361  0.9835
 
              Baa    -0.3293   -44.184   -15.766   -14.738  0.9029  0.4292  0.0218
     2 C(13)  Bbb    -0.3143   -42.171   -15.048   -14.067 -0.4205  0.8929 -0.1611
              Bcc     0.6435    86.356    30.814    28.805 -0.0886  0.1363  0.9867
 
              Baa    -0.0145    -1.941    -0.693    -0.647 -0.0105 -0.0466  0.9989
     3 C(13)  Bbb     0.0003     0.040     0.014     0.013  0.2780  0.9594  0.0477
              Bcc     0.0142     1.901     0.678     0.634  0.9605 -0.2782 -0.0029
 
              Baa    -0.0999   -53.316   -19.024   -17.784 -0.5123  0.8362 -0.1955
     4 H(1)   Bbb     0.0119     6.336     2.261     2.114 -0.1033  0.1660  0.9807
              Bcc     0.0880    46.979    16.763    15.671  0.8526  0.5226  0.0013
 
              Baa    -0.0488   -26.050    -9.295    -8.689  0.4779  0.8740 -0.0878
     5 H(1)   Bbb    -0.0110    -5.846    -2.086    -1.950 -0.2512  0.2318  0.9398
              Bcc     0.0598    31.896    11.381    10.639  0.8417 -0.4271  0.3303
 
              Baa    -0.0488   -26.054    -9.297    -8.691  0.9952  0.0353  0.0909
     6 H(1)   Bbb    -0.0108    -5.771    -2.059    -1.925 -0.0897 -0.0341  0.9954
              Bcc     0.0596    31.825    11.356    10.616 -0.0382  0.9988  0.0308
 
              Baa    -0.0101    -5.400    -1.927    -1.801  0.1474  0.9698  0.1945
     7 H(1)   Bbb    -0.0050    -2.684    -0.958    -0.895 -0.0802 -0.1843  0.9796
              Bcc     0.0152     8.084     2.885     2.697  0.9858 -0.1600  0.0506
 
              Baa    -0.0494   -26.380    -9.413    -8.799  0.9951  0.0487  0.0859
     8 H(1)   Bbb    -0.0123    -6.542    -2.334    -2.182 -0.0970  0.3187  0.9429
              Bcc     0.0617    32.921    11.747    10.981 -0.0186  0.9466 -0.3219
 
              Baa    -0.0109    -5.800    -2.069    -1.935  0.2382  0.0824  0.9677
     9 H(1)   Bbb    -0.0038    -2.050    -0.731    -0.684  0.3687  0.9141 -0.1686
              Bcc     0.0147     7.849     2.801     2.618  0.8985 -0.3970 -0.1873
 
              Baa    -0.0111    -5.917    -2.111    -1.974 -0.5496 -0.5292  0.6465
    10 H(1)   Bbb    -0.0047    -2.488    -0.888    -0.830  0.2863  0.6077  0.7408
              Bcc     0.0158     8.405     2.999     2.804  0.7849 -0.5922  0.1824
 

 ---------------------------------------------------------------------------------

 No NMR shielding tensors so no spin-rotation constants.
 Leave Link  601 at Sun Jun  6 17:24:12 2021, MaxMem=  3355443200 cpu:         1.6
 (Enter /Local/ce_dana/g09/l701.exe)
 Compute integral second derivatives.
 ... and contract with generalized density number  0.
 Leave Link  701 at Sun Jun  6 17:24:13 2021, MaxMem=  3355443200 cpu:         2.4
 (Enter /Local/ce_dana/g09/l702.exe)
 L702 exits ... SP integral derivatives will be done elsewhere.
 Leave Link  702 at Sun Jun  6 17:24:13 2021, MaxMem=  3355443200 cpu:         0.0
 (Enter /Local/ce_dana/g09/l703.exe)
 Compute integral second derivatives, UseDBF=F ICtDFT=           0.
 Integral derivatives from FoFJK, PRISM(SPDF).
 Calling FoFJK, ICntrl=    100147 FMM=F ISym2X=0 I1Cent= 0 IOpClX= 1 NMat=1 NMatS=1 NMatT=0.
 FoFJK:  IHMeth= 1 ICntrl=  100147 DoSepK=F KAlg= 0 I1Cent=   0 FoldK=F
 IRaf=         0 NMat=   1 IRICut=       1 DoRegI=T DoRafI=F ISym2E= 0.
 FoFCou: FMM=F IPFlag=           0 FMFlag=      100000 FMFlg1=         800
         NFxFlg=           0 DoJE=F BraDBF=F KetDBF=F FulRan=T
         wScrn=  0.000000 ICntrl=  100147 IOpCl=  1 I1Cent=           0 NGrid=           0
         NMat0=    1 NMatS0=      1 NMatT0=    0 NMatD0=    1 NMtDS0=    0 NMtDT0=    0
 Symmetry not used in FoFCou.
 Leave Link  703 at Sun Jun  6 17:24:13 2021, MaxMem=  3355443200 cpu:         1.0
 (Enter /Local/ce_dana/g09/l716.exe)
 Dipole        = 3.87717925D-02 1.52358916D-02 3.64977087D-02
 Polarizability= 0.00000000D+00 0.00000000D+00 0.00000000D+00
                 0.00000000D+00 0.00000000D+00 0.00000000D+00
 ***** Axes restored to original set *****
 -------------------------------------------------------------------
 Center     Atomic                   Forces (Hartrees/Bohr)
 Number     Number              X              Y              Z
 -------------------------------------------------------------------
      1        6          -0.000000509    0.000000124    0.000000280
      2        6           0.000000615   -0.000000531   -0.000000372
      3        6          -0.000000251    0.000000336   -0.000000226
      4        1          -0.000000034    0.000000161   -0.000000119
      5        1           0.000000349    0.000000475   -0.000000082
      6        1          -0.000000061   -0.000000007   -0.000000004
      7        1           0.000000049   -0.000000415    0.000000045
      8        1          -0.000000131    0.000000044    0.000000179
      9        1           0.000000098   -0.000000006    0.000000240
     10        1          -0.000000124   -0.000000181    0.000000059
 -------------------------------------------------------------------
 Cartesian Forces:  Max     0.000000615 RMS     0.000000266
 Force constants in Cartesian coordinates: 
                1             2             3             4             5 
      1  0.682913D+00
      2  0.746873D-01  0.556343D+00
      3  0.552083D-01  0.542034D-02  0.171722D-02
      4 -0.127320D+00  0.890536D-01 -0.669061D-01  0.657413D+00
      5  0.813926D-01 -0.278016D+00  0.111322D+00  0.144949D-01  0.477564D+00
      6  0.368624D-02 -0.551162D-01  0.140897D+00  0.547643D-01 -0.471911D-01
      7  0.932924D-02  0.175413D-01  0.642168D-04 -0.140831D+00 -0.535681D-01
      8 -0.199555D-01 -0.238174D-01 -0.692382D-02 -0.486149D-01 -0.170792D+00
      9  0.146848D-01  0.738286D-02  0.155970D-03 -0.231272D-01 -0.266743D-01
     10 -0.128777D-01 -0.429006D-01  0.780951D-01 -0.182537D-03 -0.496399D-01
     11 -0.297502D-01  0.676138D-01 -0.167626D+00 -0.602786D-01  0.901090D-01
     12 -0.602480D-04  0.870467D-02 -0.609285D-01  0.186174D-01 -0.286208D-01
     13 -0.185531D+00 -0.158608D+00  0.181977D-01  0.123220D-01  0.164281D-01
     14 -0.152313D+00 -0.255431D+00  0.418567D-01 -0.198542D-01 -0.202208D-01
     15  0.302236D-01  0.383459D-01 -0.326819D-01 -0.114502D-01 -0.875329D-03
     16 -0.358291D+00  0.246738D-01 -0.855837D-01 -0.109295D-01 -0.212046D-02
     17  0.168185D-01 -0.627586D-01  0.143647D-01  0.331873D-01 -0.322434D-02
     18 -0.914285D-01  0.544197D-02 -0.490307D-01  0.887953D-02  0.758550D-02
     19 -0.323815D-02 -0.228231D-02 -0.944626D-03  0.111372D-01 -0.233501D-01
     20 -0.578624D-02 -0.297543D-02  0.195946D-04  0.143668D-01 -0.272960D-01
     21 -0.161722D-02 -0.235956D-02  0.873699D-03  0.509974D-02 -0.109878D-01
     22 -0.816727D-02  0.443846D-04 -0.137500D-02 -0.375312D+00  0.217832D-01
     23  0.334358D-01 -0.385391D-02  0.293601D-03  0.181123D-01 -0.624689D-01
     24 -0.127116D-01 -0.701498D-02 -0.122725D-02  0.325278D-01 -0.104253D-03
     25  0.202371D-02 -0.172143D-02  0.201721D-02 -0.381504D-02 -0.667355D-02
     26  0.201125D-02  0.120527D-02  0.125753D-02 -0.678456D-02 -0.776145D-02
     27  0.152936D-02 -0.208001D-02  0.108950D-02 -0.515665D-02 -0.508043D-02
     28  0.115993D-02 -0.488254D-03  0.122693D-02 -0.224817D-01  0.125326D-02
     29 -0.540722D-03  0.168990D-02  0.148848D-04 -0.336826D-01  0.210579D-02
     30  0.485237D-03  0.127505D-02 -0.864736D-03 -0.132486D-01  0.626157D-03
                6             7             8             9            10 
      6  0.682979D-01
      7 -0.112440D-01  0.594708D+00
      8 -0.221104D-01 -0.602243D-01  0.567809D+00
      9 -0.788005D-01 -0.168409D-01 -0.291740D-01  0.585178D+00
     10 -0.573555D-01  0.281153D-02  0.898214D-04 -0.123841D-01  0.118152D-01
     11  0.143781D+00 -0.360143D-02 -0.346032D-02 -0.131885D-01  0.969513D-01
     12 -0.908835D-01 -0.598433D-03  0.312212D-03 -0.222066D-03 -0.175234D-01
     13 -0.186936D-02 -0.177432D-02  0.213259D-02 -0.109005D-02 -0.131405D-02
     14  0.198981D-03  0.427158D-02 -0.318297D-02  0.374822D-02 -0.814460D-03
     15 -0.395194D-02 -0.895953D-05 -0.340782D-02  0.101486D-02  0.106474D-01
     16  0.124482D-03  0.874688D-03 -0.128684D-02  0.751631D-03  0.259539D-02
     17  0.669421D-02  0.793324D-03  0.235465D-02 -0.123503D-02 -0.970305D-03
     18 -0.174216D-02 -0.109582D-02  0.114463D-02  0.211678D-02 -0.161297D-01
     19  0.918286D-02 -0.105791D+00  0.962831D-01 -0.418831D-01  0.286427D-03
     20  0.819161D-02  0.932105D-01 -0.252922D+00  0.873838D-01  0.415460D-03
     21  0.284134D-02 -0.419786D-01  0.889141D-01 -0.974468D-01  0.286194D-03
     22  0.253232D-01 -0.107821D-01  0.462782D-02  0.344535D-02 -0.184698D-03
     23 -0.105539D-01 -0.280408D-01  0.565632D-02  0.596999D-02 -0.299532D-03
     24 -0.341880D-01 -0.999537D-02  0.132779D-02  0.369702D-02  0.155526D-01
     25 -0.263256D-01 -0.579784D-01  0.248127D-03 -0.192276D-01 -0.216993D-02
     26 -0.351613D-01  0.792839D-03 -0.591519D-01 -0.239392D-01 -0.290345D-02
     27 -0.678867D-02 -0.152417D-01 -0.196302D-01 -0.320365D+00 -0.113812D-02
     28  0.371325D-02 -0.290566D+00  0.267001D-01  0.956712D-01 -0.779569D-03
     29  0.112676D-01  0.288251D-01 -0.624929D-01 -0.102738D-01  0.717321D-04
     30  0.431894D-02  0.969395D-01 -0.104525D-01 -0.953283D-01 -0.505238D-04
               11            12            13            14            15 
     11 -0.160697D+00
     12  0.227222D-01  0.141649D+00
     13 -0.547005D-03  0.334037D-03  0.185977D+00
     14  0.346073D-02 -0.277021D-02  0.164232D+00  0.268727D+00
     15  0.132747D-01  0.299065D-02 -0.235666D-01 -0.394064D-01  0.279209D-01
     16 -0.273527D-02  0.181879D-02 -0.116315D-01  0.510870D-02 -0.532722D-02
     17  0.133188D-02 -0.245597D-02 -0.240274D-01  0.640183D-02 -0.921528D-02
     18 -0.471153D-03  0.117296D-02  0.719545D-02 -0.138149D-02  0.349850D-02
     19 -0.132613D-03 -0.217458D-03  0.638562D-03 -0.103857D-02 -0.348854D-03
     20  0.638442D-03  0.246115D-03  0.811161D-03 -0.146306D-02 -0.450548D-03
     21  0.572446D-03  0.878682D-03  0.185964D-03 -0.600575D-03 -0.122546D-03
     22 -0.301973D-02 -0.162185D-02  0.108010D-02  0.483788D-03 -0.792638D-03
     23  0.187918D-02  0.225200D-02 -0.651811D-03  0.114162D-02  0.144786D-02
     24  0.115349D-03  0.370069D-02  0.689256D-03 -0.157370D-02  0.145307D-02
     25  0.116564D-02 -0.170542D-04 -0.596179D-04  0.359549D-04  0.338160D-03
     26 -0.914343D-03  0.159211D-03 -0.112780D-04  0.254405D-03  0.344737D-03
     27  0.179647D-02  0.125367D-02  0.127769D-03 -0.182904D-03  0.791713D-04
     28  0.194798D-02 -0.731752D-03  0.292895D-03 -0.112389D-03  0.285390D-03
     29  0.384199D-04 -0.549348D-03  0.240997D-03  0.311825D-03 -0.578244D-04
     30 -0.976061D-03  0.388022D-03 -0.204150D-03  0.111358D-03 -0.200751D-03
               16            17            18            19            20 
     16  0.375574D+00
     17 -0.262937D-01  0.613835D-01
     18  0.899194D-01 -0.106359D-01  0.435734D-01
     19  0.186136D-03 -0.181601D-03  0.111352D-03  0.111674D+00
     20 -0.146939D-03  0.495139D-03  0.108407D-03 -0.102602D+00  0.281374D+00
     21 -0.214301D-04  0.100521D-03 -0.193983D-03  0.490712D-01 -0.960951D-01
     22  0.644560D-03  0.136344D-02  0.159776D-02  0.709714D-03 -0.544551D-03
     23  0.173726D-02 -0.514221D-02 -0.228651D-02  0.967688D-03  0.103753D-02
     24 -0.179814D-02  0.250548D-02  0.545568D-03  0.490704D-03  0.303487D-03
     25  0.164973D-03 -0.100855D-03  0.555731D-03 -0.137196D-02 -0.148042D-02
     26  0.632595D-03 -0.316839D-03  0.211161D-03  0.127219D-02  0.383591D-02
     27  0.139733D-03 -0.552844D-03  0.237698D-04 -0.504666D-03 -0.317198D-03
     28  0.812329D-03 -0.588703D-03  0.394791D-03 -0.142304D-01  0.175648D-02
     29  0.430860D-03 -0.525006D-03  0.283391D-03  0.310644D-01 -0.272415D-02
     30 -0.234932D-04  0.430124D-03  0.358851D-04 -0.149574D-01  0.609837D-03
               21            22            23            24            25 
     21  0.101755D+00
     22  0.413561D-03  0.392501D+00
     23  0.537077D-03 -0.222598D-01  0.659318D-01
     24  0.119367D-03 -0.251518D-01  0.470881D-02  0.257942D-01
     25 -0.170659D-01 -0.212038D-03  0.502863D-03  0.594055D-03  0.601163D-01
     26  0.341075D-01 -0.831042D-04  0.303003D-03  0.706178D-03  0.507837D-02
     27 -0.144765D-01 -0.611754D-03 -0.350254D-03 -0.165380D-04  0.211394D-01
     28  0.562639D-02 -0.276883D-03 -0.350398D-02 -0.197553D-03  0.330203D-02
     29 -0.141886D-01 -0.239547D-02 -0.448453D-02 -0.974157D-03  0.294530D-02
     30  0.577170D-02 -0.122686D-02 -0.201865D-02  0.121903D-03  0.379915D-01
               26            27            28            29            30 
     26  0.633181D-01
     27  0.270806D-01  0.354689D+00
     28 -0.484866D-05 -0.283465D-03  0.322767D+00
     29 -0.772084D-03 -0.683162D-03 -0.269596D-01  0.668528D-01
     30 -0.476631D-02 -0.154883D-01 -0.105705D+00  0.151610D-01  0.101246D+00
 FormGI is forming the generalized inverse of G from B-inverse, IUseBI=4.
 Force constants in internal coordinates: 
                1             2             3             4             5 
      1  0.286210D+00
      2  0.782964D-02 -0.367176D-01
      3  0.404812D-02 -0.206470D-02  0.402236D+00
      4  0.393148D-02 -0.148269D-02  0.849133D-03  0.400662D+00
      5  0.816109D-02 -0.373856D-02 -0.812561D-03  0.136532D-02  0.309621D+00
      6 -0.476352D-02  0.138708D+00 -0.398415D-03 -0.614893D-03  0.332321D-02
      7  0.428416D-02  0.224342D-02  0.118768D-02 -0.945726D-03  0.299108D-02
      8 -0.114206D-03 -0.343384D-03  0.228175D-03 -0.190056D-03  0.618046D-02
      9  0.281129D-02  0.110436D-02  0.649961D-04  0.279048D-03  0.116894D-01
     10  0.126231D-02  0.229998D-02 -0.145271D-04  0.830043D-03  0.657820D-02
     11  0.116016D-01 -0.256408D-02  0.357163D-02 -0.911939D-02  0.401768D-02
     12  0.634644D-02  0.221432D-02 -0.901830D-02  0.401878D-02 -0.346734D-02
     13  0.196381D-01 -0.171646D-01  0.888091D-03 -0.524500D-02 -0.102506D-02
     14  0.271544D-01 -0.120853D-01 -0.490709D-02  0.133678D-02  0.671076D-03
     15 -0.126608D-01 -0.492355D-02  0.592236D-02  0.563579D-02 -0.254733D-03
     16  0.399268D-01  0.329327D-02  0.340846D-02 -0.270258D-02  0.116476D-01
     17  0.413969D-02  0.320643D-02 -0.201358D-02  0.311164D-02 -0.165775D-01
     18  0.390774D-01  0.113564D-01  0.120980D-02  0.137204D-03  0.644842D-02
     19 -0.346572D-01 -0.823787D-03 -0.104509D-02 -0.125478D-03  0.600286D-02
     20  0.103307D-01  0.490693D-02  0.337512D-04  0.524304D-03 -0.972421D-02
     21  0.642267D-02 -0.238771D-02  0.126137D-02 -0.307039D-03  0.207038D-01
     22 -0.414216D-04  0.195004D-02 -0.299949D-03  0.906673D-03  0.187434D-01
     23 -0.393500D-02  0.134593D-02 -0.704984D-03  0.814220D-03  0.225373D-01
     24 -0.218173D-02  0.290611D-03 -0.357789D-03 -0.372670D-03 -0.213286D-01
     25 -0.971428D-03  0.251904D-03 -0.111858D-03 -0.424938D-03 -0.219187D-01
     26  0.524188D-03 -0.148590D-02  0.189212D-03 -0.688916D-03 -0.221951D-01
     27  0.886205D-03 -0.287946D-02 -0.111818D-02  0.111009D-02 -0.221259D-04
     28 -0.128515D-01  0.431202D-02 -0.250751D-02 -0.582188D-03 -0.378349D-02
     29  0.113103D-02  0.179091D-01 -0.194943D-02  0.108417D-03  0.175763D-03
     30  0.183831D-03 -0.124009D-01  0.148521D-03  0.221141D-02 -0.296484D-02
     31  0.141664D-01  0.119616D-02  0.706598D-03  0.290202D-02  0.994412D-03
     32  0.252553D-01  0.183158D-01  0.317414D-03  0.144554D-02 -0.138531D-02
     33  0.237507D-01  0.182258D-01  0.129758D-03  0.150929D-02 -0.911339D-03
     34  0.256764D-01  0.179416D-01  0.546079D-03  0.125234D-02  0.318685D-04
     35 -0.263079D-01 -0.222271D-01 -0.384334D-03 -0.106072D-02 -0.452514D-03
     36 -0.278125D-01 -0.223171D-01 -0.571990D-03 -0.996964D-03  0.214593D-04
     37 -0.258868D-01 -0.226013D-01 -0.155670D-03 -0.125391D-02  0.964666D-03
     38  0.801211D-03  0.338424D-02 -0.480513D-04 -0.407472D-04  0.101538D-03
     39 -0.703354D-03  0.329425D-02 -0.235707D-03  0.230093D-04  0.575512D-03
     40  0.122230D-02  0.301003D-02  0.180613D-03 -0.233939D-03  0.151872D-02
                6             7             8             9            10 
      6 -0.567827D-01
      7 -0.354550D-02  0.395727D+00
      8 -0.263294D-04  0.906430D-03  0.372589D+00
      9 -0.267384D-02  0.618093D-03  0.466501D-02  0.358699D+00
     10 -0.148295D-02 -0.569523D-03  0.394032D-02  0.475334D-02  0.368219D+00
     11  0.136447D-02 -0.162678D-02  0.895441D-03  0.151629D-04  0.130473D-03
     12  0.270045D-02  0.247506D-02 -0.709828D-03  0.419451D-03  0.413859D-03
     13  0.142612D-01  0.403557D-03  0.648244D-03  0.230093D-03  0.351496D-03
     14  0.451267D-02  0.100296D-02 -0.687354D-03  0.994538D-03  0.680881D-03
     15  0.129396D-02 -0.424008D-03 -0.139917D-03 -0.280539D-03 -0.474964D-03
     16 -0.206481D-01 -0.768904D-02  0.329337D-02 -0.108510D-02 -0.289953D-02
     17 -0.211066D-04  0.436685D-02 -0.163415D-02  0.350744D-03 -0.192738D-03
     18 -0.297141D-01 -0.407294D-02  0.906779D-03 -0.217354D-04 -0.148080D-02
     19  0.108024D-01  0.369976D-02 -0.152762D-02  0.594833D-03  0.292572D-02
     20 -0.567756D-02  0.948549D-03 -0.747015D-04 -0.272510D-03 -0.729303D-03
     21  0.420331D-03 -0.102138D-02  0.176650D-02 -0.705042D-02 -0.743172D-02
     22 -0.160987D-02 -0.178715D-03 -0.741229D-02  0.871327D-03 -0.778561D-02
     23  0.163528D-03  0.331649D-02 -0.733054D-02 -0.729382D-02  0.248350D-02
     24  0.527829D-03  0.122876D-03  0.674110D-02  0.678455D-02  0.576600D-03
     25 -0.436107D-03 -0.101034D-02  0.647348D-02  0.129374D-03  0.629195D-02
     26  0.991716D-03 -0.133297D-02  0.375250D-03  0.736853D-02  0.663075D-02
     27  0.151714D-02 -0.653018D-03 -0.759607D-03  0.666833D-03  0.117605D-03
     28 -0.374994D-03 -0.423509D-03 -0.433770D-03  0.743540D-04 -0.765537D-04
     29 -0.215447D-01  0.149100D-02 -0.524743D-03 -0.107607D-03  0.268086D-03
     30  0.158298D-01  0.751438D-03 -0.328856D-03  0.473376D-03  0.294470D-04
     31 -0.533989D-02  0.266595D-02 -0.419830D-03  0.291415D-03  0.374086D-03
     32 -0.293467D-01  0.139483D-02 -0.528916D-03  0.463338D-02 -0.456692D-02
     33 -0.292071D-01  0.204281D-02 -0.522661D-02  0.173932D-03  0.493328D-02
     34 -0.295059D-01  0.167505D-02  0.389453D-02 -0.488519D-02  0.918485D-04
     35  0.353882D-01 -0.181044D-02  0.627082D-03  0.453875D-02 -0.489147D-02
     36  0.355278D-01 -0.116245D-02 -0.407061D-02  0.793066D-04  0.460873D-02
     37  0.352291D-01 -0.153022D-02  0.505053D-02 -0.497982D-02 -0.232706D-03
     38 -0.478391D-02 -0.640705D-03 -0.446426D-03  0.489260D-02 -0.410436D-02
     39 -0.464433D-02  0.728078D-05 -0.514412D-02  0.433156D-03  0.539584D-02
     40 -0.494311D-02 -0.360486D-03  0.397702D-02 -0.462597D-02  0.554406D-03
               11            12            13            14            15 
     11  0.830013D-01
     12 -0.394678D-01  0.837142D-01
     13  0.135456D-01 -0.147405D-02  0.197464D-01
     14 -0.694751D-03  0.134729D-01 -0.109102D-01  0.230251D-01
     15 -0.369363D-01 -0.377751D-01 -0.136446D-01 -0.136379D-01  0.654827D-01
     16  0.185674D-02  0.234336D-02  0.217388D-01 -0.119072D-01 -0.200988D-02
     17 -0.183283D-02  0.269444D-02 -0.124762D-01  0.133865D-01 -0.580534D-03
     18  0.146773D-01 -0.116022D-01  0.137278D-02  0.113285D-01 -0.917205D-03
     19  0.122302D-02 -0.515581D-02 -0.747539D-02  0.352090D-03  0.227702D-02
     20 -0.148088D-01  0.158298D-01  0.946397D-02 -0.624998D-02 -0.594153D-03
     21  0.297351D-02 -0.971211D-03  0.310044D-02 -0.271802D-02 -0.137136D-02
     22 -0.296296D-03 -0.421322D-03 -0.192768D-02  0.296491D-02  0.383308D-03
     23 -0.590125D-03  0.655737D-03 -0.103625D-02  0.709890D-03 -0.138243D-03
     24 -0.118439D-02  0.565878D-03 -0.345759D-03 -0.126619D-03  0.457065D-03
     25 -0.974072D-03 -0.511699D-04 -0.659252D-03  0.530300D-03  0.812380D-03
     26 -0.619408D-04  0.271829D-03  0.838890D-03 -0.139459D-02 -0.754801D-04
     27  0.160516D-01 -0.165723D-01 -0.163478D-01  0.162461D-01  0.284079D-03
     28 -0.176072D-01  0.515630D-02  0.273069D-02  0.129804D-02  0.697392D-02
     29 -0.142880D-01  0.357664D-02  0.500948D-02  0.598164D-02  0.679144D-02
     30 -0.590889D-02  0.165072D-01 -0.484343D-02 -0.413007D-02 -0.661302D-02
     31 -0.258973D-02  0.149275D-01 -0.256464D-02  0.553527D-03 -0.679550D-02
     32  0.546879D-03  0.168368D-02  0.346003D-02  0.759503D-02 -0.335306D-03
     33  0.258128D-03  0.190173D-02  0.312833D-02  0.756758D-02 -0.256074D-03
     34  0.911993D-03  0.141016D-02  0.400711D-02  0.692053D-02 -0.321623D-03
     35  0.164361D-02 -0.313054D-02 -0.662240D-02 -0.640843D-02 -0.334674D-03
     36  0.135486D-02 -0.291249D-02 -0.695409D-02 -0.643589D-02 -0.255442D-03
     37  0.200872D-02 -0.340406D-02 -0.607531D-02 -0.708293D-02 -0.320990D-03
     38 -0.209718D-02  0.130221D-02  0.214189D-02 -0.321021D-03  0.590064D-03
     39 -0.238593D-02  0.152026D-02  0.181019D-02 -0.348475D-03  0.669297D-03
     40 -0.173207D-02  0.102869D-02  0.268897D-02 -0.995520D-03  0.603748D-03
               16            17            18            19            20 
     16  0.838832D-01
     17 -0.473540D-01  0.712083D-01
     18  0.189170D-01 -0.249437D-02  0.182871D-01
     19 -0.350520D-01 -0.239134D-01 -0.165070D-01  0.580312D-01
     20  0.380461D-02  0.193171D-01 -0.748864D-02 -0.241513D-01  0.247747D-01
     21  0.161117D-01 -0.553898D-02  0.486737D-02 -0.965153D-02  0.155323D-02
     22 -0.604551D-02  0.508339D-02  0.143034D-02 -0.157449D-03 -0.271085D-03
     23 -0.865138D-02 -0.305816D-02 -0.460087D-02  0.116299D-01 -0.379853D-02
     24 -0.349774D-02  0.683286D-03 -0.237812D-02  0.294011D-02 -0.443245D-04
     25 -0.299295D-02  0.330842D-02 -0.384043D-03 -0.614397D-03  0.103254D-02
     26  0.488952D-02 -0.257225D-03  0.938424D-03 -0.417146D-02  0.164944D-02
     27 -0.255965D-01  0.238860D-01  0.125629D-01  0.141849D-02 -0.115604D-01
     28 -0.699287D-02  0.818735D-02 -0.513885D-02 -0.318529D-02  0.716703D-02
     29 -0.129333D-01  0.270030D-02 -0.960822D-02  0.917596D-02 -0.131466D-02
     30 -0.906752D-03  0.890387D-02  0.106005D-02 -0.763108D-02  0.833584D-02
     31 -0.684721D-02  0.341682D-02 -0.340932D-02  0.473017D-02 -0.145846D-03
     32 -0.114132D-01  0.116533D-01 -0.384463D-02 -0.669844D-03  0.135301D-02
     33 -0.136699D-01  0.110546D-01 -0.505616D-02  0.216774D-02  0.554257D-03
     34 -0.102350D-01  0.100492D-01 -0.417614D-02 -0.574376D-04  0.113189D-02
     35  0.138145D-01 -0.258240D-02  0.824385D-02 -0.933366D-02  0.205319D-03
     36  0.115577D-01 -0.318107D-02  0.703232D-02 -0.649607D-02 -0.593439D-03
     37  0.149927D-01 -0.418649D-02  0.791235D-02 -0.872125D-02 -0.158038D-04
     38 -0.320840D-02 -0.605742D-02 -0.300704D-02  0.764653D-02 -0.926674D-03
     39 -0.546513D-02 -0.665608D-02 -0.421857D-02  0.104841D-01 -0.172543D-02
     40 -0.203016D-02 -0.766150D-02 -0.333854D-02  0.825894D-02 -0.114780D-02
               21            22            23            24            25 
     21  0.126634D+00
     22 -0.241158D-01  0.123407D+00
     23 -0.253287D-01 -0.226953D-01  0.129300D+00
     24 -0.491743D-01 -0.485210D-01  0.156688D-01  0.628591D-01
     25 -0.489509D-01  0.158596D-01 -0.506919D-01  0.121482D-01  0.636888D-01
     26  0.160389D-01 -0.480123D-01 -0.503606D-01  0.116983D-01  0.125882D-01
     27 -0.400305D-02  0.570399D-02 -0.356622D-03 -0.820392D-03  0.137585D-02
     28 -0.224399D-02  0.295810D-02 -0.977037D-03 -0.234784D-03  0.111857D-02
     29 -0.254786D-02  0.257727D-03  0.178055D-02  0.832397D-03  0.272419D-03
     30 -0.661702D-03  0.204527D-02 -0.122114D-02 -0.616592D-03  0.658371D-03
     31 -0.965567D-03 -0.655104D-03  0.153645D-02  0.450588D-03 -0.187784D-03
     32 -0.111373D-02  0.526157D-02 -0.537357D-02  0.771536D-02 -0.654538D-02
     33 -0.724037D-02 -0.660080D-03  0.707442D-02 -0.613860D-02  0.819574D-04
     34  0.483963D-02 -0.623435D-02  0.973971D-03  0.663235D-03  0.689667D-02
     35  0.223348D-02  0.532467D-02 -0.780520D-02  0.649930D-02 -0.707093D-02
     36 -0.389317D-02 -0.596982D-03  0.464278D-02 -0.735467D-02 -0.443599D-03
     37  0.818684D-02 -0.617125D-02 -0.145767D-02 -0.552834D-03  0.637111D-02
     38 -0.201602D-02  0.677319D-02 -0.440958D-02  0.723086D-02 -0.663109D-02
     39 -0.814266D-02  0.851540D-03  0.803840D-02 -0.662311D-02 -0.375456D-05
     40  0.393734D-02 -0.472273D-02  0.193795D-02  0.178726D-03  0.681096D-02
               26            27            28            29            30 
     26  0.625428D-01
     27 -0.194769D-02  0.299447D-01
     28 -0.593381D-03 -0.572318D-03  0.146668D-01
     29 -0.548711D-03 -0.650480D-03  0.910976D-02  0.893006D-02
     30 -0.209519D-03 -0.124290D-02 -0.120668D-03 -0.109183D-02  0.103463D-01
     31 -0.164849D-03 -0.132106D-02 -0.567769D-02 -0.127153D-02  0.937515D-02
     32  0.136736D-03  0.403875D-02 -0.129986D-02 -0.238471D-02  0.426410D-02
     33  0.707360D-02  0.389623D-02 -0.150269D-02 -0.190910D-02  0.410380D-02
     34 -0.725188D-02  0.284904D-02 -0.205325D-02 -0.254610D-02  0.382602D-02
     35  0.823106D-03 -0.716635D-03  0.716800D-03  0.289885D-02 -0.477293D-02
     36  0.775997D-02 -0.859153D-03  0.513969D-03  0.337446D-02 -0.493323D-02
     37 -0.656551D-02 -0.190635D-02 -0.365905D-04  0.273745D-02 -0.521101D-02
     38 -0.945277D-03 -0.122565D-02  0.160215D-02 -0.432017D-03  0.112064D-02
     39  0.599159D-02 -0.136817D-02  0.139932D-02  0.435937D-04  0.960347D-03
     40 -0.833389D-02 -0.241537D-02  0.848760D-03 -0.593414D-03  0.682565D-03
               31            32            33            34            35 
     31  0.137813D-01
     32  0.317925D-02  0.851870D-02
     33  0.369740D-02 -0.405353D-02  0.899696D-02
     34  0.333317D-02 -0.416499D-02 -0.402428D-02  0.848788D-02
     35 -0.259088D-02  0.110353D-01 -0.227831D-02 -0.171149D-02  0.808759D-02
     36 -0.207274D-02 -0.153695D-02  0.107722D-01 -0.157077D-02 -0.522600D-02
     37 -0.243697D-02 -0.164841D-02 -0.224905D-02  0.109414D-01 -0.465917D-02
     38 -0.913527D-03  0.666563D-02 -0.571246D-02 -0.608014D-02  0.695895D-02
     39 -0.395380D-03 -0.590660D-02  0.733803D-02 -0.593943D-02 -0.635464D-02
     40 -0.759610D-03 -0.601805D-02 -0.568321D-02  0.657272D-02 -0.578782D-02
               36            37            38            39            40 
     36  0.708314D-02
     37 -0.525982D-02  0.793062D-02
     38 -0.541915D-02 -0.578683D-02  0.122145D-01
     39  0.688998D-02 -0.638748D-02 -0.163591D-03  0.130810D-01
     40 -0.545297D-02  0.680296D-02 -0.531274D-03 -0.196426D-03  0.120595D-01
 Leave Link  716 at Sun Jun  6 17:24:13 2021, MaxMem=  3355443200 cpu:         0.1
 (Enter /Local/ce_dana/g09/l103.exe)

 GradGradGradGradGradGradGradGradGradGradGradGradGradGradGradGradGradGrad
 Berny optimization.
 Red2BG is reusing G-inverse.
 Internal  Forces:  Max     0.000000662 RMS     0.000000188
 Search for a saddle point.
 Step number   1 out of a maximum of   50 on scan point     1 out of    13
 All quantities printed in internal units (Hartrees-Bohrs-Radians)
 Swapping is turned off.
 Second derivative matrix not updated -- analytic derivatives used.
 ITU=  0
     Eigenvalues ---   -0.24434   0.00159   0.01103   0.02683   0.03167
     Eigenvalues ---    0.05505   0.05571   0.09344   0.09732   0.11378
     Eigenvalues ---    0.11396   0.14476   0.14894   0.18194   0.19492
     Eigenvalues ---    0.31939   0.33509   0.35875   0.36764   0.38013
     Eigenvalues ---    0.39656   0.40141   0.403561000.000001000.00000
     Eigenvalues --- 1000.000001000.000001000.000001000.000001000.00000
     Eigenvalues --- 1000.000001000.000001000.000001000.000001000.00000
     Eigenvalues --- 1000.000001000.000001000.000001000.000001000.00000
 Eigenvectors required to have negative eigenvalues:
                          R6        R2        D10       D11       D9
   1                    0.66183  -0.57633  -0.17750  -0.17685  -0.17662
                          A8        D6        D8        D7        D3
   1                    0.14336   0.14277   0.14254   0.14189   0.12235
 RFO step:  Lambda0=1.036393193D-13 Lambda= 0.00000000D+00.
 Linear search not attempted -- option 19 set.
 Iteration  1 RMS(Cart)=  0.00000302 RMS(Int)=  0.00000000
 Iteration  2 RMS(Cart)=  0.00000000 RMS(Int)=  0.00000000
 Iteration  1 RMS(Cart)=  0.00000000 RMS(Int)=  0.00000000
 ITry= 1 IFail=0 DXMaxC= 9.20D-06 DCOld= 1.00D+10 DXMaxT= 5.00D-02 DXLimC= 3.00D+00 Rises=F
 Variable       Old X    -DE/DX   Delta X   Delta X   Delta X     New X
                                 (Linear)    (Quad)   (Total)
    R1        2.83984   0.00000   0.00000   0.00000   0.00000   2.83984
    R2        2.50156  -0.00000   0.00000   0.00000   0.00000   2.50156
    R3        2.02442   0.00000   0.00000   0.00000   0.00000   2.02442
    R4        2.02558   0.00000   0.00000   0.00000   0.00000   2.02558
    R5        2.85133   0.00000   0.00000   0.00000   0.00000   2.85133
    R6        2.49667   0.00000   0.00000  -0.00000  -0.00000   2.49667
    R7        2.02737  -0.00000   0.00000  -0.00000  -0.00000   2.02737
    R8        2.04786   0.00000   0.00000   0.00000   0.00000   2.04786
    R9        2.05669  -0.00000   0.00000  -0.00000  -0.00000   2.05669
   R10        2.05128   0.00000   0.00000   0.00000   0.00000   2.05128
    A1        2.07670   0.00000   0.00000   0.00000   0.00000   2.07670
    A2        2.06980  -0.00000   0.00000  -0.00000  -0.00000   2.06980
    A3        1.98072   0.00000   0.00000   0.00000   0.00000   1.98072
    A4        1.99518   0.00000   0.00000  -0.00000  -0.00000   1.99518
    A5        2.07763   0.00000   0.00000   0.00000   0.00000   2.07763
    A6        2.07986   0.00000   0.00000   0.00000   0.00000   2.07986
    A7        2.04020  -0.00000   0.00000  -0.00000  -0.00000   2.04020
    A8        2.04097   0.00000   0.00000   0.00000   0.00000   2.04097
    A9        2.07945   0.00000   0.00000   0.00000   0.00000   2.07945
   A10        1.97162  -0.00000   0.00000  -0.00000  -0.00000   1.97162
   A11        1.94428   0.00000   0.00000   0.00000   0.00000   1.94428
   A12        1.93268  -0.00000   0.00000  -0.00000  -0.00000   1.93268
   A13        1.93636   0.00000   0.00000   0.00000   0.00000   1.93636
   A14        1.88704  -0.00000   0.00000  -0.00000  -0.00000   1.88703
   A15        1.88422  -0.00000   0.00000  -0.00000  -0.00000   1.88421
   A16        1.87687  -0.00000   0.00000   0.00000   0.00000   1.87687
    D1        1.81901  -0.00000   0.00000   0.00000   0.00000   1.81901
    D2       -2.72199  -0.00000   0.00000   0.00000   0.00000  -2.72199
    D3       -0.01162   0.00000   0.00000   0.00000   0.00000  -0.01162
    D4        0.05402  -0.00000   0.00000   0.00000   0.00000   0.05403
    D5        2.76439   0.00000   0.00000   0.00000   0.00000   2.76440
    D6       -2.83501   0.00000   0.00000  -0.00001  -0.00001  -2.83501
    D7        1.34742   0.00000   0.00000  -0.00000  -0.00000   1.34742
    D8       -0.73533   0.00000   0.00000  -0.00001  -0.00001  -0.73534
    D9       -1.72509  -0.00000   0.00000  -0.00001  -0.00001  -1.72510
   D10        2.45733  -0.00000   0.00000  -0.00000  -0.00000   2.45733
   D11        0.37458  -0.00000   0.00000  -0.00001  -0.00001   0.37458
   D12        0.74755  -0.00000   0.00000  -0.00001  -0.00001   0.74754
   D13       -1.35321   0.00000   0.00000  -0.00001  -0.00001  -1.35322
   D14        2.84722  -0.00000   0.00000  -0.00001  -0.00001   2.84721
         Item               Value     Threshold  Converged?
 Maximum Force            0.000001     0.000450     YES
 RMS     Force            0.000000     0.000300     YES
 Maximum Displacement     0.000009     0.001800     YES
 RMS     Displacement     0.000003     0.001200     YES
 Predicted change in Energy=-2.984374D-12
 Optimization completed.
    -- Stationary point found.
                           ----------------------------
                           !   Optimized Parameters   !
                           ! (Angstroms and Degrees)  !
 --------------------------                            --------------------------
 ! Name  Definition              Value          Derivative Info.                !
 --------------------------------------------------------------------------------
 ! R1    R(1,2)                  1.5028         -DE/DX =    0.0                 !
 ! R2    R(1,4)                  1.3238         -DE/DX =    0.0                 !
 ! R3    R(1,5)                  1.0713         -DE/DX =    0.0                 !
 ! R4    R(1,6)                  1.0719         -DE/DX =    0.0                 !
 ! R5    R(2,3)                  1.5089         -DE/DX =    0.0                 !
 ! R6    R(2,4)                  1.3212         -DE/DX =    0.0                 !
 ! R7    R(2,8)                  1.0728         -DE/DX =    0.0                 !
 ! R8    R(3,7)                  1.0837         -DE/DX =    0.0                 !
 ! R9    R(3,9)                  1.0884         -DE/DX =    0.0                 !
 ! R10   R(3,10)                 1.0855         -DE/DX =    0.0                 !
 ! A1    A(2,1,5)              118.9862         -DE/DX =    0.0                 !
 ! A2    A(2,1,6)              118.5906         -DE/DX =    0.0                 !
 ! A3    A(4,1,5)              113.4871         -DE/DX =    0.0                 !
 ! A4    A(4,1,6)              114.3152         -DE/DX =    0.0                 !
 ! A5    A(5,1,6)              119.0395         -DE/DX =    0.0                 !
 ! A6    A(1,2,3)              119.1673         -DE/DX =    0.0                 !
 ! A7    A(1,2,8)              116.8946         -DE/DX =    0.0                 !
 ! A8    A(3,2,4)              116.9391         -DE/DX =    0.0                 !
 ! A9    A(3,2,8)              119.1439         -DE/DX =    0.0                 !
 ! A10   A(4,2,8)              112.9655         -DE/DX =    0.0                 !
 ! A11   A(2,3,7)              111.3989         -DE/DX =    0.0                 !
 ! A12   A(2,3,9)              110.7346         -DE/DX =    0.0                 !
 ! A13   A(2,3,10)             110.9451         -DE/DX =    0.0                 !
 ! A14   A(7,3,9)              108.1191         -DE/DX =    0.0                 !
 ! A15   A(7,3,10)             107.9576         -DE/DX =    0.0                 !
 ! A16   A(9,3,10)             107.5369         -DE/DX =    0.0                 !
 ! D1    D(4,1,2,3)            104.2219         -DE/DX =    0.0                 !
 ! D2    D(5,1,2,3)           -155.9586         -DE/DX =    0.0                 !
 ! D3    D(5,1,2,8)             -0.666          -DE/DX =    0.0                 !
 ! D4    D(6,1,2,3)              3.0954         -DE/DX =    0.0                 !
 ! D5    D(6,1,2,8)            158.388          -DE/DX =    0.0                 !
 ! D6    D(1,2,3,7)           -162.4339         -DE/DX =    0.0                 !
 ! D7    D(1,2,3,9)             77.2015         -DE/DX =    0.0                 !
 ! D8    D(1,2,3,10)           -42.1314         -DE/DX =    0.0                 !
 ! D9    D(4,2,3,7)            -98.8406         -DE/DX =    0.0                 !
 ! D10   D(4,2,3,9)            140.7948         -DE/DX =    0.0                 !
 ! D11   D(4,2,3,10)            21.4619         -DE/DX =    0.0                 !
 ! D12   D(8,2,3,7)             42.8314         -DE/DX =    0.0                 !
 ! D13   D(8,2,3,9)            -77.5333         -DE/DX =    0.0                 !
 ! D14   D(8,2,3,10)           163.1339         -DE/DX =    0.0                 !
 --------------------------------------------------------------------------------
 Lowest energy point so far.  Saving SCF results.
 Iteration  1 RMS(Cart)=  0.02926625 RMS(Int)=  0.07190741
 Iteration  2 RMS(Cart)=  0.01133879 RMS(Int)=  0.06865077
 Iteration  3 RMS(Cart)=  0.00460030 RMS(Int)=  0.06756874
 Iteration  4 RMS(Cart)=  0.00185654 RMS(Int)=  0.06717202
 Iteration  5 RMS(Cart)=  0.00074894 RMS(Int)=  0.06701867
 Iteration  6 RMS(Cart)=  0.00030195 RMS(Int)=  0.06695794
 Iteration  7 RMS(Cart)=  0.00012170 RMS(Int)=  0.06693364
 Iteration  8 RMS(Cart)=  0.00004905 RMS(Int)=  0.06692388
 Iteration  9 RMS(Cart)=  0.00001977 RMS(Int)=  0.06691995
 Iteration 10 RMS(Cart)=  0.00000796 RMS(Int)=  0.06691837
 Iteration 11 RMS(Cart)=  0.00000321 RMS(Int)=  0.06691773
 Iteration 12 RMS(Cart)=  0.00000129 RMS(Int)=  0.06691747
 Iteration 13 RMS(Cart)=  0.00000052 RMS(Int)=  0.06691737
 Iteration  1 RMS(Cart)=  0.02865428 RMS(Int)=  0.05154460
 Iteration  2 RMS(Cart)=  0.02814091 RMS(Int)=  0.04791854
 Iteration  3 RMS(Cart)=  0.02753855 RMS(Int)=  0.05221926
 Iteration  4 RMS(Cart)=  0.02049751 RMS(Int)=  0.05985988
 Iteration  5 RMS(Cart)=  0.01216037 RMS(Int)=  0.06573726
 Iteration  6 RMS(Cart)=  0.00728225 RMS(Int)=  0.06963619
 Iteration  7 RMS(Cart)=  0.00438938 RMS(Int)=  0.07210546
 Iteration  8 RMS(Cart)=  0.00265680 RMS(Int)=  0.07364015
 Iteration  9 RMS(Cart)=  0.00161231 RMS(Int)=  0.07458553
 Iteration 10 RMS(Cart)=  0.00098003 RMS(Int)=  0.07516520
 Iteration 11 RMS(Cart)=  0.00059629 RMS(Int)=  0.07551972
 Iteration 12 RMS(Cart)=  0.00036303 RMS(Int)=  0.07573623
 Iteration 13 RMS(Cart)=  0.00022109 RMS(Int)=  0.07586834
 Iteration 14 RMS(Cart)=  0.00013468 RMS(Int)=  0.07594891
 Iteration 15 RMS(Cart)=  0.00008206 RMS(Int)=  0.07599803
 Iteration 16 RMS(Cart)=  0.00005000 RMS(Int)=  0.07602797
 Iteration 17 RMS(Cart)=  0.00003047 RMS(Int)=  0.07604622
 Iteration 18 RMS(Cart)=  0.00001856 RMS(Int)=  0.07605734
 Iteration 19 RMS(Cart)=  0.00001131 RMS(Int)=  0.07606412
 Iteration 20 RMS(Cart)=  0.00000689 RMS(Int)=  0.07606825
 Iteration 21 RMS(Cart)=  0.00000420 RMS(Int)=  0.07607076
 Iteration 22 RMS(Cart)=  0.00000256 RMS(Int)=  0.07607230
 Iteration 23 RMS(Cart)=  0.00000156 RMS(Int)=  0.07607323
 Iteration 24 RMS(Cart)=  0.00000095 RMS(Int)=  0.07607380
 GradGradGradGradGradGradGradGradGradGradGradGradGradGradGradGradGradGrad

 Leave Link  103 at Sun Jun  6 17:24:13 2021, MaxMem=  3355443200 cpu:         0.1
 (Enter /Local/ce_dana/g09/l202.exe)
                          Input orientation:                          
 ---------------------------------------------------------------------
 Center     Atomic      Atomic             Coordinates (Angstroms)
 Number     Number       Type             X           Y           Z
 ---------------------------------------------------------------------
      1          6           0       -0.137835    1.819421    0.310993
      2          6           0        0.518132    0.482271    0.516259
      3          6           0       -0.354515   -0.650344    0.032070
      4          1           0        0.484018    1.419562    1.435330
      5          1           0        0.377290    2.734150    0.091314
      6          1           0       -1.179752    1.733875    0.068290
      7          1           0       -0.016777   -1.603928    0.421727
      8          1           0        1.574166    0.301902    0.450225
      9          1           0       -0.345569   -0.705874   -1.055341
     10          1           0       -1.384952   -0.507780    0.343663
 ---------------------------------------------------------------------
                    Distance matrix (angstroms):
                    1          2          3          4          5
     1  C    0.000000
     2  C    1.503462   0.000000
     3  C    2.494893   1.509559   0.000000
     4  H    1.345631   1.313153   2.637573   0.000000
     5  H    1.072540   2.295948   3.463214   1.883060   0.000000
     6  H    1.073226   2.156386   2.523258   2.176171   1.850800
     7  H    3.427278   2.155757   1.084077   3.227952   4.368453
     8  H    2.291985   1.073359   2.191218   1.846082   2.734439
     9  H    2.878739   2.151184   1.088864   3.377741   3.697446
    10  H    2.640499   2.152143   1.085917   2.898178   3.698552
                    6          7          8          9         10
     6  H    0.000000
     7  H    3.552233   0.000000
     8  H    3.127377   2.482761   0.000000
     9  H    2.812612   1.759641   2.639645   0.000000
    10  H    2.267808   1.754861   3.069743   1.754073   0.000000
 Stoichiometry    C3H7(2)
 Framework group  C1[X(C3H7)]
 Deg. of freedom    24
 Full point group                 C1      NOp   1
 RotChk:  IX=2 Diff= 1.83D-01
 Largest Abelian subgroup         C1      NOp   1
 Largest concise Abelian subgroup C1      NOp   1
                         Standard orientation:                         
 ---------------------------------------------------------------------
 Center     Atomic      Atomic             Coordinates (Angstroms)
 Number     Number       Type             X           Y           Z
 ---------------------------------------------------------------------
      1          6           0       -1.257557   -0.307013   -0.021607
      2          6           0       -0.046659    0.582427    0.033357
      3          6           0        1.235545   -0.212953   -0.012385
      4          1           0       -1.083256    0.722464    0.827227
      5          1           0       -2.191811   -0.052559   -0.482872
      6          1           0       -1.016698   -1.340610    0.138011
      7          1           0        2.083506    0.385910    0.299942
      8          1           0        0.012200    1.563681   -0.397660
      9          1           0        1.428811   -0.574607   -1.021087
     10          1           0        1.179274   -1.079045    0.640251
 ---------------------------------------------------------------------
 Rotational constants (GHZ):     33.9781570      9.2050369      7.8444370
 Leave Link  202 at Sun Jun  6 17:24:13 2021, MaxMem=  3355443200 cpu:         0.0
 (Enter /Local/ce_dana/g09/l301.exe)
 Standard basis: 3-21G (6D, 7F)
 Ernie: Thresh=  0.10000D-02 Tol=  0.10000D-05 Strict=F.
 There are    41 symmetry adapted cartesian basis functions of A   symmetry.
 There are    41 symmetry adapted basis functions of A   symmetry.
    41 basis functions,    66 primitive gaussians,    41 cartesian basis functions
    13 alpha electrons       12 beta electrons
       nuclear repulsion energy        76.5042421792 Hartrees.
 IExCor=    0 DFT=F Ex=HF Corr=None ExCW=0 ScaHFX=  1.000000
 ScaDFX=  1.000000  1.000000  1.000000  1.000000 ScalE2=  1.000000  1.000000
 IRadAn=      5 IRanWt=     -1 IRanGd=            0 ICorTp=0 IEmpDi=  4
 NAtoms=   10 NActive=   10 NUniq=   10 SFac= 1.00D+00 NAtFMM=   60 NAOKFM=F Big=F
 Integral buffers will be    131072 words long.
 Raffenetti 2 integral format.
 Two-electron integral symmetry is turned on.
 Leave Link  301 at Sun Jun  6 17:24:13 2021, MaxMem=  3355443200 cpu:         0.1
 (Enter /Local/ce_dana/g09/l302.exe)
 NPDir=0 NMtPBC=     1 NCelOv=     1 NCel=       1 NClECP=     1 NCelD=      1
         NCelK=      1 NCelE2=     1 NClLst=     1 CellRange=     0.0.
 One-electron integrals computed using PRISM.
 NBasis=    41 RedAO= T EigKep=  1.55D-02  NBF=    41
 NBsUse=    41 1.00D-06 EigRej= -1.00D+00 NBFU=    41
 Leave Link  302 at Sun Jun  6 17:24:13 2021, MaxMem=  3355443200 cpu:         0.8
 (Enter /Local/ce_dana/g09/l303.exe)
 DipDrv:  MaxL=1.
 Leave Link  303 at Sun Jun  6 17:24:13 2021, MaxMem=  3355443200 cpu:         0.1
 (Enter /Local/ce_dana/g09/l401.exe)
 Initial guess from the checkpoint file:  "check.chk"
 B after Tr=    -0.000000   -0.000000    0.000000
         Rot=    0.998611    0.051934    0.006876   -0.005593 Ang=   6.04 deg.
 Guess basis will be translated and rotated to current coordinates.
 JPrj=2 DoOrth=T DoCkMO=T.
 Initial guess <Sx>= 0.0000 <Sy>= 0.0000 <Sz>= 0.5000 <S**2>= 0.8127 S= 0.5309
 Generating alternative initial guess.
 ExpMin= 1.83D-01 ExpMax= 1.72D+02 ExpMxC= 1.72D+02 IAcc=2 IRadAn=         4 AccDes= 0.00D+00
 Harris functional with IExCor=  205 and IRadAn=       4 diagonalized for initial guess.
 HarFok:  IExCor=  205 AccDes= 0.00D+00 IRadAn=         4 IDoV= 1 UseB2=F ITyADJ=14
 ICtDFT=  3500011 ScaDFX=  1.000000  1.000000  1.000000  1.000000
 FoFCou: FMM=F IPFlag=           0 FMFlag=      100000 FMFlg1=           0
         NFxFlg=           0 DoJE=T BraDBF=F KetDBF=T FulRan=T
         wScrn=  0.000000 ICntrl=     500 IOpCl=  0 I1Cent=   200000004 NGrid=           0
         NMat0=    1 NMatS0=      1 NMatT0=    0 NMatD0=    1 NMtDS0=    0 NMtDT0=    0
 Petite list used in FoFCou.
 Harris En= -117.176141131895    
 Leave Link  401 at Sun Jun  6 17:24:13 2021, MaxMem=  3355443200 cpu:         1.5
 (Enter /Local/ce_dana/g09/l502.exe)
 UHF open shell SCF:
 Using DIIS extrapolation, IDIIS=  1040.
 Integral symmetry usage will be decided dynamically.
 Keep R1 and R2 ints in memory in canonical form, NReq=1569152.
 IVT=       11725 IEndB=       11725 NGot=  3355443200 MDV=  3354689294
 LenX=  3354689294 LenY=  3354687172
 Requested convergence on RMS density matrix=1.00D-08 within  64 cycles.
 Requested convergence on MAX density matrix=1.00D-06.
 Requested convergence on             energy=1.00D-06.
 No special actions if energy rises.
 FoFCou: FMM=F IPFlag=           0 FMFlag=           0 FMFlg1=           0
         NFxFlg=           0 DoJE=F BraDBF=F KetDBF=F FulRan=T
         wScrn=  0.000000 ICntrl=     600 IOpCl=  0 I1Cent=           0 NGrid=           0
         NMat0=    1 NMatS0=    861 NMatT0=    0 NMatD0=    1 NMtDS0=    0 NMtDT0=    0
 Symmetry not used in FoFCou.

 Cycle   1  Pass 1  IDiag  1:
 E= -116.844287806264    
 DIIS: error= 1.15D-02 at cycle   1 NSaved=   1.
 NSaved= 1 IEnMin= 1 EnMin= -116.844287806264     IErMin= 1 ErrMin= 1.15D-02
 ErrMax= 1.15D-02  0.00D+00 EMaxC= 1.00D-01 BMatC= 4.64D-02 BMatP= 4.64D-02
 IDIUse=3 WtCom= 8.85D-01 WtEn= 1.15D-01
 Coeff-Com:  0.100D+01
 Coeff-En:   0.100D+01
 Coeff:      0.100D+01
 Recover alternate guess density for next cycle.
 RMSDP=1.28D-02 MaxDP=1.73D-01              OVMax= 0.00D+00

 Cycle   2  Pass 1  IDiag  1:
 E= -116.682912535620     Delta-E=        0.161375270644 Rises=F Damp=F
 Switch densities from cycles 1 and 2 for lowest energy.
[...]
 DIIS: error= 6.87D-09 at cycle  12 NSaved=  12.
 NSaved=12 IEnMin=11 EnMin= -116.850831770748     IErMin=12 ErrMin= 6.87D-09
 ErrMax= 6.87D-09  0.00D+00 EMaxC= 1.00D-01 BMatC= 9.00D-15 BMatP= 4.98D-14
 IDIUse=1 WtCom= 1.00D+00 WtEn= 0.00D+00
 Coeff-Com:  0.625D-04-0.462D-03 0.293D-02 0.633D-03-0.151D-01 0.352D-01
 Coeff-Com: -0.303D-01-0.485D-01 0.208D+00-0.288D+00-0.251D+00 0.139D+01
 Coeff:      0.625D-04-0.462D-03 0.293D-02 0.633D-03-0.151D-01 0.352D-01
 Coeff:     -0.303D-01-0.485D-01 0.208D+00-0.288D+00-0.251D+00 0.139D+01
 Gap=     0.521 Goal=   None    Shift=    0.000
 Gap=     0.530 Goal=   None    Shift=    0.000
 RMSDP=4.92D-09 MaxDP=6.76D-08 DE= 2.27D-13 OVMax= 7.27D-08

 SCF Done:  E(UHF) =  -116.850831771     A.U. after   12 cycles
            NFock= 12  Conv=0.49D-08     -V/T= 2.0017
 <Sx>= 0.0000 <Sy>= 0.0000 <Sz>= 0.5000 <S**2>= 0.8498 S= 0.5487
 <L.S>=  0.00000000000    
 KE= 1.166582370146D+02 PE=-4.216630723830D+02 EE= 1.128613671840D+02
 Annihilation of the first spin contaminant:
 S**2 before annihilation     0.8498,   after     0.7514
 Leave Link  502 at Sun Jun  6 17:24:46 2021, MaxMem=  3355443200 cpu:         1.0
 (Enter /Local/ce_dana/g09/l508.exe)
 QCSCF skips out because SCF is already converged.
 Leave Link  508 at Sun Jun  6 17:24:47 2021, MaxMem=  3355443200 cpu:         0.0
 (Enter /Local/ce_dana/g09/l701.exe)
 Compute integral first derivatives.
 ... and contract with generalized density number  0.
 Leave Link  701 at Sun Jun  6 17:24:47 2021, MaxMem=  3355443200 cpu:         2.5
 (Enter /Local/ce_dana/g09/l702.exe)
 L702 exits ... SP integral derivatives will be done elsewhere.
 Leave Link  702 at Sun Jun  6 17:24:47 2021, MaxMem=  3355443200 cpu:         0.1
 (Enter /Local/ce_dana/g09/l703.exe)
 Compute integral first derivatives, UseDBF=F ICtDFT=           0.
 Integral derivatives from FoFJK, PRISM(SPDF).
 Calling FoFJK, ICntrl=      2127 FMM=F ISym2X=0 I1Cent= 0 IOpClX= 1 NMat=1 NMatS=1 NMatT=0.
 FoFJK:  IHMeth= 1 ICntrl=    2127 DoSepK=F KAlg= 0 I1Cent=   0 FoldK=F
 IRaf=         0 NMat=   1 IRICut=       1 DoRegI=T DoRafI=F ISym2E= 0.
 FoFCou: FMM=F IPFlag=           0 FMFlag=      100000 FMFlg1=         800
         NFxFlg=           0 DoJE=F BraDBF=F KetDBF=F FulRan=T
         wScrn=  0.000000 ICntrl=    2127 IOpCl=  1 I1Cent=           0 NGrid=           0
         NMat0=    1 NMatS0=      1 NMatT0=    0 NMatD0=    1 NMtDS0=    0 NMtDT0=    0
 Symmetry not used in FoFCou.
 Leave Link  703 at Sun Jun  6 17:24:47 2021, MaxMem=  3355443200 cpu:         0.6
 (Enter /Local/ce_dana/g09/l716.exe)
 Dipole        =-5.34263909D-02-1.51452795D-03-1.73568205D-01
 ***** Axes restored to original set *****
 -------------------------------------------------------------------
 Center     Atomic                   Forces (Hartrees/Bohr)
 Number     Number              X              Y              Z
 -------------------------------------------------------------------
      1        6          -0.000378622    0.001245904    0.005250366
      2        6           0.051470337    0.002830829   -0.040570150
      3        6          -0.022074038   -0.000471602    0.020194906
      4        1          -0.029018414   -0.003574385    0.015137826
      5        1           0.000004999   -0.000001001    0.000006744
      6        1          -0.000001849   -0.000003631   -0.000007368
      7        1           0.000001901    0.000001033    0.000000335
      8        1          -0.000005990   -0.000025409   -0.000009880
      9        1          -0.000000525   -0.000002821   -0.000004068
     10        1           0.000002201    0.000001081    0.000001288
 -------------------------------------------------------------------
 Cartesian Forces:  Max     0.051470337 RMS     0.014504858
 Leave Link  716 at Sun Jun  6 17:24:47 2021, MaxMem=  3355443200 cpu:         0.0
 (Enter /Local/ce_dana/g09/l103.exe)

 GradGradGradGradGradGradGradGradGradGradGradGradGradGradGradGradGradGrad
 Berny optimization.
 FormGI is forming the generalized inverse of G from B-inverse, IUseBI=4.
 Internal  Forces:  Max     0.025166892 RMS     0.006730403
 Search for a saddle point.
 Step number  16 out of a maximum of   50 on scan point     3 out of    13
 All quantities printed in internal units (Hartrees-Bohrs-Radians)
 Swapping is turned off.
 Update second derivatives using D2CorX and points    7    8    9   10   11
                                                     12   13   14   15   16
 ITU=  0  0  0  0  0  0  0  0  0  0  0  0  0  0  0  0
     Eigenvalues ---   -0.22194   0.00178   0.00712   0.03212   0.03710
     Eigenvalues ---    0.05499   0.05584   0.06330   0.09637   0.09931
     Eigenvalues ---    0.11374   0.13679   0.14709   0.18110   0.18753
     Eigenvalues ---    0.31580   0.33429   0.35864   0.36755   0.38010
     Eigenvalues ---    0.39625   0.40137   0.403531000.000001000.00000
     Eigenvalues --- 1000.000001000.000001000.000001000.000001000.00000
     Eigenvalues --- 1000.000001000.000001000.000001000.000001000.00000
     Eigenvalues --- 1000.000001000.000001000.000001000.000001000.00000
 Eigenvectors required to have negative eigenvalues:
                          R6        R2        A6        D3        D7
   1                    0.68896  -0.54106   0.28969   0.22292   0.11219
                          D6        D8        D2        A4        A3
   1                    0.11035   0.10697   0.10207  -0.09137  -0.08045
 RFO step:  Lambda0=2.133385484D-08 Lambda=-3.03524421D-08.
 Linear search not attempted -- option 19 set.
 Iteration  1 RMS(Cart)=  0.00011187 RMS(Int)=  0.00000002
 Iteration  2 RMS(Cart)=  0.00000001 RMS(Int)=  0.00000000
 Iteration  1 RMS(Cart)=  0.00000033 RMS(Int)=  0.00000036
 ITry= 1 IFail=0 DXMaxC= 3.05D-04 DCOld= 1.00D+10 DXMaxT= 5.00D-02 DXLimC= 3.00D+00 Rises=F
 Variable       Old X    -DE/DX   Delta X   Delta X   Delta X     New X
                                 (Linear)    (Quad)   (Total)
    R1        2.82220  -0.00156   0.00000  -0.00002  -0.00002   2.82218
    R2        2.72256   0.00236   0.00000   0.00007   0.00007   2.72262
    R3        2.02960  -0.00000   0.00000  -0.00000  -0.00000   2.02959
    R4        2.02636  -0.00000   0.00000  -0.00000  -0.00000   2.02636
    R5        2.90468  -0.00001   0.00000  -0.00003  -0.00003   2.90465
    R6        2.49472  -0.00083   0.00000  -0.00011  -0.00011   2.49461
    R7        2.06366  -0.00000   0.00000   0.00000   0.00000   2.06366
    R8        2.04613   0.00000   0.00000   0.00000   0.00000   2.04613
    R9        2.05141   0.00000   0.00000   0.00001   0.00001   2.05142
   R10        2.04982  -0.00000   0.00000  -0.00000  -0.00000   2.04982
    A1        2.10638  -0.00509   0.00000  -0.00002  -0.00002   2.10636
    A2        2.07829   0.00507   0.00000   0.00000   0.00000   2.07829
    A3        1.96157   0.01009   0.00000  -0.00015  -0.00015   1.96143
    A4        1.95990  -0.00994   0.00000   0.00015   0.00015   1.96006
    A5        2.07376   0.00001   0.00000   0.00002   0.00002   2.07379
    A6        2.16544   0.00774   0.00000   0.00006   0.00006   2.16550
    A7        1.84348  -0.00451   0.00000   0.00010   0.00010   1.84358
    A8        2.88936  -0.02290   0.00000  -0.00004  -0.00004   2.88932
    A9        1.77603   0.00598   0.00000  -0.00019  -0.00019   1.77583
   A10        1.54482   0.01047   0.00000   0.00015   0.00015   1.54497
   A11        1.93371  -0.00000   0.00000  -0.00004  -0.00004   1.93367
   A12        1.85293   0.00001   0.00000   0.00003   0.00003   1.85296
   A13        1.98532  -0.00000   0.00000   0.00003   0.00003   1.98535
   A14        1.90459  -0.00000   0.00000  -0.00001  -0.00001   1.90458
   A15        1.89405   0.00000   0.00000  -0.00000  -0.00000   1.89405
   A16        1.89134  -0.00000   0.00000  -0.00000  -0.00000   1.89134
    D1        2.86622  -0.02517   0.00000   0.00000  -0.00000   2.86621
    D2       -1.73459  -0.00834   0.00000  -0.00021  -0.00021  -1.73480
    D3        0.29692   0.00084   0.00000  -0.00035  -0.00035   0.29657
    D4        1.16703  -0.00834   0.00000  -0.00018  -0.00018   1.16685
    D5       -3.08464   0.00084   0.00000  -0.00032  -0.00032  -3.08496
    D6        3.04433   0.00247   0.00000  -0.00006  -0.00006   3.04428
    D7        0.97863   0.00247   0.00000  -0.00004  -0.00004   0.97859
    D8       -1.09962   0.00247   0.00000  -0.00007  -0.00007  -1.09969
    D9       -1.36717  -0.00112   0.00000   0.00035   0.00035  -1.36681
   D10        2.85032  -0.00112   0.00000   0.00037   0.00037   2.85069
   D11        0.77207  -0.00112   0.00000   0.00034   0.00034   0.77241
   D12        0.98099  -0.00135   0.00000  -0.00005  -0.00005   0.98094
   D13       -1.08471  -0.00135   0.00000  -0.00003  -0.00003  -1.08475
   D14        3.12022  -0.00135   0.00000  -0.00007  -0.00007   3.12016
         Item               Value     Threshold  Converged?
 Maximum Force            0.000050     0.000450     YES
 RMS     Force            0.000013     0.000300     YES
 Maximum Displacement     0.000305     0.001800     YES
 RMS     Displacement     0.000112     0.001200     YES
 Predicted change in Energy=-7.616959D-08
 Optimization completed.
    -- Stationary point found.
                           ----------------------------
                           !   Optimized Parameters   !
                           ! (Angstroms and Degrees)  !
 --------------------------                            --------------------------
 ! Name  Definition              Value          Derivative Info.                !
 --------------------------------------------------------------------------------
 ! R1    R(1,2)                  1.4934         -DE/DX =   -0.0016              !
 ! R2    R(1,4)                  1.4407         -DE/DX =    0.0024              !
 ! R3    R(1,5)                  1.074          -DE/DX =    0.0                 !
 ! R4    R(1,6)                  1.0723         -DE/DX =    0.0                 !
 ! R5    R(2,3)                  1.5371         -DE/DX =    0.0                 !
 ! R6    R(2,4)                  1.3202         -DE/DX =   -0.0008              !
 ! R7    R(2,8)                  1.092          -DE/DX =    0.0                 !
 ! R8    R(3,7)                  1.0828         -DE/DX =    0.0                 !
 ! R9    R(3,9)                  1.0856         -DE/DX =    0.0                 !
 ! R10   R(3,10)                 1.0847         -DE/DX =    0.0                 !
 ! A1    A(2,1,5)              120.6867         -DE/DX =   -0.0051              !
 ! A2    A(2,1,6)              119.0771         -DE/DX =    0.0051              !
 ! A3    A(4,1,5)              112.3897         -DE/DX =    0.0101              !
 ! A4    A(4,1,6)              112.2941         -DE/DX =   -0.0099              !
 ! A5    A(5,1,6)              118.818          -DE/DX =    0.0                 !
 ! A6    A(1,2,3)              124.0707         -DE/DX =    0.0077              !
 ! A7    A(1,2,8)              105.6237         -DE/DX =   -0.0045              !
 ! A8    A(3,2,4)              165.548          -DE/DX =   -0.0229              !
 ! A9    A(3,2,8)              101.7587         -DE/DX =    0.006               !
 ! A10   A(4,2,8)               88.5119         -DE/DX =    0.0105              !
 ! A11   A(2,3,7)              110.7932         -DE/DX =    0.0                 !
 ! A12   A(2,3,9)              106.1649         -DE/DX =    0.0                 !
 ! A13   A(2,3,10)             113.7504         -DE/DX =    0.0                 !
 ! A14   A(7,3,9)              109.1249         -DE/DX =    0.0                 !
 ! A15   A(7,3,10)             108.5213         -DE/DX =    0.0                 !
 ! A16   A(9,3,10)             108.3659         -DE/DX =    0.0                 !
 ! D1    D(4,1,2,3)            164.222          -DE/DX =   -0.0252              !
 ! D2    D(5,1,2,3)            -99.3847         -DE/DX =   -0.0083              !
 ! D3    D(5,1,2,8)             17.0123         -DE/DX =    0.0008              !
 ! D4    D(6,1,2,3)             66.8659         -DE/DX =   -0.0083              !
 ! D5    D(6,1,2,8)           -176.7371         -DE/DX =    0.0008              !
 ! D6    D(1,2,3,7)            174.4275         -DE/DX =    0.0025              !
 ! D7    D(1,2,3,9)             56.0715         -DE/DX =    0.0025              !
 ! D8    D(1,2,3,10)           -63.0034         -DE/DX =    0.0025              !
 ! D9    D(4,2,3,7)            -78.3328         -DE/DX =   -0.0011              !
 ! D10   D(4,2,3,9)            163.3111         -DE/DX =   -0.0011              !
 ! D11   D(4,2,3,10)            44.2363         -DE/DX =   -0.0011              !
 ! D12   D(8,2,3,7)             56.2065         -DE/DX =   -0.0014              !
 ! D13   D(8,2,3,9)            -62.1496         -DE/DX =   -0.0014              !
 ! D14   D(8,2,3,10)           178.7756         -DE/DX =   -0.0014              !
 --------------------------------------------------------------------------------
 Lowest energy point so far.  Saving SCF results.
 Iteration  1 RMS(Cart)=  0.02294413 RMS(Int)=  0.07334705
 Iteration  2 RMS(Cart)=  0.00802878 RMS(Int)=  0.07080962
 Iteration  3 RMS(Cart)=  0.00295456 RMS(Int)=  0.07003363
 Iteration  4 RMS(Cart)=  0.00107640 RMS(Int)=  0.06977077
 Iteration  5 RMS(Cart)=  0.00039149 RMS(Int)=  0.06967786
 Iteration  6 RMS(Cart)=  0.00014230 RMS(Int)=  0.06964446
 Iteration  7 RMS(Cart)=  0.00005171 RMS(Int)=  0.06963237
 Iteration  8 RMS(Cart)=  0.00001879 RMS(Int)=  0.06962798
 Iteration  9 RMS(Cart)=  0.00000683 RMS(Int)=  0.06962639
 Iteration 10 RMS(Cart)=  0.00000248 RMS(Int)=  0.06962581
 Iteration 11 RMS(Cart)=  0.00000090 RMS(Int)=  0.06962560
 Iteration  1 RMS(Cart)=  0.02263324 RMS(Int)=  0.05654282
 Iteration  2 RMS(Cart)=  0.01906065 RMS(Int)=  0.05312108
 Iteration  3 RMS(Cart)=  0.00000548 RMS(Int)=  0.05312065
 Iteration  4 RMS(Cart)=  0.00000548 RMS(Int)=  0.05312021
 Iteration  5 RMS(Cart)=  0.00000548 RMS(Int)=  0.05311978
 Iteration  6 RMS(Cart)=  0.00000548 RMS(Int)=  0.05311935
 Iteration  7 RMS(Cart)=  0.00000547 RMS(Int)=  0.05311891
 Iteration  8 RMS(Cart)=  0.00000547 RMS(Int)=  0.05311848
 Iteration  9 RMS(Cart)=  0.00000547 RMS(Int)=  0.05311805
 Iteration 10 RMS(Cart)=  0.00000547 RMS(Int)=  0.05311761
 Iteration 11 RMS(Cart)=  0.00000547 RMS(Int)=  0.05311718
 Iteration 12 RMS(Cart)=  0.00000547 RMS(Int)=  0.05311675
 Iteration 13 RMS(Cart)=  0.00000547 RMS(Int)=  0.05311632
 Iteration 14 RMS(Cart)=  0.00000547 RMS(Int)=  0.05311589
 Iteration 15 RMS(Cart)=  0.00000547 RMS(Int)=  0.05311546
 Iteration 16 RMS(Cart)=  0.00000547 RMS(Int)=  0.05311503
 Iteration 17 RMS(Cart)=  0.00000547 RMS(Int)=  0.05311460
 Iteration 18 RMS(Cart)=  0.00000547 RMS(Int)=  0.05311417
 Iteration 19 RMS(Cart)=  0.00000547 RMS(Int)=  0.05311374
 Iteration 20 RMS(Cart)=  0.00000547 RMS(Int)=  0.05311331
 Iteration 21 RMS(Cart)=  0.00000547 RMS(Int)=  0.05311289
 Iteration 22 RMS(Cart)=  0.00000547 RMS(Int)=  0.05311246
 Iteration 23 RMS(Cart)=  0.00000547 RMS(Int)=  0.05311203
 Iteration 24 RMS(Cart)=  0.00000547 RMS(Int)=  0.05311161
 Iteration 25 RMS(Cart)=  0.00000547 RMS(Int)=  0.05311118
 Iteration 26 RMS(Cart)=  0.00000547 RMS(Int)=  0.05311076
 Iteration 27 RMS(Cart)=  0.00000546 RMS(Int)=  0.05311033
 Iteration 28 RMS(Cart)=  0.00000546 RMS(Int)=  0.05310991
 Iteration 29 RMS(Cart)=  0.00000546 RMS(Int)=  0.05310948
 Iteration 30 RMS(Cart)=  0.00000546 RMS(Int)=  0.05310906
 Iteration 31 RMS(Cart)=  0.00000546 RMS(Int)=  0.05310864
 Iteration 32 RMS(Cart)=  0.00000546 RMS(Int)=  0.05310821
 Iteration 33 RMS(Cart)=  0.00000546 RMS(Int)=  0.05310779
 Iteration 34 RMS(Cart)=  0.00000546 RMS(Int)=  0.05310737
 Iteration 35 RMS(Cart)=  0.00000546 RMS(Int)=  0.05310695
 Iteration 36 RMS(Cart)=  0.00000546 RMS(Int)=  0.05310653
 Iteration 37 RMS(Cart)=  0.00000546 RMS(Int)=  0.05310611
 Iteration 38 RMS(Cart)=  0.00000546 RMS(Int)=  0.05310569
 Iteration 39 RMS(Cart)=  0.00000546 RMS(Int)=  0.05310527
 Iteration 40 RMS(Cart)=  0.00000546 RMS(Int)=  0.05310485
 Iteration 41 RMS(Cart)=  0.00000546 RMS(Int)=  0.05310443
 Iteration 42 RMS(Cart)=  0.00000546 RMS(Int)=  0.05310401
 Iteration 43 RMS(Cart)=  0.00000546 RMS(Int)=  0.05310359
 Iteration 44 RMS(Cart)=  0.00000546 RMS(Int)=  0.05310317
 Iteration 45 RMS(Cart)=  0.00000546 RMS(Int)=  0.05310276
 Iteration 46 RMS(Cart)=  0.00000546 RMS(Int)=  0.05310234
 Iteration 47 RMS(Cart)=  0.00000545 RMS(Int)=  0.05310192
 Iteration 48 RMS(Cart)=  0.00000545 RMS(Int)=  0.05310151
 Iteration 49 RMS(Cart)=  0.00000545 RMS(Int)=  0.05310109
 Iteration 50 RMS(Cart)=  0.00000545 RMS(Int)=  0.05310068
 Iteration 51 RMS(Cart)=  0.00000545 RMS(Int)=  0.05310026
 Iteration 52 RMS(Cart)=  0.00000545 RMS(Int)=  0.05309985
 Iteration 53 RMS(Cart)=  0.00000545 RMS(Int)=  0.05309944
 Iteration 54 RMS(Cart)=  0.00000545 RMS(Int)=  0.05309902
 Iteration 55 RMS(Cart)=  0.00000545 RMS(Int)=  0.05309861
 Iteration 56 RMS(Cart)=  0.00000545 RMS(Int)=  0.05309820
 Iteration 57 RMS(Cart)=  0.00000545 RMS(Int)=  0.05309778
 Iteration 58 RMS(Cart)=  0.00000545 RMS(Int)=  0.05309737
 Iteration 59 RMS(Cart)=  0.00000545 RMS(Int)=  0.05309696
 Iteration 60 RMS(Cart)=  0.00000545 RMS(Int)=  0.05309655
 Iteration 61 RMS(Cart)=  0.00000545 RMS(Int)=  0.05309614
 Iteration 62 RMS(Cart)=  0.00000545 RMS(Int)=  0.05309573
 Iteration 63 RMS(Cart)=  0.00000545 RMS(Int)=  0.05309532
 Iteration 64 RMS(Cart)=  0.00000545 RMS(Int)=  0.05309491
 Iteration 65 RMS(Cart)=  0.00000545 RMS(Int)=  0.05309450
 Iteration 66 RMS(Cart)=  0.00000544 RMS(Int)=  0.05309410
 Iteration 67 RMS(Cart)=  0.00000544 RMS(Int)=  0.05309369
 Iteration 68 RMS(Cart)=  0.00000544 RMS(Int)=  0.05309328
 Iteration 69 RMS(Cart)=  0.00000544 RMS(Int)=  0.05309287
 Iteration 70 RMS(Cart)=  0.00000544 RMS(Int)=  0.05309247
 Iteration 71 RMS(Cart)=  0.00000544 RMS(Int)=  0.05309206
 Iteration 72 RMS(Cart)=  0.00000544 RMS(Int)=  0.05309166
 Iteration 73 RMS(Cart)=  0.00000544 RMS(Int)=  0.05309125
 Iteration 74 RMS(Cart)=  0.00000544 RMS(Int)=  0.05309085
 Iteration 75 RMS(Cart)=  0.00000544 RMS(Int)=  0.05309044
 Iteration 76 RMS(Cart)=  0.00000544 RMS(Int)=  0.05309004
 Iteration 77 RMS(Cart)=  0.00000544 RMS(Int)=  0.05308964
 Iteration 78 RMS(Cart)=  0.00000544 RMS(Int)=  0.05308923
 Iteration 79 RMS(Cart)=  0.00000544 RMS(Int)=  0.05308883
 Iteration 80 RMS(Cart)=  0.00000544 RMS(Int)=  0.05308843
 Iteration 81 RMS(Cart)=  0.00000544 RMS(Int)=  0.05308803
 Iteration 82 RMS(Cart)=  0.00000544 RMS(Int)=  0.05308763
 Iteration 83 RMS(Cart)=  0.00000544 RMS(Int)=  0.05308722
 Iteration 84 RMS(Cart)=  0.00000544 RMS(Int)=  0.05308682
 Iteration 85 RMS(Cart)=  0.00000544 RMS(Int)=  0.05308642
 Iteration 86 RMS(Cart)=  0.00000543 RMS(Int)=  0.05308603
 Iteration 87 RMS(Cart)=  0.00000543 RMS(Int)=  0.05308563
 Iteration 88 RMS(Cart)=  0.00000543 RMS(Int)=  0.05308523
 Iteration 89 RMS(Cart)=  0.00000543 RMS(Int)=  0.05308483
 Iteration 90 RMS(Cart)=  0.00000543 RMS(Int)=  0.05308443
 Iteration 91 RMS(Cart)=  0.00000543 RMS(Int)=  0.05308403
 Iteration 92 RMS(Cart)=  0.00000543 RMS(Int)=  0.05308364
 Iteration 93 RMS(Cart)=  0.00000543 RMS(Int)=  0.05308324
 Iteration 94 RMS(Cart)=  0.00000543 RMS(Int)=  0.05308284
 Iteration 95 RMS(Cart)=  0.00000543 RMS(Int)=  0.05308245
 Iteration 96 RMS(Cart)=  0.00000543 RMS(Int)=  0.05308205
 Iteration 97 RMS(Cart)=  0.00000543 RMS(Int)=  0.05308166
 Iteration 98 RMS(Cart)=  0.00000543 RMS(Int)=  0.05308126
 Iteration 99 RMS(Cart)=  0.00000543 RMS(Int)=  0.05308087
 Iteration100 RMS(Cart)=  0.00000543 RMS(Int)=  0.05308048
 New curvilinear step not converged.
 Error imposing constraints
 Error termination via Lnk1e in /Local/ce_dana/g09/l103.exe at Sun Jun  6 17:24:47 2021.
 Job cpu time:       0 days  0 hours  3 minutes 21.7 seconds.
 File lengths (MBytes):  RWF=      9 Int=      0 D2E=      0 Chk=      2 Scr=      1
<<<<<<< master

=======
>>>>>>> Tests: Test that parse_1d_scan_coords() is robust
