 Entering Gaussian System, Link 0=g16
 Initial command:
 /home/gridsan/groups/GRPAPI/Software/g16/l1.exe "/state/partition1/user/alongd/a35119-22072748/Gau-38210.inp" -scrdir="/state/partition1/user/alongd/a35119-22072748/"
 Entering Link 1 = /home/gridsan/groups/GRPAPI/Software/g16/l1.exe PID=     38334.
  
 Copyright (c) 1988-2017, Gaussian, Inc.  All Rights Reserved.
  
 This is part of the Gaussian(R) 16 program.  It is based on
 the Gaussian(R) 09 system (copyright 2009, Gaussian, Inc.),
 the Gaussian(R) 03 system (copyright 2003, Gaussian, Inc.),
 the Gaussian(R) 98 system (copyright 1998, Gaussian, Inc.),
 the Gaussian(R) 94 system (copyright 1995, Gaussian, Inc.),
 the Gaussian 92(TM) system (copyright 1992, Gaussian, Inc.),
 the Gaussian 90(TM) system (copyright 1990, Gaussian, Inc.),
 the Gaussian 88(TM) system (copyright 1988, Gaussian, Inc.),
 the Gaussian 86(TM) system (copyright 1986, Carnegie Mellon
 University), and the Gaussian 82(TM) system (copyright 1983,
 Carnegie Mellon University). Gaussian is a federally registered
 trademark of Gaussian, Inc.
  
 This software contains proprietary and confidential information,
 including trade secrets, belonging to Gaussian, Inc.
  
 This software is provided under written license and may be
 used, copied, transmitted, or stored only in accord with that
 written license.
  
 The following legend is applicable only to US Government
 contracts under FAR:
  
                    RESTRICTED RIGHTS LEGEND
  
 Use, reproduction and disclosure by the US Government is
 subject to restrictions as set forth in subparagraphs (a)
 and (c) of the Commercial Computer Software - Restricted
 Rights clause in FAR 52.227-19.
  
 Gaussian, Inc.
 340 Quinnipiac St., Bldg. 40, Wallingford CT 06492
  
  
 ---------------------------------------------------------------
 Warning -- This program may not be used in any manner that
 competes with the business of Gaussian, Inc. or will provide
 assistance to any competitor of Gaussian, Inc.  The licensee
 of this program is prohibited from giving any competitor of
 Gaussian, Inc. access to this program.  By using this program,
 the user acknowledges that Gaussian, Inc. is engaged in the
 business of creating and licensing software in the field of
 computational chemistry and represents and warrants to the
 licensee that it is not a competitor of Gaussian, Inc. and that
 it will not use this program in any manner prohibited above.
 ---------------------------------------------------------------
  

 Cite this work as:
 Gaussian 16, Revision B.01,
 M. J. Frisch, G. W. Trucks, H. B. Schlegel, G. E. Scuseria, 
 M. A. Robb, J. R. Cheeseman, G. Scalmani, V. Barone, 
 G. A. Petersson, H. Nakatsuji, X. Li, M. Caricato, A. V. Marenich, 
 J. Bloino, B. G. Janesko, R. Gomperts, B. Mennucci, H. P. Hratchian, 
 J. V. Ortiz, A. F. Izmaylov, J. L. Sonnenberg, D. Williams-Young, 
 F. Ding, F. Lipparini, F. Egidi, J. Goings, B. Peng, A. Petrone, 
 T. Henderson, D. Ranasinghe, V. G. Zakrzewski, J. Gao, N. Rega, 
 G. Zheng, W. Liang, M. Hada, M. Ehara, K. Toyota, R. Fukuda, 
 J. Hasegawa, M. Ishida, T. Nakajima, Y. Honda, O. Kitao, H. Nakai, 
 T. Vreven, K. Throssell, J. A. Montgomery, Jr., J. E. Peralta, 
 F. Ogliaro, M. J. Bearpark, J. J. Heyd, E. N. Brothers, K. N. Kudin, 
 V. N. Staroverov, T. A. Keith, R. Kobayashi, J. Normand, 
 K. Raghavachari, A. P. Rendell, J. C. Burant, S. S. Iyengar, 
 J. Tomasi, M. Cossi, J. M. Millam, M. Klene, C. Adamo, R. Cammi, 
 J. W. Ochterski, R. L. Martin, K. Morokuma, O. Farkas, 
 J. B. Foresman, and D. J. Fox, Gaussian, Inc., Wallingford CT, 2016.
 
 ******************************************
 Gaussian 16:  ES64L-G16RevB.01 20-Dec-2017
                 6-Mar-2023 
 ******************************************
 %chk=check.chk
 %mem=14336mb
 %NProcShared=8
 Will use up to    8 processors via shared memory.
 ----------------------------------------------------------------------
 #P opt=(ts, modredundant, calcfc, noeigentest, maxStep=5) scf=(tight, 
 direct) integral=(grid=ultrafine, Acc2E=12) guess=read ub3lyp/cbsb7 IO
 p(2/9=2000) scf=xqc
 ----------------------------------------------------------------------
 1/5=1,8=5,10=4,11=1,18=120,26=4,38=1/1,3;
 2/9=2000,12=2,17=6,18=5,40=1/2;
 3/5=4,6=6,7=700,11=2,25=1,27=12,30=1,71=2,74=-5,75=-5,116=2,140=1/1,2,3;
 4/5=1/1;
 5/5=2,8=3,13=1,32=2,38=6,87=12/2,8;
 8/6=4,10=90,11=11,87=12/1;
 11/6=1,8=1,9=11,15=111,16=1,87=12/1,2,10;
 10/6=1,13=1,87=12/2;
 6/7=2,8=2,9=2,10=2,28=1,87=12/1;
 7/10=1,18=20,25=1,87=12/1,2,3,16;
 1/5=1,8=5,10=4,11=1,18=20,26=4/3(2);
 2/9=2000/2;
 99//99;
 2/9=2000/2;
 3/5=4,6=6,7=700,11=2,25=1,27=12,30=1,71=1,74=-5,75=-5,116=2/1,2,3;
 4/5=5,16=3,69=1/1;
 5/5=2,8=3,13=1,32=2,38=5,87=12/2,8;
 7/87=12/1,2,3,16;
 1/5=1,8=5,11=1,18=20,26=4/3(-5);
 2/9=2000/2;
 6/7=2,8=2,9=2,10=2,19=2,28=1,87=12/1;
 99/9=1/99;
 Leave Link    1 at Mon Mar  6 02:36:09 2023, MaxMem=  1879048192 cpu:               1.1 elap:               0.2
 (Enter /home/gridsan/groups/GRPAPI/Software/g16/l101.exe)
 ---
 TS0
 ---
 Symbolic Z-matrix:
 Charge =  0 Multiplicity = 2
 C                     0.43084   4.02757   7.28092 
 C                     0.10225   2.70186   6.63178 
 H                     1.46811   4.32015   7.09243 
 H                     0.29894   3.98978   8.36974 
 H                    -0.21394   4.82819   6.9063 
 H                     0.77084   1.8823    6.8985 
 H                    -0.9431    2.39999   6.70884 
 C                    -0.31637  -3.66688  -6.97072 
 C                    -0.48982  -3.68382  -5.44929 
 C                    -0.15806  -2.34234  -4.78563 
 C                    -0.32881  -2.3497   -3.26243 
 C                     0.00315  -1.0079   -2.59958 
 C                    -0.16775  -1.01564  -1.07619 
 C                     0.16426   0.3263   -0.41346 
 C                    -0.00672   0.31829   1.10997 
 C                     0.32564   1.66108   1.77192 
 C                     0.15231   1.64784   3.30226 
 C                     0.47888   2.97056   3.96164 
 H                     0.71453  -3.42576  -7.24854 
 H                    -0.96621  -2.91809  -7.4345 
 H                    -0.56052  -4.63697  -7.41235 
 H                    -1.5216   -3.96236  -5.20267 
 H                     0.14651  -4.46622  -5.0181 
 H                     0.87455  -2.06351  -5.03319 
 H                    -0.79471  -1.55931  -5.21788 
 H                    -1.36142  -2.62893  -3.01594 
 H                     0.30784  -3.13314  -2.83125 
 H                     1.03573  -0.72867  -2.84605 
 H                    -0.63348  -0.22447  -3.03074 
 H                     0.4689   -1.79903  -0.645 
 H                    -1.20034  -1.29483  -0.8297 
 H                    -0.4724    1.10968  -0.84456 
 H                     1.19684   0.60547  -0.65986 
 H                     0.63017  -0.46469   1.54148 
 H                    -1.03935   0.0396    1.35675 
 H                     1.35828   1.94147   1.52962 
 H                    -0.31124   2.44577   1.34489 
 H                    -0.88103   1.36419   3.53784 
 H                     0.7893    0.85965   3.72267 
 H                    -0.18987   3.79127   3.69502 
 H                     1.52499   3.27327   3.88478 
 H                     0.28953   2.83296   5.29725 
 
 Add virtual bond connecting atoms H42        and C2         Dist= 2.56D+00.
 Add virtual bond connecting atoms H42        and C18        Dist= 2.56D+00.
 The following ModRedundant input section has been read:
 D       3       1       2       6 S  45 8.0000                                
 
 ITRead=  0  0  0  0  0  0  0  0  0  0  0  0  0  0  0  0  0  0  0  0
 ITRead=  0  0  0  0  0  0  0  0  0  0  0  0  0  0  0  0  0  0  0  0
 ITRead=  0  0
 MicOpt= -1 -1 -1 -1 -1 -1 -1 -1 -1 -1 -1 -1 -1 -1 -1 -1 -1 -1 -1 -1
 MicOpt= -1 -1 -1 -1 -1 -1 -1 -1 -1 -1 -1 -1 -1 -1 -1 -1 -1 -1 -1 -1
 MicOpt= -1 -1
 NAtoms=     42 NQM=       42 NQMF=       0 NMMI=      0 NMMIF=      0
                NMic=       0 NMicF=      0.
                    Isotopes and Nuclear Properties:
 (Nuclear quadrupole moments (NQMom) in fm**2, nuclear magnetic moments (NMagM)
  in nuclear magnetons)

  Atom         1           2           3           4           5           6           7           8           9          10
 IAtWgt=          12          12           1           1           1           1           1          12          12          12
 AtmWgt=  12.0000000  12.0000000   1.0078250   1.0078250   1.0078250   1.0078250   1.0078250  12.0000000  12.0000000  12.0000000
 NucSpn=           0           0           1           1           1           1           1           0           0           0
 AtZEff=  -0.0000000  -0.0000000  -0.0000000  -0.0000000  -0.0000000  -0.0000000  -0.0000000  -0.0000000  -0.0000000  -0.0000000
 NQMom=    0.0000000   0.0000000   0.0000000   0.0000000   0.0000000   0.0000000   0.0000000   0.0000000   0.0000000   0.0000000
 NMagM=    0.0000000   0.0000000   2.7928460   2.7928460   2.7928460   2.7928460   2.7928460   0.0000000   0.0000000   0.0000000
 AtZNuc=   6.0000000   6.0000000   1.0000000   1.0000000   1.0000000   1.0000000   1.0000000   6.0000000   6.0000000   6.0000000

  Atom        11          12          13          14          15          16          17          18          19          20
 IAtWgt=          12          12          12          12          12          12          12          12           1           1
 AtmWgt=  12.0000000  12.0000000  12.0000000  12.0000000  12.0000000  12.0000000  12.0000000  12.0000000   1.0078250   1.0078250
 NucSpn=           0           0           0           0           0           0           0           0           1           1
 AtZEff=  -0.0000000  -0.0000000  -0.0000000  -0.0000000  -0.0000000  -0.0000000  -0.0000000  -0.0000000  -0.0000000  -0.0000000
 NQMom=    0.0000000   0.0000000   0.0000000   0.0000000   0.0000000   0.0000000   0.0000000   0.0000000   0.0000000   0.0000000
 NMagM=    0.0000000   0.0000000   0.0000000   0.0000000   0.0000000   0.0000000   0.0000000   0.0000000   2.7928460   2.7928460
 AtZNuc=   6.0000000   6.0000000   6.0000000   6.0000000   6.0000000   6.0000000   6.0000000   6.0000000   1.0000000   1.0000000

  Atom        21          22          23          24          25          26          27          28          29          30
 IAtWgt=           1           1           1           1           1           1           1           1           1           1
 AtmWgt=   1.0078250   1.0078250   1.0078250   1.0078250   1.0078250   1.0078250   1.0078250   1.0078250   1.0078250   1.0078250
 NucSpn=           1           1           1           1           1           1           1           1           1           1
 AtZEff=  -0.0000000  -0.0000000  -0.0000000  -0.0000000  -0.0000000  -0.0000000  -0.0000000  -0.0000000  -0.0000000  -0.0000000
 NQMom=    0.0000000   0.0000000   0.0000000   0.0000000   0.0000000   0.0000000   0.0000000   0.0000000   0.0000000   0.0000000
 NMagM=    2.7928460   2.7928460   2.7928460   2.7928460   2.7928460   2.7928460   2.7928460   2.7928460   2.7928460   2.7928460
 AtZNuc=   1.0000000   1.0000000   1.0000000   1.0000000   1.0000000   1.0000000   1.0000000   1.0000000   1.0000000   1.0000000

  Atom        31          32          33          34          35          36          37          38          39          40
 IAtWgt=           1           1           1           1           1           1           1           1           1           1
 AtmWgt=   1.0078250   1.0078250   1.0078250   1.0078250   1.0078250   1.0078250   1.0078250   1.0078250   1.0078250   1.0078250
 NucSpn=           1           1           1           1           1           1           1           1           1           1
 AtZEff=  -0.0000000  -0.0000000  -0.0000000  -0.0000000  -0.0000000  -0.0000000  -0.0000000  -0.0000000  -0.0000000  -0.0000000
 NQMom=    0.0000000   0.0000000   0.0000000   0.0000000   0.0000000   0.0000000   0.0000000   0.0000000   0.0000000   0.0000000
 NMagM=    2.7928460   2.7928460   2.7928460   2.7928460   2.7928460   2.7928460   2.7928460   2.7928460   2.7928460   2.7928460
 AtZNuc=   1.0000000   1.0000000   1.0000000   1.0000000   1.0000000   1.0000000   1.0000000   1.0000000   1.0000000   1.0000000

  Atom        41          42
 IAtWgt=           1           1
 AtmWgt=   1.0078250   1.0078250
 NucSpn=           1           1
 AtZEff=  -0.0000000  -0.0000000
 NQMom=    0.0000000   0.0000000
 NMagM=    2.7928460   2.7928460
 AtZNuc=   1.0000000   1.0000000
 Leave Link  101 at Mon Mar  6 02:36:10 2023, MaxMem=  1879048192 cpu:               2.7 elap:               0.5
 (Enter /home/gridsan/groups/GRPAPI/Software/g16/l103.exe)

 GradGradGradGradGradGradGradGradGradGradGradGradGradGradGradGradGradGrad
 Berny optimization.
 Initialization pass.
                           ----------------------------
                           !    Initial Parameters    !
                           ! (Angstroms and Degrees)  !
 --------------------------                            --------------------------
 ! Name  Definition              Value          Derivative Info.                !
 --------------------------------------------------------------------------------
 ! R1    R(1,2)                  1.5122         calculate D2E/DX2 analytically  !
 ! R2    R(1,3)                  1.0941         calculate D2E/DX2 analytically  !
 ! R3    R(1,4)                  1.0974         calculate D2E/DX2 analytically  !
 ! R4    R(1,5)                  1.0941         calculate D2E/DX2 analytically  !
 ! R5    R(2,6)                  1.0908         calculate D2E/DX2 analytically  !
 ! R6    R(2,7)                  1.0908         calculate D2E/DX2 analytically  !
 ! R7    R(2,42)                 1.354          calculate D2E/DX2 analytically  !
 ! R8    R(8,9)                  1.5314         calculate D2E/DX2 analytically  !
 ! R9    R(8,19)                 1.0946         calculate D2E/DX2 analytically  !
 ! R10   R(8,20)                 1.0946         calculate D2E/DX2 analytically  !
 ! R11   R(8,21)                 1.0935         calculate D2E/DX2 analytically  !
 ! R12   R(9,10)                 1.533          calculate D2E/DX2 analytically  !
 ! R13   R(9,22)                 1.0968         calculate D2E/DX2 analytically  !
 ! R14   R(9,23)                 1.0968         calculate D2E/DX2 analytically  !
 ! R15   R(10,11)                1.5328         calculate D2E/DX2 analytically  !
 ! R16   R(10,24)                1.0979         calculate D2E/DX2 analytically  !
 ! R17   R(10,25)                1.0979         calculate D2E/DX2 analytically  !
 ! R18   R(11,12)                1.533          calculate D2E/DX2 analytically  !
 ! R19   R(11,26)                1.0977         calculate D2E/DX2 analytically  !
 ! R20   R(11,27)                1.0977         calculate D2E/DX2 analytically  !
 ! R21   R(12,13)                1.533          calculate D2E/DX2 analytically  !
 ! R22   R(12,28)                1.0977         calculate D2E/DX2 analytically  !
 ! R23   R(12,29)                1.0977         calculate D2E/DX2 analytically  !
 ! R24   R(13,14)                1.5331         calculate D2E/DX2 analytically  !
 ! R25   R(13,30)                1.0977         calculate D2E/DX2 analytically  !
 ! R26   R(13,31)                1.0977         calculate D2E/DX2 analytically  !
 ! R27   R(14,15)                1.533          calculate D2E/DX2 analytically  !
 ! R28   R(14,32)                1.0977         calculate D2E/DX2 analytically  !
 ! R29   R(14,33)                1.0977         calculate D2E/DX2 analytically  !
 ! R30   R(15,16)                1.5335         calculate D2E/DX2 analytically  !
 ! R31   R(15,34)                1.0977         calculate D2E/DX2 analytically  !
 ! R32   R(15,35)                1.0977         calculate D2E/DX2 analytically  !
 ! R33   R(16,17)                1.5402         calculate D2E/DX2 analytically  !
 ! R34   R(16,36)                1.0971         calculate D2E/DX2 analytically  !
 ! R35   R(16,37)                1.0971         calculate D2E/DX2 analytically  !
 ! R36   R(17,18)                1.5136         calculate D2E/DX2 analytically  !
 ! R37   R(17,38)                1.0972         calculate D2E/DX2 analytically  !
 ! R38   R(17,39)                1.0972         calculate D2E/DX2 analytically  !
 ! R39   R(18,40)                1.0917         calculate D2E/DX2 analytically  !
 ! R40   R(18,41)                1.0917         calculate D2E/DX2 analytically  !
 ! R41   R(18,42)                1.356          calculate D2E/DX2 analytically  !
 ! A1    A(2,1,3)              111.4983         calculate D2E/DX2 analytically  !
 ! A2    A(2,1,4)              111.6897         calculate D2E/DX2 analytically  !
 ! A3    A(2,1,5)              111.4984         calculate D2E/DX2 analytically  !
 ! A4    A(3,1,4)              107.1024         calculate D2E/DX2 analytically  !
 ! A5    A(3,1,5)              107.7005         calculate D2E/DX2 analytically  !
 ! A6    A(4,1,5)              107.1025         calculate D2E/DX2 analytically  !
 ! A7    A(1,2,6)              114.8675         calculate D2E/DX2 analytically  !
 ! A8    A(1,2,7)              114.8674         calculate D2E/DX2 analytically  !
 ! A9    A(1,2,42)             107.9481         calculate D2E/DX2 analytically  !
 ! A10   A(6,2,7)              111.2353         calculate D2E/DX2 analytically  !
 ! A11   A(6,2,42)             103.2373         calculate D2E/DX2 analytically  !
 ! A12   A(7,2,42)             103.2373         calculate D2E/DX2 analytically  !
 ! A13   A(9,8,19)             111.1791         calculate D2E/DX2 analytically  !
 ! A14   A(9,8,20)             111.179          calculate D2E/DX2 analytically  !
 ! A15   A(9,8,21)             111.4784         calculate D2E/DX2 analytically  !
 ! A16   A(19,8,20)            107.5125         calculate D2E/DX2 analytically  !
 ! A17   A(19,8,21)            107.6505         calculate D2E/DX2 analytically  !
 ! A18   A(20,8,21)            107.6505         calculate D2E/DX2 analytically  !
 ! A19   A(8,9,10)             113.323          calculate D2E/DX2 analytically  !
 ! A20   A(8,9,22)             109.4361         calculate D2E/DX2 analytically  !
 ! A21   A(8,9,23)             109.436          calculate D2E/DX2 analytically  !
 ! A22   A(10,9,22)            109.1762         calculate D2E/DX2 analytically  !
 ! A23   A(10,9,23)            109.1762         calculate D2E/DX2 analytically  !
 ! A24   A(22,9,23)            106.0342         calculate D2E/DX2 analytically  !
 ! A25   A(9,10,11)            113.6974         calculate D2E/DX2 analytically  !
 ! A26   A(9,10,24)            109.1584         calculate D2E/DX2 analytically  !
 ! A27   A(9,10,25)            109.1584         calculate D2E/DX2 analytically  !
 ! A28   A(11,10,24)           109.274          calculate D2E/DX2 analytically  !
 ! A29   A(11,10,25)           109.274          calculate D2E/DX2 analytically  !
 ! A30   A(24,10,25)           105.9921         calculate D2E/DX2 analytically  !
 ! A31   A(10,11,12)           113.6637         calculate D2E/DX2 analytically  !
 ! A32   A(10,11,26)           109.2177         calculate D2E/DX2 analytically  !
 ! A33   A(10,11,27)           109.2177         calculate D2E/DX2 analytically  !
 ! A34   A(12,11,26)           109.2239         calculate D2E/DX2 analytically  !
 ! A35   A(12,11,27)           109.2238         calculate D2E/DX2 analytically  !
 ! A36   A(26,11,27)           106.0112         calculate D2E/DX2 analytically  !
 ! A37   A(11,12,13)           113.6486         calculate D2E/DX2 analytically  !
 ! A38   A(11,12,28)           109.2245         calculate D2E/DX2 analytically  !
 ! A39   A(11,12,29)           109.2245         calculate D2E/DX2 analytically  !
 ! A40   A(13,12,28)           109.2252         calculate D2E/DX2 analytically  !
 ! A41   A(13,12,29)           109.2252         calculate D2E/DX2 analytically  !
 ! A42   A(28,12,29)           106.0109         calculate D2E/DX2 analytically  !
 ! A43   A(12,13,14)           113.6426         calculate D2E/DX2 analytically  !
 ! A44   A(12,13,30)           109.2268         calculate D2E/DX2 analytically  !
 ! A45   A(12,13,31)           109.2268         calculate D2E/DX2 analytically  !
 ! A46   A(14,13,30)           109.2248         calculate D2E/DX2 analytically  !
 ! A47   A(14,13,31)           109.2247         calculate D2E/DX2 analytically  !
 ! A48   A(30,13,31)           106.0139         calculate D2E/DX2 analytically  !
 ! A49   A(13,14,15)           113.6321         calculate D2E/DX2 analytically  !
 ! A50   A(13,14,32)           109.227          calculate D2E/DX2 analytically  !
 ! A51   A(13,14,33)           109.227          calculate D2E/DX2 analytically  !
 ! A52   A(15,14,32)           109.228          calculate D2E/DX2 analytically  !
 ! A53   A(15,14,33)           109.228          calculate D2E/DX2 analytically  !
 ! A54   A(32,14,33)           106.0185         calculate D2E/DX2 analytically  !
 ! A55   A(14,15,16)           113.5907         calculate D2E/DX2 analytically  !
 ! A56   A(14,15,34)           109.2486         calculate D2E/DX2 analytically  !
 ! A57   A(14,15,35)           109.2486         calculate D2E/DX2 analytically  !
 ! A58   A(16,15,34)           109.2172         calculate D2E/DX2 analytically  !
 ! A59   A(16,15,35)           109.2173         calculate D2E/DX2 analytically  !
 ! A60   A(34,15,35)           106.0428         calculate D2E/DX2 analytically  !
 ! A61   A(15,16,17)           113.3893         calculate D2E/DX2 analytically  !
 ! A62   A(15,16,36)           109.417          calculate D2E/DX2 analytically  !
 ! A63   A(15,16,37)           109.417          calculate D2E/DX2 analytically  !
 ! A64   A(17,16,36)           109.1207         calculate D2E/DX2 analytically  !
 ! A65   A(17,16,37)           109.1207         calculate D2E/DX2 analytically  !
 ! A66   A(36,16,37)           106.1183         calculate D2E/DX2 analytically  !
 ! A67   A(16,17,18)           113.6444         calculate D2E/DX2 analytically  !
 ! A68   A(16,17,38)           108.7576         calculate D2E/DX2 analytically  !
 ! A69   A(16,17,39)           108.7576         calculate D2E/DX2 analytically  !
 ! A70   A(18,17,38)           109.6092         calculate D2E/DX2 analytically  !
 ! A71   A(18,17,39)           109.6093         calculate D2E/DX2 analytically  !
 ! A72   A(38,17,39)           106.1888         calculate D2E/DX2 analytically  !
 ! A73   A(17,18,40)           114.7328         calculate D2E/DX2 analytically  !
 ! A74   A(17,18,41)           114.7328         calculate D2E/DX2 analytically  !
 ! A75   A(17,18,42)           108.0765         calculate D2E/DX2 analytically  !
 ! A76   A(40,18,41)           111.1813         calculate D2E/DX2 analytically  !
 ! A77   A(40,18,42)           103.373          calculate D2E/DX2 analytically  !
 ! A78   A(41,18,42)           103.3731         calculate D2E/DX2 analytically  !
 ! A79   L(2,42,18,38,-1)      180.255          calculate D2E/DX2 analytically  !
 ! A80   L(2,42,18,38,-2)      179.8623         calculate D2E/DX2 analytically  !
 ! D1    D(3,1,2,6)             54.3361         Scan                            !
 ! D2    D(3,1,2,7)           -174.7565         calculate D2E/DX2 analytically  !
 ! D3    D(3,1,2,42)           -60.2103         calculate D2E/DX2 analytically  !
 ! D4    D(4,1,2,6)            -65.4533         calculate D2E/DX2 analytically  !
 ! D5    D(4,1,2,7)             65.454          calculate D2E/DX2 analytically  !
 ! D6    D(4,1,2,42)          -179.9997         calculate D2E/DX2 analytically  !
 ! D7    D(5,1,2,6)            174.7572         calculate D2E/DX2 analytically  !
 ! D8    D(5,1,2,7)            -54.3355         calculate D2E/DX2 analytically  !
 ! D9    D(5,1,2,42)            60.2108         calculate D2E/DX2 analytically  !
 ! D10   D(1,2,18,17)         -179.9989         calculate D2E/DX2 analytically  !
 ! D11   D(1,2,18,40)          -57.9673         calculate D2E/DX2 analytically  !
 ! D12   D(1,2,18,41)           57.9694         calculate D2E/DX2 analytically  !
 ! D13   D(6,2,18,17)           58.0037         calculate D2E/DX2 analytically  !
 ! D14   D(6,2,18,40)         -179.9647         calculate D2E/DX2 analytically  !
 ! D15   D(6,2,18,41)          -64.028          calculate D2E/DX2 analytically  !
 ! D16   D(7,2,18,17)          -58.0017         calculate D2E/DX2 analytically  !
 ! D17   D(7,2,18,40)           64.0299         calculate D2E/DX2 analytically  !
 ! D18   D(7,2,18,41)          179.9666         calculate D2E/DX2 analytically  !
 ! D19   D(19,8,9,10)           59.8746         calculate D2E/DX2 analytically  !
 ! D20   D(19,8,9,22)         -178.0216         calculate D2E/DX2 analytically  !
 ! D21   D(19,8,9,23)          -62.229          calculate D2E/DX2 analytically  !
 ! D22   D(20,8,9,10)          -59.8747         calculate D2E/DX2 analytically  !
 ! D23   D(20,8,9,22)           62.229          calculate D2E/DX2 analytically  !
 ! D24   D(20,8,9,23)          178.0216         calculate D2E/DX2 analytically  !
 ! D25   D(21,8,9,10)          180.0            calculate D2E/DX2 analytically  !
 ! D26   D(21,8,9,22)          -57.8963         calculate D2E/DX2 analytically  !
 ! D27   D(21,8,9,23)           57.8964         calculate D2E/DX2 analytically  !
 ! D28   D(8,9,10,11)          180.0            calculate D2E/DX2 analytically  !
 ! D29   D(8,9,10,24)          -57.7167         calculate D2E/DX2 analytically  !
 ! D30   D(8,9,10,25)           57.7167         calculate D2E/DX2 analytically  !
 ! D31   D(22,9,10,11)          57.7515         calculate D2E/DX2 analytically  !
 ! D32   D(22,9,10,24)        -179.9652         calculate D2E/DX2 analytically  !
 ! D33   D(22,9,10,25)         -64.5317         calculate D2E/DX2 analytically  !
 ! D34   D(23,9,10,11)         -57.7517         calculate D2E/DX2 analytically  !
 ! D35   D(23,9,10,24)          64.5316         calculate D2E/DX2 analytically  !
 ! D36   D(23,9,10,25)         179.965          calculate D2E/DX2 analytically  !
 ! D37   D(9,10,11,12)         179.9999         calculate D2E/DX2 analytically  !
 ! D38   D(9,10,11,26)         -57.7608         calculate D2E/DX2 analytically  !
 ! D39   D(9,10,11,27)          57.7608         calculate D2E/DX2 analytically  !
 ! D40   D(24,10,11,12)         57.7805         calculate D2E/DX2 analytically  !
 ! D41   D(24,10,11,26)       -179.9802         calculate D2E/DX2 analytically  !
 ! D42   D(24,10,11,27)        -64.4587         calculate D2E/DX2 analytically  !
 ! D43   D(25,10,11,12)        -57.7806         calculate D2E/DX2 analytically  !
 ! D44   D(25,10,11,26)         64.4586         calculate D2E/DX2 analytically  !
 ! D45   D(25,10,11,27)        179.9802         calculate D2E/DX2 analytically  !
 ! D46   D(10,11,12,13)        179.9999         calculate D2E/DX2 analytically  !
 ! D47   D(10,11,12,28)        -57.7644         calculate D2E/DX2 analytically  !
 ! D48   D(10,11,12,29)         57.7643         calculate D2E/DX2 analytically  !
 ! D49   D(26,11,12,13)         57.7641         calculate D2E/DX2 analytically  !
 ! D50   D(26,11,12,28)        179.9997         calculate D2E/DX2 analytically  !
 ! D51   D(26,11,12,29)        -64.4715         calculate D2E/DX2 analytically  !
 ! D52   D(27,11,12,13)        -57.7643         calculate D2E/DX2 analytically  !
 ! D53   D(27,11,12,28)         64.4713         calculate D2E/DX2 analytically  !
 ! D54   D(27,11,12,29)       -179.9999         calculate D2E/DX2 analytically  !
 ! D55   D(11,12,13,14)        180.0            calculate D2E/DX2 analytically  !
 ! D56   D(11,12,13,30)         57.7674         calculate D2E/DX2 analytically  !
 ! D57   D(11,12,13,31)        -57.7675         calculate D2E/DX2 analytically  !
 ! D58   D(28,12,13,14)         57.7647         calculate D2E/DX2 analytically  !
 ! D59   D(28,12,13,30)        -64.4679         calculate D2E/DX2 analytically  !
 ! D60   D(28,12,13,31)        179.9973         calculate D2E/DX2 analytically  !
 ! D61   D(29,12,13,14)        -57.7648         calculate D2E/DX2 analytically  !
 ! D62   D(29,12,13,30)       -179.9974         calculate D2E/DX2 analytically  !
 ! D63   D(29,12,13,31)         64.4677         calculate D2E/DX2 analytically  !
 ! D64   D(12,13,14,15)        179.9999         calculate D2E/DX2 analytically  !
 ! D65   D(12,13,14,32)         57.7702         calculate D2E/DX2 analytically  !
 ! D66   D(12,13,14,33)        -57.7705         calculate D2E/DX2 analytically  !
 ! D67   D(30,13,14,15)        -57.7664         calculate D2E/DX2 analytically  !
 ! D68   D(30,13,14,32)       -179.9961         calculate D2E/DX2 analytically  !
 ! D69   D(30,13,14,33)         64.4633         calculate D2E/DX2 analytically  !
 ! D70   D(31,13,14,15)         57.7662         calculate D2E/DX2 analytically  !
 ! D71   D(31,13,14,32)        -64.4635         calculate D2E/DX2 analytically  !
 ! D72   D(31,13,14,33)        179.9959         calculate D2E/DX2 analytically  !
 ! D73   D(13,14,15,16)        179.9999         calculate D2E/DX2 analytically  !
 ! D74   D(13,14,15,34)         57.7967         calculate D2E/DX2 analytically  !
 ! D75   D(13,14,15,35)        -57.7968         calculate D2E/DX2 analytically  !
 ! D76   D(32,14,15,16)        -57.7709         calculate D2E/DX2 analytically  !
 ! D77   D(32,14,15,34)       -179.9741         calculate D2E/DX2 analytically  !
 ! D78   D(32,14,15,35)         64.4323         calculate D2E/DX2 analytically  !
 ! D79   D(33,14,15,16)         57.7708         calculate D2E/DX2 analytically  !
 ! D80   D(33,14,15,34)        -64.4324         calculate D2E/DX2 analytically  !
 ! D81   D(33,14,15,35)        179.9741         calculate D2E/DX2 analytically  !
 ! D82   D(14,15,16,17)        179.9999         calculate D2E/DX2 analytically  !
 ! D83   D(14,15,16,36)        -57.9362         calculate D2E/DX2 analytically  !
 ! D84   D(14,15,16,37)         57.936          calculate D2E/DX2 analytically  !
 ! D85   D(34,15,16,17)        -57.7795         calculate D2E/DX2 analytically  !
 ! D86   D(34,15,16,36)         64.2844         calculate D2E/DX2 analytically  !
 ! D87   D(34,15,16,37)       -179.8435         calculate D2E/DX2 analytically  !
 ! D88   D(35,15,16,17)         57.7793         calculate D2E/DX2 analytically  !
 ! D89   D(35,15,16,36)        179.8432         calculate D2E/DX2 analytically  !
 ! D90   D(35,15,16,37)        -64.2847         calculate D2E/DX2 analytically  !
 ! D91   D(15,16,17,18)        180.0            calculate D2E/DX2 analytically  !
 ! D92   D(15,16,17,38)        -57.6161         calculate D2E/DX2 analytically  !
 ! D93   D(15,16,17,39)         57.616          calculate D2E/DX2 analytically  !
 ! D94   D(36,16,17,18)         57.7713         calculate D2E/DX2 analytically  !
 ! D95   D(36,16,17,38)       -179.8448         calculate D2E/DX2 analytically  !
 ! D96   D(36,16,17,39)        -64.6127         calculate D2E/DX2 analytically  !
 ! D97   D(37,16,17,18)        -57.7713         calculate D2E/DX2 analytically  !
 ! D98   D(37,16,17,38)         64.6126         calculate D2E/DX2 analytically  !
 ! D99   D(37,16,17,39)        179.8447         calculate D2E/DX2 analytically  !
 ! D100  D(16,17,18,40)         65.2773         calculate D2E/DX2 analytically  !
 ! D101  D(16,17,18,41)        -65.2778         calculate D2E/DX2 analytically  !
 ! D102  D(16,17,18,42)        179.9997         calculate D2E/DX2 analytically  !
 ! D103  D(38,17,18,40)        -56.6351         calculate D2E/DX2 analytically  !
 ! D104  D(38,17,18,41)        172.8098         calculate D2E/DX2 analytically  !
 ! D105  D(38,17,18,42)         58.0873         calculate D2E/DX2 analytically  !
 ! D106  D(39,17,18,40)       -172.8102         calculate D2E/DX2 analytically  !
 ! D107  D(39,17,18,41)         56.6347         calculate D2E/DX2 analytically  !
 ! D108  D(39,17,18,42)        -58.0877         calculate D2E/DX2 analytically  !
 --------------------------------------------------------------------------------
 Trust Radius=5.00D-02 FncErr=1.00D-07 GrdErr=1.00D-06 EigMax=2.50D+02 EigMin=1.00D-04
 Number of optimizations in scan=  46
 Number of steps in this run=    239 maximum allowed number of steps=    252.
 Search for a saddle point of order  1.
 GradGradGradGradGradGradGradGradGradGradGradGradGradGradGradGradGradGrad

 Leave Link  103 at Mon Mar  6 02:36:11 2023, MaxMem=  1879048192 cpu:               0.1 elap:               0.0
 (Enter /home/gridsan/groups/GRPAPI/Software/g16/l202.exe)
                          Input orientation:                          
 ---------------------------------------------------------------------
 Center     Atomic      Atomic             Coordinates (Angstroms)
 Number     Number       Type             X           Y           Z
 ---------------------------------------------------------------------
      1          6           0        0.430840    4.027574    7.280915
      2          6           0        0.102253    2.701858    6.631779
      3          1           0        1.468113    4.320148    7.092425
      4          1           0        0.298941    3.989778    8.369744
      5          1           0       -0.213936    4.828192    6.906299
      6          1           0        0.770841    1.882304    6.898504
      7          1           0       -0.943097    2.399985    6.708841
      8          6           0       -0.316368   -3.666879   -6.970716
      9          6           0       -0.489821   -3.683818   -5.449291
     10          6           0       -0.158055   -2.342343   -4.785630
     11          6           0       -0.328812   -2.349703   -3.262426
     12          6           0        0.003146   -1.007896   -2.599582
     13          6           0       -0.167750   -1.015644   -1.076194
     14          6           0        0.164263    0.326303   -0.413456
     15          6           0       -0.006722    0.318288    1.109974
     16          6           0        0.325635    1.661080    1.771923
     17          6           0        0.152306    1.647844    3.302259
     18          6           0        0.478882    2.970555    3.961636
     19          1           0        0.714530   -3.425756   -7.248537
     20          1           0       -0.966207   -2.918086   -7.434500
     21          1           0       -0.560522   -4.636971   -7.412354
     22          1           0       -1.521604   -3.962362   -5.202668
     23          1           0        0.146507   -4.466218   -5.018103
     24          1           0        0.874552   -2.063512   -5.033187
     25          1           0       -0.794706   -1.559308   -5.217881
     26          1           0       -1.361423   -2.628934   -3.015940
     27          1           0        0.307838   -3.133140   -2.831246
     28          1           0        1.035728   -0.728665   -2.846050
     29          1           0       -0.633481   -0.224473   -3.030740
     30          1           0        0.468903   -1.799029   -0.645003
     31          1           0       -1.200340   -1.294825   -0.829697
     32          1           0       -0.472398    1.109677   -0.844557
     33          1           0        1.196836    0.605474   -0.659860
     34          1           0        0.630169   -0.464690    1.541482
     35          1           0       -1.039348    0.039599    1.356754
     36          1           0        1.358283    1.941474    1.529622
     37          1           0       -0.311235    2.445765    1.344890
     38          1           0       -0.881034    1.364186    3.537843
     39          1           0        0.789297    0.859648    3.722665
     40          1           0       -0.189874    3.791267    3.695020
     41          1           0        1.524988    3.273275    3.884776
     42          1           0        0.289528    2.832957    5.297251
 ---------------------------------------------------------------------
                    Distance matrix (angstroms):
                    1          2          3          4          5
     1  C    0.000000
     2  C    1.512240   0.000000
     3  H    1.094104   2.167171   0.000000
     4  H    1.097440   2.172083   1.762853   0.000000
     5  H    1.094103   2.167172   1.766930   1.762853   0.000000
     6  H    2.205453   1.090789   2.543005   2.613175   3.106140
     7  H    2.205452   1.090790   3.106138   2.613178   2.543001
     8  C   16.213325  15.025443  16.271107  17.156128  16.271087
     9  C   14.912120  13.677707  15.006386  15.826306  15.006366
    10  C   13.657384  12.484749  13.715735  14.607138  13.715717
    11  C   12.345395  11.117526  12.447441  13.262371  12.447423
    12  C   11.097887   9.949378  11.156576  12.057792  11.156560
    13  C    9.779245   8.561867   9.893081  10.700364   9.893066
    14  C    8.542471   7.435216   8.601690   9.517552   8.601677
    15  C    7.213236   6.015282   7.347091   8.141101   7.347078
    16  C    5.996695   4.975070   6.056702   6.996770   6.056695
    17  C    4.644394   3.492729   4.820572   5.584403   4.820565
    18  C    3.483850   2.709928   3.549904   4.527981   3.549909
    19  H   16.332103  15.185049  16.316559  17.294322  16.411858
    20  H   16.332096  15.185045  16.411871  17.294314  16.316533
    21  H   17.086524  15.859866  17.167817  18.006501  17.167797
    22  H   14.949614  13.678555  15.123085  15.835444  15.020350
    23  H   14.949622  13.678561  15.020378  15.835452  15.123073
    24  H   13.745374  12.624446  13.716191  14.717751  13.828656
    25  H   13.745367  12.624441  13.828665  14.717743  13.716165
    26  H   12.391389  11.119270  12.588688  13.273958  12.465002
    27  H   12.391398  11.119276  12.465031  13.273968  12.588679
    28  H   11.204603  10.122703  11.155750  12.190184  11.293743
    29  H   11.204593  10.122697  11.293748  12.190175  11.155724
    30  H    9.837222   8.564110   9.915167  10.714702  10.070178
    31  H    9.837210   8.564102  10.070183  10.714690   9.915138
    32  H    8.680625   7.665564   8.778860   9.684694   8.600577
    33  H    8.680635   7.665568   8.600600   9.684703   8.778860
    34  H    7.291177   6.018043   7.376299   8.159483   7.583428
    35  H    7.291165   6.018037   7.583428   8.159471   7.376271
    36  H    6.187838   5.309219   6.051027   7.218381   6.301878
    37  H    6.187826   5.309214   6.301869   7.218370   6.051008
    38  H    4.777576   3.511219   5.185678   5.624353   4.877587
    39  H    4.777592   3.511226   4.877616   5.624367   5.185686
    40  H    3.646885   3.145903   3.817197   4.704401   3.374627
    41  H    3.646901   3.145905   3.374639   4.704413   3.817227
    42  H    2.319914   1.353966   2.612173   3.283068   2.612178
                    6          7          8          9         10
     6  H    0.000000
     7  H    1.800430   0.000000
     8  C   14.977674  14.977647   0.000000
     9  C   13.602905  13.602878   1.531374   0.000000
    10  C   12.459112  12.459086   2.560090   1.532994   0.000000
    11  C   11.061809  11.061783   3.935292   2.566742   1.532763
    12  C    9.957723   9.957699   5.126314   3.940104   2.566231
    13  C    8.536678   8.536654   6.465023   5.132919   3.939561
    14  C    7.500256   7.500235   7.692475   6.470590   5.132394
    15  C    6.046307   6.046286   9.015264   7.698974   6.469931
    16  C    5.150629   5.150614  10.258316   9.021022   7.698237
    17  C    3.656574   3.656559  11.575835  10.267842   9.023961
    18  C    3.145588   3.145586  12.814222  11.566530  10.254133
    19  H   15.110177  15.214972   1.094566   2.180446   2.828621
    20  H   15.214995  15.110146   1.094567   2.180446   2.828622
    21  H   15.782083  15.782055   1.093496   2.183373   3.510979
    22  H   13.632820  13.516589   2.160069   1.096807   2.158159
    23  H   13.516621  13.632799   2.160068   1.096807   2.158158
    24  H   12.567636  12.692591   2.782642   2.158714   1.097865
    25  H   12.692613  12.567606   2.782641   2.158714   1.097866
    26  H   11.099280  10.956112   4.220157   2.791714   2.159174
    27  H   10.956144  11.099260   4.220157   2.791714   2.159174
    28  H   10.091762  10.246958   5.241578   4.223398   2.791244
    29  H   10.246976  10.091733   5.241577   4.223399   2.791244
    30  H    8.399278   8.585132   6.642301   5.249073   4.222921
    31  H    8.585150   8.399247   6.642301   5.249074   4.222921
    32  H    7.880202   7.677257   7.769791   6.646915   5.248553
    33  H    7.677280   7.880186   7.769793   6.646916   5.248555
    34  H    5.850287   6.114174   9.143712   7.777408   6.646745
    35  H    6.114192   5.850258   9.143710   7.777407   6.646744
    36  H    5.401248   5.686026  10.320554   9.152302   7.780281
    37  H    5.686036   5.401233  10.320550   9.152299   7.780277
    38  H    3.780368   3.336459  11.664488  10.315230   9.140091
    39  H    3.336483   3.780354  11.664491  10.315232   9.140093
    40  H    3.850899   3.403840  13.015294  11.814622  10.466308
    41  H    3.403835   3.850899  13.015300  11.814627  10.466315
    42  H    1.923386   1.923386  13.896690  12.592216  11.342334
                   11         12         13         14         15
    11  C    0.000000
    12  C    1.532972   0.000000
    13  C    2.566177   1.532963   0.000000
    14  C    3.939640   2.566163   1.533061   0.000000
    15  C    5.132231   3.939501   2.566054   1.533016   0.000000
    16  C    6.469880   5.132006   3.939550   2.565843   1.533534
    17  C    7.701100   6.473556   5.134925   3.943748   2.568876
    18  C    9.008029   7.687911   6.456597   5.121766   3.924577
    19  H    4.258584   5.288185   6.684675   7.816590   9.187098
    20  H    4.258583   5.288185   6.684675   7.816590   9.187098
    21  H    4.744174   6.053981   7.308570   8.610690   9.873771
    22  H    2.790692   4.222533   5.248224   6.646153   7.776135
    23  H    2.790693   4.222533   5.248225   6.646153   7.776137
    24  H    2.159996   2.792151   4.224005   5.249537   6.647409
    25  H    2.159997   2.792152   4.224005   5.249538   6.647408
    26  H    1.097730   2.159437   2.791088   4.223040   5.248285
    27  H    1.097731   2.159437   2.791090   4.223040   5.248287
    28  H    2.159422   1.097699   2.159423   2.791043   4.222906
    29  H    2.159422   1.097699   2.159423   2.791044   4.222905
    30  H    2.791146   2.159444   1.097700   2.159504   2.790913
    31  H    2.791147   2.159444   1.097700   2.159503   2.790910
    32  H    4.223034   2.791123   2.159504   1.097661   2.159477
    33  H    4.223035   2.791125   2.159503   1.097660   2.159477
    34  H    5.248852   4.223345   2.791496   2.159750   1.097672
    35  H    5.248852   4.223344   2.791497   2.159750   1.097672
    36  H    6.650129   5.252191   4.226535   2.794640   2.161961
    37  H    6.650127   5.252187   4.226534   2.794637   2.161960
    38  H    7.767984   6.639016   5.240391   4.216943   2.784398
    39  H    7.767985   6.639018   5.240392   4.216945   2.784398
    40  H    9.280995   7.917780   6.772840   5.386183   4.333312
    41  H    9.281000   7.917785   6.772844   5.386187   4.333314
    42  H   10.025486   8.786019   7.459332   6.237883   4.893323
                   16         17         18         19         20
    16  C    0.000000
    17  C    1.540177   0.000000
    18  C    2.555984   1.513603   0.000000
    19  H   10.363196  11.720785  12.908768   0.000000
    20  H   10.363196  11.720784  12.908768   1.765556   0.000000
    21  H   11.171467  12.442265  13.723063   1.766249   1.766249
    22  H    9.147694  10.325220  11.664122   3.077957   2.525877
    23  H    9.147695  10.325222  11.664124   2.525876   3.077957
    24  H    7.777109   9.152894  10.315291   2.605588   3.144041
    25  H    7.777109   9.152893  10.315290   3.144040   2.605588
    26  H    6.646354   7.778293   9.133869   4.781149   4.445613
    27  H    6.646354   7.778296   9.133871   4.445614   4.781149
    28  H    5.247932   6.650559   7.767811   5.172945   5.463990
    29  H    5.247932   6.650557   7.767810   5.463987   5.172945
    30  H    4.223081   5.249957   6.630999   6.805383   7.029161
    31  H    4.223080   5.249954   6.630997   7.029161   6.805381
    32  H    2.790496   4.227997   5.240925   7.936618   7.739126
    33  H    2.790495   4.227998   5.240925   7.739128   7.936623
    34  H    2.159801   2.791324   4.204871   9.275746   9.441177
    35  H    2.159802   2.791322   4.204870   9.441176   9.275742
    36  H    1.097129   2.163987   2.783352  10.309105  10.458205
    37  H    1.097129   2.163987   2.783352  10.458200  10.309102
    38  H    2.159322   1.097157   2.146950  11.909465  11.778685
    39  H    2.159322   1.097156   2.146950  11.778691  11.909467
    40  H    2.915776   2.205813   1.091736  13.140198  13.018615
    41  H    2.915779   2.205812   1.091735  13.018622  13.140206
    42  H    3.715177   2.324503   1.355970  14.026721  14.026719
                   21         22         23         24         25
    21  H    0.000000
    22  H    2.502297   0.000000
    23  H    2.502296   1.752293   0.000000
    24  H    3.787158   3.062012   2.510632   0.000000
    25  H    3.787158   2.510634   3.062012   1.753498   0.000000
    26  H    4.899195   2.566217   3.107752   3.064078   2.512730
    27  H    4.899195   3.107750   2.566217   2.512730   3.064079
    28  H    6.218843   4.748725   4.413370   2.567365   3.109025
    29  H    6.218843   4.413371   4.748725   3.109023   2.567365
    30  H    7.410173   5.423508   5.132430   4.414823   4.750304
    31  H    7.410174   5.132430   5.423511   4.750304   4.414822
    32  H    8.727410   6.769014   6.992291   5.424760   5.133549
    33  H    8.727412   6.992292   6.769013   5.133551   5.424765
    34  H    9.949716   7.896037   7.698981   6.770689   6.994101
    35  H    9.949715   7.698979   7.896040   6.994100   6.770685
    36  H   11.265731   9.405996   9.241192   7.703530   7.900610
    37  H   11.265727   9.241190   9.405994   7.900604   7.703526
    38  H   12.490934  10.255680  10.404502   9.396475   9.231304
    39  H   12.490936  10.404500  10.255684   9.231310   9.396477
    40  H   13.947987  11.876915  12.009068  10.563761  10.413178
    41  H   13.947992  12.009072  11.876919  10.413185  10.563768
    42  H   14.766735  12.637439  12.637442  11.447079  11.447076
                   26         27         28         29         30
    26  H    0.000000
    27  H    1.753502   0.000000
    28  H    3.063693   2.512278   0.000000
    29  H    2.512280   3.063694   1.753448   0.000000
    30  H    3.108083   2.566214   2.512285   3.063694   0.000000
    31  H    2.566214   3.108086   3.063693   2.512284   1.753484
    32  H    4.413896   4.749442   3.108041   2.566184   3.063730
    33  H    4.749442   4.413895   2.566186   3.108045   2.512318
    34  H    5.424065   5.132765   4.414136   4.749708   2.566551
    35  H    5.132763   5.424069   4.749709   4.414132   3.108441
    36  H    6.996254   6.772910   5.136165   5.427278   4.417166
    37  H    6.772909   6.996252   5.427273   5.136161   4.752533
    38  H    7.689464   7.886993   6.986279   6.762500   5.415206
    39  H    7.886989   7.689467   6.762506   6.986279   5.123255
    40  H    9.361009   9.528236   8.044718   7.845942   7.107826
    41  H    9.528238   9.361013   7.845949   8.044724   6.882040
    42  H   10.083007  10.083011   8.919379   8.919375   7.536435
                   31         32         33         34         35
    31  H    0.000000
    32  H    2.512320   0.000000
    33  H    3.063729   1.753475   0.000000
    34  H    3.108436   3.063897   2.512423   0.000000
    35  H    2.566549   2.512423   3.063897   1.753773   0.000000
    36  H    4.752533   3.111271   2.569979   2.513944   3.065232
    37  H    4.417165   2.569977   3.111265   3.065231   2.513946
    38  H    5.123251   4.408763   4.744881   3.100642   2.556706
    39  H    5.415202   4.744882   4.408766   2.556707   3.100638
    40  H    6.882037   5.280010   5.571106   4.839769   4.501567
    41  H    7.107827   5.571113   5.280015   4.501568   4.839770
    42  H    7.536430   6.424331   6.424333   5.009622   5.009618
                   36         37         38         39         40
    36  H    0.000000
    37  H    1.753775   0.000000
    38  H    3.062802   2.510683   0.000000
    39  H    2.510683   3.062801   1.754629   0.000000
    40  H    3.241523   2.710759   2.528464   3.090943   0.000000
    41  H    2.710763   3.241529   3.090942   2.528461   1.801409
    42  H    4.016467   4.016465   2.573523   2.573526   1.927519
                   41         42
    41  H    0.000000
    42  H    1.927518   0.000000
 Stoichiometry    C13H29(2)
 Framework group  C1[X(C13H29)]
 Deg. of freedom   120
 Full point group                 C1      NOp   1
 Largest Abelian subgroup         C1      NOp   1
 Largest concise Abelian subgroup C1      NOp   1
                         Standard orientation:                         
 ---------------------------------------------------------------------
 Center     Atomic      Atomic             Coordinates (Angstroms)
 Number     Number       Type             X           Y           Z
 ---------------------------------------------------------------------
      1          6           0        8.318070   -0.006196   -0.000030
      2          6           0        7.093355    0.880902   -0.000001
      3          1           0        8.346128   -0.651009    0.883425
      4          1           0        9.244738    0.581734   -0.000032
      5          1           0        8.346106   -0.650982   -0.883504
      6          1           0        6.963057    1.482934    0.900222
      7          1           0        6.963030    1.482952   -0.900208
      8          6           0       -7.894276   -0.184387   -0.000013
      9          6           0       -6.581552    0.604197   -0.000003
     10          6           0       -5.336365   -0.289995   -0.000007
     11          6           0       -4.017321    0.490700    0.000003
     12          6           0       -2.772677   -0.404213   -0.000001
     13          6           0       -1.453667    0.376932    0.000008
     14          6           0       -0.209046   -0.518163    0.000006
     15          6           0        1.109868    0.263249    0.000011
     16          6           0        2.354226   -0.633022    0.000010
     17          6           0        3.676533    0.156692    0.000012
     18          6           0        4.908644   -0.722453    0.000011
     19          1           0       -7.969481   -0.827142    0.882758
     20          1           0       -7.969476   -0.827126   -0.882798
     21          1           0       -8.761486    0.481706   -0.000009
     22          1           0       -6.551753    1.263346   -0.876142
     23          1           0       -6.551758    1.263328    0.876150
     24          1           0       -5.366801   -0.950073    0.876736
     25          1           0       -5.366796   -0.950059   -0.876762
     26          1           0       -3.988014    1.150601   -0.876742
     27          1           0       -3.988020    1.150587    0.876759
     28          1           0       -2.801969   -1.064097    0.876718
     29          1           0       -2.801965   -1.064085   -0.876729
     30          1           0       -1.424331    1.036781    0.876754
     31          1           0       -1.424326    1.036791   -0.876730
     32          1           0       -0.238309   -1.177958   -0.876735
     33          1           0       -0.238311   -1.177965    0.876740
     34          1           0        1.139690    0.922841    0.876899
     35          1           0        1.139693    0.922847   -0.876873
     36          1           0        2.329141   -1.291910    0.876896
     37          1           0        2.329141   -1.291907   -0.876879
     38          1           0        3.694135    0.815299   -0.877302
     39          1           0        3.694134    0.815297    0.877327
     40          1           0        5.039590   -1.325340   -0.900693
     41          1           0        5.039593   -1.325336    0.900716
     42          1           0        5.999852    0.082483    0.000007
 ---------------------------------------------------------------------
 Rotational constants (GHZ):           5.6402455           0.1061065           0.1050285
 Leave Link  202 at Mon Mar  6 02:36:11 2023, MaxMem=  1879048192 cpu:               0.1 elap:               0.0
 (Enter /home/gridsan/groups/GRPAPI/Software/g16/l301.exe)
 Standard basis: 6-311G(2d,d,p) (5D, 7F)
 Ernie: Thresh=  0.10000D-02 Tol=  0.10000D-05 Strict=F.
 There are   421 symmetry adapted cartesian basis functions of A   symmetry.
 There are   408 symmetry adapted basis functions of A   symmetry.
   408 basis functions,   648 primitive gaussians,   421 cartesian basis functions
    54 alpha electrons       53 beta electrons
       nuclear repulsion energy       740.9215650470 Hartrees.
 IExCor=  402 DFT=T Ex+Corr=B3LYP ExCW=0 ScaHFX=  0.200000
 ScaDFX=  0.800000  0.720000  1.000000  0.810000 ScalE2=  1.000000  1.000000
 IRadAn=      5 IRanWt=     -1 IRanGd=            0 ICorTp=0 IEmpDi=  4
 NAtoms=   42 NActive=   42 NUniq=   42 SFac= 1.00D+00 NAtFMM=   60 NAOKFM=F Big=F
 Integral buffers will be    131072 words long.
 Raffenetti 2 integral format.
 Two-electron integral symmetry is turned on.
 Leave Link  301 at Mon Mar  6 02:36:11 2023, MaxMem=  1879048192 cpu:               0.4 elap:               0.1
 (Enter /home/gridsan/groups/GRPAPI/Software/g16/l302.exe)
 NPDir=0 NMtPBC=     1 NCelOv=     1 NCel=       1 NClECP=     1 NCelD=      1
         NCelK=      1 NCelE2=     1 NClLst=     1 CellRange=     0.0.
 One-electron integrals computed using PRISM.
 One-electron integral symmetry used in STVInt
 NBasis=   408 RedAO= T EigKep=  8.82D-04  NBF=   408
 NBsUse=   408 1.00D-06 EigRej= -1.00D+00 NBFU=   408
 Precomputing XC quadrature grid using
 IXCGrd= 4 IRadAn=           5 IRanWt=          -1 IRanGd=           0 AccXCQ= 1.00D-12.
 Generated NRdTot=       0 NPtTot=           0 NUsed=           0 NTot=          32
 NSgBfM=   392   392   392   392   392 MxSgAt=    42 MxSgA2=    42.
 Leave Link  302 at Mon Mar  6 02:36:11 2023, MaxMem=  1879048192 cpu:               4.2 elap:               0.5
 (Enter /home/gridsan/groups/GRPAPI/Software/g16/l303.exe)
 DipDrv:  MaxL=1.
 Leave Link  303 at Mon Mar  6 02:36:11 2023, MaxMem=  1879048192 cpu:               0.3 elap:               0.1
 (Enter /home/gridsan/groups/GRPAPI/Software/g16/l401.exe)
 Initial guess from the checkpoint file:  "check.chk"
 B after Tr=    -0.000000    0.000000   -0.000000
         Rot=    1.000000    0.000000    0.000000    0.000000 Ang=   0.00 deg.
 Guess basis will be translated and rotated to current coordinates.
 JPrj=2 DoOrth=T DoCkMO=T.
 Initial guess <Sx>= 0.0000 <Sy>= 0.0000 <Sz>= 0.5000 <S**2>= 0.7926 S= 0.5211
 Leave Link  401 at Mon Mar  6 02:36:12 2023, MaxMem=  1879048192 cpu:               4.5 elap:               0.6
 (Enter /home/gridsan/groups/GRPAPI/Software/g16/l502.exe)
 Integral symmetry usage will be decided dynamically.
 UHF open shell SCF:
 Using DIIS extrapolation, IDIIS=  1040.
 NGot=  1879048192 LenX=  1878685759 LenY=  1878508077
 Requested convergence on RMS density matrix=1.00D-08 within  32 cycles.
 Requested convergence on MAX density matrix=1.00D-06.
 Requested convergence on             energy=1.00D-06.
 No special actions if energy rises.
 Fock matrices will be formed incrementally for  20 cycles.

 Cycle   1  Pass 1  IDiag  1:
 FoFJK:  IHMeth= 1 ICntrl=       0 DoSepK=F KAlg= 0 I1Cent=           0 FoldK=F
 IRaf= 640000000 NMat=       1 IRICut=       1 DoRegI=T DoRafI=F ISym2E= 0 IDoP0=0 IntGTp=1.
 FoFCou: FMM=F IPFlag=           0 FMFlag=      100000 FMFlg1=           0
         NFxFlg=           0 DoJE=F BraDBF=F KetDBF=F FulRan=T
         wScrn=  0.000000 ICntrl=         0 IOpCl=  1 I1Cent=           0 NGrid=           0
         NMat0=    1 NMatS0=      1 NMatT0=    0 NMatD0=    1 NMtDS0=    0 NMtDT0=    0
 Symmetry not used in FoFCou.
 E= -512.838550293817    
 DIIS: error= 1.87D-02 at cycle   1 NSaved=   1.
 NSaved= 1 IEnMin= 1 EnMin= -512.838550293817     IErMin= 1 ErrMin= 1.87D-02
 ErrMax= 1.87D-02  0.00D+00 EMaxC= 1.00D-01 BMatC= 7.23D-01 BMatP= 7.23D-01
 IDIUse=3 WtCom= 8.13D-01 WtEn= 1.87D-01
 Coeff-Com:  0.100D+01
 Coeff-En:   0.100D+01
 Coeff:      0.100D+01
 Gap=     5.349 Goal=   None    Shift=    0.000
 Gap=     5.573 Goal=   None    Shift=    0.000
 GapD=    5.349 DampG=2.000 DampE=0.500 DampFc=1.0000 IDamp=-1.
 RMSDP=8.61D-04 MaxDP=4.72D-02              OVMax= 4.00D-02

 Cycle   2  Pass 1  IDiag  1:
 RMSU=  8.51D-04    CP:  9.83D-01
 E= -512.924517299545     Delta-E=       -0.085967005728 Rises=F Damp=F
 DIIS: error= 5.35D-03 at cycle   2 NSaved=   2.
 NSaved= 2 IEnMin= 2 EnMin= -512.924517299545     IErMin= 2 ErrMin= 5.35D-03
 ErrMax= 5.35D-03  0.00D+00 EMaxC= 1.00D-01 BMatC= 3.60D-02 BMatP= 7.23D-01
 IDIUse=3 WtCom= 9.47D-01 WtEn= 5.35D-02
 Coeff-Com:  0.847D-01 0.915D+00
 Coeff-En:   0.000D+00 0.100D+01
 Coeff:      0.802D-01 0.920D+00
 Gap=     0.208 Goal=   None    Shift=    0.000
 Gap=     0.238 Goal=   None    Shift=    0.000
 RMSDP=3.32D-04 MaxDP=1.64D-02 DE=-8.60D-02 OVMax= 2.49D-02

 Cycle   3  Pass 1  IDiag  1:
 RMSU=  3.30D-04    CP:  9.82D-01  9.61D-01
 E= -512.925054903013     Delta-E=       -0.000537603468 Rises=F Damp=F
 DIIS: error= 5.55D-03 at cycle   3 NSaved=   3.
 NSaved= 3 IEnMin= 3 EnMin= -512.925054903013     IErMin= 2 ErrMin= 5.35D-03
 ErrMax= 5.55D-03  0.00D+00 EMaxC= 1.00D-01 BMatC= 3.03D-02 BMatP= 3.60D-02
 IDIUse=3 WtCom= 9.45D-01 WtEn= 5.55D-02
 Coeff-Com: -0.779D-02 0.477D+00 0.531D+00
 Coeff-En:   0.000D+00 0.484D+00 0.516D+00
 Coeff:     -0.736D-02 0.477D+00 0.530D+00
 Gap=     0.218 Goal=   None    Shift=    0.000
 Gap=     0.243 Goal=   None    Shift=    0.000
 RMSDP=1.82D-04 MaxDP=7.04D-03 DE=-5.38D-04 OVMax= 1.18D-02

 Cycle   4  Pass 1  IDiag  1:
 RMSU=  6.13D-05    CP:  9.83D-01  9.88D-01  4.88D-01
 E= -512.933041131479     Delta-E=       -0.007986228466 Rises=F Damp=F
 DIIS: error= 3.92D-04 at cycle   4 NSaved=   4.
 NSaved= 4 IEnMin= 4 EnMin= -512.933041131479     IErMin= 4 ErrMin= 3.92D-04
 ErrMax= 3.92D-04  0.00D+00 EMaxC= 1.00D-01 BMatC= 2.04D-04 BMatP= 3.03D-02
 IDIUse=3 WtCom= 9.96D-01 WtEn= 3.92D-03
 Coeff-Com: -0.249D-02 0.172D-01 0.807D-01 0.905D+00
 Coeff-En:   0.000D+00 0.000D+00 0.000D+00 0.100D+01
 Coeff:     -0.248D-02 0.172D-01 0.804D-01 0.905D+00
 Gap=     0.217 Goal=   None    Shift=    0.000
 Gap=     0.240 Goal=   None    Shift=    0.000
 RMSDP=2.04D-05 MaxDP=1.65D-03 DE=-7.99D-03 OVMax= 1.50D-03

 Cycle   5  Pass 1  IDiag  1:
 RMSU=  1.35D-05    CP:  9.83D-01  9.93D-01  5.31D-01  9.90D-01
 E= -512.933103560810     Delta-E=       -0.000062429331 Rises=F Damp=F
 DIIS: error= 1.66D-04 at cycle   5 NSaved=   5.
 NSaved= 5 IEnMin= 5 EnMin= -512.933103560810     IErMin= 5 ErrMin= 1.66D-04
 ErrMax= 1.66D-04  0.00D+00 EMaxC= 1.00D-01 BMatC= 3.57D-05 BMatP= 2.04D-04
 IDIUse=3 WtCom= 9.98D-01 WtEn= 1.66D-03
 Coeff-Com: -0.405D-03-0.271D-01-0.649D-02 0.354D+00 0.680D+00
 Coeff-En:   0.000D+00 0.000D+00 0.000D+00 0.000D+00 0.100D+01
 Coeff:     -0.404D-03-0.271D-01-0.648D-02 0.354D+00 0.680D+00
 Gap=     0.216 Goal=   None    Shift=    0.000
 Gap=     0.240 Goal=   None    Shift=    0.000
 RMSDP=8.95D-06 MaxDP=8.42D-04 DE=-6.24D-05 OVMax= 1.04D-03

 Cycle   6  Pass 1  IDiag  1:
 RMSU=  6.85D-06    CP:  9.83D-01  9.94D-01  5.39D-01  1.06D+00  8.08D-01
 E= -512.933112917784     Delta-E=       -0.000009356974 Rises=F Damp=F
 DIIS: error= 7.81D-05 at cycle   6 NSaved=   6.
 NSaved= 6 IEnMin= 6 EnMin= -512.933112917784     IErMin= 6 ErrMin= 7.81D-05
 ErrMax= 7.81D-05  0.00D+00 EMaxC= 1.00D-01 BMatC= 7.32D-06 BMatP= 3.57D-05
 IDIUse=1 WtCom= 1.00D+00 WtEn= 0.00D+00
 Coeff-Com:  0.468D-03-0.152D-01-0.257D-01-0.891D-01 0.288D+00 0.842D+00
 Coeff:      0.468D-03-0.152D-01-0.257D-01-0.891D-01 0.288D+00 0.842D+00
 Gap=     0.216 Goal=   None    Shift=    0.000
 Gap=     0.240 Goal=   None    Shift=    0.000
 RMSDP=3.65D-06 MaxDP=3.68D-04 DE=-9.36D-06 OVMax= 3.41D-04

 Cycle   7  Pass 1  IDiag  1:
 RMSU=  2.14D-06    CP:  9.83D-01  9.94D-01  5.40D-01  1.09D+00  9.84D-01
                    CP:  9.07D-01
 E= -512.933115331061     Delta-E=       -0.000002413278 Rises=F Damp=F
 DIIS: error= 2.74D-05 at cycle   7 NSaved=   7.
 NSaved= 7 IEnMin= 7 EnMin= -512.933115331061     IErMin= 7 ErrMin= 2.74D-05
 ErrMax= 2.74D-05  0.00D+00 EMaxC= 1.00D-01 BMatC= 5.10D-07 BMatP= 7.32D-06
 IDIUse=1 WtCom= 1.00D+00 WtEn= 0.00D+00
 Coeff-Com:  0.196D-03-0.350D-02-0.926D-02-0.560D-01 0.526D-01 0.299D+00
 Coeff-Com:  0.717D+00
 Coeff:      0.196D-03-0.350D-02-0.926D-02-0.560D-01 0.526D-01 0.299D+00
 Coeff:      0.717D+00
 Gap=     0.216 Goal=   None    Shift=    0.000
 Gap=     0.240 Goal=   None    Shift=    0.000
 RMSDP=1.02D-06 MaxDP=1.01D-04 DE=-2.41D-06 OVMax= 1.10D-04

 Cycle   8  Pass 1  IDiag  1:
 RMSU=  7.49D-07    CP:  9.83D-01  9.94D-01  5.39D-01  1.09D+00  1.00D+00
                    CP:  9.75D-01  8.19D-01
 E= -512.933115466451     Delta-E=       -0.000000135390 Rises=F Damp=F
 DIIS: error= 1.43D-05 at cycle   8 NSaved=   8.
 NSaved= 8 IEnMin= 8 EnMin= -512.933115466451     IErMin= 8 ErrMin= 1.43D-05
 ErrMax= 1.43D-05  0.00D+00 EMaxC= 1.00D-01 BMatC= 1.12D-07 BMatP= 5.10D-07
 IDIUse=1 WtCom= 1.00D+00 WtEn= 0.00D+00
 Coeff-Com:  0.341D-04 0.350D-03-0.105D-02-0.146D-01-0.134D-01 0.291D-01
 Coeff-Com:  0.345D+00 0.654D+00
 Coeff:      0.341D-04 0.350D-03-0.105D-02-0.146D-01-0.134D-01 0.291D-01
 Coeff:      0.345D+00 0.654D+00
 Gap=     0.216 Goal=   None    Shift=    0.000
 Gap=     0.240 Goal=   None    Shift=    0.000
 RMSDP=4.10D-07 MaxDP=4.03D-05 DE=-1.35D-07 OVMax= 4.91D-05

 Cycle   9  Pass 1  IDiag  1:
 RMSU=  2.61D-07    CP:  9.83D-01  9.94D-01  5.39D-01  1.09D+00  1.01D+00
                    CP:  9.86D-01  9.11D-01  7.29D-01
 E= -512.933115497209     Delta-E=       -0.000000030757 Rises=F Damp=F
 DIIS: error= 4.14D-06 at cycle   9 NSaved=   9.
 NSaved= 9 IEnMin= 9 EnMin= -512.933115497209     IErMin= 9 ErrMin= 4.14D-06
 ErrMax= 4.14D-06  0.00D+00 EMaxC= 1.00D-01 BMatC= 9.46D-09 BMatP= 1.12D-07
 IDIUse=1 WtCom= 1.00D+00 WtEn= 0.00D+00
 Coeff-Com: -0.142D-04 0.567D-03 0.997D-03 0.337D-02-0.115D-01-0.338D-01
 Coeff-Com:  0.777D-02 0.219D+00 0.814D+00
 Coeff:     -0.142D-04 0.567D-03 0.997D-03 0.337D-02-0.115D-01-0.338D-01
 Coeff:      0.777D-02 0.219D+00 0.814D+00
 Gap=     0.216 Goal=   None    Shift=    0.000
 Gap=     0.240 Goal=   None    Shift=    0.000
 RMSDP=1.56D-07 MaxDP=1.09D-05 DE=-3.08D-08 OVMax= 2.01D-05

 Cycle  10  Pass 1  IDiag  1:
 RMSU=  1.19D-07    CP:  9.83D-01  9.94D-01  5.39D-01  1.09D+00  1.01D+00
                    CP:  9.89D-01  9.35D-01  8.33D-01  9.17D-01
 E= -512.933115500181     Delta-E=       -0.000000002972 Rises=F Damp=F
 DIIS: error= 1.66D-06 at cycle  10 NSaved=  10.
 NSaved=10 IEnMin=10 EnMin= -512.933115500181     IErMin=10 ErrMin= 1.66D-06
 ErrMax= 1.66D-06  0.00D+00 EMaxC= 1.00D-01 BMatC= 2.00D-09 BMatP= 9.46D-09
 IDIUse=1 WtCom= 1.00D+00 WtEn= 0.00D+00
 Coeff-Com: -0.106D-04 0.213D-03 0.588D-03 0.324D-02-0.351D-02-0.187D-01
 Coeff-Com: -0.391D-01 0.185D-01 0.367D+00 0.671D+00
 Coeff:     -0.106D-04 0.213D-03 0.588D-03 0.324D-02-0.351D-02-0.187D-01
 Coeff:     -0.391D-01 0.185D-01 0.367D+00 0.671D+00
 Gap=     0.216 Goal=   None    Shift=    0.000
 Gap=     0.240 Goal=   None    Shift=    0.000
 RMSDP=6.67D-08 MaxDP=5.09D-06 DE=-2.97D-09 OVMax= 8.05D-06

 Cycle  11  Pass 1  IDiag  1:
 RMSU=  4.53D-08    CP:  9.83D-01  9.94D-01  5.39D-01  1.09D+00  1.01D+00
                    CP:  9.89D-01  9.41D-01  8.53D-01  1.05D+00  7.75D-01
 E= -512.933115500728     Delta-E=       -0.000000000547 Rises=F Damp=F
 DIIS: error= 5.75D-07 at cycle  11 NSaved=  11.
 NSaved=11 IEnMin=11 EnMin= -512.933115500728     IErMin=11 ErrMin= 5.75D-07
 ErrMax= 5.75D-07  0.00D+00 EMaxC= 1.00D-01 BMatC= 3.55D-10 BMatP= 2.00D-09
 IDIUse=1 WtCom= 1.00D+00 WtEn= 0.00D+00
 Coeff-Com: -0.261D-05-0.475D-05 0.846D-04 0.822D-03 0.579D-03-0.212D-02
 Coeff-Com: -0.196D-01-0.353D-01 0.556D-02 0.320D+00 0.730D+00
 Coeff:     -0.261D-05-0.475D-05 0.846D-04 0.822D-03 0.579D-03-0.212D-02
 Coeff:     -0.196D-01-0.353D-01 0.556D-02 0.320D+00 0.730D+00
 Gap=     0.216 Goal=   None    Shift=    0.000
 Gap=     0.240 Goal=   None    Shift=    0.000
 RMSDP=2.82D-08 MaxDP=1.85D-06 DE=-5.47D-10 OVMax= 3.23D-06

 Cycle  12  Pass 1  IDiag  1:
 RMSU=  1.44D-08    CP:  9.83D-01  9.94D-01  5.39D-01  1.09D+00  1.01D+00
                    CP:  9.90D-01  9.42D-01  8.62D-01  1.08D+00  8.88D-01
                    CP:  6.43D-01
 E= -512.933115500838     Delta-E=       -0.000000000110 Rises=F Damp=F
 DIIS: error= 1.47D-07 at cycle  12 NSaved=  12.
 NSaved=12 IEnMin=12 EnMin= -512.933115500838     IErMin=12 ErrMin= 1.47D-07
 ErrMax= 1.47D-07  0.00D+00 EMaxC= 1.00D-01 BMatC= 2.46D-11 BMatP= 3.55D-10
 IDIUse=1 WtCom= 1.00D+00 WtEn= 0.00D+00
 Coeff-Com: -0.135D-07-0.211D-04-0.301D-04-0.472D-04 0.569D-03 0.116D-02
 Coeff-Com: -0.296D-02-0.149D-01-0.364D-01 0.451D-01 0.272D+00 0.735D+00
 Coeff:     -0.135D-07-0.211D-04-0.301D-04-0.472D-04 0.569D-03 0.116D-02
 Coeff:     -0.296D-02-0.149D-01-0.364D-01 0.451D-01 0.272D+00 0.735D+00
 Gap=     0.216 Goal=   None    Shift=    0.000
 Gap=     0.240 Goal=   None    Shift=    0.000
 RMSDP=7.73D-09 MaxDP=3.90D-07 DE=-1.10D-10 OVMax= 7.53D-07

 SCF Done:  E(UB3LYP) =  -512.933115501     A.U. after   12 cycles
            NFock= 12  Conv=0.77D-08     -V/T= 2.0053
 <Sx>= 0.0000 <Sy>= 0.0000 <Sz>= 0.5000 <S**2>= 0.7571 S= 0.5035
 <L.S>=  0.00000000000    
 KE= 5.102481203671D+02 PE=-2.668024664940D+03 EE= 9.039218640250D+02
 Annihilation of the first spin contaminant:
 S**2 before annihilation     0.7571,   after     0.7500
 Leave Link  502 at Mon Mar  6 02:37:28 2023, MaxMem=  1879048192 cpu:             607.6 elap:              76.0
 (Enter /home/gridsan/groups/GRPAPI/Software/g16/l508.exe)
 QCSCF skips out because SCF is already converged.
 Leave Link  508 at Mon Mar  6 02:37:28 2023, MaxMem=  1879048192 cpu:               0.0 elap:               0.0
 (Enter /home/gridsan/groups/GRPAPI/Software/g16/l801.exe)
 DoSCS=F DFT=T ScalE2(SS,OS)=  1.000000  1.000000
 Range of M.O.s used for correlation:     1   408
 NBasis=   408 NAE=    54 NBE=    53 NFC=     0 NFV=     0
 NROrb=    408 NOA=    54 NOB=    53 NVA=   354 NVB=   355
 Leave Link  801 at Mon Mar  6 02:37:28 2023, MaxMem=  1879048192 cpu:               0.2 elap:               0.0
 (Enter /home/gridsan/groups/GRPAPI/Software/g16/l1101.exe)
 Using compressed storage, NAtomX=    42.
 Will process     43 centers per pass.
 Leave Link 1101 at Mon Mar  6 02:37:29 2023, MaxMem=  1879048192 cpu:               4.6 elap:               0.6
 (Enter /home/gridsan/groups/GRPAPI/Software/g16/l1102.exe)
 Symmetrizing basis deriv contribution to polar:
 IMax=3 JMax=2 DiffMx= 0.00D+00
 Leave Link 1102 at Mon Mar  6 02:37:29 2023, MaxMem=  1879048192 cpu:               0.7 elap:               0.2
 (Enter /home/gridsan/groups/GRPAPI/Software/g16/l1110.exe)
 Forming Gx(P) for the SCF density, NAtomX=    42.
 Integral derivatives from FoFJK, PRISM(SPDF).
 Do as many integral derivatives as possible in FoFJK.
 G2DrvN: MDV=    1879044696.
 G2DrvN: will do    43 centers at a time, making    1 passes.
 Calling FoFCou, ICntrl=  3107 FMM=F I1Cent=   0 AccDes= 1.00D-12.
 FoFJK:  IHMeth= 1 ICntrl=    3107 DoSepK=F KAlg= 0 I1Cent=           0 FoldK=F
 IRaf=         0 NMat=       1 IRICut=       1 DoRegI=T DoRafI=F ISym2E= 0 IDoP0=0 IntGTp=1.
 FoFCou: FMM=F IPFlag=           0 FMFlag=      100000 FMFlg1=           0
         NFxFlg=           0 DoJE=F BraDBF=F KetDBF=F FulRan=T
         wScrn=  0.000000 ICntrl=      3107 IOpCl=  1 I1Cent=           0 NGrid=           0
         NMat0=    1 NMatS0=      1 NMatT0=    0 NMatD0=    1 NMtDS0=    0 NMtDT0=    0
 Symmetry not used in FoFCou.
 End of G2Drv F.D. properties file   721 does not exist.
 End of G2Drv F.D. properties file   722 does not exist.
 End of G2Drv F.D. properties file   788 does not exist.
 Leave Link 1110 at Mon Mar  6 02:40:59 2023, MaxMem=  1879048192 cpu:            1679.2 elap:             210.1
 (Enter /home/gridsan/groups/GRPAPI/Software/g16/l1002.exe)
 Minotr:  UHF open shell wavefunction.
          IDoAtm=111111111111111111111111111111111111111111
          Direct CPHF calculation.
          Differentiating once with respect to nuclear coordinates.
          Requested convergence is 1.0D-08 RMS, and 1.0D-07 maximum.
          Secondary convergence is 1.0D-12 RMS, and 1.0D-12 maximum.
          NewPWx=T KeepS1=F KeepF1=F KeepIn=T MapXYZ=F SortEE=F KeepMc=T.
        13014 words used for storage of precomputed grid.
 Two-electron integrals replicated using symmetry.
          MDV=    1879048192 using IRadAn=       1.
          Solving linear equations simultaneously, MaxMat=     384.
 FoF2E skips out because all densities are zero.
 CalDSu exits because no D1Ps are significant.
 FoFJK:  IHMeth= 1 ICntrl=       0 DoSepK=F KAlg= 0 I1Cent=           0 FoldK=F
 IRaf= 640000000 NMat=     126 IRICut=     315 DoRegI=T DoRafI=T ISym2E= 2 IDoP0=3 IntGTp=3.
 FoFCou: FMM=F IPFlag=           0 FMFlag=      100000 FMFlg1=           0
         NFxFlg=           0 DoJE=F BraDBF=F KetDBF=F FulRan=T
         wScrn=  0.000000 ICntrl=         0 IOpCl=  1 I1Cent=           0 NGrid=           0
         NMat0=  126 NMatS0=    126 NMatT0=    0 NMatD0=  126 NMtDS0=    0 NMtDT0=    0
 Integrals replicated using symmetry in FoFCou.
 Raff kept on since  59.47% of shell-pairs survive, threshold=   0.20 IRatSp=59.
          There are   129 degrees of freedom in the 1st order CPHF.  IDoFFX=6 NUNeed=     0.
    123 vectors produced by pass  0 Test12= 3.79D-14 1.00D-09 XBig12= 1.46D-01 1.29D-01.
 AX will form   123 AO Fock derivatives at one time.
    123 vectors produced by pass  1 Test12= 3.79D-14 1.00D-09 XBig12= 7.68D-03 2.48D-02.
    123 vectors produced by pass  2 Test12= 3.79D-14 1.00D-09 XBig12= 1.54D-04 2.13D-03.
    123 vectors produced by pass  3 Test12= 3.79D-14 1.00D-09 XBig12= 1.33D-06 1.42D-04.
    123 vectors produced by pass  4 Test12= 3.79D-14 1.00D-09 XBig12= 5.60D-09 9.19D-06.
    107 vectors produced by pass  5 Test12= 3.79D-14 1.00D-09 XBig12= 1.88D-11 4.08D-07.
     31 vectors produced by pass  6 Test12= 3.79D-14 1.00D-09 XBig12= 5.90D-14 2.35D-08.
      1 vectors produced by pass  7 Test12= 3.79D-14 1.00D-09 XBig12= 1.63D-16 1.05D-09.
 InvSVY:  IOpt=1 It=  1 EMax= 5.55D-16
 Solved reduced A of dimension   754 with   129 vectors.
 End of Minotr F.D. properties file   721 does not exist.
 End of Minotr F.D. properties file   722 does not exist.
 End of Minotr F.D. properties file   788 does not exist.
 Leave Link 1002 at Mon Mar  6 02:51:40 2023, MaxMem=  1879048192 cpu:            5122.7 elap:             640.9
 (Enter /home/gridsan/groups/GRPAPI/Software/g16/l601.exe)
 Copying SCF densities to generalized density rwf, IOpCl= 1 IROHF=0.

 **********************************************************************

            Population analysis using the SCF Density.

 **********************************************************************

 Orbital symmetries:
 Alpha Orbitals:
       Occupied  (A) (A) (A) (A) (A) (A) (A) (A) (A) (A) (A) (A)
                 (A) (A) (A) (A) (A) (A) (A) (A) (A) (A) (A) (A)
                 (A) (A) (A) (A) (A) (A) (A) (A) (A) (A) (A) (A)
                 (A) (A) (A) (A) (A) (A) (A) (A) (A) (A) (A) (A)
                 (A) (A) (A) (A) (A) (A)
       Virtual   (A) (A) (A) (A) (A) (A) (A) (A) (A) (A) (A) (A)
                 (A) (A) (A) (A) (A) (A) (A) (A) (A) (A) (A) (A)
                 (A) (A) (A) (A) (A) (A) (A) (A) (A) (A) (A) (A)
                 (A) (A) (A) (A) (A) (A) (A) (A) (A) (A) (A) (A)
                 (A) (A) (A) (A) (A) (A) (A) (A) (A) (A) (A) (A)
                 (A) (A) (A) (A) (A) (A) (A) (A) (A) (A) (A) (A)
                 (A) (A) (A) (A) (A) (A) (A) (A) (A) (A) (A) (A)
                 (A) (A) (A) (A) (A) (A) (A) (A) (A) (A) (A) (A)
                 (A) (A) (A) (A) (A) (A) (A) (A) (A) (A) (A) (A)
                 (A) (A) (A) (A) (A) (A) (A) (A) (A) (A) (A) (A)
                 (A) (A) (A) (A) (A) (A) (A) (A) (A) (A) (A) (A)
                 (A) (A) (A) (A) (A) (A) (A) (A) (A) (A) (A) (A)
                 (A) (A) (A) (A) (A) (A) (A) (A) (A) (A) (A) (A)
                 (A) (A) (A) (A) (A) (A) (A) (A) (A) (A) (A) (A)
                 (A) (A) (A) (A) (A) (A) (A) (A) (A) (A) (A) (A)
                 (A) (A) (A) (A) (A) (A) (A) (A) (A) (A) (A) (A)
                 (A) (A) (A) (A) (A) (A) (A) (A) (A) (A) (A) (A)
                 (A) (A) (A) (A) (A) (A) (A) (A) (A) (A) (A) (A)
                 (A) (A) (A) (A) (A) (A) (A) (A) (A) (A) (A) (A)
                 (A) (A) (A) (A) (A) (A) (A) (A) (A) (A) (A) (A)
                 (A) (A) (A) (A) (A) (A) (A) (A) (A) (A) (A) (A)
                 (A) (A) (A) (A) (A) (A) (A) (A) (A) (A) (A) (A)
                 (A) (A) (A) (A) (A) (A) (A) (A) (A) (A) (A) (A)
                 (A) (A) (A) (A) (A) (A) (A) (A) (A) (A) (A) (A)
                 (A) (A) (A) (A) (A) (A) (A) (A) (A) (A) (A) (A)
                 (A) (A) (A) (A) (A) (A) (A) (A) (A) (A) (A) (A)
                 (A) (A) (A) (A) (A) (A) (A) (A) (A) (A) (A) (A)
                 (A) (A) (A) (A) (A) (A) (A) (A) (A) (A) (A) (A)
                 (A) (A) (A) (A) (A) (A) (A) (A) (A) (A) (A) (A)
                 (A) (A) (A) (A) (A) (A)
 Beta  Orbitals:
       Occupied  (A) (A) (A) (A) (A) (A) (A) (A) (A) (A) (A) (A)
                 (A) (A) (A) (A) (A) (A) (A) (A) (A) (A) (A) (A)
                 (A) (A) (A) (A) (A) (A) (A) (A) (A) (A) (A) (A)
                 (A) (A) (A) (A) (A) (A) (A) (A) (A) (A) (A) (A)
                 (A) (A) (A) (A) (A)
       Virtual   (A) (A) (A) (A) (A) (A) (A) (A) (A) (A) (A) (A)
                 (A) (A) (A) (A) (A) (A) (A) (A) (A) (A) (A) (A)
                 (A) (A) (A) (A) (A) (A) (A) (A) (A) (A) (A) (A)
                 (A) (A) (A) (A) (A) (A) (A) (A) (A) (A) (A) (A)
                 (A) (A) (A) (A) (A) (A) (A) (A) (A) (A) (A) (A)
                 (A) (A) (A) (A) (A) (A) (A) (A) (A) (A) (A) (A)
                 (A) (A) (A) (A) (A) (A) (A) (A) (A) (A) (A) (A)
                 (A) (A) (A) (A) (A) (A) (A) (A) (A) (A) (A) (A)
                 (A) (A) (A) (A) (A) (A) (A) (A) (A) (A) (A) (A)
                 (A) (A) (A) (A) (A) (A) (A) (A) (A) (A) (A) (A)
                 (A) (A) (A) (A) (A) (A) (A) (A) (A) (A) (A) (A)
                 (A) (A) (A) (A) (A) (A) (A) (A) (A) (A) (A) (A)
                 (A) (A) (A) (A) (A) (A) (A) (A) (A) (A) (A) (A)
                 (A) (A) (A) (A) (A) (A) (A) (A) (A) (A) (A) (A)
                 (A) (A) (A) (A) (A) (A) (A) (A) (A) (A) (A) (A)
                 (A) (A) (A) (A) (A) (A) (A) (A) (A) (A) (A) (A)
                 (A) (A) (A) (A) (A) (A) (A) (A) (A) (A) (A) (A)
                 (A) (A) (A) (A) (A) (A) (A) (A) (A) (A) (A) (A)
                 (A) (A) (A) (A) (A) (A) (A) (A) (A) (A) (A) (A)
                 (A) (A) (A) (A) (A) (A) (A) (A) (A) (A) (A) (A)
                 (A) (A) (A) (A) (A) (A) (A) (A) (A) (A) (A) (A)
                 (A) (A) (A) (A) (A) (A) (A) (A) (A) (A) (A) (A)
                 (A) (A) (A) (A) (A) (A) (A) (A) (A) (A) (A) (A)
                 (A) (A) (A) (A) (A) (A) (A) (A) (A) (A) (A) (A)
                 (A) (A) (A) (A) (A) (A) (A) (A) (A) (A) (A) (A)
                 (A) (A) (A) (A) (A) (A) (A) (A) (A) (A) (A) (A)
                 (A) (A) (A) (A) (A) (A) (A) (A) (A) (A) (A) (A)
                 (A) (A) (A) (A) (A) (A) (A) (A) (A) (A) (A) (A)
                 (A) (A) (A) (A) (A) (A) (A) (A) (A) (A) (A) (A)
                 (A) (A) (A) (A) (A) (A) (A)
 The electronic state is 2-A.
 Alpha  occ. eigenvalues --  -10.16515 -10.16357 -10.16273 -10.16239 -10.16177
 Alpha  occ. eigenvalues --  -10.16082 -10.16059 -10.16050 -10.16039 -10.16026
 Alpha  occ. eigenvalues --  -10.16016 -10.15993 -10.15562  -0.81422  -0.80120
 Alpha  occ. eigenvalues --   -0.77979  -0.75806  -0.74675  -0.71158  -0.67004
 Alpha  occ. eigenvalues --   -0.62877  -0.61017  -0.58874  -0.57889  -0.57292
 Alpha  occ. eigenvalues --   -0.57204  -0.48735  -0.47557  -0.45689  -0.44423
 Alpha  occ. eigenvalues --   -0.44219  -0.43212  -0.43159  -0.42570  -0.41022
 Alpha  occ. eigenvalues --   -0.40418  -0.40106  -0.38071  -0.38047  -0.37604
 Alpha  occ. eigenvalues --   -0.36903  -0.35335  -0.35140  -0.34985  -0.34047
 Alpha  occ. eigenvalues --   -0.33432  -0.33344  -0.32806  -0.32409  -0.32363
 Alpha  occ. eigenvalues --   -0.32136  -0.32098  -0.29993  -0.17455
 Alpha virt. eigenvalues --    0.04135   0.04441   0.05027   0.05940   0.05950
 Alpha virt. eigenvalues --    0.06138   0.07115   0.07236   0.07443   0.08864
 Alpha virt. eigenvalues --    0.08945   0.09246   0.10775   0.10893   0.11969
 Alpha virt. eigenvalues --    0.12692   0.12815   0.13371   0.13482   0.13598
 Alpha virt. eigenvalues --    0.13768   0.14548   0.15838   0.16164   0.16535
 Alpha virt. eigenvalues --    0.16571   0.18718   0.18741   0.19199   0.19831
 Alpha virt. eigenvalues --    0.20071   0.20995   0.22046   0.22716   0.23093
 Alpha virt. eigenvalues --    0.23355   0.25396   0.26603   0.27519   0.27562
 Alpha virt. eigenvalues --    0.28578   0.29673   0.30147   0.30690   0.31601
 Alpha virt. eigenvalues --    0.31718   0.31890   0.32277   0.33454   0.33969
 Alpha virt. eigenvalues --    0.34509   0.34900   0.36692   0.37350   0.37883
 Alpha virt. eigenvalues --    0.39733   0.41744   0.42829   0.42933   0.45162
 Alpha virt. eigenvalues --    0.45288   0.45799   0.48600   0.50805   0.52816
 Alpha virt. eigenvalues --    0.53447   0.54458   0.55554   0.56616   0.56798
 Alpha virt. eigenvalues --    0.57141   0.57621   0.57805   0.58105   0.58170
 Alpha virt. eigenvalues --    0.58732   0.58738   0.58950   0.59260   0.59412
 Alpha virt. eigenvalues --    0.59511   0.59891   0.59899   0.60053   0.60546
 Alpha virt. eigenvalues --    0.60836   0.61451   0.61496   0.61723   0.62004
 Alpha virt. eigenvalues --    0.62558   0.62684   0.63157   0.63809   0.64582
 Alpha virt. eigenvalues --    0.64650   0.64657   0.64913   0.65308   0.65746
 Alpha virt. eigenvalues --    0.66642   0.66951   0.69798   0.71000   0.73866
 Alpha virt. eigenvalues --    0.73878   0.79865   0.81489   0.82845   0.85751
 Alpha virt. eigenvalues --    0.90078   0.92964   0.93478   0.95932   0.96491
 Alpha virt. eigenvalues --    0.96894   0.97952   0.98798   0.99277   0.99446
 Alpha virt. eigenvalues --    0.99488   1.01642   1.02395   1.04875   1.06734
 Alpha virt. eigenvalues --    1.09528   1.11774   1.16024   1.19230   1.21400
 Alpha virt. eigenvalues --    1.21790   1.24016   1.24332   1.24925   1.25212
 Alpha virt. eigenvalues --    1.26517   1.26548   1.26702   1.27544   1.27978
 Alpha virt. eigenvalues --    1.28050   1.31804   1.37844   1.39765   1.40089
 Alpha virt. eigenvalues --    1.41897   1.43350   1.43571   1.44828   1.45229
 Alpha virt. eigenvalues --    1.45253   1.45923   1.46094   1.46484   1.46660
 Alpha virt. eigenvalues --    1.47563   1.48700   1.49000   1.49364   1.49794
 Alpha virt. eigenvalues --    1.51764   1.52922   1.53854   1.54592   1.56158
 Alpha virt. eigenvalues --    1.56340   1.57133   1.57548   1.59926   1.61977
 Alpha virt. eigenvalues --    1.62627   1.62813   1.62816   1.62902   1.63827
 Alpha virt. eigenvalues --    1.64094   1.66429   1.66901   1.67687   1.68172
 Alpha virt. eigenvalues --    1.69222   1.69682   1.69795   1.70320   1.71836
 Alpha virt. eigenvalues --    1.72324   1.72497   1.73477   1.74261   1.74338
 Alpha virt. eigenvalues --    1.74661   1.75165   1.77281   1.78945   1.80375
 Alpha virt. eigenvalues --    1.81385   1.82199   1.84156   1.85230   1.85302
 Alpha virt. eigenvalues --    1.85878   1.87659   1.88835   1.90169   1.91391
 Alpha virt. eigenvalues --    1.91845   1.95613   1.98294   1.98485   2.00066
[...]
    17   Atom        0.021066     -0.007796     -0.013270
    18   Atom        0.290006      0.048465     -0.338471
    19   Atom        0.000114     -0.000057     -0.000057
    20   Atom        0.000114     -0.000057     -0.000057
    21   Atom        0.000097     -0.000048     -0.000049
    22   Atom        0.000153     -0.000074     -0.000078
    23   Atom        0.000153     -0.000074     -0.000078
    24   Atom        0.000217     -0.000108     -0.000109
    25   Atom        0.000217     -0.000108     -0.000109
    26   Atom        0.000307     -0.000146     -0.000161
    27   Atom        0.000307     -0.000146     -0.000161
    28   Atom        0.000482     -0.000235     -0.000246
    29   Atom        0.000482     -0.000235     -0.000246
    30   Atom        0.000714     -0.000322     -0.000392
    31   Atom        0.000714     -0.000322     -0.000392
    32   Atom        0.001358     -0.000639     -0.000719
    33   Atom        0.001358     -0.000639     -0.000719
    34   Atom        0.001738     -0.000621     -0.001117
    35   Atom        0.001738     -0.000621     -0.001116
    36   Atom        0.004402     -0.002287     -0.002115
    37   Atom        0.004402     -0.002287     -0.002115
    38   Atom        0.004262      0.000749     -0.005012
    39   Atom        0.004263      0.000749     -0.005012
    40   Atom       -0.015656     -0.001369      0.017025
    41   Atom       -0.015657     -0.001367      0.017024
    42   Atom        0.107298      0.005306     -0.112604
 --------------------------------------------------------
                        XY            XZ            YZ
 --------------------------------------------------------
     1   Atom       -0.006460     -0.000003      0.000001
     2   Atom        0.497962      0.000028      0.000022
     3   Atom       -0.006015      0.005300     -0.004083
     4   Atom       -0.001033     -0.000001      0.000001
     5   Atom       -0.006013     -0.005303      0.004085
     6   Atom        0.013647     -0.009057      0.037575
     7   Atom        0.013641      0.009063     -0.037580
     8   Atom        0.000002     -0.000000     -0.000000
     9   Atom       -0.000026      0.000000     -0.000000
    10   Atom        0.000027     -0.000000     -0.000000
    11   Atom       -0.000104      0.000000     -0.000000
    12   Atom        0.000226     -0.000000     -0.000000
    13   Atom       -0.000896      0.000000     -0.000000
    14   Atom        0.000862     -0.000000     -0.000000
    15   Atom       -0.009169      0.000000     -0.000000
    16   Atom        0.014159     -0.000000     -0.000000
    17   Atom       -0.007472      0.000001     -0.000000
    18   Atom        0.495563      0.000023      0.000018
    19   Atom        0.000009     -0.000012     -0.000001
    20   Atom        0.000009      0.000012      0.000001
    21   Atom       -0.000007      0.000000     -0.000000
    22   Atom       -0.000030      0.000018     -0.000004
    23   Atom       -0.000030     -0.000018      0.000004
    24   Atom        0.000025     -0.000030     -0.000005
    25   Atom        0.000025      0.000030      0.000005
    26   Atom       -0.000079      0.000052     -0.000017
    27   Atom       -0.000079     -0.000052      0.000017
    28   Atom        0.000092     -0.000100     -0.000036
    29   Atom        0.000092      0.000100      0.000036
    30   Atom       -0.000295     -0.000208      0.000135
    31   Atom       -0.000295      0.000208     -0.000135
    32   Atom        0.000433      0.000501      0.000231
    33   Atom        0.000433     -0.000501     -0.000231
    34   Atom       -0.001393     -0.000777      0.001042
    35   Atom       -0.001393      0.000777     -0.001042
    36   Atom        0.002839     -0.004203     -0.003191
    37   Atom        0.002839      0.004203      0.003191
    38   Atom       -0.006309      0.005391     -0.004208
    39   Atom       -0.006309     -0.005390      0.004208
    40   Atom        0.013661     -0.009109      0.037602
    41   Atom        0.013663      0.009108     -0.037601
    42   Atom        0.161325      0.000008      0.000006
 --------------------------------------------------------


 ---------------------------------------------------------------------------------
              Anisotropic Spin Dipole Couplings in Principal Axis System
 ---------------------------------------------------------------------------------

       Atom             a.u.   MegaHertz   Gauss  10(-4) cm-1        Axes

              Baa    -0.0140    -1.873    -0.668    -0.625  0.0001 -0.0001  1.0000
     1 C(13)  Bbb    -0.0105    -1.405    -0.501    -0.469  0.1885  0.9821  0.0001
              Bcc     0.0244     3.278     1.170     1.093  0.9821 -0.1885 -0.0001
 
              Baa    -0.3416   -45.845   -16.359   -15.292 -0.6230  0.7822  0.0002
     2 C(13)  Bbb    -0.3385   -45.430   -16.210   -15.154  0.0001 -0.0002  1.0000
              Bcc     0.6802    91.275    32.569    30.446  0.7822  0.6230  0.0000
 
              Baa    -0.0074    -3.940    -1.406    -1.314 -0.2841  0.2647  0.9215
     3 H(1)   Bbb    -0.0040    -2.143    -0.765    -0.715  0.6071  0.7936 -0.0408
              Bcc     0.0114     6.083     2.171     2.029  0.7421 -0.5478  0.3862
 
              Baa    -0.0068    -3.627    -1.294    -1.210  0.0001 -0.0001  1.0000
     4 H(1)   Bbb    -0.0021    -1.123    -0.401    -0.374  0.0943  0.9955  0.0001
              Bcc     0.0089     4.749     1.695     1.584  0.9955 -0.0943 -0.0001
 
              Baa    -0.0074    -3.940    -1.406    -1.314  0.2842 -0.2649  0.9214
     5 H(1)   Bbb    -0.0040    -2.143    -0.765    -0.715  0.6071  0.7936  0.0409
              Bcc     0.0114     6.083     2.171     2.029  0.7421 -0.5478 -0.3864
 
              Baa    -0.0412   -22.001    -7.851    -7.339 -0.5443  0.6646 -0.5120
     6 H(1)   Bbb    -0.0055    -2.929    -1.045    -0.977  0.8386  0.4149 -0.3529
              Bcc     0.0467    24.930     8.896     8.316  0.0221  0.6215  0.7831
 
              Baa    -0.0412   -22.001    -7.851    -7.339 -0.5442  0.6644  0.5122
     7 H(1)   Bbb    -0.0055    -2.929    -1.045    -0.977  0.8387  0.4148  0.3530
              Bcc     0.0467    24.930     8.896     8.316 -0.0221 -0.6217  0.7830
 
              Baa    -0.0001    -0.008    -0.003    -0.003  0.0000  0.0000  1.0000
     8 C(13)  Bbb    -0.0001    -0.008    -0.003    -0.003 -0.0133  0.9999 -0.0000
              Bcc     0.0001     0.016     0.006     0.005  0.9999  0.0133 -0.0000
 
              Baa    -0.0001    -0.012    -0.004    -0.004 -0.0000  0.0000  1.0000
     9 C(13)  Bbb    -0.0001    -0.011    -0.004    -0.004  0.1010  0.9949 -0.0000
              Bcc     0.0002     0.023     0.008     0.008  0.9949 -0.1010  0.0000
 
              Baa    -0.0001    -0.018    -0.007    -0.006 -0.0000  0.0001  1.0000
    10 C(13)  Bbb    -0.0001    -0.017    -0.006    -0.006 -0.0686  0.9976 -0.0001
              Bcc     0.0003     0.035     0.013     0.012  0.9976  0.0686 -0.0000
 
              Baa    -0.0002    -0.030    -0.011    -0.010 -0.0000  0.0000  1.0000
    11 C(13)  Bbb    -0.0002    -0.027    -0.010    -0.009  0.1695  0.9855 -0.0000
              Bcc     0.0004     0.057     0.020     0.019  0.9855 -0.1695  0.0000
 
              Baa    -0.0004    -0.059    -0.021    -0.020 -0.0000  0.0000  1.0000
    12 C(13)  Bbb    -0.0004    -0.051    -0.018    -0.017 -0.1914  0.9815 -0.0000
              Bcc     0.0008     0.110     0.039     0.037  0.9815  0.1914 -0.0000
 
              Baa    -0.0010    -0.138    -0.049    -0.046 -0.0000  0.0000  1.0000
    13 C(13)  Bbb    -0.0009    -0.126    -0.045    -0.042  0.3269  0.9451 -0.0000
              Bcc     0.0020     0.263     0.094     0.088  0.9451 -0.3269  0.0000
 
              Baa    -0.0017    -0.231    -0.083    -0.077  0.0000  0.0000  1.0000
    14 C(13)  Bbb    -0.0016    -0.212    -0.076    -0.071 -0.1794  0.9838 -0.0000
              Bcc     0.0033     0.443     0.158     0.148  0.9838  0.1794 -0.0000
 
              Baa    -0.0071    -0.956    -0.341    -0.319 -0.0000 -0.0000  1.0000
    15 C(13)  Bbb    -0.0068    -0.908    -0.324    -0.303  0.5191  0.8547  0.0001
              Bcc     0.0139     1.865     0.665     0.622  0.8547 -0.5191  0.0000
 
              Baa    -0.0196    -2.627    -0.937    -0.876  0.0002 -0.0009  1.0000
    16 C(13)  Bbb    -0.0195    -2.623    -0.936    -0.875 -0.2492  0.9684  0.0009
              Bcc     0.0391     5.249     1.873     1.751  0.9684  0.2492 -0.0000
 
              Baa    -0.0133    -1.781    -0.635    -0.594 -0.0000 -0.0000  1.0000
    17 C(13)  Bbb    -0.0096    -1.290    -0.460    -0.430  0.2366  0.9716  0.0000
              Bcc     0.0229     3.071     1.096     1.024  0.9716 -0.2366  0.0000
 
              Baa    -0.3408   -45.736   -16.320   -15.256 -0.6177  0.7864  0.0000
    18 C(13)  Bbb    -0.3385   -45.420   -16.207   -15.150 -0.0000 -0.0000  1.0000
              Bcc     0.6793    91.156    32.527    30.406  0.7864  0.6177  0.0000
 
              Baa    -0.0001    -0.031    -0.011    -0.010  0.0443  0.3825  0.9229
    19 H(1)   Bbb    -0.0001    -0.031    -0.011    -0.010 -0.0729  0.9226 -0.3789
              Bcc     0.0001     0.062     0.022     0.021  0.9964  0.0505 -0.0688
 
              Baa    -0.0001    -0.031    -0.011    -0.010 -0.0443 -0.3825  0.9229
    20 H(1)   Bbb    -0.0001    -0.031    -0.011    -0.010 -0.0729  0.9226  0.3788
              Bcc     0.0001     0.062     0.022     0.021  0.9964  0.0505  0.0688
 
              Baa    -0.0000    -0.026    -0.009    -0.009 -0.0000 -0.0000  1.0000
    21 H(1)   Bbb    -0.0000    -0.026    -0.009    -0.009  0.0468  0.9989  0.0000
              Bcc     0.0001     0.052     0.019     0.017  0.9989 -0.0468  0.0000
 
              Baa    -0.0001    -0.043    -0.015    -0.014 -0.0112  0.4578  0.8890
    22 H(1)   Bbb    -0.0001    -0.041    -0.015    -0.014  0.1484  0.8800 -0.4513
              Bcc     0.0002     0.084     0.030     0.028  0.9889 -0.1269  0.0778
 
              Baa    -0.0001    -0.043    -0.015    -0.014  0.0112 -0.4578  0.8890
    23 H(1)   Bbb    -0.0001    -0.041    -0.015    -0.014  0.1484  0.8800  0.4512
              Bcc     0.0002     0.084     0.030     0.028  0.9889 -0.1269 -0.0778
 
              Baa    -0.0001    -0.061    -0.022    -0.020  0.0313  0.5723  0.8195
    24 H(1)   Bbb    -0.0001    -0.058    -0.021    -0.019 -0.1160  0.8164 -0.5657
              Bcc     0.0002     0.119     0.042     0.040  0.9928  0.0774 -0.0919
 
              Baa    -0.0001    -0.061    -0.022    -0.020 -0.0313 -0.5722  0.8195
    25 H(1)   Bbb    -0.0001    -0.058    -0.021    -0.019 -0.1160  0.8164  0.5656
              Bcc     0.0002     0.119     0.042     0.040  0.9928  0.0774  0.0919
 
              Baa    -0.0002    -0.092    -0.033    -0.031  0.0007  0.5542  0.8324
    26 H(1)   Bbb    -0.0002    -0.082    -0.029    -0.027  0.2021  0.8151 -0.5429
              Bcc     0.0003     0.174     0.062     0.058  0.9794 -0.1686  0.1114
 
              Baa    -0.0002    -0.092    -0.033    -0.031 -0.0007 -0.5541  0.8324
    27 H(1)   Bbb    -0.0002    -0.082    -0.029    -0.027  0.2021  0.8152  0.5428
              Bcc     0.0003     0.174     0.062     0.058  0.9794 -0.1686 -0.1114
 
              Baa    -0.0003    -0.148    -0.053    -0.050  0.0296  0.6109  0.7911
    28 H(1)   Bbb    -0.0002    -0.122    -0.044    -0.041 -0.1850  0.7812 -0.5963
              Bcc     0.0005     0.271     0.097     0.090  0.9823  0.1287 -0.1362
 
              Baa    -0.0003    -0.148    -0.053    -0.050 -0.0296 -0.6108  0.7912
    29 H(1)   Bbb    -0.0002    -0.122    -0.044    -0.041 -0.1850  0.7812  0.5962
              Bcc     0.0005     0.271     0.097     0.090  0.9823  0.1287  0.1362
 
              Baa    -0.0005    -0.265    -0.095    -0.088 -0.0216 -0.6331  0.7738
    30 H(1)   Bbb    -0.0003    -0.182    -0.065    -0.061  0.3229  0.7281  0.6047
              Bcc     0.0008     0.447     0.159     0.149  0.9462 -0.2629 -0.1887
 
              Baa    -0.0005    -0.265    -0.095    -0.088  0.0216  0.6331  0.7738
    31 H(1)   Bbb    -0.0003    -0.182    -0.065    -0.061  0.3229  0.7280 -0.6047
              Bcc     0.0008     0.447     0.159     0.149  0.9462 -0.2629  0.1887
 
              Baa    -0.0009    -0.492    -0.175    -0.164 -0.0745 -0.5610  0.8244
    32 H(1)   Bbb    -0.0007    -0.348    -0.124    -0.116 -0.3013  0.8008  0.5177
              Bcc     0.0016     0.840     0.300     0.280  0.9506  0.2098  0.2287
 
              Baa    -0.0009    -0.492    -0.175    -0.164  0.0745  0.5611  0.8244
    33 H(1)   Bbb    -0.0007    -0.348    -0.124    -0.116 -0.3013  0.8007 -0.5177
              Bcc     0.0016     0.840     0.300     0.280  0.9506  0.2098 -0.2287
 
              Baa    -0.0020    -1.049    -0.374    -0.350 -0.0985 -0.6715  0.7344
    34 H(1)   Bbb    -0.0008    -0.409    -0.146    -0.136  0.5206  0.5941  0.6131
              Bcc     0.0027     1.458     0.520     0.486  0.8481 -0.4428 -0.2911
 
              Baa    -0.0020    -1.049    -0.374    -0.350  0.0985  0.6716  0.7343
    35 H(1)   Bbb    -0.0008    -0.409    -0.146    -0.136 -0.5207 -0.5941  0.6132
              Bcc     0.0027     1.458     0.520     0.486  0.8481 -0.4427  0.2911
 
              Baa    -0.0055    -2.948    -1.052    -0.983  0.1446  0.6273  0.7652
    36 H(1)   Bbb    -0.0025    -1.327    -0.473    -0.443 -0.5629  0.6881 -0.4578
              Bcc     0.0080     4.274     1.525     1.426  0.8138  0.3646 -0.4526
 
              Baa    -0.0055    -2.948    -1.052    -0.983 -0.1446 -0.6273  0.7652
    37 H(1)   Bbb    -0.0025    -1.327    -0.473    -0.443 -0.5629  0.6882  0.4578
              Bcc     0.0080     4.275     1.525     1.426  0.8138  0.3646  0.4526
 
              Baa    -0.0078    -4.156    -1.483    -1.386 -0.2860  0.2452  0.9263
    38 H(1)   Bbb    -0.0040    -2.156    -0.769    -0.719  0.6130  0.7898 -0.0199
              Bcc     0.0118     6.312     2.252     2.106  0.7365 -0.5621  0.3762
 
              Baa    -0.0078    -4.156    -1.483    -1.386  0.2859 -0.2452  0.9263
    39 H(1)   Bbb    -0.0040    -2.156    -0.769    -0.719  0.6130  0.7898  0.0199
              Bcc     0.0118     6.312     2.252     2.106  0.7365 -0.5622 -0.3762
 
              Baa    -0.0413   -22.051    -7.868    -7.355 -0.5379  0.6679 -0.5144
    40 H(1)   Bbb    -0.0052    -2.794    -0.997    -0.932  0.8427  0.4104 -0.3484
              Bcc     0.0466    24.845     8.865     8.287  0.0216  0.6209  0.7836
 
              Baa    -0.0413   -22.051    -7.868    -7.355 -0.5379  0.6679  0.5143
    41 H(1)   Bbb    -0.0052    -2.794    -0.997    -0.932  0.8427  0.4104  0.3484
              Bcc     0.0466    24.845     8.865     8.287 -0.0216 -0.6209  0.7836
 
              Baa    -0.1129   -60.233   -21.493   -20.092 -0.5910  0.8067  0.0001
    42 H(1)   Bbb    -0.1126   -60.080   -21.438   -20.041  0.0000 -0.0001  1.0000
              Bcc     0.2255   120.314    42.931    40.132  0.8067  0.5910  0.0000
 

 ---------------------------------------------------------------------------------

 No NMR shielding tensors so no spin-rotation constants.
 Leave Link  601 at Mon Mar  6 07:49:30 2023, MaxMem=  1879048192 cpu:               2.1 elap:               0.3
 (Enter /home/gridsan/groups/GRPAPI/Software/g16/l9999.exe)

 Test job not archived.
 1\1\GINC-C-16-4-2\Scan\UB3LYP\6-311G(2d,d,p)\C13H29(2)\ALONGD\06-Mar-2
 023\0\\#P opt=(ts, modredundant, calcfc, noeigentest, maxStep=5) scf=(
 tight, direct) integral=(grid=ultrafine, Acc2E=12) guess=read ub3lyp/c
 bsb7 IOp(2/9=2000) scf=xqc\\TS0\\0,2\C,0.3648525853,4.0573253867,7.267
 8173091\C,-0.1797832343,2.827504415,6.5765981958\H,1.4579911378,4.0863
 14909,7.2321724271\H,0.075478576,4.0894653795,8.3259310923\H,-0.007563
 0634,4.9757875727,6.8043559168\H,0.2261242551,1.8812793021,6.936763344
 4\H,-1.2672091136,2.787639408,6.5008551042\C,-0.2045607894,-3.71698134
 81,-6.9486721224\C,-0.5898342879,-3.6397510083,-5.4685690125\C,-0.0402
 061721,-2.3949880033,-4.762493681\C,-0.4208200874,-2.3090506438,-3.280
 228681\C,0.1291854488,-1.0640365705,-2.5749340777\C,-0.2516746172,-0.9
 784411608,-1.0925048923\C,0.2984277938,0.2666938181,-0.387307814\C,-0.
 0825742279,0.3520445283,1.0951536898\C,0.4681678535,1.5978932464,1.799
 6182742\C,0.0826974455,1.6789639776,3.288573358\C,0.6233857713,2.90663
 01761,3.989634817\H,0.8826122385,-3.7396395181,-7.0736445686\H,-0.5816
 249698,-2.8505885113,-7.5011780096\H,-0.6114964276,-4.614809703,-7.422
 0033226\H,-1.6825148627,-3.6542567546,-5.3746288118\H,-0.2292770696,-4
 .5366284186,-4.9503071076\H,1.0534666267,-2.3804302787,-4.8572406541\H
 ,-0.4007728154,-1.497453008,-5.2818507739\H,-1.514442634,-2.3240330377
 ,-3.1865419267\H,-0.0601982048,-3.2070100059,-2.7619307677\H,1.2227760
 877,-1.0490417631,-2.6686125495\H,-0.2314268726,-0.1660957021,-3.09320
 2371\H,0.1089705067,-1.876349399,-0.5741991974\H,-1.3452652751,-0.9933
 890662,-0.9987978573\H,-0.0622504629,1.1645956781,-0.9055184953\H,1.39
 19858037,0.2816447118,-0.4809354407\H,0.2783675175,-0.5455132848,1.613
 8011023\H,-1.1761191031,0.3375810941,1.1891460517\H,1.5615129656,1.614
 1682478,1.7100470984\H,0.1070133676,2.49725537,1.2854134475\H,-1.01115
 47661,1.6594515806,3.371397628\H,0.4440580915,0.7759413064,3.796236787
 9\H,0.2176827178,3.8540741957,3.6295786555\H,1.7117190402,2.9470258403
 ,4.0656917853\H,0.2199392264,2.8641860415,5.2835000497\\Version=ES64L-
 G16RevB.01\State=2-A\HF=-512.9331155,-512.9329914,-512.9326371,-512.93
 21038,-512.9314753,-512.9308578,-512.9303636,-512.9300893,-512.9300905
 ,-512.9303656,-512.9308569,-512.9314681,-512.93209,-512.9326206,-512.9
 329798,-512.9331152,-512.933004,-512.9326581,-512.9321246,-512.9314869
 ,-512.9308568,-512.930355,-512.9300839,-512.9300988,-512.9303918,-512.
 9308972,-512.9315129,-512.9321288,-512.9326463,-512.9329906,-512.93311
 54,-512.9330024,-512.932665,-512.9321476,-512.9315264,-512.9309032,-51
 2.9303922,-512.9300978,-512.9300851,-512.9303575,-512.9308553,-512.931
 4763,-512.9321057,-512.9326381,-512.9329916,-512.9331155\S2=0.757087,0
 .757071,0.757059,0.757052,0.757052,0.757059,0.757073,0.757091,0.757109
 ,0.757124,0.757133,0.757134,0.757128,0.757117,0.757103,0.757087,0.7570
 73,0.757061,0.757054,0.757054,0.757061,0.757075,0.757092,0.75711,0.757
 123,0.757131,0.757131,0.757125,0.757115,0.757102,0.757087,0.757072,0.7
 5706,0.757052,0.75705,0.757056,0.757069,0.757089,0.75711,0.757127,0.75
 7137,0.757137,0.75713,0.757118,0.757103,0.757086\S2-1=0.,0.,0.,0.,0.,0
 .,0.,0.,0.,0.,0.,0.,0.,0.,0.,0.,0.,0.,0.,0.,0.,0.,0.,0.,0.,0.,0.,0.,0.
 ,0.,0.,0.,0.,0.,0.,0.,0.,0.,0.,0.,0.,0.,0.,0.,0.,0.\S2A=0.750026,0.750
 026,0.750026,0.750026,0.750026,0.750026,0.750027,0.750027,0.750027,0.7
 50027,0.750027,0.750027,0.750027,0.750027,0.750026,0.750026,0.750026,0
 .750026,0.750026,0.750026,0.750026,0.750027,0.750027,0.750027,0.750027
 ,0.750027,0.750027,0.750027,0.750027,0.750026,0.750026,0.750026,0.7500
 26,0.750026,0.750026,0.750026,0.750027,0.750027,0.750027,0.750027,0.75
 0027,0.750027,0.750027,0.750027,0.750026,0.750026\RMSD=7.732e-09,2.418
 e-09,9.909e-09,2.721e-09,9.622e-09,8.165e-09,5.904e-09,4.202e-09,4.379
 e-09,5.282e-09,3.597e-09,6.650e-09,5.969e-09,9.477e-09,2.820e-09,2.253
 e-09,4.843e-09,1.958e-09,5.893e-09,3.311e-09,7.597e-09,7.478e-09,7.368
 e-09,5.250e-09,3.778e-09,3.017e-09,4.888e-09,6.918e-09,8.192e-09,1.766
 e-09,4.855e-09,2.249e-09,6.989e-09,2.444e-09,7.971e-09,8.211e-09,3.504
 e-09,6.828e-09,4.936e-09,6.272e-09,5.104e-09,3.051e-09,5.983e-09,6.252
 e-09,2.519e-09,9.991e-09\PG=C01 [X(C13H29)]\\@


 THERE ARE PEOPLE SO ADDICTED TO EXAGERATING THEY
 CAN'T TELL THE TRUTH WITHOUT LYING. -- FORTUNE COOKIE
 Job cpu time:       1 days 17 hours 31 minutes 47.8 seconds.
 Elapsed time:       0 days  5 hours 12 minutes 57.3 seconds.
 File lengths (MBytes):  RWF=   1206 Int=      0 D2E=      0 Chk=     78 Scr=      1
 Normal termination of Gaussian 16 at Mon Mar  6 07:49:31 2023.
