 Entering Gaussian System, Link 0=g16
 Initial command:
 /opt/g16/l1.exe "/scratch/alongd/g16/a4381-34555/Gau-7284.inp" -scrdir="/scratch/alongd/g16/a4381-34555/"
 Entering Link 1 = /opt/g16/l1.exe PID=      7286.
  
 Copyright (c) 1988-2017, Gaussian, Inc.  All Rights Reserved.
  
 This is part of the Gaussian(R) 16 program.  It is based on
 the Gaussian(R) 09 system (copyright 2009, Gaussian, Inc.),
 the Gaussian(R) 03 system (copyright 2003, Gaussian, Inc.),
 the Gaussian(R) 98 system (copyright 1998, Gaussian, Inc.),
 the Gaussian(R) 94 system (copyright 1995, Gaussian, Inc.),
 the Gaussian 92(TM) system (copyright 1992, Gaussian, Inc.),
 the Gaussian 90(TM) system (copyright 1990, Gaussian, Inc.),
 the Gaussian 88(TM) system (copyright 1988, Gaussian, Inc.),
 the Gaussian 86(TM) system (copyright 1986, Carnegie Mellon
 University), and the Gaussian 82(TM) system (copyright 1983,
 Carnegie Mellon University). Gaussian is a federally registered
 trademark of Gaussian, Inc.
  
 This software contains proprietary and confidential information,
 including trade secrets, belonging to Gaussian, Inc.
  
 This software is provided under written license and may be
 used, copied, transmitted, or stored only in accord with that
 written license.
  
 The following legend is applicable only to US Government
 contracts under FAR:
  
                    RESTRICTED RIGHTS LEGEND
  
 Use, reproduction and disclosure by the US Government is
 subject to restrictions as set forth in subparagraphs (a)
 and (c) of the Commercial Computer Software - Restricted
 Rights clause in FAR 52.227-19.
  
 Gaussian, Inc.
 340 Quinnipiac St., Bldg. 40, Wallingford CT 06492
  
  
 ---------------------------------------------------------------
 Warning -- This program may not be used in any manner that
 competes with the business of Gaussian, Inc. or will provide
 assistance to any competitor of Gaussian, Inc.  The licensee
 of this program is prohibited from giving any competitor of
 Gaussian, Inc. access to this program.  By using this program,
 the user acknowledges that Gaussian, Inc. is engaged in the
 business of creating and licensing software in the field of
 computational chemistry and represents and warrants to the
 licensee that it is not a competitor of Gaussian, Inc. and that
 it will not use this program in any manner prohibited above.
 ---------------------------------------------------------------
  

 Cite this work as:
 Gaussian 16, Revision B.01,
 M. J. Frisch, G. W. Trucks, H. B. Schlegel, G. E. Scuseria, 
 M. A. Robb, J. R. Cheeseman, G. Scalmani, V. Barone, 
 G. A. Petersson, H. Nakatsuji, X. Li, M. Caricato, A. V. Marenich, 
 J. Bloino, B. G. Janesko, R. Gomperts, B. Mennucci, H. P. Hratchian, 
 J. V. Ortiz, A. F. Izmaylov, J. L. Sonnenberg, D. Williams-Young, 
 F. Ding, F. Lipparini, F. Egidi, J. Goings, B. Peng, A. Petrone, 
 T. Henderson, D. Ranasinghe, V. G. Zakrzewski, J. Gao, N. Rega, 
 G. Zheng, W. Liang, M. Hada, M. Ehara, K. Toyota, R. Fukuda, 
 J. Hasegawa, M. Ishida, T. Nakajima, Y. Honda, O. Kitao, H. Nakai, 
 T. Vreven, K. Throssell, J. A. Montgomery, Jr., J. E. Peralta, 
 F. Ogliaro, M. J. Bearpark, J. J. Heyd, E. N. Brothers, K. N. Kudin, 
 V. N. Staroverov, T. A. Keith, R. Kobayashi, J. Normand, 
 K. Raghavachari, A. P. Rendell, J. C. Burant, S. S. Iyengar, 
 J. Tomasi, M. Cossi, J. M. Millam, M. Klene, C. Adamo, R. Cammi, 
 J. W. Ochterski, R. L. Martin, K. Morokuma, O. Farkas, 
 J. B. Foresman, and D. J. Fox, Gaussian, Inc., Wallingford CT, 2016.
 
 ******************************************
 Gaussian 16:  ES64L-G16RevB.01 20-Dec-2017
                 2-Mar-2020 
 ******************************************
 %chk=check.chk
 %mem=14336mb
 %NProcShared=36
 Will use up to   36 processors via shared memory.
 ----------------------------------------------------------------------
 #P opt=(tight) guess=read uwb97xd/def2tzvp scf=(tight, direct) integra
 l=(grid=ultrafine, Acc2E=12) scf=xqc iop(2/9=2000)
 ----------------------------------------------------------------------
 1/7=10,18=20,19=15,26=4,38=1/1,3;
 2/9=2000,12=2,17=6,18=5,40=1/2;
 3/5=44,7=101,11=2,25=1,27=12,30=1,71=1,74=-58,75=-5,116=2/1,2,3;
 4/5=1/1;
 5/5=2,8=3,13=1,32=2,38=6,87=12/2,8;
 6/7=2,8=2,9=2,10=2,28=1,87=12/1;
 7/87=12/1,2,3,16;
 1/7=10,18=20,19=15,26=4/3(2);
 2/9=2000/2;
 99//99;
 2/9=2000/2;
 3/5=44,7=101,11=2,25=1,27=12,30=1,71=1,74=-58,75=-5,116=2/1,2,3;
 4/5=5,16=3,69=1/1;
 5/5=2,8=3,13=1,32=2,38=5,87=12/2,8;
 7/87=12/1,2,3,16;
 1/7=10,18=20,19=15,26=4/3(-5);
 2/9=2000/2;
 6/7=2,8=2,9=2,10=2,19=2,28=1,87=12/1;
 99/9=1/99;
 Leave Link    1 at Mon Mar  2 00:26:52 2020, MaxMem=  1879048192 cpu:               4.6 elap:               0.2
 (Enter /opt/g16/l101.exe)
 ----
 name
 ----
 Symbolic Z-matrix:
 Charge =  0 Multiplicity = 3
 N                     2.40183  -0.98141   0.04137 
 C                     0.07224  -1.48545  -0.06342 
 C                     1.15253  -0.54285   0.01666 
 C                    -1.23312  -1.06625  -0.09098 
 C                    -1.5573    0.29683  -0.0419 
 C                    -0.5446    1.26015   0.0367 
 C                     0.73657   0.80548   0.06183 
 H                     0.33728  -2.53483  -0.10065 
 H                    -2.02934  -1.79693  -0.15159 
 H                    -2.59372   0.60921  -0.06469 
 H                    -0.78343   2.31575   0.07514 
 H                     3.03699  -0.18557   0.09919 
 
 ITRead=  0  0  0  0  0  0  0  0  0  0  0  0
 MicOpt= -1 -1 -1 -1 -1 -1 -1 -1 -1 -1 -1 -1
 NAtoms=     12 NQM=       12 NQMF=       0 NMMI=      0 NMMIF=      0
                NMic=       0 NMicF=      0.
                    Isotopes and Nuclear Properties:
 (Nuclear quadrupole moments (NQMom) in fm**2, nuclear magnetic moments (NMagM)
  in nuclear magnetons)

  Atom         1           2           3           4           5           6           7           8           9          10
 IAtWgt=          14          12          12          12          12          12          12           1           1           1
 AtmWgt=  14.0030740  12.0000000  12.0000000  12.0000000  12.0000000  12.0000000  12.0000000   1.0078250   1.0078250   1.0078250
 NucSpn=           2           0           0           0           0           0           0           1           1           1
 AtZEff=  -0.0000000  -0.0000000  -0.0000000  -0.0000000  -0.0000000  -0.0000000  -0.0000000  -0.0000000  -0.0000000  -0.0000000
 NQMom=    2.0440000   0.0000000   0.0000000   0.0000000   0.0000000   0.0000000   0.0000000   0.0000000   0.0000000   0.0000000
 NMagM=    0.4037610   0.0000000   0.0000000   0.0000000   0.0000000   0.0000000   0.0000000   2.7928460   2.7928460   2.7928460
 AtZNuc=   7.0000000   6.0000000   6.0000000   6.0000000   6.0000000   6.0000000   6.0000000   1.0000000   1.0000000   1.0000000

  Atom        11          12
 IAtWgt=           1           1
 AtmWgt=   1.0078250   1.0078250
 NucSpn=           1           1
 AtZEff=  -0.0000000  -0.0000000
 NQMom=    0.0000000   0.0000000
 NMagM=    2.7928460   2.7928460
 AtZNuc=   1.0000000   1.0000000
 Leave Link  101 at Mon Mar  2 00:26:52 2020, MaxMem=  1879048192 cpu:              20.8 elap:               0.7
 (Enter /opt/g16/l103.exe)

 GradGradGradGradGradGradGradGradGradGradGradGradGradGradGradGradGradGrad
 Berny optimization.
 Initialization pass.
                           ----------------------------
                           !    Initial Parameters    !
                           ! (Angstroms and Degrees)  !
 --------------------------                            --------------------------
 ! Name  Definition              Value          Derivative Info.                !
 --------------------------------------------------------------------------------
 ! R1    R(1,3)                  1.3243         estimate D2E/DX2                !
 ! R2    R(1,12)                 1.0199         estimate D2E/DX2                !
 ! R3    R(2,3)                  1.4359         estimate D2E/DX2                !
 ! R4    R(2,4)                  1.3713         estimate D2E/DX2                !
 ! R5    R(2,8)                  1.083          estimate D2E/DX2                !
 ! R6    R(3,7)                  1.4118         estimate D2E/DX2                !
 ! R7    R(4,5)                  1.402          estimate D2E/DX2                !
 ! R8    R(4,9)                  1.0824         estimate D2E/DX2                !
 ! R9    R(5,6)                  1.3999         estimate D2E/DX2                !
 ! R10   R(5,10)                 1.0827         estimate D2E/DX2                !
 ! R11   R(6,7)                  1.3597         estimate D2E/DX2                !
 ! R12   R(6,11)                 1.083          estimate D2E/DX2                !
 ! A1    A(3,1,12)             109.2792         estimate D2E/DX2                !
 ! A2    A(3,2,4)              121.1044         estimate D2E/DX2                !
 ! A3    A(3,2,8)              116.9918         estimate D2E/DX2                !
 ! A4    A(4,2,8)              121.9038         estimate D2E/DX2                !
 ! A5    A(1,3,2)              119.5633         estimate D2E/DX2                !
 ! A6    A(1,3,7)              126.4167         estimate D2E/DX2                !
 ! A7    A(2,3,7)              114.02           estimate D2E/DX2                !
 ! A8    A(2,4,5)              121.1069         estimate D2E/DX2                !
 ! A9    A(2,4,9)              119.6703         estimate D2E/DX2                !
 ! A10   A(5,4,9)              119.2228         estimate D2E/DX2                !
 ! A11   A(4,5,6)              120.2476         estimate D2E/DX2                !
 ! A12   A(4,5,10)             120.0745         estimate D2E/DX2                !
 ! A13   A(6,5,10)             119.678          estimate D2E/DX2                !
 ! A14   A(5,6,7)              116.9084         estimate D2E/DX2                !
 ! A15   A(5,6,11)             120.8778         estimate D2E/DX2                !
 ! A16   A(7,6,11)             122.2138         estimate D2E/DX2                !
 ! A17   A(3,7,6)              126.6127         estimate D2E/DX2                !
 ! D1    D(12,1,3,2)           180.0            estimate D2E/DX2                !
 ! D2    D(12,1,3,7)             0.0            estimate D2E/DX2                !
 ! D3    D(4,2,3,1)           -180.0            estimate D2E/DX2                !
 ! D4    D(4,2,3,7)              0.0            estimate D2E/DX2                !
 ! D5    D(8,2,3,1)              0.0001         estimate D2E/DX2                !
 ! D6    D(8,2,3,7)           -180.0            estimate D2E/DX2                !
 ! D7    D(3,2,4,5)              0.0            estimate D2E/DX2                !
 ! D8    D(3,2,4,9)           -180.0            estimate D2E/DX2                !
 ! D9    D(8,2,4,5)            180.0            estimate D2E/DX2                !
 ! D10   D(8,2,4,9)              0.0            estimate D2E/DX2                !
 ! D11   D(1,3,7,6)            179.9999         estimate D2E/DX2                !
 ! D12   D(2,3,7,6)              0.0            estimate D2E/DX2                !
 ! D13   D(2,4,5,6)              0.0            estimate D2E/DX2                !
 ! D14   D(2,4,5,10)          -180.0            estimate D2E/DX2                !
 ! D15   D(9,4,5,6)            180.0            estimate D2E/DX2                !
 ! D16   D(9,4,5,10)             0.0            estimate D2E/DX2                !
 ! D17   D(4,5,6,7)             -0.0001         estimate D2E/DX2                !
 ! D18   D(4,5,6,11)           180.0            estimate D2E/DX2                !
 ! D19   D(10,5,6,7)           180.0            estimate D2E/DX2                !
 ! D20   D(10,5,6,11)            0.0            estimate D2E/DX2                !
 ! D21   D(5,6,7,3)              0.0            estimate D2E/DX2                !
 ! D22   D(11,6,7,3)          -180.0            estimate D2E/DX2                !
 --------------------------------------------------------------------------------
 Trust Radius=3.00D-01 FncErr=1.00D-07 GrdErr=1.00D-06 EigMax=2.50D+02 EigMin=1.00D-04
 Number of steps in this run=     61 maximum allowed number of steps=    100.
 GradGradGradGradGradGradGradGradGradGradGradGradGradGradGradGradGradGrad

 Leave Link  103 at Mon Mar  2 00:26:52 2020, MaxMem=  1879048192 cpu:               2.0 elap:               0.1
 (Enter /opt/g16/l202.exe)
                          Input orientation:                          
 ---------------------------------------------------------------------
 Center     Atomic      Atomic             Coordinates (Angstroms)
 Number     Number       Type             X           Y           Z
 ---------------------------------------------------------------------
      1          7           0        2.401828   -0.981405    0.041374
      2          6           0        0.072238   -1.485448   -0.063418
      3          6           0        1.152533   -0.542851    0.016660
      4          6           0       -1.233117   -1.066245   -0.090975
      5          6           0       -1.557300    0.296831   -0.041904
      6          6           0       -0.544603    1.260147    0.036702
      7          6           0        0.736571    0.805478    0.061829
      8          1           0        0.337282   -2.534828   -0.100648
      9          1           0       -2.029344   -1.796931   -0.151592
     10          1           0       -2.593724    0.609209   -0.064692
     11          1           0       -0.783427    2.315751    0.075136
     12          1           0        3.036991   -0.185574    0.099187
 ---------------------------------------------------------------------
                    Distance matrix (angstroms):
                    1          2          3          4          5
     1  N    0.000000
     2  C    2.385798   0.000000
     3  C    1.324265   1.435945   0.000000
     4  C    3.638343   1.371292   2.444760   0.000000
     5  C    4.161192   2.415031   2.837550   1.401955   0.000000
     6  C    3.702166   2.815814   2.476181   2.429496   1.399897
     7  C    2.442632   2.388591   1.411756   2.721464   2.351877
     8  H    2.587594   1.082974   2.155543   2.150112   3.407519
     9  H    4.509723   2.126369   3.424232   1.082383   2.149115
    10  H    5.243743   3.390419   3.920243   2.158492   1.082716
    11  H    4.584564   3.898778   3.452965   3.415803   2.165321
    12  H    1.019863   3.241276   1.919802   4.364123   4.621702
                    6          7          8          9         10
     6  C    0.000000
     7  C    1.359692   0.000000
     8  H    3.898515   3.368008   0.000000
     9  H    3.403768   3.803731   2.479517   0.000000
    10  H    2.152417   3.338472   4.298495   2.472971   0.000000
    11  H    1.082965   2.142778   4.981466   4.303239   2.491789
    12  H    3.862878   2.505097   3.584321   5.322322   5.688892
                   11         12
    11  H    0.000000
    12  H    4.566486   0.000000
 Stoichiometry    C6H5N(3)
 Framework group  C1[X(C6H5N)]
 Deg. of freedom    30
 Full point group                 C1      NOp   1
 Largest Abelian subgroup         C1      NOp   1
 Largest concise Abelian subgroup C1      NOp   1
                         Standard orientation:                         
 ---------------------------------------------------------------------
 Center     Atomic      Atomic             Coordinates (Angstroms)
 Number     Number       Type             X           Y           Z
 ---------------------------------------------------------------------
      1          7           0        2.375629   -0.030694    0.000000
      2          6           0        0.318815    1.178251    0.000000
      3          6           0        1.051618   -0.056634   -0.000000
      4          6           0       -1.052440    1.188273    0.000000
      5          6           0       -1.785494   -0.006763   -0.000000
      6          6           0       -1.123394   -1.240187    0.000000
      7          6           0        0.235938   -1.208902   -0.000000
      8          1           0        0.897865    2.093419   -0.000000
      9          1           0       -1.581342    2.132634   -0.000000
     10          1           0       -2.867863    0.020656   -0.000001
     11          1           0       -1.679466   -2.169487    0.000001
     12          1           0        2.731151   -0.986584    0.000000
 ---------------------------------------------------------------------
 Rotational constants (GHZ):           5.9908854           2.7647161           1.8917144
 Leave Link  202 at Mon Mar  2 00:26:52 2020, MaxMem=  1879048192 cpu:               3.7 elap:               0.1
 (Enter /opt/g16/l301.exe)
 Standard basis: def2TZVP (5D, 7F)
 Ernie: Thresh=  0.10000D-02 Tol=  0.10000D-05 Strict=F.
 There are   282 symmetry adapted cartesian basis functions of A   symmetry.
 There are   247 symmetry adapted basis functions of A   symmetry.
   247 basis functions,   397 primitive gaussians,   282 cartesian basis functions
    25 alpha electrons       23 beta electrons
       nuclear repulsion energy       251.5553582230 Hartrees.
 IExCor= 4639 DFT=T Ex+Corr=wB97XD ExCW=0 ScaHFX=  1.000000
 ScaDFX=  1.000000  1.000000  1.000000  1.000000 ScalE2=  1.000000  1.000000
 IRadAn=      5 IRanWt=     -1 IRanGd=            0 ICorTp=0 IEmpDi=121
 HFx  wShort=  0.000000 wLong=  0.200000 cFull=  0.222036 cShort=  0.000000 cLong=  0.777964
 DFx  wShort=  0.000000 wLong=  0.200000 cFull=  0.000000 cShort=  0.000000 cLong=  1.000000
 NAtoms=   12 NActive=   12 NUniq=   12 SFac= 1.00D+00 NAtFMM=   60 NAOKFM=F Big=F
 Integral buffers will be    131072 words long.
 Raffenetti 2 integral format.
 Two-electron integral symmetry is turned on.
 R6Disp:  Grimme-D2 Dispersion energy=       -0.0040870269 Hartrees.
 Nuclear repulsion after empirical dispersion term =      251.5512711960 Hartrees.
 Leave Link  301 at Mon Mar  2 00:26:53 2020, MaxMem=  1879048192 cpu:               3.2 elap:               0.1
 (Enter /opt/g16/l302.exe)
 NPDir=0 NMtPBC=     1 NCelOv=     1 NCel=       1 NClECP=     1 NCelD=      1
         NCelK=      1 NCelE2=     1 NClLst=     1 CellRange=     0.0.
 One-electron integrals computed using PRISM.
 One-electron integral symmetry used in STVInt
   1 Symmetry operations used in ECPInt.
 ECPInt:  NShTT=    4753 NPrTT=   14704 LenC2=    4696 LenP2D=   11982.
 LDataN:  DoStor=T MaxTD1= 6 Len=  172
 NBasis=   247 RedAO= T EigKep=  1.67D-05  NBF=   247
 NBsUse=   247 1.00D-06 EigRej= -1.00D+00 NBFU=   247
 Precomputing XC quadrature grid using
 IXCGrd= 4 IRadAn=           5 IRanWt=          -1 IRanGd=           0 AccXCQ= 1.00D-12.
 Generated NRdTot=       0 NPtTot=           0 NUsed=           0 NTot=          32
 NSgBfM=   281   281   281   281   281 MxSgAt=    12 MxSgA2=    12.
 Leave Link  302 at Mon Mar  2 00:26:56 2020, MaxMem=  1879048192 cpu:             115.9 elap:               3.4
 (Enter /opt/g16/l303.exe)
 DipDrv:  MaxL=1.
 Leave Link  303 at Mon Mar  2 00:26:56 2020, MaxMem=  1879048192 cpu:              14.4 elap:               0.5
 (Enter /opt/g16/l401.exe)
 Initial guess from the checkpoint file:  "check.chk"
 B after Tr=     0.000000   -0.000000    0.000000
         Rot=    1.000000    0.000000    0.000000    0.000000 Ang=   0.00 deg.
 Guess basis will be translated and rotated to current coordinates.
 JPrj=2 DoOrth=T DoCkMO=T.
 Initial guess <Sx>= 0.0000 <Sy>= 0.0000 <Sz>= 1.0000 <S**2>= 2.0820 S= 1.0271
 Leave Link  401 at Mon Mar  2 00:27:00 2020, MaxMem=  1879048192 cpu:             130.8 elap:               4.0
 (Enter /opt/g16/l502.exe)
 Integral symmetry usage will be decided dynamically.
 UHF open shell SCF:
 Using DIIS extrapolation, IDIIS=  1040.
 NGot=  1879048192 LenX=  1878876442 LenY=  1878796477
 Requested convergence on RMS density matrix=1.00D-08 within  32 cycles.
 Requested convergence on MAX density matrix=1.00D-06.
 Requested convergence on             energy=1.00D-06.
 No special actions if energy rises.
 Fock matrices will be formed incrementally for  20 cycles.

 Cycle   1  Pass 1  IDiag  1:
 FoFJK:  IHMeth= 1 ICntrl=       0 DoSepK=T KAlg= 0 I1Cent=           0 FoldK=F
 IRaf=         1 NMat=       1 IRICut=       1 DoRegI=T DoRafI=F ISym2E= 0 IDoP0=0 IntGTp=1.
 FoFCou: FMM=F IPFlag=           0 FMFlag=      100000 FMFlg1=           0
         NFxFlg=           0 DoJE=T BraDBF=F KetDBF=F FulRan=T
         wScrn=  0.000000 ICntrl=       500 IOpCl=  0 I1Cent=           0 NGrid=           0
         NMat0=    1 NMatS0=      1 NMatT0=    0 NMatD0=    1 NMtDS0=    0 NMtDT0=    0
 Symmetry not used in FoFCou.
 E= -286.265113929733    
 DIIS: error= 6.11D-08 at cycle   1 NSaved=   1.
 NSaved= 1 IEnMin= 1 EnMin= -286.265113929733     IErMin= 1 ErrMin= 6.11D-08
 ErrMax= 6.11D-08  0.00D+00 EMaxC= 1.00D-01 BMatC= 3.58D-12 BMatP= 3.58D-12
 IDIUse=1 WtCom= 1.00D+00 WtEn= 0.00D+00
 Coeff-Com:  0.100D+01
 Coeff:      0.100D+01
 Gap=     0.341 Goal=   None    Shift=    0.000
 Gap=     0.297 Goal=   None    Shift=    0.000
 RMSDP=9.18D-09 MaxDP=2.84D-07              OVMax= 5.88D-07

 SCF Done:  E(UwB97XD) =  -286.265113930     A.U. after    1 cycles
            NFock=  1  Conv=0.92D-08     -V/T= 2.0046
 <Sx>= 0.0000 <Sy>= 0.0000 <Sz>= 1.0000 <S**2>= 2.0820 S= 1.0271
 <L.S>= 0.000000000000E+00
 KE= 2.849431483777D+02 PE=-1.168136090907D+03 EE= 3.453765574038D+02
 Annihilation of the first spin contaminant:
 S**2 before annihilation     2.0820,   after     2.0032
 Leave Link  502 at Mon Mar  2 00:27:18 2020, MaxMem=  1879048192 cpu:             621.6 elap:              18.0
 (Enter /opt/g16/l508.exe)
 QCSCF skips out because SCF is already converged.
 Leave Link  508 at Mon Mar  2 00:27:19 2020, MaxMem=  1879048192 cpu:               2.1 elap:               0.1
 (Enter /opt/g16/l601.exe)
 Copying SCF densities to generalized density rwf, IOpCl= 1 IROHF=0.

 **********************************************************************

            Population analysis using the SCF Density.

 **********************************************************************

 Orbital symmetries:
 Alpha Orbitals:
       Occupied  (A) (A) (A) (A) (A) (A) (A) (A) (A) (A) (A) (A)
                 (A) (A) (A) (A) (A) (A) (A) (A) (A) (A) (A) (A)
                 (A)
       Virtual   (A) (A) (A) (A) (A) (A) (A) (A) (A) (A) (A) (A)
                 (A) (A) (A) (A) (A) (A) (A) (A) (A) (A) (A) (A)
                 (A) (A) (A) (A) (A) (A) (A) (A) (A) (A) (A) (A)
                 (A) (A) (A) (A) (A) (A) (A) (A) (A) (A) (A) (A)
                 (A) (A) (A) (A) (A) (A) (A) (A) (A) (A) (A) (A)
                 (A) (A) (A) (A) (A) (A) (A) (A) (A) (A) (A) (A)
                 (A) (A) (A) (A) (A) (A) (A) (A) (A) (A) (A) (A)
                 (A) (A) (A) (A) (A) (A) (A) (A) (A) (A) (A) (A)
                 (A) (A) (A) (A) (A) (A) (A) (A) (A) (A) (A) (A)
                 (A) (A) (A) (A) (A) (A) (A) (A) (A) (A) (A) (A)
                 (A) (A) (A) (A) (A) (A) (A) (A) (A) (A) (A) (A)
                 (A) (A) (A) (A) (A) (A) (A) (A) (A) (A) (A) (A)
                 (A) (A) (A) (A) (A) (A) (A) (A) (A) (A) (A) (A)
                 (A) (A) (A) (A) (A) (A) (A) (A) (A) (A) (A) (A)
                 (A) (A) (A) (A) (A) (A) (A) (A) (A) (A) (A) (A)
                 (A) (A) (A) (A) (A) (A) (A) (A) (A) (A) (A) (A)
                 (A) (A) (A) (A) (A) (A) (A) (A) (A) (A) (A) (A)
                 (A) (A) (A) (A) (A) (A) (A) (A) (A) (A) (A) (A)
                 (A) (A) (A) (A) (A) (A)
 Beta  Orbitals:
       Occupied  (A) (A) (A) (A) (A) (A) (A) (A) (A) (A) (A) (A)
                 (A) (A) (A) (A) (A) (A) (A) (A) (A) (A) (A)
       Virtual   (A) (A) (A) (A) (A) (A) (A) (A) (A) (A) (A) (A)
                 (A) (A) (A) (A) (A) (A) (A) (A) (A) (A) (A) (A)
                 (A) (A) (A) (A) (A) (A) (A) (A) (A) (A) (A) (A)
                 (A) (A) (A) (A) (A) (A) (A) (A) (A) (A) (A) (A)
                 (A) (A) (A) (A) (A) (A) (A) (A) (A) (A) (A) (A)
                 (A) (A) (A) (A) (A) (A) (A) (A) (A) (A) (A) (A)
                 (A) (A) (A) (A) (A) (A) (A) (A) (A) (A) (A) (A)
                 (A) (A) (A) (A) (A) (A) (A) (A) (A) (A) (A) (A)
                 (A) (A) (A) (A) (A) (A) (A) (A) (A) (A) (A) (A)
                 (A) (A) (A) (A) (A) (A) (A) (A) (A) (A) (A) (A)
                 (A) (A) (A) (A) (A) (A) (A) (A) (A) (A) (A) (A)
                 (A) (A) (A) (A) (A) (A) (A) (A) (A) (A) (A) (A)
                 (A) (A) (A) (A) (A) (A) (A) (A) (A) (A) (A) (A)
                 (A) (A) (A) (A) (A) (A) (A) (A) (A) (A) (A) (A)
                 (A) (A) (A) (A) (A) (A) (A) (A) (A) (A) (A) (A)
                 (A) (A) (A) (A) (A) (A) (A) (A) (A) (A) (A) (A)
                 (A) (A) (A) (A) (A) (A) (A) (A) (A) (A) (A) (A)
                 (A) (A) (A) (A) (A) (A) (A) (A) (A) (A) (A) (A)
                 (A) (A) (A) (A) (A) (A) (A) (A)
 The electronic state is 3-A.
 Alpha  occ. eigenvalues --  -14.43701 -10.33890 -10.33248 -10.31873 -10.31042
 Alpha  occ. eigenvalues --  -10.30858 -10.30333  -1.02752  -0.96213  -0.86984
 Alpha  occ. eigenvalues --   -0.83579  -0.71629  -0.70219  -0.61572  -0.59008
 Alpha  occ. eigenvalues --   -0.55955  -0.53200  -0.50498  -0.49098  -0.47169
 Alpha  occ. eigenvalues --   -0.42522  -0.37959  -0.36534  -0.34662  -0.30018
 Alpha virt. eigenvalues --    0.04123   0.06217   0.12405   0.14681   0.15415
 Alpha virt. eigenvalues --    0.17209   0.18782   0.20013   0.21592   0.25564
 Alpha virt. eigenvalues --    0.26175   0.27243   0.27341   0.29542   0.31642
 Alpha virt. eigenvalues --    0.31754   0.32433   0.32846   0.34145   0.37435
 Alpha virt. eigenvalues --    0.39782   0.39833   0.40591   0.41312   0.42596
 Alpha virt. eigenvalues --    0.44241   0.46716   0.48021   0.48061   0.48787
 Alpha virt. eigenvalues --    0.49389   0.49791   0.51293   0.53591   0.54108
 Alpha virt. eigenvalues --    0.55760   0.57351   0.57680   0.58391   0.60884
 Alpha virt. eigenvalues --    0.65686   0.68986   0.69446   0.69819   0.72286
 Alpha virt. eigenvalues --    0.75085   0.77034   0.78089   0.81084   0.81114
 Alpha virt. eigenvalues --    0.83665   0.86330   0.88281   0.91055   0.93183
 Alpha virt. eigenvalues --    0.94331   0.95820   1.06590   1.06663   1.07108
 Alpha virt. eigenvalues --    1.09970   1.13466   1.13691   1.15502   1.19703
 Alpha virt. eigenvalues --    1.23150   1.27132   1.27375   1.28543   1.29289
 Alpha virt. eigenvalues --    1.30946   1.34700   1.35070   1.36295   1.41728
 Alpha virt. eigenvalues --    1.46453   1.46958   1.47865   1.51039   1.54991
 Alpha virt. eigenvalues --    1.55945   1.56988   1.57688   1.61405   1.62875
 Alpha virt. eigenvalues --    1.63950   1.67829   1.70283   1.72846   1.73818
 Alpha virt. eigenvalues --    1.75717   1.75786   1.79407   1.84078   1.84357
 Alpha virt. eigenvalues --    1.90466   1.92263   1.94085   1.98876   2.01605
 Alpha virt. eigenvalues --    2.06963   2.07988   2.09315   2.13915   2.16163
 Alpha virt. eigenvalues --    2.19135   2.20751   2.23483   2.26920   2.30380
 Alpha virt. eigenvalues --    2.30606   2.36948   2.40617   2.40827   2.43546
 Alpha virt. eigenvalues --    2.51687   2.57698   2.60914   2.63323   2.64367
 Alpha virt. eigenvalues --    2.65811   2.66806   2.67891   2.70903   2.73673
 Alpha virt. eigenvalues --    2.75481   2.76968   2.79961   2.80858   2.82092
 Alpha virt. eigenvalues --    2.83389   2.84798   2.88555   2.89628   2.90406
 Alpha virt. eigenvalues --    2.91497   2.94660   2.95169   3.01809   3.02146
 Alpha virt. eigenvalues --    3.06787   3.10278   3.11621   3.13433   3.15491
 Alpha virt. eigenvalues --    3.18148   3.19023   3.20333   3.20801   3.27181
 Alpha virt. eigenvalues --    3.28452   3.28850   3.29984   3.34067   3.35238
 Alpha virt. eigenvalues --    3.37415   3.39338   3.40928   3.41744   3.43531
 Alpha virt. eigenvalues --    3.45062   3.47573   3.49560   3.53985   3.56939
 Alpha virt. eigenvalues --    3.56941   3.59083   3.61383   3.64317   3.69505
 Alpha virt. eigenvalues --    3.71347   3.77177   3.78565   3.86074   3.87500
 Alpha virt. eigenvalues --    3.99182   4.03084   4.03294   4.05891   4.06057
 Alpha virt. eigenvalues --    4.12013   4.14213   4.18662   4.22689   4.28729
 Alpha virt. eigenvalues --    4.29538   4.32480   4.33255   4.38208   4.42147
 Alpha virt. eigenvalues --    4.46268   4.46588   4.56180   4.64457   4.67262
 Alpha virt. eigenvalues --    4.73613   4.76484   4.81314   4.82985   4.84535
 Alpha virt. eigenvalues --    4.88245   4.93237   5.00048   5.02758   5.14404
 Alpha virt. eigenvalues --    5.22172   5.29509   5.31120   5.33581   5.40749
 Alpha virt. eigenvalues --    5.50056   5.55952   5.62626   5.72399   6.08527
 Alpha virt. eigenvalues --   22.10444  22.59805  22.65123  22.75976  22.90337
 Alpha virt. eigenvalues --   23.29469  32.12231
  Beta  occ. eigenvalues --  -14.42631 -10.34103 -10.31603 -10.31380 -10.31240
  Beta  occ. eigenvalues --  -10.30560 -10.30446  -1.00727  -0.94637  -0.85857
  Beta  occ. eigenvalues --   -0.81090  -0.70257  -0.69009  -0.60566  -0.57884
  Beta  occ. eigenvalues --   -0.54920  -0.52342  -0.48188  -0.47586  -0.46426
  Beta  occ. eigenvalues --   -0.38228  -0.35957  -0.34826
  Beta virt. eigenvalues --   -0.05086  -0.03258   0.06158   0.09079   0.12501
  Beta virt. eigenvalues --    0.15218   0.15731   0.17386   0.18938   0.20174
  Beta virt. eigenvalues --    0.22824   0.25950   0.26331   0.27334   0.27801
  Beta virt. eigenvalues --    0.29898   0.31715   0.32023   0.33040   0.34018
  Beta virt. eigenvalues --    0.34885   0.38321   0.40179   0.40304   0.40980
  Beta virt. eigenvalues --    0.41745   0.42939   0.44691   0.47128   0.48386
  Beta virt. eigenvalues --    0.48436   0.49141   0.50215   0.51114   0.51557
  Beta virt. eigenvalues --    0.54473   0.54639   0.56027   0.58052   0.58351
  Beta virt. eigenvalues --    0.59345   0.61207   0.65774   0.68941   0.70164
  Beta virt. eigenvalues --    0.70259   0.72923   0.75649   0.77867   0.79194
  Beta virt. eigenvalues --    0.81261   0.81527   0.84950   0.87195   0.89989
  Beta virt. eigenvalues --    0.91372   0.93971   0.94959   0.96182   1.07285
  Beta virt. eigenvalues --    1.07689   1.08097   1.11160   1.14428   1.14544
  Beta virt. eigenvalues --    1.16730   1.20518   1.24116   1.27811   1.28422
  Beta virt. eigenvalues --    1.28993   1.30011   1.31720   1.35655   1.35949
  Beta virt. eigenvalues --    1.36851   1.42790   1.47568   1.47637   1.50033
  Beta virt. eigenvalues --    1.52175   1.55988   1.56659   1.58004   1.58263
  Beta virt. eigenvalues --    1.62306   1.63510   1.65367   1.68526   1.70945
  Beta virt. eigenvalues --    1.73275   1.74528   1.76546   1.76809   1.80783
  Beta virt. eigenvalues --    1.84921   1.84935   1.91020   1.92915   1.95231
  Beta virt. eigenvalues --    1.99369   2.02247   2.07560   2.08472   2.10199
  Beta virt. eigenvalues --    2.14641   2.16864   2.20082   2.21731   2.24347
  Beta virt. eigenvalues --    2.27991   2.30961   2.32963   2.37841   2.41002
  Beta virt. eigenvalues --    2.41623   2.46245   2.52475   2.58363   2.61758
  Beta virt. eigenvalues --    2.64326   2.65187   2.66770   2.68457   2.68587
  Beta virt. eigenvalues --    2.71236   2.74073   2.76030   2.77828   2.80831
  Beta virt. eigenvalues --    2.81809   2.82761   2.84424   2.86424   2.89359
  Beta virt. eigenvalues --    2.90835   2.91517   2.92116   2.95264   2.96179
  Beta virt. eigenvalues --    3.03356   3.03751   3.07576   3.10946   3.12373
  Beta virt. eigenvalues --    3.14222   3.17347   3.19437   3.19742   3.21535
  Beta virt. eigenvalues --    3.22179   3.28042   3.29542   3.29801   3.30723
  Beta virt. eigenvalues --    3.35224   3.37661   3.38741   3.39954   3.43189
  Beta virt. eigenvalues --    3.43226   3.45922   3.47908   3.48268   3.50108
  Beta virt. eigenvalues --    3.54804   3.57941   3.58366   3.61250   3.62792
  Beta virt. eigenvalues --    3.65843   3.70223   3.72688   3.78777   3.80317
  Beta virt. eigenvalues --    3.87465   3.88764   3.99857   4.04050   4.04161
  Beta virt. eigenvalues --    4.06685   4.08092   4.13105   4.15587   4.19110
  Beta virt. eigenvalues --    4.23343   4.29468   4.30698   4.34269   4.35168
  Beta virt. eigenvalues --    4.40428   4.43485   4.48116   4.48167   4.58143
  Beta virt. eigenvalues --    4.65803   4.68899   4.76893   4.77819   4.82616
  Beta virt. eigenvalues --    4.85108   4.85373   4.89666   4.97002   5.01629
  Beta virt. eigenvalues --    5.05314   5.15277   5.23344   5.30955   5.33462
  Beta virt. eigenvalues --    5.34471   5.41824   5.51402   5.56625   5.63819
  Beta virt. eigenvalues --    5.73519   6.09410  22.11319  22.61038  22.65777
  Beta virt. eigenvalues --   22.76578  22.90298  23.29444  32.13620
          Condensed to atoms (all electrons):
               1          2          3          4          5          6
     1  N    6.550072  -0.063890   0.578167  -0.000637  -0.000867   0.018177
     2  C   -0.063890   4.931955   0.430400   0.540587  -0.035663  -0.023385
     3  C    0.578167   0.430400   4.699629  -0.013563  -0.040674   0.018145
     4  C   -0.000637   0.540587  -0.013563   4.867534   0.453599  -0.000227
     5  C   -0.000867  -0.035663  -0.040674   0.453599   4.906715   0.430417
     6  C    0.018177  -0.023385   0.018145  -0.000227   0.430417   5.018974
     7  C   -0.119835  -0.052662   0.383074  -0.059810   0.007881   0.364959
     8  H    0.011213   0.412225  -0.037521  -0.050856   0.010741  -0.006139
     9  H   -0.000122  -0.046537   0.009599   0.437207  -0.051594   0.009178
    10  H    0.000024   0.007804  -0.002384  -0.048127   0.429942  -0.047849
    11  H   -0.000225  -0.001162   0.003457   0.005248  -0.044090   0.414409
    12  H    0.353144   0.013249  -0.076137  -0.000074  -0.000719   0.007081
               7          8          9         10         11         12
     1  N   -0.119835   0.011213  -0.000122   0.000024  -0.000225   0.353144
     2  C   -0.052662   0.412225  -0.046537   0.007804  -0.001162   0.013249
     3  C    0.383074  -0.037521   0.009599  -0.002384   0.003457  -0.076137
     4  C   -0.059810  -0.050856   0.437207  -0.048127   0.005248  -0.000074
     5  C    0.007881   0.010741  -0.051594   0.429942  -0.044090  -0.000719
     6  C    0.364959  -0.006139   0.009178  -0.047849   0.414409   0.007081
     7  C    5.482743   0.017503  -0.003727   0.009178  -0.027696  -0.026365
     8  H    0.017503   0.510669  -0.007437  -0.000006   0.000063  -0.001560
     9  H   -0.003727  -0.007437   0.528615  -0.005863  -0.000142   0.000035
    10  H    0.009178  -0.000006  -0.005863   0.523734  -0.004198  -0.000008
    11  H   -0.027696   0.000063  -0.000142  -0.004198   0.513446  -0.000084
    12  H   -0.026365  -0.001560   0.000035  -0.000008  -0.000084   0.516174
          Atomic-Atomic Spin Densities.
               1          2          3          4          5          6
     1  N    0.681073  -0.028428  -0.005399  -0.000402   0.001246  -0.003659
     2  C   -0.028428   0.329133   0.020611  -0.006035  -0.017729   0.002434
     3  C   -0.005399   0.020611  -0.183680   0.012299  -0.004236   0.013378
     4  C   -0.000402  -0.006035   0.012299  -0.165329   0.002177   0.016312
     5  C    0.001246  -0.017729  -0.004236   0.002177   0.405263   0.019989
     6  C   -0.003659   0.002434   0.013378   0.016312   0.019989  -0.237166
     7  C   -0.025567  -0.011494   0.001942  -0.013035  -0.037711   0.012424
     8  H    0.000299  -0.000613  -0.001522  -0.002478   0.000052  -0.000098
     9  H   -0.000027  -0.001027  -0.000342   0.004265  -0.001661   0.000115
    10  H    0.000016  -0.000253   0.000105  -0.002423  -0.003007  -0.002243
    11  H    0.000087  -0.000460   0.000185  -0.000462  -0.008559   0.011235
    12  H   -0.005508   0.002224   0.006981   0.000138   0.000113  -0.000883
               7          8          9         10         11         12
     1  N   -0.025567   0.000299  -0.000027   0.000016   0.000087  -0.005508
     2  C   -0.011494  -0.000613  -0.001027  -0.000253  -0.000460   0.002224
     3  C    0.001942  -0.001522  -0.000342   0.000105   0.000185   0.006981
     4  C   -0.013035  -0.002478   0.004265  -0.002423  -0.000462   0.000138
     5  C   -0.037711   0.000052  -0.001661  -0.003007  -0.008559   0.000113
     6  C    0.012424  -0.000098   0.000115  -0.002243   0.011235  -0.000883
     7  C    1.259901   0.001733  -0.000981   0.003187  -0.008294   0.005459
     8  H    0.001733   0.002215  -0.000530   0.000087   0.000022  -0.000056
     9  H   -0.000981  -0.000530   0.007455  -0.000777  -0.000053   0.000002
    10  H    0.003187   0.000087  -0.000777  -0.000568   0.001792  -0.000004
    11  H   -0.008294   0.000022  -0.000053   0.001792   0.031187  -0.000040
    12  H    0.005459  -0.000056   0.000002  -0.000004  -0.000040  -0.019307
 Mulliken charges and spin densities:
               1          2
     1  N   -0.325220   0.613731
     2  C   -0.112922   0.288364
     3  C    0.047808  -0.139678
     4  C   -0.130880  -0.154973
     5  C   -0.065688   0.355936
     6  C   -0.203740  -0.168161
     7  C    0.024757   1.187563
     8  H    0.141104  -0.000890
     9  H    0.130788   0.006438
    10  H    0.137753  -0.004086
    11  H    0.140976   0.026638
    12  H    0.215263  -0.010882
 Sum of Mulliken charges =  -0.00000   2.00000
 Mulliken charges and spin densities with hydrogens summed into heavy atoms:
               1          2
     1  N   -0.109957   0.602850
     2  C    0.028182   0.287474
     3  C    0.047808  -0.139678
     4  C   -0.000092  -0.148535
     5  C    0.072065   0.351850
     6  C   -0.062764  -0.141523
     7  C    0.024757   1.187563
 Electronic spatial extent (au):  <R**2>=            631.3518
 Charge=             -0.0000 electrons
 Dipole moment (field-independent basis, Debye):
    X=             -2.5476    Y=             -0.5612    Z=             -0.0000  Tot=              2.6087
 Quadrupole moment (field-independent basis, Debye-Ang):
   XX=            -40.7959   YY=            -36.3065   ZZ=            -43.5502
   XY=             -2.8956   XZ=              0.0000   YZ=             -0.0000
 Traceless Quadrupole moment (field-independent basis, Debye-Ang):
   XX=             -0.5783   YY=              3.9110   ZZ=             -3.3327
   XY=             -2.8956   XZ=              0.0000   YZ=             -0.0000
 Octapole moment (field-independent basis, Debye-Ang**2):
  XXX=            -22.0312  YYY=              4.9874  ZZZ=             -0.0000  XYY=             -1.7249
  XXY=            -12.2022  XXZ=             -0.0000  XZZ=              2.2965  YZZ=             -0.0060
  YYZ=              0.0000  XYZ=              0.0000
 Hexadecapole moment (field-independent basis, Debye-Ang**3):
 XXXX=           -540.4423 YYYY=           -262.8949 ZZZZ=            -48.9846 XXXY=            -37.0348
 XXXZ=              0.0000 YYYX=              3.7080 YYYZ=             -0.0000 ZZZX=              0.0000
 ZZZY=             -0.0000 XXYY=           -118.6425 XXZZ=           -104.0249 YYZZ=            -60.9287
 XXYZ=             -0.0000 YYXZ=             -0.0000 ZZXY=             -0.9908
 N-N= 2.515512711960D+02 E-N=-1.168136092303D+03  KE= 2.849431483777D+02
                          Isotropic Fermi Contact Couplings
        Atom                 a.u.       MegaHertz       Gauss      10(-4) cm-1
     1  N(14)              0.06594      10.65253       3.80109       3.55330
     2  C(13)              0.04329      24.33330       8.68273       8.11672
     3  C(13)             -0.02730     -15.34348      -5.47493      -5.11803
     4  C(13)             -0.02481     -13.94542      -4.97607      -4.65169
     5  C(13)              0.06462      36.32287      12.96090      12.11600
     6  C(13)             -0.01094      -6.14728      -2.19350      -2.05051
     7  C(13)              0.34653     194.78514      69.50418      64.97333
     8  H(1)               0.00036       0.81151       0.28957       0.27069
     9  H(1)               0.00275       6.14292       2.19194       2.04906
    10  H(1)              -0.00209      -4.66161      -1.66338      -1.55495
    11  H(1)               0.01359      30.37597      10.83890      10.13233
    12  H(1)              -0.00928     -20.73897      -7.40018      -6.91778
 --------------------------------------------------------
       Center         ----  Spin Dipole Couplings  ----
                      3XX-RR        3YY-RR        3ZZ-RR
 --------------------------------------------------------
     1   Atom       -0.674065     -0.687193      1.361257
     2   Atom       -0.177537     -0.105759      0.283295
     3   Atom        0.108093      0.151999     -0.260092
     4   Atom        0.094131      0.090469     -0.184600
     5   Atom       -0.191286     -0.159515      0.350801
     6   Atom        0.188484      0.070976     -0.259460
     7   Atom       -0.374505      0.471967     -0.097462
     8   Atom       -0.010417      0.020424     -0.010008
     9   Atom        0.006313      0.001748     -0.008061
    10   Atom        0.034735     -0.028795     -0.005940
    11   Atom        0.026135     -0.008587     -0.017548
    12   Atom       -0.027613      0.050113     -0.022500
 --------------------------------------------------------
                        XY            XZ            YZ
 --------------------------------------------------------
     1   Atom        0.027143     -0.000001      0.000000
     2   Atom       -0.030628      0.000000     -0.000000
     3   Atom        0.052695      0.000000      0.000000
     4   Atom       -0.001696      0.000000      0.000000
     5   Atom       -0.046938     -0.000000      0.000000
     6   Atom       -0.033949     -0.000000     -0.000000
     7   Atom       -0.642016      0.000000      0.000000
     8   Atom        0.016973      0.000000     -0.000000
     9   Atom        0.004180      0.000000      0.000000
    10   Atom       -0.003939      0.000000      0.000000
    11   Atom        0.005266     -0.000000     -0.000000
    12   Atom       -0.039533     -0.000000     -0.000000
 --------------------------------------------------------


 ---------------------------------------------------------------------------------
              Anisotropic Spin Dipole Couplings in Principal Axis System
 ---------------------------------------------------------------------------------

       Atom             a.u.   MegaHertz   Gauss  10(-4) cm-1        Axes

              Baa    -0.7086   -27.327    -9.751    -9.115 -0.6184  0.7858 -0.0000
     1 N(14)  Bbb    -0.6527   -25.173    -8.982    -8.397  0.7858  0.6184  0.0000
              Bcc     1.3613    52.501    18.734    17.512 -0.0000  0.0000  1.0000
 
              Baa    -0.1888   -25.339    -9.042    -8.452  0.9383  0.3459 -0.0000
     2 C(13)  Bbb    -0.0945   -12.676    -4.523    -4.228 -0.3459  0.9383  0.0000
              Bcc     0.2833    38.016    13.565    12.681  0.0000 -0.0000  1.0000
 
              Baa    -0.2601   -34.902   -12.454   -11.642 -0.0000 -0.0000  1.0000
     3 C(13)  Bbb     0.0730     9.791     3.494     3.266  0.8320 -0.5547  0.0000
              Bcc     0.1871    25.111     8.960     8.376  0.5547  0.8320  0.0000
 
              Baa    -0.1846   -24.772    -8.839    -8.263 -0.0000 -0.0000  1.0000
     4 C(13)  Bbb     0.0898    12.051     4.300     4.020  0.3649  0.9310  0.0000
              Bcc     0.0948    12.721     4.539     4.243  0.9310 -0.3649  0.0000
 
              Baa    -0.2250   -30.187   -10.771   -10.069  0.8126  0.5829  0.0000
     5 C(13)  Bbb    -0.1258   -16.888    -6.026    -5.633 -0.5829  0.8126 -0.0000
              Bcc     0.3508    47.074    16.797    15.702 -0.0000  0.0000  1.0000
 
              Baa    -0.2595   -34.817   -12.424   -11.614  0.0000  0.0000  1.0000
     6 C(13)  Bbb     0.0619     8.303     2.963     2.769  0.2590  0.9659 -0.0000
              Bcc     0.1976    26.514     9.461     8.844  0.9659 -0.2590 -0.0000
 
              Baa    -0.7202   -96.649   -34.487   -32.239  0.8805  0.4741 -0.0000
     7 C(13)  Bbb    -0.0975   -13.078    -4.667    -4.362  0.0000  0.0000  1.0000
              Bcc     0.8177   109.727    39.153    36.601 -0.4741  0.8805 -0.0000
 
              Baa    -0.0179    -9.565    -3.413    -3.191  0.9145 -0.4047 -0.0000
     8 H(1)   Bbb    -0.0100    -5.340    -1.905    -1.781  0.0000  0.0000  1.0000
              Bcc     0.0279    14.905     5.319     4.972  0.4047  0.9145 -0.0000
 
              Baa    -0.0081    -4.301    -1.535    -1.435 -0.0000 -0.0000  1.0000
     9 H(1)   Bbb    -0.0007    -0.391    -0.139    -0.130 -0.5103  0.8600  0.0000
              Bcc     0.0088     4.692     1.674     1.565  0.8600  0.5103  0.0000
 
              Baa    -0.0290   -15.493    -5.528    -5.168  0.0616  0.9981 -0.0000
    10 H(1)   Bbb    -0.0059    -3.169    -1.131    -1.057 -0.0000  0.0000  1.0000
              Bcc     0.0350    18.663     6.659     6.225  0.9981 -0.0616  0.0000
 
              Baa    -0.0175    -9.363    -3.341    -3.123  0.0000  0.0000  1.0000
    11 H(1)   Bbb    -0.0094    -4.998    -1.784    -1.667 -0.1467  0.9892 -0.0000
              Bcc     0.0269    14.361     5.124     4.790  0.9892  0.1467 -0.0000
 
              Baa    -0.0442   -23.575    -8.412    -7.864  0.9222  0.3866  0.0000
    12 H(1)   Bbb    -0.0225   -12.005    -4.284    -4.004 -0.0000 -0.0000  1.0000
              Bcc     0.0667    35.580    12.696    11.868 -0.3866  0.9222 -0.0000
 

 ---------------------------------------------------------------------------------

 No NMR shielding tensors so no spin-rotation constants.
 Leave Link  601 at Mon Mar  2 00:27:21 2020, MaxMem=  1879048192 cpu:              72.4 elap:               2.2
 (Enter /opt/g16/l701.exe)
 ... and contract with generalized density number  0.
 Compute integral first derivatives.
 R6Disp: Adding Grimme-D2 dispersion energy 1st derivatives to the gradient.
   1 Symmetry operations used in ECPInt.
 ECPInt:  NShTT=    4753 NPrTT=   14704 LenC2=    4696 LenP2D=   11982.
 LDataN:  DoStor=T MaxTD1= 7 Len=  274
 Leave Link  701 at Mon Mar  2 00:27:23 2020, MaxMem=  1879048192 cpu:              58.2 elap:               1.8
 (Enter /opt/g16/l702.exe)
 L702 exits ... SP integral derivatives will be done elsewhere.
 Leave Link  702 at Mon Mar  2 00:27:23 2020, MaxMem=  1879048192 cpu:               3.2 elap:               0.1
 (Enter /opt/g16/l703.exe)
 Integral derivatives from FoFJK, PRISM(SPDF).
 Compute integral first derivatives, UseDBF=F ICtDFT=           0.
 Calling FoFJK, ICntrl=      2127 FMM=F ISym2X=0 I1Cent= 0 IOpClX= 1 NMat=1 NMatS=1 NMatT=0.
 FoFJK:  IHMeth= 1 ICntrl=    2127 DoSepK=T KAlg= 0 I1Cent=           0 FoldK=F
 IRaf=         1 NMat=       1 IRICut=       1 DoRegI=T DoRafI=F ISym2E= 0 IDoP0=0 IntGTp=1.
 FoFCou: FMM=F IPFlag=           0 FMFlag=      100000 FMFlg1=         800
         NFxFlg=           0 DoJE=F BraDBF=F KetDBF=F FulRan=T
         wScrn=  0.000000 ICntrl=      2527 IOpCl=  0 I1Cent=           0 NGrid=           0
         NMat0=    1 NMatS0=      1 NMatT0=    0 NMatD0=    1 NMtDS0=    0 NMtDT0=    0
 Symmetry not used in FoFCou.
 Leave Link  703 at Mon Mar  2 00:27:39 2020, MaxMem=  1879048192 cpu:             560.0 elap:              16.3
 (Enter /opt/g16/l716.exe)
 Dipole        =-1.00231732D+00-2.20795779D-01-1.97175489D-07
 ***** Axes restored to original set *****
 -------------------------------------------------------------------
 Center     Atomic                   Forces (Hartrees/Bohr)
 Number     Number              X              Y              Z
 -------------------------------------------------------------------
      1        7           0.000042063   -0.000079857   -0.000002000
      2        6           0.000179622   -0.000006487    0.000006183
      3        6          -0.000050561    0.000204994    0.000007171
      4        6          -0.000000828    0.000097624    0.000004367
      5        6          -0.000075777   -0.000138734   -0.000008898
      6        6           0.000235636    0.000122085    0.000013834
      7        6          -0.000077881   -0.000154843   -0.000009680
      8        1          -0.000024633   -0.000049780   -0.000003125
      9        1          -0.000028736   -0.000022861   -0.000002054
     10        1          -0.000029202    0.000003144   -0.000000917
     11        1          -0.000041207    0.000022654   -0.000000433
     12        1          -0.000128498    0.000002060   -0.000004449
 -------------------------------------------------------------------
 Cartesian Forces:  Max     0.000235636 RMS     0.000082421
 Leave Link  716 at Mon Mar  2 00:27:39 2020, MaxMem=  1879048192 cpu:               2.8 elap:               0.1
 (Enter /opt/g16/l103.exe)

 GradGradGradGradGradGradGradGradGradGradGradGradGradGradGradGradGradGrad
 Berny optimization.
 FormGI is forming the generalized inverse of G from B-inverse, IUseBI=4.
 Internal  Forces:  Max     0.000195141 RMS     0.000049957
 Search for a local minimum.
 Step number   1 out of a maximum of   61
 All quantities printed in internal units (Hartrees-Bohrs-Radians)
 RMS Force = .49957D-04 SwitMx=.10000D-02 MixMth= 2
 Mixed Optimization -- En-DIIS/RFO-DIIS
 Second derivative matrix not updated -- first step.
 ITU=  0
     Eigenvalues ---    0.01794   0.02030   0.02055   0.02077   0.02196
     Eigenvalues ---    0.02221   0.02310   0.02351   0.02694   0.16000
     Eigenvalues ---    0.16000   0.16000   0.16000   0.16000   0.22000
     Eigenvalues ---    0.22407   0.24400   0.25000   0.35637   0.35638
     Eigenvalues ---    0.35668   0.35708   0.38614   0.41746   0.44360
     Eigenvalues ---    0.44385   0.44778   0.48979   0.52249   0.60881
 RFO step:  Lambda=-4.99063194D-07 EMin= 1.79362539D-02
 Linear search not attempted -- first point.
 Iteration  1 RMS(Cart)=  0.00035494 RMS(Int)=  0.00000018
 Iteration  2 RMS(Cart)=  0.00000016 RMS(Int)=  0.00000000
 ITry= 1 IFail=0 DXMaxC= 2.01D-03 DCOld= 1.00D+10 DXMaxT= 3.00D-01 DXLimC= 3.00D+00 Rises=F
 Variable       Old X    -DE/DX   Delta X   Delta X   Delta X     New X
                                 (Linear)    (Quad)   (Total)
    R1        2.50250  -0.00006   0.00000  -0.00009  -0.00009   2.50241
    R2        1.92726  -0.00008   0.00000  -0.00018  -0.00018   1.92708
    R3        2.71354  -0.00007   0.00000  -0.00020  -0.00020   2.71335
    R4        2.59137   0.00005   0.00000   0.00011   0.00011   2.59148
    R5        2.04652   0.00004   0.00000   0.00012   0.00012   2.04664
    R6        2.66783  -0.00011   0.00000  -0.00028  -0.00028   2.66756
    R7        2.64931  -0.00003   0.00000  -0.00005  -0.00005   2.64926
    R8        2.04541   0.00004   0.00000   0.00010   0.00010   2.04551
    R9        2.64542   0.00014   0.00000   0.00031   0.00031   2.64573
   R10        2.04604   0.00003   0.00000   0.00008   0.00008   2.04612
   R11        2.56945  -0.00008   0.00000  -0.00016  -0.00016   2.56928
   R12        2.04651   0.00003   0.00000   0.00009   0.00009   2.04660
    A1        1.90728  -0.00020   0.00000  -0.00122  -0.00122   1.90606
    A2        2.11367  -0.00005   0.00000  -0.00025  -0.00025   2.11342
    A3        2.04189   0.00006   0.00000   0.00036   0.00036   2.04225
    A4        2.12762  -0.00001   0.00000  -0.00011  -0.00011   2.12751
    A5        2.08677  -0.00006   0.00000  -0.00021  -0.00021   2.08656
    A6        2.20639   0.00001   0.00000   0.00004   0.00004   2.20643
    A7        1.99003   0.00005   0.00000   0.00017   0.00017   1.99019
    A8        2.11371   0.00002   0.00000   0.00014   0.00014   2.11385
    A9        2.08864  -0.00001   0.00000  -0.00005  -0.00005   2.08859
   A10        2.08083  -0.00001   0.00000  -0.00009  -0.00009   2.08074
   A11        2.09872  -0.00002   0.00000  -0.00002  -0.00002   2.09870
   A12        2.09569   0.00000   0.00000  -0.00002  -0.00002   2.09567
   A13        2.08877   0.00001   0.00000   0.00004   0.00004   2.08881
   A14        2.04044  -0.00006   0.00000  -0.00026  -0.00026   2.04017
   A15        2.10972  -0.00000   0.00000  -0.00009  -0.00009   2.10963
   A16        2.13303   0.00007   0.00000   0.00035   0.00035   2.13339
   A17        2.20981   0.00007   0.00000   0.00023   0.00023   2.21004
    D1        3.14159   0.00000   0.00000   0.00000   0.00000  -3.14159
    D2        0.00000  -0.00000   0.00000  -0.00000  -0.00000  -0.00000
    D3       -3.14159  -0.00000   0.00000  -0.00000  -0.00000   3.14159
    D4       -0.00000   0.00000   0.00000   0.00000   0.00000   0.00000
    D5        0.00000  -0.00000   0.00000  -0.00000  -0.00000  -0.00000
    D6       -3.14159  -0.00000   0.00000  -0.00000  -0.00000  -3.14159
    D7        0.00000  -0.00000   0.00000  -0.00000  -0.00000  -0.00000
    D8       -3.14159  -0.00000   0.00000  -0.00000  -0.00000   3.14159
    D9        3.14159   0.00000   0.00000   0.00000   0.00000  -3.14159
   D10       -0.00000   0.00000   0.00000   0.00000   0.00000  -0.00000
   D11        3.14159   0.00000   0.00000   0.00000   0.00000  -3.14159
   D12        0.00000  -0.00000   0.00000  -0.00000  -0.00000  -0.00000
   D13        0.00000  -0.00000   0.00000  -0.00000  -0.00000  -0.00000
   D14       -3.14159  -0.00000   0.00000  -0.00000  -0.00000   3.14159
   D15       -3.14159  -0.00000   0.00000  -0.00000  -0.00000   3.14159
   D16       -0.00000   0.00000   0.00000   0.00000   0.00000   0.00000
   D17       -0.00000   0.00000   0.00000   0.00000   0.00000   0.00000
   D18        3.14159   0.00000   0.00000   0.00000   0.00000  -3.14159
   D19        3.14159   0.00000   0.00000   0.00000   0.00000  -3.14159
   D20       -0.00000   0.00000   0.00000   0.00000   0.00000  -0.00000
   D21        0.00000  -0.00000   0.00000  -0.00000  -0.00000  -0.00000
   D22       -3.14159  -0.00000   0.00000  -0.00000  -0.00000  -3.14159
         Item               Value     Threshold  Converged?
 Maximum Force            0.000195     0.000015     NO 
 RMS     Force            0.000050     0.000010     NO 
 Maximum Displacement     0.002013     0.000060     NO 
 RMS     Displacement     0.000355     0.000040     NO 
 Predicted change in Energy=-2.495324D-07
 Lowest energy point so far.  Saving SCF results.
 GradGradGradGradGradGradGradGradGradGradGradGradGradGradGradGradGradGrad

 Leave Link  103 at Mon Mar  2 00:27:41 2020, MaxMem=  1879048192 cpu:              69.9 elap:               2.1
 (Enter /opt/g16/l202.exe)
                          Input orientation:                          
 ---------------------------------------------------------------------
 Center     Atomic      Atomic             Coordinates (Angstroms)
 Number     Number       Type             X           Y           Z
 ---------------------------------------------------------------------
      1          7           0        2.401731   -0.981552    0.041364
      2          6           0        0.072424   -1.485587   -0.063417
      3          6           0        1.152516   -0.542916    0.016656
      4          6           0       -1.232938   -1.066214   -0.090967
      5          6           0       -1.557145    0.296829   -0.041899
      6          6           0       -0.544332    1.260261    0.036717
      7          6           0        0.736643    0.805288    0.061822
      8          1           0        0.337245   -2.535087   -0.100661
      9          1           0       -2.029255   -1.796883   -0.151587
     10          1           0       -2.593623    0.609175   -0.064691
     11          1           0       -0.783265    2.315888    0.075149
     12          1           0        3.035926   -0.185070    0.099172
 ---------------------------------------------------------------------
                    Distance matrix (angstroms):
                    1          2          3          4          5
     1  N    0.000000
     2  C    2.385520   0.000000
     3  C    1.324217   1.435841   0.000000
     4  C    3.638063   1.371351   2.444549   0.000000
     5  C    4.160996   2.415153   2.837404   1.401929   0.000000
     6  C    3.702032   2.816042   2.476115   2.429602   1.400061
     7  C    2.442485   2.388510   1.411610   2.721234   2.351755
     8  H    2.587614   1.083037   2.155731   2.150153   3.407626
     9  H    4.509505   2.126436   3.424092   1.082438   2.149081
    10  H    5.243589   3.390551   3.920139   2.158490   1.082759
    11  H    4.584589   3.899053   3.453032   3.415906   2.165454
    12  H    1.019769   3.240390   1.918878   4.363000   4.620435
                    6          7          8          9         10
     6  C    0.000000
     7  C    1.359606   0.000000
     8  H    3.898810   3.368089   0.000000
     9  H    3.403907   3.803555   2.479488   0.000000
    10  H    2.152624   3.338434   4.298566   2.472888   0.000000
    11  H    1.083012   2.142944   4.981808   4.303346   2.491952
    12  H    3.861493   2.503778   3.584047   5.321360   5.687662
                   11         12
    11  H    0.000000
    12  H    4.565258   0.000000
 Stoichiometry    C6H5N(3)
 Framework group  C1[X(C6H5N)]
 Deg. of freedom    30
 Full point group                 C1      NOp   1
 RotChk:  IX=2 Diff= 2.01D-04
 Largest Abelian subgroup         C1      NOp   1
 Largest concise Abelian subgroup C1      NOp   1
                         Standard orientation:                         
 ---------------------------------------------------------------------
 Center     Atomic      Atomic             Coordinates (Angstroms)
 Number     Number       Type             X           Y           Z
 ---------------------------------------------------------------------
      1          7           0        2.375492   -0.030880   -0.000000
      2          6           0        0.319116    1.178261   -0.000000
      3          6           0        1.051528   -0.056735    0.000000
      4          6           0       -1.052198    1.188318   -0.000000
      5          6           0       -1.785433   -0.006575    0.000000
      6          6           0       -1.123434   -1.240239   -0.000000
      7          6           0        0.235808   -1.208796    0.000000
      8          1           0        0.898122    2.093531   -0.000000
      9          1           0       -1.581055    2.132766    0.000000
     10          1           0       -2.867840    0.021045    0.000000
     11          1           0       -1.679749   -2.169448   -0.000000
     12          1           0        2.729755   -0.987136   -0.000000
 ---------------------------------------------------------------------
 Rotational constants (GHZ):           5.9907220           2.7650912           1.8918737
 Leave Link  202 at Mon Mar  2 00:27:42 2020, MaxMem=  1879048192 cpu:               3.9 elap:               0.1
 (Enter /opt/g16/l301.exe)
 Standard basis: def2TZVP (5D, 7F)
 Ernie: Thresh=  0.10000D-02 Tol=  0.10000D-05 Strict=F.
 There are   282 symmetry adapted cartesian basis functions of A   symmetry.
 There are   247 symmetry adapted basis functions of A   symmetry.
   247 basis functions,   397 primitive gaussians,   282 cartesian basis functions
    25 alpha electrons       23 beta electrons
       nuclear repulsion energy       251.5626583626 Hartrees.
 IExCor= 4639 DFT=T Ex+Corr=wB97XD ExCW=0 ScaHFX=  1.000000
 ScaDFX=  1.000000  1.000000  1.000000  1.000000 ScalE2=  1.000000  1.000000
 IRadAn=      5 IRanWt=     -1 IRanGd=            0 ICorTp=0 IEmpDi=121
 HFx  wShort=  0.000000 wLong=  0.200000 cFull=  0.222036 cShort=  0.000000 cLong=  0.777964
 DFx  wShort=  0.000000 wLong=  0.200000 cFull=  0.000000 cShort=  0.000000 cLong=  1.000000
 NAtoms=   12 NActive=   12 NUniq=   12 SFac= 1.00D+00 NAtFMM=   60 NAOKFM=F Big=F
 Integral buffers will be    131072 words long.
 Raffenetti 2 integral format.
 Two-electron integral symmetry is turned on.
 R6Disp:  Grimme-D2 Dispersion energy=       -0.0040870072 Hartrees.
 Nuclear repulsion after empirical dispersion term =      251.5585713554 Hartrees.
 Leave Link  301 at Mon Mar  2 00:27:42 2020, MaxMem=  1879048192 cpu:               2.7 elap:               0.1
 (Enter /opt/g16/l302.exe)
 NPDir=0 NMtPBC=     1 NCelOv=     1 NCel=       1 NClECP=     1 NCelD=      1
         NCelK=      1 NCelE2=     1 NClLst=     1 CellRange=     0.0.
 One-electron integrals computed using PRISM.
 One-electron integral symmetry used in STVInt
   1 Symmetry operations used in ECPInt.
 ECPInt:  NShTT=    4753 NPrTT=   14704 LenC2=    4696 LenP2D=   11982.
 LDataN:  DoStor=T MaxTD1= 6 Len=  172
 NBasis=   247 RedAO= T EigKep=  1.67D-05  NBF=   247
 NBsUse=   247 1.00D-06 EigRej= -1.00D+00 NBFU=   247
 Precomputing XC quadrature grid using
 IXCGrd= 4 IRadAn=           5 IRanWt=          -1 IRanGd=           0 AccXCQ= 1.00D-12.
 Generated NRdTot=       0 NPtTot=           0 NUsed=           0 NTot=          32
 NSgBfM=   281   281   281   281   281 MxSgAt=    12 MxSgA2=    12.
 Leave Link  302 at Mon Mar  2 00:27:44 2020, MaxMem=  1879048192 cpu:              96.5 elap:               2.8
 (Enter /opt/g16/l303.exe)
 DipDrv:  MaxL=1.
 Leave Link  303 at Mon Mar  2 00:27:45 2020, MaxMem=  1879048192 cpu:               7.4 elap:               0.2
 (Enter /opt/g16/l401.exe)
 Initial guess from the checkpoint file:  "check.chk"
 B after Tr=     0.000000    0.000000   -0.000000
         Rot=    1.000000   -0.000000    0.000000    0.000055 Ang=   0.01 deg.
 Guess basis will be translated and rotated to current coordinates.
 JPrj=2 DoOrth=T DoCkMO=T.
 Initial guess <Sx>= 0.0000 <Sy>= 0.0000 <Sz>= 1.0000 <S**2>= 2.0820 S= 1.0271
 Leave Link  401 at Mon Mar  2 00:27:48 2020, MaxMem=  1879048192 cpu:              93.8 elap:               3.1
 (Enter /opt/g16/l502.exe)
 Integral symmetry usage will be decided dynamically.
 UHF open shell SCF:
 Using DIIS extrapolation, IDIIS=  1040.
 NGot=  1879048192 LenX=  1878876442 LenY=  1878796477
 Requested convergence on RMS density matrix=1.00D-08 within  32 cycles.
 Requested convergence on MAX density matrix=1.00D-06.
 Requested convergence on             energy=1.00D-06.
 No special actions if energy rises.
 Fock matrices will be formed incrementally for  20 cycles.

 Cycle   1  Pass 1  IDiag  1:
 FoFJK:  IHMeth= 1 ICntrl=       0 DoSepK=T KAlg= 0 I1Cent=           0 FoldK=F
 IRaf=         1 NMat=       1 IRICut=       1 DoRegI=T DoRafI=F ISym2E= 0 IDoP0=0 IntGTp=1.
 FoFCou: FMM=F IPFlag=           0 FMFlag=      100000 FMFlg1=           0
         NFxFlg=           0 DoJE=T BraDBF=F KetDBF=F FulRan=T
         wScrn=  0.000000 ICntrl=       500 IOpCl=  0 I1Cent=           0 NGrid=           0
         NMat0=    1 NMatS0=      1 NMatT0=    0 NMatD0=    1 NMtDS0=    0 NMtDT0=    0
 Symmetry not used in FoFCou.
 E= -286.265114011228    
 DIIS: error= 2.81D-05 at cycle   1 NSaved=   1.
 NSaved= 1 IEnMin= 1 EnMin= -286.265114011228     IErMin= 1 ErrMin= 2.81D-05
 ErrMax= 2.81D-05  0.00D+00 EMaxC= 1.00D-01 BMatC= 5.94D-07 BMatP= 5.94D-07
 IDIUse=1 WtCom= 1.00D+00 WtEn= 0.00D+00
 Coeff-Com:  0.100D+01
 Coeff:      0.100D+01
 Gap=     0.880 Goal=   None    Shift=    0.000
 Gap=     0.920 Goal=   None    Shift=    0.000
 RMSDP=2.76D-06 MaxDP=7.47D-05              OVMax= 1.24D-04

 Cycle   2  Pass 1  IDiag  1:
 RMSU=  2.76D-06    CP:  1.00D+00
 E= -286.265114152292     Delta-E=       -0.000000141064 Rises=F Damp=F
 DIIS: error= 6.66D-06 at cycle   2 NSaved=   2.
 NSaved= 2 IEnMin= 2 EnMin= -286.265114152292     IErMin= 2 ErrMin= 6.66D-06
 ErrMax= 6.66D-06  0.00D+00 EMaxC= 1.00D-01 BMatC= 3.15D-08 BMatP= 5.94D-07
 IDIUse=1 WtCom= 1.00D+00 WtEn= 0.00D+00
 Coeff-Com: -0.165D-01 0.102D+01
 Coeff:     -0.165D-01 0.102D+01
 Gap=     0.341 Goal=   None    Shift=    0.000
 Gap=     0.297 Goal=   None    Shift=    0.000
 RMSDP=8.06D-07 MaxDP=2.56D-05 DE=-1.41D-07 OVMax= 6.01D-05

 Cycle   3  Pass 1  IDiag  1:
 RMSU=  5.95D-07    CP:  1.00D+00  1.20D+00
 E= -286.265114158068     Delta-E=       -0.000000005776 Rises=F Damp=F
 DIIS: error= 8.01D-06 at cycle   3 NSaved=   3.
 NSaved= 3 IEnMin= 3 EnMin= -286.265114158068     IErMin= 2 ErrMin= 6.66D-06
 ErrMax= 8.01D-06  0.00D+00 EMaxC= 1.00D-01 BMatC= 2.49D-08 BMatP= 3.15D-08
 IDIUse=1 WtCom= 1.00D+00 WtEn= 0.00D+00
 Coeff-Com: -0.589D-01 0.498D+00 0.561D+00
 Coeff:     -0.589D-01 0.498D+00 0.561D+00
 Gap=     0.341 Goal=   None    Shift=    0.000
 Gap=     0.297 Goal=   None    Shift=    0.000
 RMSDP=3.06D-07 MaxDP=1.14D-05 DE=-5.78D-09 OVMax= 3.33D-05

 Cycle   4  Pass 1  IDiag  1:
 RMSU=  2.73D-07    CP:  1.00D+00  1.22D+00  7.89D-01
 E= -286.265114165012     Delta-E=       -0.000000006944 Rises=F Damp=F
 DIIS: error= 2.51D-06 at cycle   4 NSaved=   4.
 NSaved= 4 IEnMin= 4 EnMin= -286.265114165012     IErMin= 4 ErrMin= 2.51D-06
 ErrMax= 2.51D-06  0.00D+00 EMaxC= 1.00D-01 BMatC= 7.32D-10 BMatP= 2.49D-08
 IDIUse=1 WtCom= 1.00D+00 WtEn= 0.00D+00
 Coeff-Com: -0.144D-02-0.622D-01 0.515D-01 0.101D+01
 Coeff:     -0.144D-02-0.622D-01 0.515D-01 0.101D+01
 Gap=     0.341 Goal=   None    Shift=    0.000
 Gap=     0.297 Goal=   None    Shift=    0.000
 RMSDP=1.51D-07 MaxDP=6.87D-06 DE=-6.94D-09 OVMax= 2.34D-05

 Cycle   5  Pass 1  IDiag  1:
 RMSU=  8.18D-08    CP:  1.00D+00  1.23D+00  9.16D-01  1.36D+00
 E= -286.265114165633     Delta-E=       -0.000000000622 Rises=F Damp=F
 DIIS: error= 1.24D-06 at cycle   5 NSaved=   5.
 NSaved= 5 IEnMin= 5 EnMin= -286.265114165633     IErMin= 5 ErrMin= 1.24D-06
 ErrMax= 1.24D-06  0.00D+00 EMaxC= 1.00D-01 BMatC= 2.51D-10 BMatP= 7.32D-10
 IDIUse=1 WtCom= 1.00D+00 WtEn= 0.00D+00
 Coeff-Com:  0.785D-02-0.969D-01-0.556D-01 0.415D+00 0.729D+00
 Coeff:      0.785D-02-0.969D-01-0.556D-01 0.415D+00 0.729D+00
 Gap=     0.341 Goal=   None    Shift=    0.000
 Gap=     0.297 Goal=   None    Shift=    0.000
 RMSDP=6.54D-08 MaxDP=3.06D-06 DE=-6.22D-10 OVMax= 1.07D-05

 Cycle   6  Pass 1  IDiag  1:
 RMSU=  3.23D-08    CP:  1.00D+00  1.23D+00  9.60D-01  1.52D+00  1.27D+00
 E= -286.265114165837     Delta-E=       -0.000000000204 Rises=F Damp=F
 DIIS: error= 1.16D-06 at cycle   6 NSaved=   6.
 NSaved= 6 IEnMin= 6 EnMin= -286.265114165837     IErMin= 6 ErrMin= 1.16D-06
 ErrMax= 1.16D-06  0.00D+00 EMaxC= 1.00D-01 BMatC= 4.59D-11 BMatP= 2.51D-10
 IDIUse=1 WtCom= 1.00D+00 WtEn= 0.00D+00
 Coeff-Com:  0.729D-03 0.134D-01-0.163D-01-0.265D+00-0.563D-01 0.132D+01
 Coeff:      0.729D-03 0.134D-01-0.163D-01-0.265D+00-0.563D-01 0.132D+01
 Gap=     0.341 Goal=   None    Shift=    0.000
 Gap=     0.297 Goal=   None    Shift=    0.000
 RMSDP=5.78D-08 MaxDP=2.50D-06 DE=-2.04D-10 OVMax= 1.56D-05

 Cycle   7  Pass 1  IDiag  1:
 RMSU=  2.12D-08    CP:  1.00D+00  1.23D+00  9.91D-01  1.63D+00  1.66D+00
                    CP:  1.78D+00
 E= -286.265114165945     Delta-E=       -0.000000000108 Rises=F Damp=F
 DIIS: error= 4.54D-07 at cycle   7 NSaved=   7.
 NSaved= 7 IEnMin= 7 EnMin= -286.265114165945     IErMin= 7 ErrMin= 4.54D-07
 ErrMax= 4.54D-07  0.00D+00 EMaxC= 1.00D-01 BMatC= 1.22D-11 BMatP= 4.59D-11
 IDIUse=1 WtCom= 1.00D+00 WtEn= 0.00D+00
 Coeff-Com: -0.176D-02 0.261D-01 0.117D-01-0.147D+00-0.215D+00 0.254D+00
 Coeff-Com:  0.107D+01
 Coeff:     -0.176D-02 0.261D-01 0.117D-01-0.147D+00-0.215D+00 0.254D+00
 Coeff:      0.107D+01
 Gap=     0.341 Goal=   None    Shift=    0.000
 Gap=     0.297 Goal=   None    Shift=    0.000
 RMSDP=2.59D-08 MaxDP=9.09D-07 DE=-1.08D-10 OVMax= 7.96D-06

 Cycle   8  Pass 1  IDiag  1:
 RMSU=  9.53D-09    CP:  1.00D+00  1.23D+00  9.98D-01  1.66D+00  1.79D+00
                    CP:  2.26D+00  1.58D+00
 E= -286.265114165971     Delta-E=       -0.000000000026 Rises=F Damp=F
 DIIS: error= 2.20D-07 at cycle   8 NSaved=   8.
 NSaved= 8 IEnMin= 8 EnMin= -286.265114165971     IErMin= 8 ErrMin= 2.20D-07
 ErrMax= 2.20D-07  0.00D+00 EMaxC= 1.00D-01 BMatC= 2.61D-12 BMatP= 1.22D-11
 IDIUse=1 WtCom= 1.00D+00 WtEn= 0.00D+00
 Coeff-Com: -0.535D-03 0.290D-02 0.706D-02 0.278D-01-0.469D-01-0.212D+00
 Coeff-Com:  0.270D+00 0.952D+00
 Coeff:     -0.535D-03 0.290D-02 0.706D-02 0.278D-01-0.469D-01-0.212D+00
 Coeff:      0.270D+00 0.952D+00
 Gap=     0.341 Goal=   None    Shift=    0.000
 Gap=     0.297 Goal=   None    Shift=    0.000
 RMSDP=1.02D-08 MaxDP=3.89D-07 DE=-2.58D-11 OVMax= 3.19D-06

 Cycle   9  Pass 1  IDiag  1:
 RMSU=  4.25D-09    CP:  1.00D+00  1.23D+00  1.00D+00  1.65D+00  1.79D+00
                    CP:  2.39D+00  1.92D+00  1.28D+00
 E= -286.265114165977     Delta-E=       -0.000000000005 Rises=F Damp=F
 DIIS: error= 6.54D-08 at cycle   9 NSaved=   9.
 NSaved= 9 IEnMin= 9 EnMin= -286.265114165977     IErMin= 9 ErrMin= 6.54D-08
 ErrMax= 6.54D-08  0.00D+00 EMaxC= 1.00D-01 BMatC= 5.88D-13 BMatP= 2.61D-12
 IDIUse=1 WtCom= 1.00D+00 WtEn= 0.00D+00
 Coeff-Com:  0.420D-03-0.659D-02-0.232D-02 0.401D-01 0.419D-01-0.785D-01
 Coeff-Com: -0.248D+00 0.108D+00 0.115D+01
 Coeff:      0.420D-03-0.659D-02-0.232D-02 0.401D-01 0.419D-01-0.785D-01
 Coeff:     -0.248D+00 0.108D+00 0.115D+01
 Gap=     0.341 Goal=   None    Shift=    0.000
 Gap=     0.297 Goal=   None    Shift=    0.000
 RMSDP=5.70D-09 MaxDP=2.38D-07 DE=-5.23D-12 OVMax= 1.61D-06

 SCF Done:  E(UwB97XD) =  -286.265114166     A.U. after    9 cycles
            NFock=  9  Conv=0.57D-08     -V/T= 2.0046
 <Sx>= 0.0000 <Sy>= 0.0000 <Sz>= 1.0000 <S**2>= 2.0820 S= 1.0271
 <L.S>= 0.000000000000E+00
 KE= 2.849436987482D+02 PE=-1.168150812964D+03 EE= 3.453834286945D+02
 Annihilation of the first spin contaminant:
 S**2 before annihilation     2.0820,   after     2.0032
 Leave Link  502 at Mon Mar  2 00:30:58 2020, MaxMem=  1879048192 cpu:            6017.1 elap:             189.7
 (Enter /opt/g16/l508.exe)
 QCSCF skips out because SCF is already converged.
 Leave Link  508 at Mon Mar  2 00:30:58 2020, MaxMem=  1879048192 cpu:               2.0 elap:               0.1
 (Enter /opt/g16/l701.exe)
 ... and contract with generalized density number  0.
 Compute integral first derivatives.
 R6Disp: Adding Grimme-D2 dispersion energy 1st derivatives to the gradient.
   1 Symmetry operations used in ECPInt.
 ECPInt:  NShTT=    4753 NPrTT=   14704 LenC2=    4696 LenP2D=   11982.
 LDataN:  DoStor=T MaxTD1= 7 Len=  274
 Leave Link  701 at Mon Mar  2 00:30:59 2020, MaxMem=  1879048192 cpu:              51.5 elap:               1.6
 (Enter /opt/g16/l702.exe)
 L702 exits ... SP integral derivatives will be done elsewhere.
 Leave Link  702 at Mon Mar  2 00:30:59 2020, MaxMem=  1879048192 cpu:               3.0 elap:               0.1
 (Enter /opt/g16/l703.exe)
 Integral derivatives from FoFJK, PRISM(SPDF).
 Compute integral first derivatives, UseDBF=F ICtDFT=           0.
 Calling FoFJK, ICntrl=      2127 FMM=F ISym2X=0 I1Cent= 0 IOpClX= 1 NMat=1 NMatS=1 NMatT=0.
 FoFJK:  IHMeth= 1 ICntrl=    2127 DoSepK=T KAlg= 0 I1Cent=           0 FoldK=F
 IRaf=         1 NMat=       1 IRICut=       1 DoRegI=T DoRafI=F ISym2E= 0 IDoP0=0 IntGTp=1.
 FoFCou: FMM=F IPFlag=           0 FMFlag=      100000 FMFlg1=         800
         NFxFlg=           0 DoJE=F BraDBF=F KetDBF=F FulRan=T
         wScrn=  0.000000 ICntrl=      2527 IOpCl=  0 I1Cent=           0 NGrid=           0
         NMat0=    1 NMatS0=      1 NMatT0=    0 NMatD0=    1 NMtDS0=    0 NMtDT0=    0
 Symmetry not used in FoFCou.
 Leave Link  703 at Mon Mar  2 00:31:15 2020, MaxMem=  1879048192 cpu:             539.7 elap:              15.9
 (Enter /opt/g16/l716.exe)
 Dipole        =-1.00299928D+00-2.20582666D-01 2.66700131D-07
 ***** Axes restored to original set *****
 -------------------------------------------------------------------
 Center     Atomic                   Forces (Hartrees/Bohr)
 Number     Number              X              Y              Z
 -------------------------------------------------------------------
      1        7           0.000066580   -0.000002083    0.000002224
      2        6           0.000042730   -0.000011840    0.000000896
      3        6          -0.000113023    0.000022951   -0.000002831
      4        6          -0.000030745    0.000037955    0.000000572
      5        6          -0.000031355   -0.000068401   -0.000004098
      6        6           0.000094945    0.000054019    0.000005682
      7        6          -0.000041666   -0.000034014   -0.000002985
      8        1          -0.000014739    0.000003523   -0.000000351
      9        1          -0.000004280    0.000000553   -0.000000111
     10        1           0.000001300   -0.000000976    0.000000006
     11        1          -0.000014350   -0.000009432   -0.000000917
     12        1           0.000044605    0.000007744    0.000001914
 -------------------------------------------------------------------
 Cartesian Forces:  Max     0.000113023 RMS     0.000035453
 Leave Link  716 at Mon Mar  2 00:31:16 2020, MaxMem=  1879048192 cpu:               2.8 elap:               0.1
 (Enter /opt/g16/l103.exe)

 GradGradGradGradGradGradGradGradGradGradGradGradGradGradGradGradGradGrad
 Berny optimization.
 Using GEDIIS/GDIIS optimizer.
 FormGI is forming the generalized inverse of G from B-inverse, IUseBI=4.
 GSVD:  received Info=                   1 from GESDD.
 Internal  Forces:  Max     0.000103393 RMS     0.000022194
 Search for a local minimum.
 Step number   2 out of a maximum of   61
 All quantities printed in internal units (Hartrees-Bohrs-Radians)
 RMS Force = .22194D-04 SwitMx=.10000D-02 MixMth= 2
 Mixed Optimization -- En-DIIS/RFO-DIIS
 Swapping is turned off.
 Update second derivatives using D2CorX and points    1    2
 DE= -2.36D-07 DEPred=-2.50D-07 R= 9.47D-01
 Trust test= 9.47D-01 RLast= 1.54D-03 DXMaxT set to 3.00D-01
 ITU=  0  0
     Eigenvalues ---    0.01794   0.02030   0.02055   0.02077   0.02196
     Eigenvalues ---    0.02221   0.02310   0.02351   0.02694   0.14554
     Eigenvalues ---    0.16000   0.16000   0.16000   0.19163   0.21169
     Eigenvalues ---    0.22039   0.24425   0.25963   0.35339   0.35638
     Eigenvalues ---    0.35668   0.35734   0.37194   0.40544   0.43557
     Eigenvalues ---    0.44440   0.45539   0.48260   0.52037   0.66534
 En-DIIS/RFO-DIIS/Sim-DIIS IScMMF=       -3 using points:     2    1
 RFO step:  Lambda=-5.59940086D-08.
 NNeg= 0 NGDIIS= 2 SimSw=  2.50D-03 Rises=F DC= -2.36D-07 SmlDif=  1.00D-05
 NRisDI= 0 DoIntr=F SqrtH=F CThrHd= 10.0 CDAdj=  3.0
 RMS Error=  0.6357072515D-04 NUsed= 2 OKEnD=F EnDIS=F
 InvSVX:  RCond= 5.95D-07 Info=           0 Equed=N FErr=  1.06D-15 BErr=  3.75D-17
 DidBck=F Rises=F RFO-DIIS coefs:    1.00551   -0.00551
 Iteration  1 RMS(Cart)=  0.00007765 RMS(Int)=  0.00000000
 Iteration  2 RMS(Cart)=  0.00000000 RMS(Int)=  0.00000000
 ITry= 1 IFail=0 DXMaxC= 3.56D-04 DCOld= 1.00D+10 DXMaxT= 3.00D-01 DXLimC= 3.00D+00 Rises=F
 Variable       Old X    -DE/DX   Delta X   Delta X   Delta X     New X
                                 (Linear)    (Quad)   (Total)
    R1        2.50241   0.00010  -0.00000   0.00015   0.00015   2.50256
    R2        1.92708   0.00003  -0.00000   0.00005   0.00005   1.92713
    R3        2.71335   0.00000  -0.00000  -0.00002  -0.00002   2.71333
    R4        2.59148   0.00003   0.00000   0.00007   0.00007   2.59155
    R5        2.04664  -0.00001   0.00000  -0.00000  -0.00000   2.04664
    R6        2.66756  -0.00003  -0.00000  -0.00009  -0.00009   2.66747
    R7        2.64926  -0.00003  -0.00000  -0.00007  -0.00007   2.64919
    R8        2.04551   0.00000   0.00000   0.00002   0.00002   2.04553
    R9        2.64573   0.00005   0.00000   0.00014   0.00014   2.64587
   R10        2.04612  -0.00000   0.00000   0.00001   0.00001   2.04612
   R11        2.56928  -0.00004  -0.00000  -0.00009  -0.00009   2.56919
   R12        2.04660  -0.00001   0.00000  -0.00001  -0.00001   2.04659
    A1        1.90606   0.00006  -0.00001   0.00021   0.00020   1.90626
    A2        2.11342  -0.00001  -0.00000  -0.00005  -0.00006   2.11337
    A3        2.04225   0.00002   0.00000   0.00014   0.00014   2.04239
    A4        2.12751  -0.00001  -0.00000  -0.00008  -0.00008   2.12743
    A5        2.08656   0.00002  -0.00000   0.00007   0.00006   2.08663
    A6        2.20643  -0.00002   0.00000  -0.00007  -0.00007   2.20636
    A7        1.99019  -0.00000   0.00000   0.00000   0.00000   1.99020
    A8        2.11385  -0.00000   0.00000   0.00003   0.00003   2.11388
    A9        2.08859   0.00000  -0.00000   0.00001   0.00001   2.08860
   A10        2.08074  -0.00000  -0.00000  -0.00004  -0.00004   2.08070
   A11        2.09870  -0.00000  -0.00000   0.00000   0.00000   2.09870
   A12        2.09567   0.00000  -0.00000  -0.00000  -0.00000   2.09567
   A13        2.08881   0.00000   0.00000   0.00000   0.00000   2.08882
   A14        2.04017  -0.00001  -0.00000  -0.00009  -0.00009   2.04008
   A15        2.10963  -0.00001  -0.00000  -0.00007  -0.00007   2.10955
   A16        2.13339   0.00002   0.00000   0.00016   0.00016   2.13355
   A17        2.21004   0.00003   0.00000   0.00011   0.00011   2.21015
    D1       -3.14159  -0.00000   0.00000  -0.00000  -0.00000   3.14159
    D2       -0.00000   0.00000  -0.00000   0.00000   0.00000   0.00000
    D3        3.14159   0.00000  -0.00000   0.00000   0.00000  -3.14159
    D4        0.00000  -0.00000   0.00000  -0.00000  -0.00000  -0.00000
    D5       -0.00000   0.00000  -0.00000   0.00000   0.00000   0.00000
    D6       -3.14159  -0.00000  -0.00000  -0.00000  -0.00000   3.14159
    D7       -0.00000   0.00000  -0.00000   0.00000   0.00000   0.00000
    D8        3.14159   0.00000  -0.00000   0.00000   0.00000  -3.14159
    D9       -3.14159  -0.00000   0.00000  -0.00000  -0.00000  -3.14159
   D10       -0.00000   0.00000   0.00000   0.00000   0.00000   0.00000
   D11       -3.14159  -0.00000   0.00000  -0.00000  -0.00000   3.14159
   D12       -0.00000   0.00000  -0.00000   0.00000   0.00000   0.00000
   D13       -0.00000   0.00000  -0.00000   0.00000   0.00000   0.00000
   D14        3.14159   0.00000  -0.00000   0.00000   0.00000   3.14159
   D15        3.14159   0.00000  -0.00000   0.00000   0.00000  -3.14159
   D16        0.00000  -0.00000   0.00000  -0.00000  -0.00000   0.00000
   D17        0.00000  -0.00000   0.00000  -0.00000  -0.00000  -0.00000
   D18       -3.14159  -0.00000   0.00000  -0.00000  -0.00000  -3.14159
   D19       -3.14159  -0.00000   0.00000  -0.00000  -0.00000  -3.14159
   D20       -0.00000   0.00000   0.00000   0.00000   0.00000   0.00000
   D21       -0.00000   0.00000  -0.00000   0.00000   0.00000  -0.00000
   D22       -3.14159  -0.00000  -0.00000  -0.00000  -0.00000   3.14159
         Item               Value     Threshold  Converged?
 Maximum Force            0.000103     0.000015     NO 
 RMS     Force            0.000022     0.000010     NO 
 Maximum Displacement     0.000356     0.000060     NO 
 RMS     Displacement     0.000078     0.000040     NO 
 Predicted change in Energy=-3.089994D-08
 Lowest energy point so far.  Saving SCF results.
 GradGradGradGradGradGradGradGradGradGradGradGradGradGradGradGradGradGrad

 Leave Link  103 at Mon Mar  2 00:31:20 2020, MaxMem=  1879048192 cpu:             137.5 elap:               4.3
 (Enter /opt/g16/l202.exe)
                          Input orientation:                          
 ---------------------------------------------------------------------
 Center     Atomic      Atomic             Coordinates (Angstroms)
 Number     Number       Type             X           Y           Z
 ---------------------------------------------------------------------
      1          7           0        2.401818   -0.981471    0.041371
      2          6           0        0.072430   -1.485619   -0.063419
      3          6           0        1.152489   -0.542924    0.016655
      4          6           0       -1.232957   -1.066199   -0.090967
      5          6           0       -1.557155    0.296807   -0.041900
      6          6           0       -0.544292    1.260294    0.036720
      7          6           0        0.736598    0.805224    0.061818
      8          1           0        0.337133   -2.535147   -0.100668
      9          1           0       -2.029310   -1.796843   -0.151587
     10          1           0       -2.593637    0.609148   -0.064692
     11          1           0       -0.783304    2.315900    0.075147
     12          1           0        3.036114   -0.185036    0.099180
[...]
 Alpha virt. eigenvalues --    2.75478   2.76957   2.79961   2.80874   2.82103
 Alpha virt. eigenvalues --    2.83389   2.84798   2.88556   2.89622   2.90401
 Alpha virt. eigenvalues --    2.91489   2.94681   2.95175   3.01803   3.02144
 Alpha virt. eigenvalues --    3.06788   3.10282   3.11621   3.13429   3.15492
 Alpha virt. eigenvalues --    3.18141   3.19023   3.20337   3.20800   3.27174
 Alpha virt. eigenvalues --    3.28453   3.28865   3.30001   3.34061   3.35241
 Alpha virt. eigenvalues --    3.37410   3.39340   3.40929   3.41749   3.43531
 Alpha virt. eigenvalues --    3.45044   3.47570   3.49551   3.53988   3.56935
 Alpha virt. eigenvalues --    3.56947   3.59094   3.61391   3.64313   3.69512
 Alpha virt. eigenvalues --    3.71340   3.77180   3.78587   3.86074   3.87505
 Alpha virt. eigenvalues --    3.99191   4.03059   4.03286   4.05907   4.06083
 Alpha virt. eigenvalues --    4.12007   4.14220   4.18661   4.22681   4.28722
 Alpha virt. eigenvalues --    4.29528   4.32502   4.33282   4.38219   4.42161
 Alpha virt. eigenvalues --    4.46307   4.46559   4.56229   4.64433   4.67261
 Alpha virt. eigenvalues --    4.73631   4.76509   4.81321   4.82979   4.84518
 Alpha virt. eigenvalues --    4.88262   4.93233   5.00071   5.02750   5.14411
 Alpha virt. eigenvalues --    5.22180   5.29487   5.31115   5.33601   5.40729
 Alpha virt. eigenvalues --    5.50049   5.55954   5.62632   5.72358   6.08578
 Alpha virt. eigenvalues --   22.10461  22.59815  22.65145  22.75954  22.90323
 Alpha virt. eigenvalues --   23.29480  32.12227
  Beta  occ. eigenvalues --  -14.42632 -10.34099 -10.31600 -10.31382 -10.31243
  Beta  occ. eigenvalues --  -10.30560 -10.30447  -1.00731  -0.94637  -0.85858
  Beta  occ. eigenvalues --   -0.81092  -0.70261  -0.69007  -0.60561  -0.57887
  Beta  occ. eigenvalues --   -0.54921  -0.52339  -0.48190  -0.47581  -0.46431
  Beta  occ. eigenvalues --   -0.38226  -0.35965  -0.34827
  Beta virt. eigenvalues --   -0.05085  -0.03257   0.06156   0.09079   0.12500
  Beta virt. eigenvalues --    0.15217   0.15734   0.17385   0.18938   0.20173
  Beta virt. eigenvalues --    0.22824   0.25947   0.26334   0.27334   0.27801
  Beta virt. eigenvalues --    0.29898   0.31714   0.32022   0.33036   0.34018
  Beta virt. eigenvalues --    0.34886   0.38328   0.40178   0.40312   0.40980
  Beta virt. eigenvalues --    0.41742   0.42936   0.44690   0.47130   0.48386
  Beta virt. eigenvalues --    0.48432   0.49139   0.50219   0.51114   0.51554
  Beta virt. eigenvalues --    0.54466   0.54643   0.56026   0.58053   0.58349
  Beta virt. eigenvalues --    0.59346   0.61214   0.65771   0.68937   0.70164
  Beta virt. eigenvalues --    0.70259   0.72920   0.75650   0.77870   0.79200
  Beta virt. eigenvalues --    0.81260   0.81523   0.84952   0.87194   0.89992
  Beta virt. eigenvalues --    0.91371   0.93973   0.94959   0.96187   1.07283
  Beta virt. eigenvalues --    1.07690   1.08093   1.11160   1.14428   1.14546
  Beta virt. eigenvalues --    1.16732   1.20521   1.24109   1.27806   1.28421
  Beta virt. eigenvalues --    1.28995   1.30013   1.31726   1.35659   1.35948
  Beta virt. eigenvalues --    1.36847   1.42796   1.47567   1.47637   1.50035
  Beta virt. eigenvalues --    1.52174   1.55993   1.56659   1.58004   1.58269
  Beta virt. eigenvalues --    1.62304   1.63506   1.65373   1.68520   1.70944
  Beta virt. eigenvalues --    1.73279   1.74533   1.76536   1.76814   1.80794
  Beta virt. eigenvalues --    1.84922   1.84932   1.91032   1.92908   1.95239
  Beta virt. eigenvalues --    1.99371   2.02258   2.07554   2.08465   2.10187
  Beta virt. eigenvalues --    2.14648   2.16859   2.20080   2.21737   2.24340
  Beta virt. eigenvalues --    2.27997   2.30959   2.32965   2.37842   2.41008
  Beta virt. eigenvalues --    2.41622   2.46246   2.52474   2.58364   2.61754
  Beta virt. eigenvalues --    2.64314   2.65179   2.66773   2.68459   2.68594
  Beta virt. eigenvalues --    2.71217   2.74056   2.76026   2.77818   2.80828
  Beta virt. eigenvalues --    2.81821   2.82774   2.84424   2.86426   2.89360
  Beta virt. eigenvalues --    2.90831   2.91511   2.92107   2.95288   2.96186
  Beta virt. eigenvalues --    3.03350   3.03747   3.07579   3.10951   3.12374
  Beta virt. eigenvalues --    3.14218   3.17342   3.19427   3.19743   3.21538
  Beta virt. eigenvalues --    3.22177   3.28038   3.29542   3.29816   3.30734
  Beta virt. eigenvalues --    3.35218   3.37660   3.38740   3.39956   3.43193
  Beta virt. eigenvalues --    3.43228   3.45921   3.47891   3.48264   3.50099
  Beta virt. eigenvalues --    3.54808   3.57933   3.58371   3.61264   3.62803
  Beta virt. eigenvalues --    3.65839   3.70231   3.72681   3.78781   3.80339
  Beta virt. eigenvalues --    3.87461   3.88772   3.99864   4.04028   4.04153
  Beta virt. eigenvalues --    4.06699   4.08117   4.13099   4.15592   4.19110
  Beta virt. eigenvalues --    4.23333   4.29459   4.30687   4.34294   4.35194
  Beta virt. eigenvalues --    4.40439   4.43501   4.48139   4.48155   4.58191
  Beta virt. eigenvalues --    4.65780   4.68900   4.76913   4.77844   4.82623
  Beta virt. eigenvalues --    4.85102   4.85356   4.89683   4.96999   5.01657
  Beta virt. eigenvalues --    5.05304   5.15284   5.23354   5.30931   5.33458
  Beta virt. eigenvalues --    5.34491   5.41804   5.51395   5.56626   5.63826
  Beta virt. eigenvalues --    5.73479   6.09461  22.11335  22.61043  22.65799
  Beta virt. eigenvalues --   22.76561  22.90284  23.29455  32.13617
          Condensed to atoms (all electrons):
               1          2          3          4          5          6
     1  N    6.550211  -0.063882   0.577892  -0.000631  -0.000868   0.018164
     2  C   -0.063882   4.931912   0.430485   0.540432  -0.035604  -0.023443
     3  C    0.577892   0.430485   4.699675  -0.013615  -0.040696   0.018208
     4  C   -0.000631   0.540432  -0.013615   4.867569   0.453802  -0.000176
     5  C   -0.000868  -0.035604  -0.040696   0.453802   4.906789   0.430138
     6  C    0.018164  -0.023443   0.018208  -0.000176   0.430138   5.019250
     7  C   -0.119756  -0.052504   0.383044  -0.059858   0.007877   0.365052
     8  H    0.011200   0.412269  -0.037522  -0.050854   0.010737  -0.006135
     9  H   -0.000122  -0.046541   0.009603   0.437177  -0.051585   0.009177
    10  H    0.000024   0.007802  -0.002386  -0.048121   0.429918  -0.047849
    11  H   -0.000224  -0.001161   0.003458   0.005245  -0.044095   0.414414
    12  H    0.353152   0.013235  -0.076163  -0.000074  -0.000720   0.007095
               7          8          9         10         11         12
     1  N   -0.119756   0.011200  -0.000122   0.000024  -0.000224   0.353152
     2  C   -0.052504   0.412269  -0.046541   0.007802  -0.001161   0.013235
     3  C    0.383044  -0.037522   0.009603  -0.002386   0.003458  -0.076163
     4  C   -0.059858  -0.050854   0.437177  -0.048121   0.005245  -0.000074
     5  C    0.007877   0.010737  -0.051585   0.429918  -0.044095  -0.000720
     6  C    0.365052  -0.006135   0.009177  -0.047849   0.414414   0.007095
     7  C    5.482475   0.017488  -0.003727   0.009185  -0.027680  -0.026353
     8  H    0.017488   0.510623  -0.007434  -0.000006   0.000063  -0.001557
     9  H   -0.003727  -0.007434   0.528656  -0.005868  -0.000142   0.000035
    10  H    0.009185  -0.000006  -0.005868   0.523736  -0.004189  -0.000008
    11  H   -0.027680   0.000063  -0.000142  -0.004189   0.513391  -0.000084
    12  H   -0.026353  -0.001557   0.000035  -0.000008  -0.000084   0.516242
          Atomic-Atomic Spin Densities.
               1          2          3          4          5          6
     1  N    0.681394  -0.028452  -0.005382  -0.000404   0.001246  -0.003661
     2  C   -0.028452   0.329286   0.020615  -0.006038  -0.017730   0.002438
     3  C   -0.005382   0.020615  -0.183686   0.012308  -0.004245   0.013384
     4  C   -0.000404  -0.006038   0.012308  -0.165340   0.002190   0.016314
     5  C    0.001246  -0.017730  -0.004245   0.002190   0.405301   0.020018
     6  C   -0.003661   0.002438   0.013384   0.016314   0.020018  -0.237187
     7  C   -0.025608  -0.011494   0.001869  -0.013047  -0.037722   0.012409
     8  H    0.000299  -0.000611  -0.001523  -0.002474   0.000051  -0.000098
     9  H   -0.000027  -0.001028  -0.000341   0.004268  -0.001663   0.000116
    10  H    0.000016  -0.000252   0.000106  -0.002429  -0.003010  -0.002249
    11  H    0.000087  -0.000460   0.000187  -0.000464  -0.008571   0.011227
    12  H   -0.005508   0.002228   0.006990   0.000138   0.000113  -0.000885
               7          8          9         10         11         12
     1  N   -0.025608   0.000299  -0.000027   0.000016   0.000087  -0.005508
     2  C   -0.011494  -0.000611  -0.001028  -0.000252  -0.000460   0.002228
     3  C    0.001869  -0.001523  -0.000341   0.000106   0.000187   0.006990
     4  C   -0.013047  -0.002474   0.004268  -0.002429  -0.000464   0.000138
     5  C   -0.037722   0.000051  -0.001663  -0.003010  -0.008571   0.000113
     6  C    0.012409  -0.000098   0.000116  -0.002249   0.011227  -0.000885
     7  C    1.259622   0.001731  -0.000983   0.003193  -0.008285   0.005464
     8  H    0.001731   0.002205  -0.000531   0.000087   0.000022  -0.000056
     9  H   -0.000983  -0.000531   0.007456  -0.000778  -0.000053   0.000002
    10  H    0.003193   0.000087  -0.000778  -0.000545   0.001794  -0.000004
    11  H   -0.008285   0.000022  -0.000053   0.001794   0.031208  -0.000040
    12  H    0.005464  -0.000056   0.000002  -0.000004  -0.000040  -0.019321
 Mulliken charges and spin densities:
               1          2
     1  N   -0.325160   0.614001
     2  C   -0.113000   0.288503
     3  C    0.048017  -0.139718
     4  C   -0.130896  -0.154979
     5  C   -0.065691   0.355979
     6  C   -0.203894  -0.168175
     7  C    0.024757   1.187150
     8  H    0.141128  -0.000898
     9  H    0.130773   0.006438
    10  H    0.137762  -0.004071
    11  H    0.141005   0.026651
    12  H    0.215201  -0.010880
 Sum of Mulliken charges =  -0.00000   2.00000
 Mulliken charges and spin densities with hydrogens summed into heavy atoms:
               1          2
     1  N   -0.109959   0.603121
     2  C    0.028127   0.287604
     3  C    0.048017  -0.139718
     4  C   -0.000123  -0.148541
     5  C    0.072071   0.351908
     6  C   -0.062889  -0.141524
     7  C    0.024757   1.187150
 Electronic spatial extent (au):  <R**2>=            631.3166
 Charge=             -0.0000 electrons
 Dipole moment (field-independent basis, Debye):
    X=             -2.5493    Y=             -0.5606    Z=             -0.0000  Tot=              2.6102
 Quadrupole moment (field-independent basis, Debye-Ang):
   XX=            -40.8040   YY=            -36.3033   ZZ=            -43.5501
   XY=             -2.8907   XZ=              0.0000   YZ=             -0.0000
 Traceless Quadrupole moment (field-independent basis, Debye-Ang):
   XX=             -0.5849   YY=              3.9158   ZZ=             -3.3310
   XY=             -2.8907   XZ=              0.0000   YZ=             -0.0000
 Octapole moment (field-independent basis, Debye-Ang**2):
  XXX=            -22.0713  YYY=              4.9882  ZZZ=             -0.0000  XYY=             -1.7213
  XXY=            -12.1936  XXZ=             -0.0000  XZZ=              2.2974  YZZ=             -0.0065
  YYZ=             -0.0000  XYZ=              0.0000
 Hexadecapole moment (field-independent basis, Debye-Ang**3):
 XXXX=           -540.5334 YYYY=           -262.8882 ZZZZ=            -48.9842 XXXY=            -36.9774
 XXXZ=              0.0000 YYYX=              3.7195 YYYZ=             -0.0000 ZZZX=              0.0000
 ZZZY=             -0.0000 XXYY=           -118.6238 XXZZ=           -104.0161 YYZZ=            -60.9297
 XXYZ=             -0.0000 YYXZ=              0.0000 ZZXY=             -0.9897
 N-N= 2.515569515796D+02 E-N=-1.168147448959D+03  KE= 2.849434469400D+02
                          Isotropic Fermi Contact Couplings
        Atom                 a.u.       MegaHertz       Gauss      10(-4) cm-1
     1  N(14)              0.06591      10.64863       3.79970       3.55200
     2  C(13)              0.04331      24.34192       8.68580       8.11959
     3  C(13)             -0.02729     -15.34206      -5.47443      -5.11756
     4  C(13)             -0.02481     -13.94823      -4.97707      -4.65263
     5  C(13)              0.06468      36.35717      12.97314      12.12745
     6  C(13)             -0.01095      -6.15700      -2.19697      -2.05376
     7  C(13)              0.34621     194.60151      69.43866      64.91208
     8  H(1)               0.00036       0.80671       0.28786       0.26909
     9  H(1)               0.00275       6.14220       2.19169       2.04882
    10  H(1)              -0.00208      -4.64774      -1.65843      -1.55032
    11  H(1)               0.01360      30.38515      10.84218      10.13540
    12  H(1)              -0.00928     -20.75002      -7.40412      -6.92146
 --------------------------------------------------------
       Center         ----  Spin Dipole Couplings  ----
                      3XX-RR        3YY-RR        3ZZ-RR
 --------------------------------------------------------
     1   Atom       -0.674261     -0.687454      1.361715
     2   Atom       -0.177604     -0.105888      0.283492
     3   Atom        0.108124      0.151905     -0.260029
     4   Atom        0.094133      0.090469     -0.184601
     5   Atom       -0.191282     -0.159451      0.350733
     6   Atom        0.188509      0.070941     -0.259449
     7   Atom       -0.373944      0.471916     -0.097972
     8   Atom       -0.010434      0.020442     -0.010007
     9   Atom        0.006314      0.001748     -0.008063
    10   Atom        0.034735     -0.028791     -0.005944
    11   Atom        0.026112     -0.008576     -0.017536
    12   Atom       -0.027723      0.050249     -0.022526
 --------------------------------------------------------
                        XY            XZ            YZ
 --------------------------------------------------------
     1   Atom        0.027249     -0.000000     -0.000000
     2   Atom       -0.030629      0.000000     -0.000000
     3   Atom        0.052662     -0.000000      0.000000
     4   Atom       -0.001687      0.000000      0.000000
     5   Atom       -0.046980     -0.000000      0.000000
     6   Atom       -0.033876      0.000000     -0.000000
     7   Atom       -0.642318      0.000000      0.000000
     8   Atom        0.016975     -0.000000     -0.000000
     9   Atom        0.004179      0.000000      0.000000
    10   Atom       -0.003944      0.000000      0.000000
    11   Atom        0.005253     -0.000000     -0.000000
    12   Atom       -0.039441     -0.000000      0.000000
 --------------------------------------------------------


 ---------------------------------------------------------------------------------
              Anisotropic Spin Dipole Couplings in Principal Axis System
 ---------------------------------------------------------------------------------

       Atom             a.u.   MegaHertz   Gauss  10(-4) cm-1        Axes

              Baa    -0.7089   -27.340    -9.756    -9.120 -0.6183  0.7859 -0.0000
     1 N(14)  Bbb    -0.6528   -25.178    -8.984    -8.398  0.7859  0.6183  0.0000
              Bcc     1.3617    52.518    18.740    17.518 -0.0000 -0.0000  1.0000
 
              Baa    -0.1889   -25.349    -9.045    -8.456  0.9382  0.3461 -0.0000
     2 C(13)  Bbb    -0.0946   -12.693    -4.529    -4.234 -0.3461  0.9382  0.0000
              Bcc     0.2835    38.042    13.574    12.689  0.0000 -0.0000  1.0000
 
              Baa    -0.2600   -34.893   -12.451   -11.639  0.0000 -0.0000  1.0000
     3 C(13)  Bbb     0.0730     9.794     3.495     3.267  0.8318 -0.5551 -0.0000
              Bcc     0.1870    25.100     8.956     8.372  0.5551  0.8318  0.0000
 
              Baa    -0.1846   -24.772    -8.839    -8.263 -0.0000 -0.0000  1.0000
     4 C(13)  Bbb     0.0898    12.052     4.300     4.020  0.3635  0.9316  0.0000
              Bcc     0.0948    12.720     4.539     4.243  0.9316 -0.3635  0.0000
 
              Baa    -0.2250   -30.189   -10.772   -10.070  0.8127  0.5827  0.0000
     5 C(13)  Bbb    -0.1258   -16.876    -6.022    -5.629 -0.5827  0.8127 -0.0000
              Bcc     0.3507    47.065    16.794    15.699 -0.0000  0.0000  1.0000
 
              Baa    -0.2594   -34.816   -12.423   -11.613  0.0000  0.0000  1.0000
     6 C(13)  Bbb     0.0619     8.303     2.963     2.770  0.2584  0.9660 -0.0000
              Bcc     0.1976    26.512     9.460     8.843  0.9660 -0.2584  0.0000
 
              Baa    -0.7201   -96.626   -34.479   -32.231  0.8803  0.4744 -0.0000
     7 C(13)  Bbb    -0.0980   -13.147    -4.691    -4.385  0.0000  0.0000  1.0000
              Bcc     0.8180   109.773    39.170    36.616 -0.4744  0.8803 -0.0000
 
              Baa    -0.0179    -9.573    -3.416    -3.193  0.9146 -0.4045 -0.0000
     8 H(1)   Bbb    -0.0100    -5.339    -1.905    -1.781  0.0000  0.0000  1.0000
              Bcc     0.0279    14.912     5.321     4.974  0.4045  0.9146 -0.0000
 
              Baa    -0.0081    -4.302    -1.535    -1.435 -0.0000 -0.0000  1.0000
     9 H(1)   Bbb    -0.0007    -0.390    -0.139    -0.130 -0.5102  0.8601  0.0000
              Bcc     0.0088     4.692     1.674     1.565  0.8601  0.5102  0.0000
 
              Baa    -0.0290   -15.492    -5.528    -5.167  0.0617  0.9981 -0.0000
    10 H(1)   Bbb    -0.0059    -3.172    -1.132    -1.058 -0.0000  0.0000  1.0000
              Bcc     0.0350    18.663     6.659     6.225  0.9981 -0.0617  0.0000
 
              Baa    -0.0175    -9.357    -3.339    -3.121 -0.0000  0.0000  1.0000
    11 H(1)   Bbb    -0.0094    -4.991    -1.781    -1.665 -0.1465  0.9892 -0.0000
              Bcc     0.0269    14.347     5.119     4.786  0.9892  0.1465 -0.0000
 
              Baa    -0.0442   -23.580    -8.414    -7.865  0.9228  0.3854  0.0000
    12 H(1)   Bbb    -0.0225   -12.019    -4.289    -4.009 -0.0000 -0.0000  1.0000
              Bcc     0.0667    35.599    12.702    11.874 -0.3854  0.9228  0.0000
 

 ---------------------------------------------------------------------------------

 No NMR shielding tensors so no spin-rotation constants.
 Leave Link  601 at Mon Mar  2 00:37:39 2020, MaxMem=  1879048192 cpu:             100.2 elap:               3.3
 (Enter /opt/g16/l9999.exe)

 Test job not archived.
 1\1\GINC-NODE06\FOpt\UwB97XD\def2TZVP\C6H5N1(3)\ALONGD\02-Mar-2020\0\\
 #P opt=(tight) guess=read uwb97xd/def2tzvp scf=(tight, direct) integra
 l=(grid=ultrafine, Acc2E=12) scf=xqc iop(2/9=2000)\\name\\0,3\N,2.4018
 547418,-0.9814416572,0.0413733907\C,0.0724441423,-1.4856381723,-0.0634
 190028\C,1.1524620088,-0.5429449525,0.0166530492\C,-1.2329601002,-1.06
 6181908,-0.0909664053\C,-1.5571437158,0.2967918584,-0.0419002374\C,-0.
 5442613207,1.260304318,0.0367210124\C,0.7365825779,0.8051874684,0.0618
 161348\H,0.3370728886,-2.5351738752,-0.1006709687\H,-2.0293166997,-1.7
 968151232,-0.151585711\H,-2.5936166132,0.6091497909,-0.0646910775\H,-0
 .7833346094,2.3158862765,0.0751456054\H,3.0361446994,-0.1849900241,0.0
 991832166\\Version=ES64L-G16RevB.01\State=3-A\HF=-286.2651142\S2=2.081
 994\S2-1=0.\S2A=2.003248\RMSD=7.968e-09\RMSF=3.654e-06\Dipole=-0.88378
 09,0.5229316,-0.0080374\Quadrupole=1.1578992,1.2980697,-2.4559689,2.71
 25099,0.2490311,0.2635896\PG=C01 [X(C6H5N1)]\\@


 TO DETECT ERRORS, THE PROGRAMMER MUST HAVE A CONNIVING MIND,
 ONE THAT DELIGHTS IN UNCOVERING FLAWS WHERE BEAUTY AND
 PERFECTION WERE ONCE THOUGHT TO LIE.

             -- THE PSYCHOLOGY OF COMPUTER PROGRAMMING
                GERALD M. WEINBERG
 Job cpu time:       0 days  5 hours 42 minutes 12.1 seconds.
 Elapsed time:       0 days  0 hours 10 minutes 46.7 seconds.
 File lengths (MBytes):  RWF=     62 Int=      0 D2E=      0 Chk=      7 Scr=      1
 Normal termination of Gaussian 16 at Mon Mar  2 00:37:39 2020.
