 Entering Gaussian System, Link 0=g16
 Initial command:
 /opt/g16/l1.exe "/scratch/alongd/g16/a33753-33015/Gau-22012.inp" -scrdir="/scratch/alongd/g16/a33753-33015/"
 Entering Link 1 = /opt/g16/l1.exe PID=     22014.
  
 Copyright (c) 1988-2017, Gaussian, Inc.  All Rights Reserved.
  
 This is part of the Gaussian(R) 16 program.  It is based on
 the Gaussian(R) 09 system (copyright 2009, Gaussian, Inc.),
 the Gaussian(R) 03 system (copyright 2003, Gaussian, Inc.),
 the Gaussian(R) 98 system (copyright 1998, Gaussian, Inc.),
 the Gaussian(R) 94 system (copyright 1995, Gaussian, Inc.),
 the Gaussian 92(TM) system (copyright 1992, Gaussian, Inc.),
 the Gaussian 90(TM) system (copyright 1990, Gaussian, Inc.),
 the Gaussian 88(TM) system (copyright 1988, Gaussian, Inc.),
 the Gaussian 86(TM) system (copyright 1986, Carnegie Mellon
 University), and the Gaussian 82(TM) system (copyright 1983,
 Carnegie Mellon University). Gaussian is a federally registered
 trademark of Gaussian, Inc.
  
 This software contains proprietary and confidential information,
 including trade secrets, belonging to Gaussian, Inc.
  
 This software is provided under written license and may be
 used, copied, transmitted, or stored only in accord with that
 written license.
  
 The following legend is applicable only to US Government
 contracts under FAR:
  
                    RESTRICTED RIGHTS LEGEND
  
 Use, reproduction and disclosure by the US Government is
 subject to restrictions as set forth in subparagraphs (a)
 and (c) of the Commercial Computer Software - Restricted
 Rights clause in FAR 52.227-19.
  
 Gaussian, Inc.
 340 Quinnipiac St., Bldg. 40, Wallingford CT 06492
  
  
 ---------------------------------------------------------------
 Warning -- This program may not be used in any manner that
 competes with the business of Gaussian, Inc. or will provide
 assistance to any competitor of Gaussian, Inc.  The licensee
 of this program is prohibited from giving any competitor of
 Gaussian, Inc. access to this program.  By using this program,
 the user acknowledges that Gaussian, Inc. is engaged in the
 business of creating and licensing software in the field of
 computational chemistry and represents and warrants to the
 licensee that it is not a competitor of Gaussian, Inc. and that
 it will not use this program in any manner prohibited above.
 ---------------------------------------------------------------
  

 Cite this work as:
 Gaussian 16, Revision B.01,
 M. J. Frisch, G. W. Trucks, H. B. Schlegel, G. E. Scuseria, 
 M. A. Robb, J. R. Cheeseman, G. Scalmani, V. Barone, 
 G. A. Petersson, H. Nakatsuji, X. Li, M. Caricato, A. V. Marenich, 
 J. Bloino, B. G. Janesko, R. Gomperts, B. Mennucci, H. P. Hratchian, 
 J. V. Ortiz, A. F. Izmaylov, J. L. Sonnenberg, D. Williams-Young, 
 F. Ding, F. Lipparini, F. Egidi, J. Goings, B. Peng, A. Petrone, 
 T. Henderson, D. Ranasinghe, V. G. Zakrzewski, J. Gao, N. Rega, 
 G. Zheng, W. Liang, M. Hada, M. Ehara, K. Toyota, R. Fukuda, 
 J. Hasegawa, M. Ishida, T. Nakajima, Y. Honda, O. Kitao, H. Nakai, 
 T. Vreven, K. Throssell, J. A. Montgomery, Jr., J. E. Peralta, 
 F. Ogliaro, M. J. Bearpark, J. J. Heyd, E. N. Brothers, K. N. Kudin, 
 V. N. Staroverov, T. A. Keith, R. Kobayashi, J. Normand, 
 K. Raghavachari, A. P. Rendell, J. C. Burant, S. S. Iyengar, 
 J. Tomasi, M. Cossi, J. M. Millam, M. Klene, C. Adamo, R. Cammi, 
 J. W. Ochterski, R. L. Martin, K. Morokuma, O. Farkas, 
 J. B. Foresman, and D. J. Fox, Gaussian, Inc., Wallingford CT, 2016.
 
 ******************************************
 Gaussian 16:  ES64L-G16RevB.01 20-Dec-2017
                19-Feb-2020 
 ******************************************
 %chk=check.chk
 %mem=14336mb
 %NProcShared=8
 Will use up to    8 processors via shared memory.
 ------------------------------------------------------
 #P opt guess=mix wb97xd/def2tzvp scf=xqc iop(2/9=2000)
 ------------------------------------------------------
 1/18=20,19=15,26=3,38=1/1,3;
 2/9=2000,12=2,17=6,18=5,40=1/2;
 3/5=44,7=101,11=2,25=1,30=1,71=1,74=-58/1,2,3;
 4/13=-1/1;
 5/5=2,8=3,13=1,38=5/2,8;
 6/7=2,8=2,9=2,10=2,28=1/1;
 7//1,2,3,16;
 1/18=20,19=15,26=3/3(2);
 2/9=2000/2;
 99//99;
 2/9=2000/2;
 3/5=44,7=101,11=2,25=1,30=1,71=1,74=-58/1,2,3;
 4/5=5,16=3,69=1/1;
 5/5=2,8=3,13=1,38=5/2,8;
 7//1,2,3,16;
 1/18=20,19=15,26=3/3(-5);
 2/9=2000/2;
 6/7=2,8=2,9=2,10=2,19=2,28=1/1;
 99/9=1/99;
 Leave Link    1 at Wed Feb 19 14:50:55 2020, MaxMem=  1879048192 cpu:               0.6 elap:               0.1
 (Enter /opt/g16/l101.exe)
 ----
 name
 ----
 Symbolic Z-matrix:
 Charge =  0 Multiplicity = 1
 N                     0.70336   0.09748  -0.07305 
 N                    -0.70336  -0.09748  -0.07305 
 H                     1.054     0.38716   0.83156 
 H                    -1.054    -0.38716   0.83156 
 H                     1.14348  -0.7766   -0.32023 
 H                    -1.14348   0.7766   -0.32023 
 
 ITRead=  0  0  0  0  0  0
 MicOpt= -1 -1 -1 -1 -1 -1
 NAtoms=      6 NQM=        6 NQMF=       0 NMMI=      0 NMMIF=      0
                NMic=       0 NMicF=      0.
                    Isotopes and Nuclear Properties:
 (Nuclear quadrupole moments (NQMom) in fm**2, nuclear magnetic moments (NMagM)
  in nuclear magnetons)

  Atom         1           2           3           4           5           6
 IAtWgt=          14          14           1           1           1           1
 AtmWgt=  14.0030740  14.0030740   1.0078250   1.0078250   1.0078250   1.0078250
 NucSpn=           2           2           1           1           1           1
 AtZEff=  -0.0000000  -0.0000000  -0.0000000  -0.0000000  -0.0000000  -0.0000000
 NQMom=    2.0440000   2.0440000   0.0000000   0.0000000   0.0000000   0.0000000
 NMagM=    0.4037610   0.4037610   2.7928460   2.7928460   2.7928460   2.7928460
 AtZNuc=   7.0000000   7.0000000   1.0000000   1.0000000   1.0000000   1.0000000
 Leave Link  101 at Wed Feb 19 14:50:55 2020, MaxMem=  1879048192 cpu:               5.5 elap:               0.7
 (Enter /opt/g16/l103.exe)

 GradGradGradGradGradGradGradGradGradGradGradGradGradGradGradGradGradGrad
 Berny optimization.
 Initialization pass.
                           ----------------------------
                           !    Initial Parameters    !
                           ! (Angstroms and Degrees)  !
 --------------------------                            --------------------------
 ! Name  Definition              Value          Derivative Info.                !
 --------------------------------------------------------------------------------
 ! R1    R(1,2)                  1.4202         estimate D2E/DX2                !
 ! R2    R(1,3)                  1.0125         estimate D2E/DX2                !
 ! R3    R(1,5)                  1.0094         estimate D2E/DX2                !
 ! R4    R(2,4)                  1.0125         estimate D2E/DX2                !
 ! R5    R(2,6)                  1.0094         estimate D2E/DX2                !
 ! A1    A(2,1,3)              112.4762         estimate D2E/DX2                !
 ! A2    A(2,1,5)              108.2415         estimate D2E/DX2                !
 ! A3    A(3,1,5)              108.3938         estimate D2E/DX2                !
 ! A4    A(1,2,4)              112.4762         estimate D2E/DX2                !
 ! A5    A(1,2,6)              108.2415         estimate D2E/DX2                !
 ! A6    A(4,2,6)              108.3938         estimate D2E/DX2                !
 ! D1    D(3,1,2,4)            -29.5759         estimate D2E/DX2                !
 ! D2    D(3,1,2,6)             90.1542         estimate D2E/DX2                !
 ! D3    D(5,1,2,4)             90.1542         estimate D2E/DX2                !
 ! D4    D(5,1,2,6)           -150.1157         estimate D2E/DX2                !
 --------------------------------------------------------------------------------
 Trust Radius=3.00D-01 FncErr=1.00D-07 GrdErr=1.00D-06 EigMax=2.50D+02 EigMin=1.00D-04
 Number of steps in this run=     25 maximum allowed number of steps=    100.
 GradGradGradGradGradGradGradGradGradGradGradGradGradGradGradGradGradGrad

 Leave Link  103 at Wed Feb 19 14:50:56 2020, MaxMem=  1879048192 cpu:               0.1 elap:               0.0
 (Enter /opt/g16/l202.exe)
                          Input orientation:                          
 ---------------------------------------------------------------------
 Center     Atomic      Atomic             Coordinates (Angstroms)
 Number     Number       Type             X           Y           Z
 ---------------------------------------------------------------------
      1          7           0        0.703364    0.097482   -0.073047
      2          7           0       -0.703364   -0.097482   -0.073047
      3          1           0        1.053996    0.387164    0.831558
      4          1           0       -1.053996   -0.387164    0.831558
      5          1           0        1.143481   -0.776599   -0.320227
      6          1           0       -1.143481    0.776599   -0.320227
 ---------------------------------------------------------------------
                    Distance matrix (angstroms):
                    1          2          3          4          5
     1  N    0.000000
     2  N    1.420173   0.000000
     3  H    1.012507   2.035069   0.000000
     4  H    2.035069   1.012507   2.245710   0.000000
     5  H    1.009365   1.983212   1.639805   2.511409   0.000000
     6  H    1.983212   1.009365   2.511409   1.639805   2.764529
                    6
     6  H    0.000000
 Stoichiometry    H4N2
 Framework group  C2[X(H4N2)]
 Deg. of freedom     7
 Full point group                 C2      NOp   2
 Largest Abelian subgroup         C2      NOp   2
 Largest concise Abelian subgroup C2      NOp   2
                         Standard orientation:                         
 ---------------------------------------------------------------------
 Center     Atomic      Atomic             Coordinates (Angstroms)
 Number     Number       Type             X           Y           Z
 ---------------------------------------------------------------------
      1          7           0        0.000000    0.710087   -0.073047
      2          7           0       -0.000000   -0.710087   -0.073047
      3          1           0       -0.238803    1.097167    0.831558
      4          1           0        0.238803   -1.097167    0.831558
      5          1           0        0.926225    1.026041   -0.320227
      6          1           0       -0.926225   -1.026041   -0.320227
 ---------------------------------------------------------------------
 Rotational constants (GHZ):         146.5594332          24.6512577          24.6359395
 Leave Link  202 at Wed Feb 19 14:50:56 2020, MaxMem=  1879048192 cpu:               0.0 elap:               0.0
 (Enter /opt/g16/l301.exe)
 Standard basis: def2TZVP (5D, 7F)
 Ernie: Thresh=  0.10000D-02 Tol=  0.10000D-05 Strict=F.
 There are    48 symmetry adapted cartesian basis functions of A   symmetry.
 There are    48 symmetry adapted cartesian basis functions of B   symmetry.
 There are    43 symmetry adapted basis functions of A   symmetry.
 There are    43 symmetry adapted basis functions of B   symmetry.
    86 basis functions,   134 primitive gaussians,    96 cartesian basis functions
     9 alpha electrons        9 beta electrons
       nuclear repulsion energy        41.7847175649 Hartrees.
 IExCor= 4639 DFT=T Ex+Corr=wB97XD ExCW=0 ScaHFX=  1.000000
 ScaDFX=  1.000000  1.000000  1.000000  1.000000 ScalE2=  1.000000  1.000000
 IRadAn=      5 IRanWt=     -1 IRanGd=            0 ICorTp=0 IEmpDi=121
 HFx  wShort=  0.000000 wLong=  0.200000 cFull=  0.222036 cShort=  0.000000 cLong=  0.777964
 DFx  wShort=  0.000000 wLong=  0.200000 cFull=  0.000000 cShort=  0.000000 cLong=  1.000000
 NAtoms=    6 NActive=    6 NUniq=    3 SFac= 4.00D+00 NAtFMM=   60 NAOKFM=F Big=F
 Integral buffers will be    131072 words long.
 Raffenetti 2 integral format.
 Two-electron integral symmetry is turned on.
 R6Disp:  Grimme-D2 Dispersion energy=       -0.0008527579 Hartrees.
 Nuclear repulsion after empirical dispersion term =       41.7838648070 Hartrees.
 Leave Link  301 at Wed Feb 19 14:50:56 2020, MaxMem=  1879048192 cpu:               0.6 elap:               0.1
 (Enter /opt/g16/l302.exe)
 NPDir=0 NMtPBC=     1 NCelOv=     1 NCel=       1 NClECP=     1 NCelD=      1
         NCelK=      1 NCelE2=     1 NClLst=     1 CellRange=     0.0.
 One-electron integrals computed using PRISM.
 One-electron integral symmetry used in STVInt
   2 Symmetry operations used in ECPInt.
 ECPInt:  NShTT=     741 NPrTT=    2136 LenC2=     741 LenP2D=    1962.
 LDataN:  DoStor=T MaxTD1= 6 Len=  172
 NBasis=    86 RedAO= T EigKep=  2.33D-03  NBF=    43    43
 NBsUse=    86 1.00D-06 EigRej= -1.00D+00 NBFU=    43    43
 Precomputing XC quadrature grid using
 IXCGrd= 4 IRadAn=           5 IRanWt=          -1 IRanGd=           0 AccXCQ= 0.00D+00.
 Generated NRdTot=       0 NPtTot=           0 NUsed=           0 NTot=          32
 NSgBfM=    96    96    96    96    96 MxSgAt=     6 MxSgA2=     6.
 Leave Link  302 at Wed Feb 19 14:50:56 2020, MaxMem=  1879048192 cpu:               1.6 elap:               0.2
 (Enter /opt/g16/l303.exe)
 DipDrv:  MaxL=1.
 Leave Link  303 at Wed Feb 19 14:50:56 2020, MaxMem=  1879048192 cpu:               0.4 elap:               0.1
 (Enter /opt/g16/l401.exe)
 ExpMin= 1.03D-01 ExpMax= 1.97D+04 ExpMxC= 6.73D+02 IAcc=3 IRadAn=         5 AccDes= 0.00D+00
 Harris functional with IExCor= 4639 and IRadAn=       5 diagonalized for initial guess.
 HarFok:  IExCor= 4639 AccDes= 0.00D+00 IRadAn=         5 IDoV= 1 UseB2=F ITyADJ=14
 ICtDFT=  3500011 ScaDFX=  1.000000  1.000000  1.000000  1.000000
 FoFCou: FMM=F IPFlag=           0 FMFlag=      100000 FMFlg1=           0
         NFxFlg=           0 DoJE=T BraDBF=F KetDBF=T FulRan=T
         wScrn=  0.000000 ICntrl=       500 IOpCl=  0 I1Cent=   200000004 NGrid=           0
         NMat0=    1 NMatS0=      1 NMatT0=    0 NMatD0=    1 NMtDS0=    0 NMtDT0=    0
 Petite list used in FoFCou.
 Harris En= -107.153990942772    
 JPrj=0 DoOrth=F DoCkMO=T.
 Mixing orbitals, IMix= 1 IMixAn=  0 NRI=1 NE=    9 Coef=  7.07106781D-01  7.07106781D-01
 Initial guess orbital symmetries:
       Occupied  (A) (B) (A) (B) (A) (B) (A) (B) (A)
       Virtual   (A) (B) (A) (B) (B) (A) (A) (B) (A) (B) (B) (A)
                 (B) (A) (A) (B) (B) (A) (B) (B) (A) (A) (A) (B)
                 (B) (A) (B) (A) (B) (B) (A) (B) (A) (A) (B) (A)
                 (B) (A) (B) (A) (B) (B) (A) (A) (B) (A) (A) (B)
                 (A) (B) (B) (A) (A) (B) (B) (A) (B) (A) (B) (A)
                 (B) (B) (A) (A) (A) (B) (B) (A) (B) (A) (B) (A)
                 (B) (A) (B) (A) (B)
 The electronic state of the initial guess is 1-A.
 Leave Link  401 at Wed Feb 19 14:50:56 2020, MaxMem=  1879048192 cpu:               2.8 elap:               0.4
 (Enter /opt/g16/l502.exe)
 Keep R1 ints in memory in symmetry-blocked form, NReq=21387008.
 FoFCou: FMM=F IPFlag=           0 FMFlag=           0 FMFlg1=           0
         NFxFlg=           0 DoJE=F BraDBF=F KetDBF=F FulRan=T
         wScrn=  0.000000 ICntrl=       600 IOpCl=  0 I1Cent=           0 NGrid=           0
         NMat0=    1 NMatS0=   3741 NMatT0=    0 NMatD0=    1 NMtDS0=    0 NMtDT0=    0
 Petite list used in FoFCou.
 Closed shell SCF:
 Using DIIS extrapolation, IDIIS=  1040.
 NGot=  1879048192 LenX=  1875518541 LenY=  1875508884
 Requested convergence on RMS density matrix=1.00D-08 within  32 cycles.
 Requested convergence on MAX density matrix=1.00D-06.
 Requested convergence on             energy=1.00D-06.
 No special actions if energy rises.
 Integral accuracy reduced to 1.0D-05 until final iterations.
 An orbital has undefined symmetry, so N**3 symmetry is turned off.

 Cycle   1  Pass 0  IDiag  1:
 E= -111.545303106436    
 DIIS: error= 5.53D-02 at cycle   1 NSaved=   1.
 NSaved= 1 IEnMin= 1 EnMin= -111.545303106436     IErMin= 1 ErrMin= 5.53D-02
 ErrMax= 5.53D-02  0.00D+00 EMaxC= 1.00D-01 BMatC= 3.20D-01 BMatP= 3.20D-01
 IDIUse=3 WtCom= 4.47D-01 WtEn= 5.53D-01
 Coeff-Com:  0.100D+01
 Coeff-En:   0.100D+01
 Coeff:      0.100D+01
 Gap=     0.182 Goal=   None    Shift=    0.000
 GapD=    0.182 DampG=1.000 DampE=0.500 DampFc=0.5000 IDamp=-1.
 Damping current iteration by 5.00D-01
 RMSDP=3.35D-02 MaxDP=5.79D-01              OVMax= 5.34D-01

 Cycle   2  Pass 0  IDiag  1:
 E= -111.673623342756     Delta-E=       -0.128320236320 Rises=F Damp=T
 DIIS: error= 2.21D-02 at cycle   2 NSaved=   2.
 NSaved= 2 IEnMin= 2 EnMin= -111.673623342756     IErMin= 2 ErrMin= 2.21D-02
 ErrMax= 2.21D-02  0.00D+00 EMaxC= 1.00D-01 BMatC= 6.15D-02 BMatP= 3.20D-01
 IDIUse=3 WtCom= 7.79D-01 WtEn= 2.21D-01
 Coeff-Com: -0.295D+00 0.129D+01
 Coeff-En:   0.000D+00 0.100D+01
 Coeff:     -0.230D+00 0.123D+01
 Gap=     0.340 Goal=   None    Shift=    0.000
 RMSDP=1.78D-02 MaxDP=2.96D-01 DE=-1.28D-01 OVMax= 1.06D-01

 Cycle   3  Pass 0  IDiag  1:
 E= -111.859793669528     Delta-E=       -0.186170326771 Rises=F Damp=F
 DIIS: error= 8.08D-03 at cycle   3 NSaved=   3.
 NSaved= 3 IEnMin= 3 EnMin= -111.859793669528     IErMin= 3 ErrMin= 8.08D-03
 ErrMax= 8.08D-03  0.00D+00 EMaxC= 1.00D-01 BMatC= 8.17D-03 BMatP= 6.15D-02
 IDIUse=3 WtCom= 9.19D-01 WtEn= 8.08D-02
 Coeff-Com: -0.178D+00 0.341D+00 0.837D+00
 Coeff-En:   0.000D+00 0.000D+00 0.100D+01
 Coeff:     -0.164D+00 0.314D+00 0.850D+00
 Gap=     0.423 Goal=   None    Shift=    0.000
 RMSDP=2.95D-03 MaxDP=2.81D-02 DE=-1.86D-01 OVMax= 9.70D-02

 Cycle   4  Pass 0  IDiag  1:
 E= -111.876146442893     Delta-E=       -0.016352773365 Rises=F Damp=F
 DIIS: error= 3.03D-03 at cycle   4 NSaved=   4.
 NSaved= 4 IEnMin= 4 EnMin= -111.876146442893     IErMin= 4 ErrMin= 3.03D-03
 ErrMax= 3.03D-03  0.00D+00 EMaxC= 1.00D-01 BMatC= 4.44D-04 BMatP= 8.17D-03
 IDIUse=3 WtCom= 9.70D-01 WtEn= 3.03D-02
 Coeff-Com:  0.672D-01-0.149D+00-0.318D+00 0.140D+01
 Coeff-En:   0.000D+00 0.000D+00 0.000D+00 0.100D+01
 Coeff:      0.651D-01-0.145D+00-0.309D+00 0.139D+01
 Gap=     0.442 Goal=   None    Shift=    0.000
 RMSDP=1.68D-03 MaxDP=1.79D-02 DE=-1.64D-02 OVMax= 6.24D-02

 Cycle   5  Pass 0  IDiag  1:
 E= -111.879152128531     Delta-E=       -0.003005685638 Rises=F Damp=F
 DIIS: error= 7.27D-04 at cycle   5 NSaved=   5.
 NSaved= 5 IEnMin= 5 EnMin= -111.879152128531     IErMin= 5 ErrMin= 7.27D-04
 ErrMax= 7.27D-04  0.00D+00 EMaxC= 1.00D-01 BMatC= 3.73D-05 BMatP= 4.44D-04
 IDIUse=3 WtCom= 9.93D-01 WtEn= 7.27D-03
 Coeff-Com: -0.754D-04-0.682D-03-0.518D-01-0.386D-01 0.109D+01
 Coeff-En:   0.000D+00 0.000D+00 0.000D+00 0.000D+00 0.100D+01
 Coeff:     -0.749D-04-0.677D-03-0.514D-01-0.383D-01 0.109D+01
 Gap=     0.442 Goal=   None    Shift=    0.000
 RMSDP=3.25D-04 MaxDP=3.39D-03 DE=-3.01D-03 OVMax= 1.27D-02

 Cycle   6  Pass 0  IDiag  1:
 E= -111.879283244453     Delta-E=       -0.000131115922 Rises=F Damp=F
 DIIS: error= 1.20D-04 at cycle   6 NSaved=   6.
 NSaved= 6 IEnMin= 6 EnMin= -111.879283244453     IErMin= 6 ErrMin= 1.20D-04
 ErrMax= 1.20D-04  0.00D+00 EMaxC= 1.00D-01 BMatC= 1.04D-06 BMatP= 3.73D-05
 IDIUse=3 WtCom= 9.99D-01 WtEn= 1.20D-03
 Coeff-Com: -0.432D-02 0.854D-02 0.173D-01-0.717D-01 0.326D-01 0.102D+01
 Coeff-En:   0.000D+00 0.000D+00 0.000D+00 0.000D+00 0.000D+00 0.100D+01
 Coeff:     -0.432D-02 0.853D-02 0.173D-01-0.716D-01 0.326D-01 0.102D+01
 Gap=     0.441 Goal=   None    Shift=    0.000
 RMSDP=3.89D-05 MaxDP=3.80D-04 DE=-1.31D-04 OVMax= 1.60D-03

 Cycle   7  Pass 0  IDiag  1:
 E= -111.879286400213     Delta-E=       -0.000003155760 Rises=F Damp=F
 DIIS: error= 2.78D-05 at cycle   7 NSaved=   7.
 NSaved= 7 IEnMin= 7 EnMin= -111.879286400213     IErMin= 7 ErrMin= 2.78D-05
 ErrMax= 2.78D-05  0.00D+00 EMaxC= 1.00D-01 BMatC= 5.55D-08 BMatP= 1.04D-06
 IDIUse=1 WtCom= 1.00D+00 WtEn= 0.00D+00
 Coeff-Com:  0.264D-03-0.588D-03 0.978D-03-0.182D-02-0.378D-01 0.800D-01
 Coeff-Com:  0.959D+00
 Coeff:      0.264D-03-0.588D-03 0.978D-03-0.182D-02-0.378D-01 0.800D-01
 Coeff:      0.959D+00
 Gap=     0.441 Goal=   None    Shift=    0.000
 RMSDP=1.02D-05 MaxDP=1.02D-04 DE=-3.16D-06 OVMax= 4.15D-04

 Cycle   8  Pass 0  IDiag  1:
 E= -111.879286555700     Delta-E=       -0.000000155487 Rises=F Damp=F
 DIIS: error= 5.25D-06 at cycle   8 NSaved=   8.
 NSaved= 8 IEnMin= 8 EnMin= -111.879286555700     IErMin= 8 ErrMin= 5.25D-06
 ErrMax= 5.25D-06  0.00D+00 EMaxC= 1.00D-01 BMatC= 2.23D-09 BMatP= 5.55D-08
 IDIUse=1 WtCom= 1.00D+00 WtEn= 0.00D+00
 Coeff-Com:  0.535D-04-0.579D-04-0.603D-03 0.295D-02 0.472D-04-0.370D-01
 Coeff-Com: -0.887D-01 0.112D+01
 Coeff:      0.535D-04-0.579D-04-0.603D-03 0.295D-02 0.472D-04-0.370D-01
 Coeff:     -0.887D-01 0.112D+01
 Gap=     0.441 Goal=   None    Shift=    0.000
 RMSDP=2.36D-06 MaxDP=2.54D-05 DE=-1.55D-07 OVMax= 7.08D-05

 Initial convergence to 1.0D-05 achieved.  Increase integral accuracy.
 Cycle   9  Pass 1  IDiag  1:
 E= -111.879288206663     Delta-E=       -0.000001650963 Rises=F Damp=F
 DIIS: error= 1.02D-05 at cycle   1 NSaved=   1.
 NSaved= 1 IEnMin= 1 EnMin= -111.879288206663     IErMin= 1 ErrMin= 1.02D-05
 ErrMax= 1.02D-05  0.00D+00 EMaxC= 1.00D-01 BMatC= 1.07D-08 BMatP= 1.07D-08
 IDIUse=1 WtCom= 1.00D+00 WtEn= 0.00D+00
 Coeff-Com:  0.100D+01
 Coeff:      0.100D+01
 Gap=     0.441 Goal=   None    Shift=    0.000
 RMSDP=2.36D-06 MaxDP=2.54D-05 DE=-1.65D-06 OVMax= 1.94D-05

 Cycle  10  Pass 1  IDiag  1:
 E= -111.879288213484     Delta-E=       -0.000000006821 Rises=F Damp=F
 DIIS: error= 2.55D-06 at cycle   2 NSaved=   2.
 NSaved= 2 IEnMin= 2 EnMin= -111.879288213484     IErMin= 2 ErrMin= 2.55D-06
 ErrMax= 2.55D-06  0.00D+00 EMaxC= 1.00D-01 BMatC= 4.65D-10 BMatP= 1.07D-08
 IDIUse=1 WtCom= 1.00D+00 WtEn= 0.00D+00
 Coeff-Com:  0.314D-01 0.969D+00
 Coeff:      0.314D-01 0.969D+00
 Gap=     0.441 Goal=   None    Shift=    0.000
 RMSDP=3.16D-07 MaxDP=3.22D-06 DE=-6.82D-09 OVMax= 9.29D-06

 Cycle  11  Pass 1  IDiag  1:
 E= -111.879288213682     Delta-E=       -0.000000000197 Rises=F Damp=F
 DIIS: error= 1.92D-06 at cycle   3 NSaved=   3.
 NSaved= 3 IEnMin= 3 EnMin= -111.879288213682     IErMin= 3 ErrMin= 1.92D-06
 ErrMax= 1.92D-06  0.00D+00 EMaxC= 1.00D-01 BMatC= 3.06D-10 BMatP= 4.65D-10
 IDIUse=1 WtCom= 1.00D+00 WtEn= 0.00D+00
 Coeff-Com: -0.272D-01 0.450D+00 0.577D+00
 Coeff:     -0.272D-01 0.450D+00 0.577D+00
 Gap=     0.441 Goal=   None    Shift=    0.000
 RMSDP=1.14D-07 MaxDP=1.68D-06 DE=-1.97D-10 OVMax= 4.12D-06

 Cycle  12  Pass 1  IDiag  1:
 E= -111.879288213924     Delta-E=       -0.000000000242 Rises=F Damp=F
 DIIS: error= 1.37D-07 at cycle   4 NSaved=   4.
 NSaved= 4 IEnMin= 4 EnMin= -111.879288213924     IErMin= 4 ErrMin= 1.37D-07
 ErrMax= 1.37D-07  0.00D+00 EMaxC= 1.00D-01 BMatC= 2.21D-12 BMatP= 3.06D-10
 IDIUse=1 WtCom= 1.00D+00 WtEn= 0.00D+00
 Coeff-Com: -0.318D-02-0.427D-02 0.400D-01 0.967D+00
 Coeff:     -0.318D-02-0.427D-02 0.400D-01 0.967D+00
 Gap=     0.441 Goal=   None    Shift=    0.000
 RMSDP=5.66D-08 MaxDP=6.38D-07 DE=-2.42D-10 OVMax= 1.52D-06

 Cycle  13  Pass 1  IDiag  1:
 E= -111.879288213929     Delta-E=       -0.000000000005 Rises=F Damp=F
 DIIS: error= 4.80D-08 at cycle   5 NSaved=   5.
 NSaved= 5 IEnMin= 5 EnMin= -111.879288213929     IErMin= 5 ErrMin= 4.80D-08
 ErrMax= 4.80D-08  0.00D+00 EMaxC= 1.00D-01 BMatC= 1.87D-13 BMatP= 2.21D-12
 IDIUse=1 WtCom= 1.00D+00 WtEn= 0.00D+00
 Coeff-Com:  0.176D-02-0.327D-01-0.384D-01 0.495D-01 0.102D+01
 Coeff:      0.176D-02-0.327D-01-0.384D-01 0.495D-01 0.102D+01
 Gap=     0.441 Goal=   None    Shift=    0.000
 RMSDP=2.56D-08 MaxDP=2.93D-07 DE=-5.09D-12 OVMax= 6.96D-07

 Cycle  14  Pass 1  IDiag  1:
 E= -111.879288213929     Delta-E=       -0.000000000000 Rises=F Damp=F
 DIIS: error= 1.31D-08 at cycle   6 NSaved=   6.
 NSaved= 6 IEnMin= 6 EnMin= -111.879288213929     IErMin= 6 ErrMin= 1.31D-08
 ErrMax= 1.31D-08  0.00D+00 EMaxC= 1.00D-01 BMatC= 8.60D-15 BMatP= 1.87D-13
 IDIUse=1 WtCom= 1.00D+00 WtEn= 0.00D+00
 Coeff-Com: -0.500D-04 0.422D-02 0.350D-02-0.589D-01-0.186D+00 0.124D+01
 Coeff:     -0.500D-04 0.422D-02 0.350D-02-0.589D-01-0.186D+00 0.124D+01
 Gap=     0.441 Goal=   None    Shift=    0.000
 RMSDP=8.98D-09 MaxDP=1.03D-07 DE=-4.83D-13 OVMax= 2.37D-07

 SCF Done:  E(RwB97XD) =  -111.879288214     A.U. after   14 cycles
            NFock= 14  Conv=0.90D-08     -V/T= 2.0044
 KE= 1.113897615659D+02 PE=-3.453004334763D+02 EE= 8.024751888950D+01
 Leave Link  502 at Wed Feb 19 14:50:59 2020, MaxMem=  1879048192 cpu:              20.0 elap:               2.5
 (Enter /opt/g16/l508.exe)
 QCSCF skips out because SCF is already converged.
 Leave Link  508 at Wed Feb 19 14:50:59 2020, MaxMem=  1879048192 cpu:               0.2 elap:               0.0
 (Enter /opt/g16/l601.exe)
 Copying SCF densities to generalized density rwf, IOpCl= 0 IROHF=0.

 **********************************************************************

            Population analysis using the SCF Density.

 **********************************************************************

 Orbital symmetries:
       Occupied  (A) (B) (A) (B) (A) (B) (A) (B) (A)
       Virtual   (A) (B) (A) (B) (B) (A) (A) (B) (A) (B) (B) (A)
                 (B) (A) (A) (B) (B) (A) (B) (B) (A) (A) (B) (A)
                 (B) (A) (B) (A) (B) (B) (A) (B) (A) (A) (B) (A)
                 (B) (A) (B) (A) (B) (B) (A) (A) (B) (A) (B) (A)
                 (A) (B) (B) (A) (A) (B) (B) (A) (B) (A) (B) (A)
                 (B) (B) (A) (A) (A) (B) (B) (A) (B) (A) (B) (A)
                 (B) (A) (B) (A) (B)
 The electronic state is 1-A.
 Alpha  occ. eigenvalues --  -14.43482 -14.43470  -1.04958  -0.84431  -0.59131
 Alpha  occ. eigenvalues --   -0.57799  -0.54042  -0.33822  -0.33378
 Alpha virt. eigenvalues --    0.10713   0.13855   0.18051   0.18961   0.28859
 Alpha virt. eigenvalues --    0.38529   0.42180   0.45099   0.45796   0.47840
 Alpha virt. eigenvalues --    0.50693   0.54255   0.57212   0.58086   0.60597
 Alpha virt. eigenvalues --    0.61473   0.64652   0.96564   0.97180   1.20786
 Alpha virt. eigenvalues --    1.28021   1.31464   1.41519   1.41558   1.48042
 Alpha virt. eigenvalues --    1.50569   1.58288   1.76054   1.78972   1.94409
 Alpha virt. eigenvalues --    1.94836   2.01815   2.02786   2.05103   2.11074
 Alpha virt. eigenvalues --    2.14882   2.17695   2.30896   2.36975   2.43640
 Alpha virt. eigenvalues --    2.46885   2.59753   2.59904   2.65565   2.68005
 Alpha virt. eigenvalues --    2.70397   3.08715   3.09265   3.19674   3.49843
 Alpha virt. eigenvalues --    3.67596   3.89046   3.98144   4.00117   4.23953
 Alpha virt. eigenvalues --    4.40733   4.41090   4.57607   4.66559   4.69399
 Alpha virt. eigenvalues --    4.75017   4.80588   4.82936   4.84591   4.96060
 Alpha virt. eigenvalues --    4.98618   5.05942   5.20804   5.32815   5.47505
 Alpha virt. eigenvalues --    5.60547   5.69977   5.79570   5.89257   6.73876
 Alpha virt. eigenvalues --   31.77793  31.80567
          Condensed to atoms (all electrons):
               1          2          3          4          5          6
     1  N    6.554148   0.220997   0.395446  -0.055774   0.384035  -0.052781
     2  N    0.220997   6.554148  -0.055774   0.395446  -0.052781   0.384035
     3  H    0.395446  -0.055774   0.500506  -0.009332  -0.045386   0.001030
     4  H   -0.055774   0.395446  -0.009332   0.500506   0.001030  -0.045386
     5  H    0.384035  -0.052781  -0.045386   0.001030   0.474203   0.006338
     6  H   -0.052781   0.384035   0.001030  -0.045386   0.006338   0.474203
 Mulliken charges:
               1
     1  N   -0.446071
     2  N   -0.446071
     3  H    0.213511
     4  H    0.213511
     5  H    0.232560
     6  H    0.232560
 Sum of Mulliken charges =  -0.00000
 Mulliken charges with hydrogens summed into heavy atoms:
               1
     1  N   -0.000000
     2  N   -0.000000
 Electronic spatial extent (au):  <R**2>=             82.1682
 Charge=             -0.0000 electrons
 Dipole moment (field-independent basis, Debye):
    X=              0.0000    Y=              0.0000    Z=              2.0481  Tot=              2.0481
 Quadrupole moment (field-independent basis, Debye-Ang):
   XX=            -12.3497   YY=            -12.8396   ZZ=            -12.9703
   XY=              2.6805   XZ=             -0.0000   YZ=             -0.0000
 Traceless Quadrupole moment (field-independent basis, Debye-Ang):
   XX=              0.3701   YY=             -0.1197   ZZ=             -0.2504
   XY=              2.6805   XZ=             -0.0000   YZ=             -0.0000
 Octapole moment (field-independent basis, Debye-Ang**2):
  XXX=              0.0000  YYY=             -0.0000  ZZZ=              3.1849  XYY=              0.0000
  XXY=              0.0000  XXZ=             -0.2191  XZZ=              0.0000  YZZ=             -0.0000
  YYZ=              3.4917  XYZ=             -2.4249
 Hexadecapole moment (field-independent basis, Debye-Ang**3):
 XXXX=            -17.1665 YYYY=            -61.8901 ZZZZ=            -18.3466 XXXY=              1.2605
 XXXZ=             -0.0000 YYYX=              1.7846 YYYZ=             -0.0000 ZZZX=             -0.0000
 ZZZY=             -0.0000 XXYY=            -12.4250 XXZZ=             -6.1994 YYZZ=            -12.8954
 XXYZ=             -0.0000 YYXZ=             -0.0000 ZZXY=             -0.5826
 N-N= 4.178386480696D+01 E-N=-3.453004335451D+02  KE= 1.113897615659D+02
 Symmetry A    KE= 5.730553453394D+01
 Symmetry B    KE= 5.408422703196D+01
 No NMR shielding tensors so no spin-rotation constants.
 Leave Link  601 at Wed Feb 19 14:50:59 2020, MaxMem=  1879048192 cpu:               1.3 elap:               0.2
 (Enter /opt/g16/l701.exe)
 ... and contract with generalized density number  0.
 Compute integral first derivatives.
 R6Disp: Adding Grimme-D2 dispersion energy 1st derivatives to the gradient.
   2 Symmetry operations used in ECPInt.
 ECPInt:  NShTT=     741 NPrTT=    2136 LenC2=     741 LenP2D=    1962.
 LDataN:  DoStor=T MaxTD1= 7 Len=  274
 Leave Link  701 at Wed Feb 19 14:50:59 2020, MaxMem=  1879048192 cpu:               1.6 elap:               0.2
 (Enter /opt/g16/l702.exe)
 L702 exits ... SP integral derivatives will be done elsewhere.
 Leave Link  702 at Wed Feb 19 14:50:59 2020, MaxMem=  1879048192 cpu:               0.4 elap:               0.1
 (Enter /opt/g16/l703.exe)
 Integral derivatives from FoFJK, PRISM(SPDF).
 Compute integral first derivatives, UseDBF=F ICtDFT=           0.
 Calling FoFJK, ICntrl=      2127 FMM=F ISym2X=1 I1Cent= 0 IOpClX= 0 NMat=1 NMatS=1 NMatT=0.
 FoFJK:  IHMeth= 1 ICntrl=    2127 DoSepK=T KAlg= 0 I1Cent=           0 FoldK=F
 IRaf=         1 NMat=       1 IRICut=       1 DoRegI=T DoRafI=F ISym2E= 1 IDoP0=0 IntGTp=1.
 FoFCou: FMM=F IPFlag=           0 FMFlag=      100000 FMFlg1=         800
         NFxFlg=           0 DoJE=F BraDBF=F KetDBF=F FulRan=T
         wScrn=  0.000000 ICntrl=      2527 IOpCl=  0 I1Cent=           0 NGrid=           0
         NMat0=    1 NMatS0=      1 NMatT0=    0 NMatD0=    1 NMtDS0=    0 NMtDT0=    0
 Petite list used in FoFCou.
 Leave Link  703 at Wed Feb 19 14:51:01 2020, MaxMem=  1879048192 cpu:              11.9 elap:               1.5
 (Enter /opt/g16/l716.exe)
 Dipole        = 6.66133815D-16-4.44089210D-16 8.05803692D-01
 ***** Axes restored to original set *****
 -------------------------------------------------------------------
 Center     Atomic                   Forces (Hartrees/Bohr)
 Number     Number              X              Y              Z
 -------------------------------------------------------------------
      1        7           0.000195317    0.000046536    0.000012944
      2        7          -0.000195317   -0.000046536    0.000012944
      3        1           0.000158470    0.000264931    0.000202042
      4        1          -0.000158470   -0.000264931    0.000202042
      5        1          -0.000178367   -0.000085904   -0.000214986
      6        1           0.000178367    0.000085904   -0.000214986
 -------------------------------------------------------------------
 Cartesian Forces:  Max     0.000264931 RMS     0.000170625
 Leave Link  716 at Wed Feb 19 14:51:01 2020, MaxMem=  1879048192 cpu:               0.5 elap:               0.1
 (Enter /opt/g16/l103.exe)

 GradGradGradGradGradGradGradGradGradGradGradGradGradGradGradGradGradGrad
 Berny optimization.
 FormGI is forming the generalized inverse of G from B-inverse, IUseBI=4.
 Internal  Forces:  Max     0.000311422 RMS     0.000214230
 Search for a local minimum.
 Step number   1 out of a maximum of   25
 All quantities printed in internal units (Hartrees-Bohrs-Radians)
 RMS Force = .21423D-03 SwitMx=.10000D-02 MixMth= 2
 Mixed Optimization -- En-DIIS/RFO-DIIS
 Second derivative matrix not updated -- first step.
 The second derivative matrix:
                          R1        R2        R3        R4        R5
           R1           0.42434
           R2           0.00000   0.45555
           R3           0.00000   0.00000   0.46079
           R4           0.00000   0.00000   0.00000   0.45555
           R5           0.00000   0.00000   0.00000   0.00000   0.46079
           A1           0.00000   0.00000   0.00000   0.00000   0.00000
           A2           0.00000   0.00000   0.00000   0.00000   0.00000
           A3           0.00000   0.00000   0.00000   0.00000   0.00000
           A4           0.00000   0.00000   0.00000   0.00000   0.00000
           A5           0.00000   0.00000   0.00000   0.00000   0.00000
           A6           0.00000   0.00000   0.00000   0.00000   0.00000
           D1           0.00000   0.00000   0.00000   0.00000   0.00000
           D2           0.00000   0.00000   0.00000   0.00000   0.00000
           D3           0.00000   0.00000   0.00000   0.00000   0.00000
           D4           0.00000   0.00000   0.00000   0.00000   0.00000
                          A1        A2        A3        A4        A5
           A1           0.16000
           A2           0.00000   0.16000
           A3           0.00000   0.00000   0.16000
           A4           0.00000   0.00000   0.00000   0.16000
           A5           0.00000   0.00000   0.00000   0.00000   0.16000
           A6           0.00000   0.00000   0.00000   0.00000   0.00000
           D1           0.00000   0.00000   0.00000   0.00000   0.00000
           D2           0.00000   0.00000   0.00000   0.00000   0.00000
           D3           0.00000   0.00000   0.00000   0.00000   0.00000
           D4           0.00000   0.00000   0.00000   0.00000   0.00000
                          A6        D1        D2        D3        D4
           A6           0.16000
           D1           0.00000   0.01028
           D2           0.00000   0.00000   0.01028
           D3           0.00000   0.00000   0.00000   0.01028
           D4           0.00000   0.00000   0.00000   0.00000   0.01028
 ITU=  0
     Eigenvalues ---    0.01028   0.05469   0.05469   0.16000   0.16000
     Eigenvalues ---    0.16000   0.16000   0.42434   0.45555   0.45555
     Eigenvalues ---    0.46079   0.46079
 RFO step:  Lambda=-4.50656213D-06 EMin= 1.02795243D-02
 Linear search not attempted -- first point.
 Iteration  1 RMS(Cart)=  0.00211925 RMS(Int)=  0.00000293
 Iteration  2 RMS(Cart)=  0.00000256 RMS(Int)=  0.00000039
 Iteration  3 RMS(Cart)=  0.00000000 RMS(Int)=  0.00000039
 ITry= 1 IFail=0 DXMaxC= 3.86D-03 DCOld= 1.00D+10 DXMaxT= 3.00D-01 DXLimC= 3.00D+00 Rises=F
 ClnCor:  largest displacement from symmetrization is 6.42D-14 for atom     4.
 Variable       Old X    -DE/DX   Delta X   Delta X   Delta X     New X
                                 (Linear)    (Quad)   (Total)
    R1        2.68374   0.00021   0.00000   0.00048   0.00048   2.68422
    R2        1.91336   0.00031   0.00000   0.00068   0.00068   1.91404
    R3        1.90742   0.00005   0.00000   0.00010   0.00010   1.90753
    R4        1.91336   0.00031   0.00000   0.00068   0.00068   1.91404
    R5        1.90742   0.00005   0.00000   0.00010   0.00010   1.90753
    A1        1.96308   0.00025   0.00000   0.00212   0.00212   1.96520
    A2        1.88917  -0.00031   0.00000  -0.00129  -0.00129   1.88788
    A3        1.89183   0.00019   0.00000   0.00234   0.00234   1.89417
    A4        1.96308   0.00025   0.00000   0.00212   0.00212   1.96520
    A5        1.88917  -0.00031   0.00000  -0.00129  -0.00129   1.88788
    A6        1.89183   0.00019   0.00000   0.00234   0.00234   1.89417
    D1       -0.51620  -0.00018   0.00000  -0.00274  -0.00274  -0.51893
    D2        1.57349   0.00001   0.00000   0.00063   0.00063   1.57411
    D3        1.57349   0.00001   0.00000   0.00063   0.00063   1.57411
    D4       -2.62001   0.00019   0.00000   0.00399   0.00399  -2.61602
         Item               Value     Threshold  Converged?
 Maximum Force            0.000311     0.000450     YES
 RMS     Force            0.000214     0.000300     YES
 Maximum Displacement     0.003861     0.001800     NO 
 RMS     Displacement     0.002119     0.001200     NO 
 Predicted change in Energy=-2.253870D-06
 Lowest energy point so far.  Saving SCF results.
 GradGradGradGradGradGradGradGradGradGradGradGradGradGradGradGradGradGrad

 Leave Link  103 at Wed Feb 19 14:51:01 2020, MaxMem=  1879048192 cpu:               0.3 elap:               0.0
 (Enter /opt/g16/l202.exe)
                          Input orientation:                          
 ---------------------------------------------------------------------
 Center     Atomic      Atomic             Coordinates (Angstroms)
 Number     Number       Type             X           Y           Z
 ---------------------------------------------------------------------
      1          7           0        0.703483    0.097551   -0.072125
      2          7           0       -0.703483   -0.097551   -0.072125
      3          1           0        1.056039    0.388653    0.831682
      4          1           0       -1.056039   -0.388653    0.831682
      5          1           0        1.142451   -0.776613   -0.321272
      6          1           0       -1.142451    0.776613   -0.321272
 ---------------------------------------------------------------------
                    Distance matrix (angstroms):
                    1          2          3          4          5
     1  N    0.000000
     2  N    1.420430   0.000000
     3  H    1.012869   2.036954   0.000000
     4  H    2.036954   1.012869   2.250573   0.000000
     5  H    1.009421   1.982593   1.641528   2.512603   0.000000
     6  H    1.982593   1.009421   2.512603   1.641528   2.762841
                    6
     6  H    0.000000
 Stoichiometry    H4N2
 Framework group  C2[X(H4N2)]
 Deg. of freedom     7
 Full point group                 C2      NOp   2
 RotChk:  IX=0 Diff= 1.04D-04
 Largest Abelian subgroup         C2      NOp   2
 Largest concise Abelian subgroup C2      NOp   2
                         Standard orientation:                         
 ---------------------------------------------------------------------
 Center     Atomic      Atomic             Coordinates (Angstroms)
 Number     Number       Type             X           Y           Z
 ---------------------------------------------------------------------
      1          7           0        0.000000    0.710215   -0.072740
      2          7           0       -0.000000   -0.710215   -0.072740
      3          1           0       -0.239917    1.099413    0.831067
      4          1           0        0.239917   -1.099413    0.831067
      5          1           0        0.926174    1.024951   -0.321887
      6          1           0       -0.926174   -1.024951   -0.321887
 ---------------------------------------------------------------------
 Rotational constants (GHZ):         146.5005311          24.6403583          24.6222330
 Leave Link  202 at Wed Feb 19 14:51:01 2020, MaxMem=  1879048192 cpu:               0.0 elap:               0.0
 (Enter /opt/g16/l301.exe)
 Standard basis: def2TZVP (5D, 7F)
 Ernie: Thresh=  0.10000D-02 Tol=  0.10000D-05 Strict=F.
 There are    48 symmetry adapted cartesian basis functions of A   symmetry.
 There are    48 symmetry adapted cartesian basis functions of B   symmetry.
 There are    43 symmetry adapted basis functions of A   symmetry.
 There are    43 symmetry adapted basis functions of B   symmetry.
    86 basis functions,   134 primitive gaussians,    96 cartesian basis functions
     9 alpha electrons        9 beta electrons
       nuclear repulsion energy        41.7749323410 Hartrees.
 IExCor= 4639 DFT=T Ex+Corr=wB97XD ExCW=0 ScaHFX=  1.000000
 ScaDFX=  1.000000  1.000000  1.000000  1.000000 ScalE2=  1.000000  1.000000
 IRadAn=      5 IRanWt=     -1 IRanGd=            0 ICorTp=0 IEmpDi=121
 HFx  wShort=  0.000000 wLong=  0.200000 cFull=  0.222036 cShort=  0.000000 cLong=  0.777964
 DFx  wShort=  0.000000 wLong=  0.200000 cFull=  0.000000 cShort=  0.000000 cLong=  1.000000
 NAtoms=    6 NActive=    6 NUniq=    3 SFac= 4.00D+00 NAtFMM=   60 NAOKFM=F Big=F
 Integral buffers will be    131072 words long.
 Raffenetti 2 integral format.
 Two-electron integral symmetry is turned on.
 R6Disp:  Grimme-D2 Dispersion energy=       -0.0008539980 Hartrees.
 Nuclear repulsion after empirical dispersion term =       41.7740783430 Hartrees.
 Leave Link  301 at Wed Feb 19 14:51:01 2020, MaxMem=  1879048192 cpu:               0.6 elap:               0.1
 (Enter /opt/g16/l302.exe)
 NPDir=0 NMtPBC=     1 NCelOv=     1 NCel=       1 NClECP=     1 NCelD=      1
         NCelK=      1 NCelE2=     1 NClLst=     1 CellRange=     0.0.
 One-electron integrals computed using PRISM.
 One-electron integral symmetry used in STVInt
   2 Symmetry operations used in ECPInt.
 ECPInt:  NShTT=     741 NPrTT=    2136 LenC2=     741 LenP2D=    1962.
 LDataN:  DoStor=T MaxTD1= 6 Len=  172
 NBasis=    86 RedAO= T EigKep=  2.34D-03  NBF=    43    43
 NBsUse=    86 1.00D-06 EigRej= -1.00D+00 NBFU=    43    43
 Precomputing XC quadrature grid using
 IXCGrd= 4 IRadAn=           5 IRanWt=          -1 IRanGd=           0 AccXCQ= 0.00D+00.
 Generated NRdTot=       0 NPtTot=           0 NUsed=           0 NTot=          32
 NSgBfM=    96    96    96    96    96 MxSgAt=     6 MxSgA2=     6.
 Leave Link  302 at Wed Feb 19 14:51:01 2020, MaxMem=  1879048192 cpu:               1.7 elap:               0.2
 (Enter /opt/g16/l303.exe)
 DipDrv:  MaxL=1.
 Leave Link  303 at Wed Feb 19 14:51:01 2020, MaxMem=  1879048192 cpu:               0.5 elap:               0.1
 (Enter /opt/g16/l401.exe)
 Initial guess from the checkpoint file:  "check.chk"
 B after Tr=    -0.000000   -0.000000    0.000000
         Rot=    1.000000    0.000000    0.000000    0.000020 Ang=   0.00 deg.
 Guess basis will be translated and rotated to current coordinates.
 JPrj=2 DoOrth=T DoCkMO=T.
 Initial guess orbital symmetries:
       Occupied  (A) (B) (A) (B) (A) (B) (A) (B) (A)
       Virtual   (A) (B) (A) (B) (B) (A) (A) (B) (A) (B) (B) (A)
                 (B) (A) (A) (B) (B) (A) (B) (B) (A) (A) (B) (A)
                 (B) (A) (B) (A) (B) (B) (A) (B) (A) (A) (B) (A)
                 (B) (A) (B) (A) (B) (B) (A) (A) (B) (A) (B) (A)
                 (A) (B) (B) (A) (A) (B) (B) (A) (B) (A) (B) (A)
                 (B) (B) (A) (A) (A) (B) (B) (A) (B) (A) (B) (A)
                 (B) (A) (B) (A) (B)
 The electronic state of the initial guess is 1-A.
 Leave Link  401 at Wed Feb 19 14:51:01 2020, MaxMem=  1879048192 cpu:               1.0 elap:               0.1
 (Enter /opt/g16/l502.exe)
 Keep R1 ints in memory in symmetry-blocked form, NReq=21387008.
 FoFCou: FMM=F IPFlag=           0 FMFlag=           0 FMFlg1=           0
         NFxFlg=           0 DoJE=F BraDBF=F KetDBF=F FulRan=T
         wScrn=  0.000000 ICntrl=       600 IOpCl=  0 I1Cent=           0 NGrid=           0
         NMat0=    1 NMatS0=   3741 NMatT0=    0 NMatD0=    1 NMtDS0=    0 NMtDT0=    0
 Petite list used in FoFCou.
 Closed shell SCF:
 Using DIIS extrapolation, IDIIS=  1040.
 NGot=  1879048192 LenX=  1875518541 LenY=  1875508884
 Requested convergence on RMS density matrix=1.00D-08 within  32 cycles.
 Requested convergence on MAX density matrix=1.00D-06.
 Requested convergence on             energy=1.00D-06.
 No special actions if energy rises.

 Cycle   1  Pass 1  IDiag  1:
 E= -111.879288463258    
 DIIS: error= 1.09D-04 at cycle   1 NSaved=   1.
 NSaved= 1 IEnMin= 1 EnMin= -111.879288463258     IErMin= 1 ErrMin= 1.09D-04
 ErrMax= 1.09D-04  0.00D+00 EMaxC= 1.00D-01 BMatC= 1.57D-06 BMatP= 1.57D-06
 IDIUse=3 WtCom= 9.99D-01 WtEn= 1.09D-03
 Coeff-Com:  0.100D+01
 Coeff-En:   0.100D+01
 Coeff:      0.100D+01
 Gap=     0.441 Goal=   None    Shift=    0.000
 RMSDP=1.39D-05 MaxDP=1.12D-04              OVMax= 3.66D-04

 Cycle   2  Pass 1  IDiag  1:
 E= -111.879290104982     Delta-E=       -0.000001641724 Rises=F Damp=F
 DIIS: error= 2.21D-05 at cycle   2 NSaved=   2.
 NSaved= 2 IEnMin= 2 EnMin= -111.879290104982     IErMin= 2 ErrMin= 2.21D-05
 ErrMax= 2.21D-05  0.00D+00 EMaxC= 1.00D-01 BMatC= 4.34D-08 BMatP= 1.57D-06
 IDIUse=1 WtCom= 1.00D+00 WtEn= 0.00D+00
 Coeff-Com: -0.822D-01 0.108D+01
 Coeff:     -0.822D-01 0.108D+01
 Gap=     0.441 Goal=   None    Shift=    0.000
 RMSDP=4.14D-06 MaxDP=3.35D-05 DE=-1.64D-06 OVMax= 1.20D-04

 Cycle   3  Pass 1  IDiag  1:
 E= -111.879290182968     Delta-E=       -0.000000077986 Rises=F Damp=F
 DIIS: error= 7.75D-06 at cycle   3 NSaved=   3.
 NSaved= 3 IEnMin= 3 EnMin= -111.879290182968     IErMin= 3 ErrMin= 7.75D-06
 ErrMax= 7.75D-06  0.00D+00 EMaxC= 1.00D-01 BMatC= 6.04D-09 BMatP= 4.34D-08
 IDIUse=1 WtCom= 1.00D+00 WtEn= 0.00D+00
 Coeff-Com: -0.383D-01 0.231D+00 0.807D+00
 Coeff:     -0.383D-01 0.231D+00 0.807D+00
 Gap=     0.441 Goal=   None    Shift=    0.000
 RMSDP=1.18D-06 MaxDP=1.04D-05 DE=-7.80D-08 OVMax= 3.48D-05

 Cycle   4  Pass 1  IDiag  1:
 E= -111.879290189769     Delta-E=       -0.000000006801 Rises=F Damp=F
 DIIS: error= 3.44D-06 at cycle   4 NSaved=   4.
 NSaved= 4 IEnMin= 4 EnMin= -111.879290189769     IErMin= 4 ErrMin= 3.44D-06
 ErrMax= 3.44D-06  0.00D+00 EMaxC= 1.00D-01 BMatC= 9.35D-10 BMatP= 6.04D-09
 IDIUse=1 WtCom= 1.00D+00 WtEn= 0.00D+00
 Coeff-Com: -0.226D-02-0.401D-01 0.220D+00 0.822D+00
 Coeff:     -0.226D-02-0.401D-01 0.220D+00 0.822D+00
 Gap=     0.441 Goal=   None    Shift=    0.000
 RMSDP=6.28D-07 MaxDP=6.04D-06 DE=-6.80D-09 OVMax= 1.68D-05

 Cycle   5  Pass 1  IDiag  1:
 E= -111.879290190947     Delta-E=       -0.000000001178 Rises=F Damp=F
 DIIS: error= 1.08D-06 at cycle   5 NSaved=   5.
 NSaved= 5 IEnMin= 5 EnMin= -111.879290190947     IErMin= 5 ErrMin= 1.08D-06
 ErrMax= 1.08D-06  0.00D+00 EMaxC= 1.00D-01 BMatC= 1.37D-10 BMatP= 9.35D-10
 IDIUse=1 WtCom= 1.00D+00 WtEn= 0.00D+00
 Coeff-Com:  0.510D-02-0.502D-01-0.421D-01 0.286D+00 0.802D+00
 Coeff:      0.510D-02-0.502D-01-0.421D-01 0.286D+00 0.802D+00
 Gap=     0.441 Goal=   None    Shift=    0.000
 RMSDP=2.36D-07 MaxDP=2.25D-06 DE=-1.18D-09 OVMax= 6.11D-06

 Cycle   6  Pass 1  IDiag  1:
 E= -111.879290191118     Delta-E=       -0.000000000171 Rises=F Damp=F
 DIIS: error= 1.86D-07 at cycle   6 NSaved=   6.
 NSaved= 6 IEnMin= 6 EnMin= -111.879290191118     IErMin= 6 ErrMin= 1.86D-07
 ErrMax= 1.86D-07  0.00D+00 EMaxC= 1.00D-01 BMatC= 1.39D-12 BMatP= 1.37D-10
 IDIUse=1 WtCom= 1.00D+00 WtEn= 0.00D+00
 Coeff-Com: -0.107D-02 0.123D-01 0.460D-02-0.912D-01-0.215D+00 0.129D+01
 Coeff:     -0.107D-02 0.123D-01 0.460D-02-0.912D-01-0.215D+00 0.129D+01
 Gap=     0.441 Goal=   None    Shift=    0.000
 RMSDP=8.58D-08 MaxDP=9.62D-07 DE=-1.71D-10 OVMax= 1.88D-06

 Cycle   7  Pass 1  IDiag  1:
 E= -111.879290191125     Delta-E=       -0.000000000007 Rises=F Damp=F
 DIIS: error= 2.35D-08 at cycle   7 NSaved=   7.
 NSaved= 7 IEnMin= 7 EnMin= -111.879290191125     IErMin= 7 ErrMin= 2.35D-08
 ErrMax= 2.35D-08  0.00D+00 EMaxC= 1.00D-01 BMatC= 4.21D-14 BMatP= 1.39D-12
 IDIUse=1 WtCom= 1.00D+00 WtEn= 0.00D+00
 Coeff-Com: -0.968D-04 0.900D-03 0.165D-02-0.412D-02-0.191D-01-0.199D-01
 Coeff-Com:  0.104D+01
 Coeff:     -0.968D-04 0.900D-03 0.165D-02-0.412D-02-0.191D-01-0.199D-01
 Coeff:      0.104D+01
 Gap=     0.441 Goal=   None    Shift=    0.000
 RMSDP=1.15D-08 MaxDP=1.27D-07 DE=-6.76D-12 OVMax= 3.16D-07

 Cycle   8  Pass 1  IDiag  1:
 E= -111.879290191126     Delta-E=       -0.000000000001 Rises=F Damp=F
 DIIS: error= 5.56D-09 at cycle   8 NSaved=   8.
 NSaved= 8 IEnMin= 8 EnMin= -111.879290191126     IErMin= 8 ErrMin= 5.56D-09
 ErrMax= 5.56D-09  0.00D+00 EMaxC= 1.00D-01 BMatC= 3.62D-15 BMatP= 4.21D-14
 IDIUse=1 WtCom= 1.00D+00 WtEn= 0.00D+00
 Coeff-Com:  0.515D-04-0.646D-03-0.111D-03 0.491D-02 0.102D-01-0.847D-01
 Coeff-Com:  0.737D-01 0.997D+00
 Coeff:      0.515D-04-0.646D-03-0.111D-03 0.491D-02 0.102D-01-0.847D-01
 Coeff:      0.737D-01 0.997D+00
 Gap=     0.441 Goal=   None    Shift=    0.000
 RMSDP=3.54D-09 MaxDP=4.40D-08 DE=-6.25D-13 OVMax= 1.09D-07

 SCF Done:  E(RwB97XD) =  -111.879290191     A.U. after    8 cycles
            NFock=  8  Conv=0.35D-08     -V/T= 2.0044
 KE= 1.113871723916D+02 PE=-3.452802822692D+02 EE= 8.023974134352D+01
 Leave Link  502 at Wed Feb 19 14:51:04 2020, MaxMem=  1879048192 cpu:              17.5 elap:               2.2
 (Enter /opt/g16/l508.exe)
 QCSCF skips out because SCF is already converged.
 Leave Link  508 at Wed Feb 19 14:51:04 2020, MaxMem=  1879048192 cpu:               0.2 elap:               0.0
 (Enter /opt/g16/l701.exe)
 ... and contract with generalized density number  0.
 Compute integral first derivatives.
 R6Disp: Adding Grimme-D2 dispersion energy 1st derivatives to the gradient.
   2 Symmetry operations used in ECPInt.
 ECPInt:  NShTT=     741 NPrTT=    2136 LenC2=     741 LenP2D=    1962.
 LDataN:  DoStor=T MaxTD1= 7 Len=  274
 Leave Link  701 at Wed Feb 19 14:51:04 2020, MaxMem=  1879048192 cpu:               1.6 elap:               0.2
 (Enter /opt/g16/l702.exe)
 L702 exits ... SP integral derivatives will be done elsewhere.
 Leave Link  702 at Wed Feb 19 14:51:04 2020, MaxMem=  1879048192 cpu:               0.3 elap:               0.0
 (Enter /opt/g16/l703.exe)
 Integral derivatives from FoFJK, PRISM(SPDF).
 Compute integral first derivatives, UseDBF=F ICtDFT=           0.
 Calling FoFJK, ICntrl=      2127 FMM=F ISym2X=1 I1Cent= 0 IOpClX= 0 NMat=1 NMatS=1 NMatT=0.
 FoFJK:  IHMeth= 1 ICntrl=    2127 DoSepK=T KAlg= 0 I1Cent=           0 FoldK=F
 IRaf=         1 NMat=       1 IRICut=       1 DoRegI=T DoRafI=F ISym2E= 1 IDoP0=0 IntGTp=1.
 FoFCou: FMM=F IPFlag=           0 FMFlag=      100000 FMFlg1=         800
         NFxFlg=           0 DoJE=F BraDBF=F KetDBF=F FulRan=T
         wScrn=  0.000000 ICntrl=      2527 IOpCl=  0 I1Cent=           0 NGrid=           0
         NMat0=    1 NMatS0=      1 NMatT0=    0 NMatD0=    1 NMtDS0=    0 NMtDT0=    0
 Petite list used in FoFCou.
 Leave Link  703 at Wed Feb 19 14:51:05 2020, MaxMem=  1879048192 cpu:              11.9 elap:               1.5
 (Enter /opt/g16/l716.exe)
 Dipole        =-8.88178420D-16-1.55431223D-15 8.03524052D-01
 ***** Axes restored to original set *****
 -------------------------------------------------------------------
 Center     Atomic                   Forces (Hartrees/Bohr)
 Number     Number              X              Y              Z
 -------------------------------------------------------------------
      1        7          -0.000010325   -0.000169166    0.000039952
      2        7           0.000010325    0.000169166    0.000039952
      3        1          -0.000082501    0.000000951   -0.000037177
      4        1           0.000082501   -0.000000951   -0.000037177
      5        1           0.000000234    0.000069626   -0.000002775
      6        1          -0.000000234   -0.000069626   -0.000002775
 -------------------------------------------------------------------
 Cartesian Forces:  Max     0.000169166 RMS     0.000069414
 Leave Link  716 at Wed Feb 19 14:51:06 2020, MaxMem=  1879048192 cpu:               0.4 elap:               0.1
 (Enter /opt/g16/l103.exe)

 GradGradGradGradGradGradGradGradGradGradGradGradGradGradGradGradGradGrad
 Berny optimization.
 Using GEDIIS/GDIIS optimizer.
 FormGI is forming the generalized inverse of G from B-inverse, IUseBI=4.
 Internal  Forces:  Max     0.000107483 RMS     0.000064327
 Search for a local minimum.
 Step number   2 out of a maximum of   25
 All quantities printed in internal units (Hartrees-Bohrs-Radians)
 RMS Force = .64327D-04 SwitMx=.10000D-02 MixMth= 2
 Mixed Optimization -- En-DIIS/RFO-DIIS
 Swapping is turned off.
 Update second derivatives using D2CorX and points    1    2
 DE= -1.98D-06 DEPred=-2.25D-06 R= 8.77D-01
 TightC=F SS=  1.41D+00  RLast= 6.98D-03 DXNew= 5.0454D-01 2.0929D-02
 Trust test= 8.77D-01 RLast= 6.98D-03 DXMaxT set to 3.00D-01
 The second derivative matrix:
                          R1        R2        R3        R4        R5
           R1           0.43395
           R2           0.00863   0.46151
           R3           0.00446   0.00468   0.46261
           R4           0.00863   0.00595   0.00468   0.46151
           R5           0.00446   0.00468   0.00182   0.00468   0.46261
           A1           0.00624   0.00270   0.00398   0.00270   0.00398
           A2          -0.01389  -0.01377  -0.00596  -0.01377  -0.00596
           A3          -0.00720  -0.01399  -0.00054  -0.01399  -0.00054
           A4           0.00624   0.00270   0.00398   0.00270   0.00398
           A5          -0.01389  -0.01377  -0.00596  -0.01377  -0.00596
           A6          -0.00720  -0.01399  -0.00054  -0.01399  -0.00054
           D1          -0.00849  -0.00981  -0.00313  -0.00981  -0.00313
           D2           0.00014   0.00008   0.00008   0.00008   0.00008
           D3           0.00014   0.00008   0.00008   0.00008   0.00008
           D4           0.00877   0.00996   0.00329   0.00996   0.00329
                          A1        A2        A3        A4        A5
           A1           0.15935
           A2          -0.01112   0.17914
           A3          -0.01685   0.00500   0.13398
           A4          -0.00065  -0.01112  -0.01685   0.15935
           A5          -0.01112   0.01914   0.00500  -0.01112   0.17914
           A6          -0.01685   0.00500  -0.02602  -0.01685   0.00500
           D1          -0.00905   0.01070  -0.00276  -0.00905   0.01070
           D2           0.00001  -0.00024  -0.00031   0.00001  -0.00024
           D3           0.00001  -0.00024  -0.00031   0.00001  -0.00024
           D4           0.00907  -0.01118   0.00214   0.00907  -0.01118
                          A6        D1        D2        D3        D4
           A6           0.13398
           D1          -0.00276   0.01514
           D2          -0.00031  -0.00018   0.01028
           D3          -0.00031  -0.00018   0.00000   0.01028
           D4           0.00214  -0.00522   0.00018   0.00018   0.01587
 ITU=  1  0
     Eigenvalues ---    0.01028   0.04845   0.05451   0.15548   0.16000
     Eigenvalues ---    0.16000   0.19521   0.43020   0.45555   0.45689
     Eigenvalues ---    0.46079   0.48283
 En-DIIS/RFO-DIIS/Sim-DIIS IScMMF=       -3 using points:     2    1
 RFO step:  Lambda=-2.41513536D-07.
 NNeg= 0 NGDIIS= 2 SimSw=  2.50D-03 Rises=F DC= -1.98D-06 SmlDif=  1.00D-05
 NRisDI= 0 DoIntr=F SqrtH=F CThrHd= 10.0 CDAdj=  3.0
 RMS Error=  0.3116700512D-03 NUsed= 2 OKEnD=F EnDIS=F
 InvSVX:  RCond= 1.22D-05 Info=           0 Equed=N FErr=  1.09D-15 BErr=  5.43D-17
 DidBck=F Rises=F RFO-DIIS coefs:    1.02230   -0.02230
 Iteration  1 RMS(Cart)=  0.00035688 RMS(Int)=  0.00000013
 Iteration  2 RMS(Cart)=  0.00000012 RMS(Int)=  0.00000002
 ITry= 1 IFail=0 DXMaxC= 8.25D-04 DCOld= 1.00D+10 DXMaxT= 3.00D-01 DXLimC= 3.00D+00 Rises=F
 ClnCor:  largest displacement from symmetrization is 5.87D-14 for atom     2.
 Variable       Old X    -DE/DX   Delta X   Delta X   Delta X     New X
                                 (Linear)    (Quad)   (Total)
    R1        2.68422  -0.00010   0.00001  -0.00021  -0.00020   2.68402
    R2        1.91404  -0.00006   0.00002  -0.00011  -0.00009   1.91395
    R3        1.90753  -0.00006   0.00000  -0.00011  -0.00011   1.90742
    R4        1.91404  -0.00006   0.00002  -0.00011  -0.00009   1.91395
    R5        1.90753  -0.00006   0.00000  -0.00011  -0.00011   1.90742
    A1        1.96520  -0.00011   0.00005  -0.00051  -0.00046   1.96473
    A2        1.88788   0.00007  -0.00003   0.00045   0.00042   1.88830
    A3        1.89417   0.00003   0.00005   0.00029   0.00034   1.89452
    A4        1.96520  -0.00011   0.00005  -0.00051  -0.00046   1.96473
    A5        1.88788   0.00007  -0.00003   0.00045   0.00042   1.88830
    A6        1.89417   0.00003   0.00005   0.00029   0.00034   1.89452
    D1       -0.51893  -0.00002  -0.00006  -0.00039  -0.00045  -0.51938
    D2        1.57411  -0.00000   0.00001  -0.00004  -0.00003   1.57409
    D3        1.57411  -0.00000   0.00001  -0.00004  -0.00003   1.57409
    D4       -2.61602   0.00002   0.00009   0.00030   0.00039  -2.61563
         Item               Value     Threshold  Converged?
 Maximum Force            0.000107     0.000450     YES
 RMS     Force            0.000064     0.000300     YES
 Maximum Displacement     0.000825     0.001800     YES
 RMS     Displacement     0.000357     0.001200     YES
 Predicted change in Energy=-1.207497D-07
 Optimization completed.
    -- Stationary point found.
                           ----------------------------
                           !   Optimized Parameters   !
                           ! (Angstroms and Degrees)  !
 --------------------------                            --------------------------
 ! Name  Definition              Value          Derivative Info.                !
 --------------------------------------------------------------------------------
 ! R1    R(1,2)                  1.4204         -DE/DX =   -0.0001              !
 ! R2    R(1,3)                  1.0129         -DE/DX =   -0.0001              !
 ! R3    R(1,5)                  1.0094         -DE/DX =   -0.0001              !
 ! R4    R(2,4)                  1.0129         -DE/DX =   -0.0001              !
 ! R5    R(2,6)                  1.0094         -DE/DX =   -0.0001              !
 ! A1    A(2,1,3)              112.5974         -DE/DX =   -0.0001              !
 ! A2    A(2,1,5)              108.1677         -DE/DX =    0.0001              !
 ! A3    A(3,1,5)              108.5281         -DE/DX =    0.0                 !
 ! A4    A(1,2,4)              112.5974         -DE/DX =   -0.0001              !
 ! A5    A(1,2,6)              108.1677         -DE/DX =    0.0001              !
 ! A6    A(4,2,6)              108.5281         -DE/DX =    0.0                 !
 ! D1    D(3,1,2,4)            -29.7328         -DE/DX =    0.0                 !
 ! D2    D(3,1,2,6)             90.1901         -DE/DX =    0.0                 !
 ! D3    D(5,1,2,4)             90.1901         -DE/DX =    0.0                 !
 ! D4    D(5,1,2,6)           -149.887          -DE/DX =    0.0                 !
 --------------------------------------------------------------------------------
 Lowest energy point so far.  Saving SCF results.
 Largest change from initial coordinates is atom    4       0.002 Angstoms.
 GradGradGradGradGradGradGradGradGradGradGradGradGradGradGradGradGradGrad

 Leave Link  103 at Wed Feb 19 14:51:06 2020, MaxMem=  1879048192 cpu:               0.3 elap:               0.0
 (Enter /opt/g16/l202.exe)
                          Input orientation:                          
 ---------------------------------------------------------------------
 Center     Atomic      Atomic             Coordinates (Angstroms)
 Number     Number       Type             X           Y           Z
 ---------------------------------------------------------------------
      1          7           0        0.703483    0.097551   -0.072125
      2          7           0       -0.703483   -0.097551   -0.072125
      3          1           0        1.056039    0.388653    0.831682
      4          1           0       -1.056039   -0.388653    0.831682
      5          1           0        1.142451   -0.776613   -0.321272
      6          1           0       -1.142451    0.776613   -0.321272
 ---------------------------------------------------------------------
                    Distance matrix (angstroms):
                    1          2          3          4          5
     1  N    0.000000
     2  N    1.420430   0.000000
     3  H    1.012869   2.036954   0.000000
     4  H    2.036954   1.012869   2.250573   0.000000
     5  H    1.009421   1.982593   1.641528   2.512603   0.000000
     6  H    1.982593   1.009421   2.512603   1.641528   2.762841
                    6
     6  H    0.000000
 Stoichiometry    H4N2
 Framework group  C2[X(H4N2)]
 Deg. of freedom     7
 Full point group                 C2      NOp   2
 RotChk:  IX=0 Diff= 4.40D-14
 Largest Abelian subgroup         C2      NOp   2
 Largest concise Abelian subgroup C2      NOp   2
                         Standard orientation:                         
 ---------------------------------------------------------------------
 Center     Atomic      Atomic             Coordinates (Angstroms)
 Number     Number       Type             X           Y           Z
 ---------------------------------------------------------------------
      1          7           0        0.000000    0.710215   -0.072740
      2          7           0       -0.000000   -0.710215   -0.072740
      3          1           0       -0.239917    1.099413    0.831067
      4          1           0        0.239917   -1.099413    0.831067
      5          1           0        0.926174    1.024951   -0.321887
      6          1           0       -0.926174   -1.024951   -0.321887
 ---------------------------------------------------------------------
 Rotational constants (GHZ):         146.5005311          24.6403583          24.6222330
 Leave Link  202 at Wed Feb 19 14:51:06 2020, MaxMem=  1879048192 cpu:               0.1 elap:               0.0
 (Enter /opt/g16/l601.exe)
 Copying SCF densities to generalized density rwf, IOpCl= 0 IROHF=0.

 **********************************************************************

            Population analysis using the SCF Density.

 **********************************************************************

 Orbital symmetries:
       Occupied  (A) (B) (A) (B) (A) (B) (A) (B) (A)
       Virtual   (A) (B) (A) (B) (B) (A) (A) (B) (A) (B) (B) (A)
                 (B) (A) (A) (B) (B) (A) (B) (B) (A) (A) (B) (A)
                 (B) (A) (B) (A) (B) (B) (A) (B) (A) (A) (B) (A)
                 (B) (A) (B) (A) (B) (B) (A) (A) (B) (A) (B) (A)
                 (A) (B) (B) (A) (A) (B) (B) (A) (B) (A) (B) (A)
                 (B) (B) (A) (A) (A) (B) (B) (A) (B) (A) (B) (A)
                 (B) (A) (B) (A) (B)
 The electronic state is 1-A.
 Alpha  occ. eigenvalues --  -14.43482 -14.43469  -1.04928  -0.84414  -0.59130
 Alpha  occ. eigenvalues --   -0.57812  -0.54016  -0.33802  -0.33374
 Alpha virt. eigenvalues --    0.10720   0.13854   0.18051   0.18951   0.28840
 Alpha virt. eigenvalues --    0.38523   0.42209   0.45106   0.45796   0.47890
 Alpha virt. eigenvalues --    0.50650   0.54244   0.57195   0.58046   0.60539
 Alpha virt. eigenvalues --    0.61473   0.64622   0.96590   0.97191   1.20802
 Alpha virt. eigenvalues --    1.28065   1.31526   1.41544   1.41558   1.48010
 Alpha virt. eigenvalues --    1.50578   1.58297   1.75981   1.78905   1.94323
 Alpha virt. eigenvalues --    1.94798   2.01843   2.02799   2.04983   2.11110
 Alpha virt. eigenvalues --    2.14870   2.17749   2.30803   2.37024   2.43741
 Alpha virt. eigenvalues --    2.46990   2.59746   2.59776   2.65446   2.67912
 Alpha virt. eigenvalues --    2.70516   3.08539   3.09276   3.19526   3.49790
 Alpha virt. eigenvalues --    3.67279   3.89047   3.98137   4.00122   4.24074
 Alpha virt. eigenvalues --    4.40833   4.41090   4.57626   4.66639   4.69336
 Alpha virt. eigenvalues --    4.75030   4.80561   4.82849   4.84672   4.96064
 Alpha virt. eigenvalues --    4.98657   5.05882   5.20629   5.32851   5.47491
 Alpha virt. eigenvalues --    5.60633   5.69925   5.79195   5.89329   6.73829
 Alpha virt. eigenvalues --   31.77754  31.80545
          Condensed to atoms (all electrons):
               1          2          3          4          5          6
     1  N    6.554705   0.221104   0.395124  -0.055606   0.384079  -0.052915
     2  N    0.221104   6.554705  -0.055606   0.395124  -0.052915   0.384079
     3  H    0.395124  -0.055606   0.500188  -0.009292  -0.045256   0.001043
     4  H   -0.055606   0.395124  -0.009292   0.500188   0.001043  -0.045256
     5  H    0.384079  -0.052915  -0.045256   0.001043   0.474013   0.006344
     6  H   -0.052915   0.384079   0.001043  -0.045256   0.006344   0.474013
 Mulliken charges:
               1
     1  N   -0.446491
     2  N   -0.446491
     3  H    0.213800
     4  H    0.213800
     5  H    0.232692
     6  H    0.232692
 Sum of Mulliken charges =  -0.00000
 Mulliken charges with hydrogens summed into heavy atoms:
               1
     1  N   -0.000000
     2  N   -0.000000
 Electronic spatial extent (au):  <R**2>=             82.1937
 Charge=              0.0000 electrons
 Dipole moment (field-independent basis, Debye):
    X=              0.0000    Y=              0.0000    Z=              2.0424  Tot=              2.0424
 Quadrupole moment (field-independent basis, Debye-Ang):
   XX=            -12.3493   YY=            -12.8305   ZZ=            -12.9724
   XY=              2.6687   XZ=             -0.0000   YZ=             -0.0000
 Traceless Quadrupole moment (field-independent basis, Debye-Ang):
   XX=              0.3681   YY=             -0.1131   ZZ=             -0.2550
   XY=              2.6687   XZ=             -0.0000   YZ=             -0.0000
 Octapole moment (field-independent basis, Debye-Ang**2):
  XXX=              0.0000  YYY=              0.0000  ZZZ=              3.1748  XYY=              0.0000
  XXY=              0.0000  XXZ=             -0.2250  XZZ=              0.0000  YZZ=              0.0000
  YYZ=              3.4959  XYZ=             -2.4360
 Hexadecapole moment (field-independent basis, Debye-Ang**3):
 XXXX=            -17.1709 YYYY=            -61.8942 ZZZZ=            -18.3571 XXXY=              1.2617
 XXXZ=             -0.0000 YYYX=              1.7621 YYYZ=             -0.0000 ZZZX=             -0.0000
 ZZZY=              0.0000 XXYY=            -12.4359 XXZZ=             -6.1958 YYZZ=            -12.8898
 XXYZ=             -0.0000 YYXZ=             -0.0000 ZZXY=             -0.5823
 N-N= 4.177407834303D+01 E-N=-3.452802822524D+02  KE= 1.113871723916D+02
 Symmetry A    KE= 5.730440142709D+01
 Symmetry B    KE= 5.408277096446D+01
 No NMR shielding tensors so no spin-rotation constants.
 Leave Link  601 at Wed Feb 19 14:51:06 2020, MaxMem=  1879048192 cpu:               1.2 elap:               0.2
 (Enter /opt/g16/l9999.exe)

 Test job not archived.
 1\1\GINC-NODE08\FOpt\RwB97XD\def2TZVP\H4N2\ALONGD\19-Feb-2020\0\\#P op
 t guess=mix wb97xd/def2tzvp scf=xqc iop(2/9=2000)\\name\\0,1\N,0.70348
 33565,0.0975514857,-0.0721252791\N,-0.7034833565,-0.0975514857,-0.0721
 252791\H,1.0560391147,0.3886526716,0.8316817778\H,-1.0560391147,-0.388
 6526716,0.8316817778\H,1.1424512554,-0.7766131013,-0.3212721487\H,-1.1
 424512554,0.7766131013,-0.3212721487\\Version=ES64L-G16RevB.01\State=1
 -A\HF=-111.8792902\RMSD=3.540e-09\RMSF=6.941e-05\Dipole=0.,0.,0.803524
 1\Quadrupole=0.4625379,-0.2729852,-0.1895527,-1.9579021,0.,0.\PG=C02 [
 X(H4N2)]\\@


 IF MATHEMATICALLY YOU END UP WITH THE INCORRECT ANSWER,
 TRY MULTIPLYING BY THE PAGE NUMBER.
 Job cpu time:       0 days  0 hours  1 minutes 25.8 seconds.
 Elapsed time:       0 days  0 hours  0 minutes 11.0 seconds.
 File lengths (MBytes):  RWF=     10 Int=      0 D2E=      0 Chk=      2 Scr=      1
 Normal termination of Gaussian 16 at Wed Feb 19 14:51:06 2020.
