 Entering Gaussian System, Link 0=g16
 Initial command:
 /opt/g16/l1.exe "/scratch/alongd/g16/a33757-33019/Gau-18220.inp" -scrdir="/scratch/alongd/g16/a33757-33019/"
 Entering Link 1 = /opt/g16/l1.exe PID=     18222.
  
 Copyright (c) 1988-2017, Gaussian, Inc.  All Rights Reserved.
  
 This is part of the Gaussian(R) 16 program.  It is based on
 the Gaussian(R) 09 system (copyright 2009, Gaussian, Inc.),
 the Gaussian(R) 03 system (copyright 2003, Gaussian, Inc.),
 the Gaussian(R) 98 system (copyright 1998, Gaussian, Inc.),
 the Gaussian(R) 94 system (copyright 1995, Gaussian, Inc.),
 the Gaussian 92(TM) system (copyright 1992, Gaussian, Inc.),
 the Gaussian 90(TM) system (copyright 1990, Gaussian, Inc.),
 the Gaussian 88(TM) system (copyright 1988, Gaussian, Inc.),
 the Gaussian 86(TM) system (copyright 1986, Carnegie Mellon
 University), and the Gaussian 82(TM) system (copyright 1983,
 Carnegie Mellon University). Gaussian is a federally registered
 trademark of Gaussian, Inc.
  
 This software contains proprietary and confidential information,
 including trade secrets, belonging to Gaussian, Inc.
  
 This software is provided under written license and may be
 used, copied, transmitted, or stored only in accord with that
 written license.
  
 The following legend is applicable only to US Government
 contracts under FAR:
  
                    RESTRICTED RIGHTS LEGEND
  
 Use, reproduction and disclosure by the US Government is
 subject to restrictions as set forth in subparagraphs (a)
 and (c) of the Commercial Computer Software - Restricted
 Rights clause in FAR 52.227-19.
  
 Gaussian, Inc.
 340 Quinnipiac St., Bldg. 40, Wallingford CT 06492
  
  
 ---------------------------------------------------------------
 Warning -- This program may not be used in any manner that
 competes with the business of Gaussian, Inc. or will provide
 assistance to any competitor of Gaussian, Inc.  The licensee
 of this program is prohibited from giving any competitor of
 Gaussian, Inc. access to this program.  By using this program,
 the user acknowledges that Gaussian, Inc. is engaged in the
 business of creating and licensing software in the field of
 computational chemistry and represents and warrants to the
 licensee that it is not a competitor of Gaussian, Inc. and that
 it will not use this program in any manner prohibited above.
 ---------------------------------------------------------------
  

 Cite this work as:
 Gaussian 16, Revision B.01,
 M. J. Frisch, G. W. Trucks, H. B. Schlegel, G. E. Scuseria, 
 M. A. Robb, J. R. Cheeseman, G. Scalmani, V. Barone, 
 G. A. Petersson, H. Nakatsuji, X. Li, M. Caricato, A. V. Marenich, 
 J. Bloino, B. G. Janesko, R. Gomperts, B. Mennucci, H. P. Hratchian, 
 J. V. Ortiz, A. F. Izmaylov, J. L. Sonnenberg, D. Williams-Young, 
 F. Ding, F. Lipparini, F. Egidi, J. Goings, B. Peng, A. Petrone, 
 T. Henderson, D. Ranasinghe, V. G. Zakrzewski, J. Gao, N. Rega, 
 G. Zheng, W. Liang, M. Hada, M. Ehara, K. Toyota, R. Fukuda, 
 J. Hasegawa, M. Ishida, T. Nakajima, Y. Honda, O. Kitao, H. Nakai, 
 T. Vreven, K. Throssell, J. A. Montgomery, Jr., J. E. Peralta, 
 F. Ogliaro, M. J. Bearpark, J. J. Heyd, E. N. Brothers, K. N. Kudin, 
 V. N. Staroverov, T. A. Keith, R. Kobayashi, J. Normand, 
 K. Raghavachari, A. P. Rendell, J. C. Burant, S. S. Iyengar, 
 J. Tomasi, M. Cossi, J. M. Millam, M. Klene, C. Adamo, R. Cammi, 
 J. W. Ochterski, R. L. Martin, K. Morokuma, O. Farkas, 
 J. B. Foresman, and D. J. Fox, Gaussian, Inc., Wallingford CT, 2016.
 
 ******************************************
 Gaussian 16:  ES64L-G16RevB.01 20-Dec-2017
                19-Feb-2020 
 ******************************************
 %chk=check.chk
 %mem=14336mb
 %NProcShared=8
 Will use up to    8 processors via shared memory.
 ----------------------------------------------------------------------
 #P guess=read wb97xd/def2tzvp freq iop(7/33=1) scf=(tight, direct) int
 egral=(grid=ultrafine, Acc2E=12) scf=xqc iop(2/9=2000)
 ----------------------------------------------------------------------
 1/10=4,30=1,38=1/1,3;
 2/9=2000,12=2,17=6,18=5,40=1/2;
 3/5=44,7=101,11=2,25=1,27=12,30=1,71=2,74=-58,75=-5,116=-2,140=1/1,2,3;
 4/5=1/1;
 5/5=2,8=3,13=1,32=2,38=6,87=12,98=1/2,8;
 8/6=4,10=90,11=11,87=12/1;
 11/6=1,8=1,9=11,15=111,16=1,87=12/1,2,10;
 10/6=1,87=12/2;
 6/7=2,8=2,9=2,10=2,28=1,87=12/1;
 7/8=1,10=1,25=1,33=1,87=12/1,2,3,16;
 1/10=4,30=1/3;
 99//99;
 Leave Link    1 at Wed Feb 19 14:52:16 2020, MaxMem=  1879048192 cpu:               0.6 elap:               0.1
 (Enter /opt/g16/l101.exe)
 ----
 name
 ----
 Symbolic Z-matrix:
 Charge =  0 Multiplicity = 1
 N                     0.70348   0.09755  -0.07213 
 N                    -0.70348  -0.09755  -0.07213 
 H                     1.05604   0.38865   0.83168 
 H                    -1.05604  -0.38865   0.83168 
 H                     1.14245  -0.77661  -0.32127 
 H                    -1.14245   0.77661  -0.32127 
 
 ITRead=  0  0  0  0  0  0
 MicOpt= -1 -1 -1 -1 -1 -1
 NAtoms=      6 NQM=        6 NQMF=       0 NMMI=      0 NMMIF=      0
                NMic=       0 NMicF=      0.
                    Isotopes and Nuclear Properties:
 (Nuclear quadrupole moments (NQMom) in fm**2, nuclear magnetic moments (NMagM)
  in nuclear magnetons)

  Atom         1           2           3           4           5           6
 IAtWgt=          14          14           1           1           1           1
 AtmWgt=  14.0030740  14.0030740   1.0078250   1.0078250   1.0078250   1.0078250
 NucSpn=           2           2           1           1           1           1
 AtZEff=  -0.0000000  -0.0000000  -0.0000000  -0.0000000  -0.0000000  -0.0000000
 NQMom=    2.0440000   2.0440000   0.0000000   0.0000000   0.0000000   0.0000000
 NMagM=    0.4037610   0.4037610   2.7928460   2.7928460   2.7928460   2.7928460
 AtZNuc=   7.0000000   7.0000000   1.0000000   1.0000000   1.0000000   1.0000000
 Leave Link  101 at Wed Feb 19 14:52:16 2020, MaxMem=  1879048192 cpu:               1.9 elap:               0.3
 (Enter /opt/g16/l103.exe)

 GradGradGradGradGradGradGradGradGradGradGradGradGradGradGradGradGradGrad
 Berny optimization.
 Initialization pass.
 Trust Radius=3.00D-01 FncErr=1.00D-07 GrdErr=1.00D-07 EigMax=2.50D+02 EigMin=1.00D-04
 Number of steps in this run=      2 maximum allowed number of steps=      2.
 GradGradGradGradGradGradGradGradGradGradGradGradGradGradGradGradGradGrad

 Leave Link  103 at Wed Feb 19 14:52:16 2020, MaxMem=  1879048192 cpu:               0.4 elap:               0.0
 (Enter /opt/g16/l202.exe)
                          Input orientation:                          
 ---------------------------------------------------------------------
 Center     Atomic      Atomic             Coordinates (Angstroms)
 Number     Number       Type             X           Y           Z
 ---------------------------------------------------------------------
      1          7           0        0.703483    0.097551   -0.072125
      2          7           0       -0.703483   -0.097551   -0.072125
      3          1           0        1.056039    0.388653    0.831682
      4          1           0       -1.056039   -0.388653    0.831682
      5          1           0        1.142451   -0.776613   -0.321272
      6          1           0       -1.142451    0.776613   -0.321272
 ---------------------------------------------------------------------
                    Distance matrix (angstroms):
                    1          2          3          4          5
     1  N    0.000000
     2  N    1.420429   0.000000
     3  H    1.012869   2.036953   0.000000
     4  H    2.036953   1.012869   2.250573   0.000000
     5  H    1.009421   1.982592   1.641528   2.512603   0.000000
     6  H    1.982592   1.009421   2.512603   1.641528   2.762841
                    6
     6  H    0.000000
 Stoichiometry    H4N2
 Framework group  C2[X(H4N2)]
 Deg. of freedom     7
 Full point group                 C2      NOp   2
 Largest Abelian subgroup         C2      NOp   2
 Largest concise Abelian subgroup C2      NOp   2
                         Standard orientation:                         
 ---------------------------------------------------------------------
 Center     Atomic      Atomic             Coordinates (Angstroms)
 Number     Number       Type             X           Y           Z
 ---------------------------------------------------------------------
      1          7           0       -0.000000    0.710214   -0.072740
      2          7           0       -0.000000   -0.710214   -0.072740
      3          1           0       -0.239918    1.099413    0.831067
      4          1           0        0.239918   -1.099413    0.831067
      5          1           0        0.926173    1.024952   -0.321887
      6          1           0       -0.926173   -1.024952   -0.321887
 ---------------------------------------------------------------------
 Rotational constants (GHZ):         146.5005947          24.6403785          24.6222548
 Leave Link  202 at Wed Feb 19 14:52:16 2020, MaxMem=  1879048192 cpu:               0.3 elap:               0.0
 (Enter /opt/g16/l301.exe)
 Standard basis: def2TZVP (5D, 7F)
 Ernie: Thresh=  0.10000D-02 Tol=  0.10000D-05 Strict=F.
 There are    48 symmetry adapted cartesian basis functions of A   symmetry.
 There are    48 symmetry adapted cartesian basis functions of B   symmetry.
 There are    43 symmetry adapted basis functions of A   symmetry.
 There are    43 symmetry adapted basis functions of B   symmetry.
    86 basis functions,   134 primitive gaussians,    96 cartesian basis functions
     9 alpha electrons        9 beta electrons
       nuclear repulsion energy        41.7749459917 Hartrees.
 IExCor= 4639 DFT=T Ex+Corr=wB97XD ExCW=0 ScaHFX=  1.000000
 ScaDFX=  1.000000  1.000000  1.000000  1.000000 ScalE2=  1.000000  1.000000
 IRadAn=      5 IRanWt=     -1 IRanGd=            0 ICorTp=0 IEmpDi=121
 HFx  wShort=  0.000000 wLong=  0.200000 cFull=  0.222036 cShort=  0.000000 cLong=  0.777964
 DFx  wShort=  0.000000 wLong=  0.200000 cFull=  0.000000 cShort=  0.000000 cLong=  1.000000
 NAtoms=    6 NActive=    6 NUniq=    3 SFac= 4.00D+00 NAtFMM=   60 NAOKFM=F Big=F
 Integral buffers will be    131072 words long.
 Raffenetti 2 integral format.
 Two-electron integral symmetry is turned on.
 R6Disp:  Grimme-D2 Dispersion energy=       -0.0008539980 Hartrees.
 Nuclear repulsion after empirical dispersion term =       41.7740919937 Hartrees.
 Leave Link  301 at Wed Feb 19 14:52:16 2020, MaxMem=  1879048192 cpu:               0.5 elap:               0.1
 (Enter /opt/g16/l302.exe)
 NPDir=0 NMtPBC=     1 NCelOv=     1 NCel=       1 NClECP=     1 NCelD=      1
         NCelK=      1 NCelE2=     1 NClLst=     1 CellRange=     0.0.
 One-electron integrals computed using PRISM.
 One-electron integral symmetry used in STVInt
   2 Symmetry operations used in ECPInt.
 ECPInt:  NShTT=     741 NPrTT=    2136 LenC2=     741 LenP2D=    1962.
 LDataN:  DoStor=T MaxTD1= 6 Len=  172
 NBasis=    86 RedAO= T EigKep=  2.34D-03  NBF=    43    43
 NBsUse=    86 1.00D-06 EigRej= -1.00D+00 NBFU=    43    43
 Precomputing XC quadrature grid using
 IXCGrd= 4 IRadAn=           5 IRanWt=          -1 IRanGd=           0 AccXCQ= 1.00D-12.
 Generated NRdTot=       0 NPtTot=           0 NUsed=           0 NTot=          32
 NSgBfM=    96    96    96    96    96 MxSgAt=     6 MxSgA2=     6.
 Leave Link  302 at Wed Feb 19 14:52:16 2020, MaxMem=  1879048192 cpu:               1.5 elap:               0.2
 (Enter /opt/g16/l303.exe)
 DipDrv:  MaxL=1.
 Leave Link  303 at Wed Feb 19 14:52:17 2020, MaxMem=  1879048192 cpu:               0.5 elap:               0.1
 (Enter /opt/g16/l401.exe)
 Initial guess from the checkpoint file:  "check.chk"
 B after Tr=     0.000000    0.000000    0.000000
         Rot=    1.000000    0.000000    0.000000   -0.000000 Ang=  -0.00 deg.
 Guess basis will be translated and rotated to current coordinates.
 JPrj=2 DoOrth=T DoCkMO=T.
 Initial guess orbital symmetries:
       Occupied  (A) (B) (A) (B) (A) (B) (A) (B) (A)
       Virtual   (A) (B) (A) (B) (B) (A) (A) (B) (A) (B) (B) (A)
                 (B) (A) (A) (B) (B) (A) (B) (B) (A) (A) (B) (A)
                 (B) (A) (B) (A) (B) (B) (A) (B) (A) (A) (B) (A)
                 (B) (A) (B) (A) (B) (B) (A) (A) (B) (A) (B) (A)
                 (A) (B) (B) (A) (A) (B) (B) (A) (B) (A) (B) (A)
                 (B) (B) (A) (A) (A) (B) (B) (A) (B) (A) (B) (A)
                 (B) (A) (B) (A) (B)
 The electronic state of the initial guess is 1-A.
 Leave Link  401 at Wed Feb 19 14:52:17 2020, MaxMem=  1879048192 cpu:               1.0 elap:               0.1
 (Enter /opt/g16/l502.exe)
 Keep R1 ints in memory in symmetry-blocked form, NReq=21387008.
 FoFCou: FMM=F IPFlag=           0 FMFlag=           0 FMFlg1=           0
         NFxFlg=           0 DoJE=F BraDBF=F KetDBF=F FulRan=T
         wScrn=  0.000000 ICntrl=       600 IOpCl=  0 I1Cent=           0 NGrid=           0
         NMat0=    1 NMatS0=   3741 NMatT0=    0 NMatD0=    1 NMtDS0=    0 NMtDT0=    0
 Petite list used in FoFCou.
 Closed shell SCF:
 Using DIIS extrapolation, IDIIS=  1040.
 NGot=  1879048192 LenX=  1875518541 LenY=  1875508884
 Requested convergence on RMS density matrix=1.00D-08 within  32 cycles.
 Requested convergence on MAX density matrix=1.00D-06.
 Requested convergence on             energy=1.00D-06.
 No special actions if energy rises.

 Cycle   1  Pass 1  IDiag  1:
 E= -111.879290191509    
 DIIS: error= 7.60D-08 at cycle   1 NSaved=   1.
 NSaved= 1 IEnMin= 1 EnMin= -111.879290191509     IErMin= 1 ErrMin= 7.60D-08
 ErrMax= 7.60D-08  0.00D+00 EMaxC= 1.00D-01 BMatC= 6.49D-13 BMatP= 6.49D-13
 IDIUse=1 WtCom= 1.00D+00 WtEn= 0.00D+00
 Coeff-Com:  0.100D+01
 Coeff:      0.100D+01
 Gap=     0.441 Goal=   None    Shift=    0.000
 RMSDP=8.46D-09 MaxDP=6.53D-08              OVMax= 2.55D-07

 SCF Done:  E(RwB97XD) =  -111.879290192     A.U. after    1 cycles
            NFock=  1  Conv=0.85D-08     -V/T= 2.0044
 KE= 1.113871749357D+02 PE=-3.452803106304D+02 EE= 8.023975350948D+01
 Leave Link  502 at Wed Feb 19 14:52:18 2020, MaxMem=  1879048192 cpu:               7.3 elap:               0.9
 (Enter /opt/g16/l508.exe)
 QCSCF skips out because SCF is already converged.
 Leave Link  508 at Wed Feb 19 14:52:18 2020, MaxMem=  1879048192 cpu:               0.2 elap:               0.0
 (Enter /opt/g16/l801.exe)
 DoSCS=F DFT=T ScalE2(SS,OS)=  1.000000  1.000000
 Range of M.O.s used for correlation:     1    86
 NBasis=    86 NAE=     9 NBE=     9 NFC=     0 NFV=     0
 NROrb=     86 NOA=     9 NOB=     9 NVA=    77 NVB=    77
 Leave Link  801 at Wed Feb 19 14:52:18 2020, MaxMem=  1879048192 cpu:               0.4 elap:               0.1
 (Enter /opt/g16/l1101.exe)
 Using compressed storage, NAtomX=     6.
 Will process      7 centers per pass.
   2 Symmetry operations used in ECPInt.
 ECPInt:  NShTT=     741 NPrTT=    2136 LenC2=     741 LenP2D=    1962.
 LDataN:  DoStor=T MaxTD1= 7 Len=  274
 R6Disp: Adding Grimme-D2 dispersion energy 1st derivatives to the gradient.
 Leave Link 1101 at Wed Feb 19 14:52:18 2020, MaxMem=  1879048192 cpu:               2.7 elap:               0.3
 (Enter /opt/g16/l1102.exe)
 Symmetrizing basis deriv contribution to polar:
 IMax=3 JMax=2 DiffMx= 0.00D+00
 Leave Link 1102 at Wed Feb 19 14:52:18 2020, MaxMem=  1879048192 cpu:               0.5 elap:               0.1
 (Enter /opt/g16/l1110.exe)
 Forming Gx(P) for the SCF density, NAtomX=     6.
 Integral derivatives from FoFJK, PRISM(SPDF).
 Do as many integral derivatives as possible in FoFJK.
 G2DrvN: MDV=    1879047588.
 G2DrvN: will do     7 centers at a time, making    1 passes.
 Calling FoFCou, ICntrl=  3107 FMM=F I1Cent=   0 AccDes= 1.00D-12.
 FoFJK:  IHMeth= 1 ICntrl=    3107 DoSepK=T KAlg= 0 I1Cent=           0 FoldK=F
 IRaf=         1 NMat=       1 IRICut=       1 DoRegI=T DoRafI=F ISym2E= 1 IDoP0=0 IntGTp=1.
 FoFCou: FMM=F IPFlag=           0 FMFlag=      100000 FMFlg1=           0
         NFxFlg=           0 DoJE=F BraDBF=F KetDBF=F FulRan=T
         wScrn=  0.000000 ICntrl=      3507 IOpCl=  0 I1Cent=           0 NGrid=           0
         NMat0=    1 NMatS0=      1 NMatT0=    0 NMatD0=    1 NMtDS0=    0 NMtDT0=    0
 Petite list used in FoFCou.
 End of G2Drv F.D. properties file   721 does not exist.
 End of G2Drv F.D. properties file   722 does not exist.
 End of G2Drv F.D. properties file   788 does not exist.
 Leave Link 1110 at Wed Feb 19 14:52:22 2020, MaxMem=  1879048192 cpu:              30.0 elap:               3.8
 (Enter /opt/g16/l1002.exe)
 Minotr:  Closed shell wavefunction.
          IDoAtm=111111
          Direct CPHF calculation.
          Differentiating once with respect to electric field.
                with respect to dipole field.
          Differentiating once with respect to nuclear coordinates.
          Using symmetry in CPHF.
          Requested convergence is 1.0D-08 RMS, and 1.0D-07 maximum.
          Secondary convergence is 1.0D-12 RMS, and 1.0D-12 maximum.
          NewPWx=T KeepS1=F KeepF1=F KeepIn=T MapXYZ=F SortEE=F KeepMc=T.
         1789 words used for storage of precomputed grid.
 Keep R1 ints in memory in symmetry-blocked form, NReq=21364655.
 FoFCou: FMM=F IPFlag=           0 FMFlag=           0 FMFlg1=           0
         NFxFlg=           0 DoJE=F BraDBF=F KetDBF=F FulRan=T
         wScrn=  0.000000 ICntrl=       600 IOpCl=  0 I1Cent=           0 NGrid=           0
         NMat0=    1 NMatS0=   3741 NMatT0=    0 NMatD0=    1 NMtDS0=    0 NMtDT0=    0
 Petite list used in FoFCou.
          MDV=    1879048192 using IRadAn=       1.
          Solving linear equations simultaneously, MaxMat=       0.
          There are    12 degrees of freedom in the 1st order CPHF.  IDoFFX=4 NUNeed=    12.
     12 vectors produced by pass  0 Test12= 5.78D-15 8.33D-09 XBig12= 6.26D+00 1.05D+00.
 AX will form    12 AO Fock derivatives at one time.
     12 vectors produced by pass  1 Test12= 5.78D-15 8.33D-09 XBig12= 4.45D-01 2.38D-01.
     12 vectors produced by pass  2 Test12= 5.78D-15 8.33D-09 XBig12= 1.88D-02 4.55D-02.
     12 vectors produced by pass  3 Test12= 5.78D-15 8.33D-09 XBig12= 3.23D-04 4.68D-03.
     12 vectors produced by pass  4 Test12= 5.78D-15 8.33D-09 XBig12= 2.81D-06 4.73D-04.
     12 vectors produced by pass  5 Test12= 5.78D-15 8.33D-09 XBig12= 2.03D-08 3.44D-05.
      9 vectors produced by pass  6 Test12= 5.78D-15 8.33D-09 XBig12= 9.50D-11 1.80D-06.
      4 vectors produced by pass  7 Test12= 5.78D-15 8.33D-09 XBig12= 4.30D-13 1.20D-07.
      2 vectors produced by pass  8 Test12= 5.78D-15 8.33D-09 XBig12= 2.31D-15 1.06D-08.
 InvSVY:  IOpt=1 It=  1 EMax= 1.78D-15
 Solved reduced A of dimension    87 with    12 vectors.
 FullF1:  Do perturbations      1 to      12.
 Isotropic polarizability for W=    0.000000       18.23 Bohr**3.
 End of Minotr F.D. properties file   721 does not exist.
 End of Minotr F.D. properties file   722 does not exist.
 End of Minotr F.D. properties file   788 does not exist.
 Leave Link 1002 at Wed Feb 19 14:52:29 2020, MaxMem=  1879048192 cpu:              54.4 elap:               6.8
 (Enter /opt/g16/l601.exe)
 Copying SCF densities to generalized density rwf, IOpCl= 0 IROHF=0.

 **********************************************************************

            Population analysis using the SCF Density.

 **********************************************************************

 Orbital symmetries:
       Occupied  (A) (B) (A) (B) (A) (B) (A) (B) (A)
       Virtual   (A) (B) (A) (B) (B) (A) (A) (B) (A) (B) (B) (A)
                 (B) (A) (A) (B) (B) (A) (B) (B) (A) (A) (B) (A)
                 (B) (A) (B) (A) (B) (B) (A) (B) (A) (A) (B) (A)
                 (B) (A) (B) (A) (B) (B) (A) (A) (B) (A) (B) (A)
                 (A) (B) (B) (A) (A) (B) (B) (A) (B) (A) (B) (A)
                 (B) (B) (A) (A) (A) (B) (B) (A) (B) (A) (B) (A)
                 (B) (A) (B) (A) (B)
 The electronic state is 1-A.
 Alpha  occ. eigenvalues --  -14.43482 -14.43469  -1.04928  -0.84414  -0.59130
 Alpha  occ. eigenvalues --   -0.57812  -0.54016  -0.33802  -0.33374
 Alpha virt. eigenvalues --    0.10720   0.13854   0.18051   0.18951   0.28840
 Alpha virt. eigenvalues --    0.38523   0.42209   0.45106   0.45796   0.47890
 Alpha virt. eigenvalues --    0.50650   0.54244   0.57195   0.58046   0.60539
 Alpha virt. eigenvalues --    0.61473   0.64622   0.96590   0.97191   1.20802
 Alpha virt. eigenvalues --    1.28065   1.31526   1.41544   1.41558   1.48010
 Alpha virt. eigenvalues --    1.50578   1.58297   1.75981   1.78905   1.94323
 Alpha virt. eigenvalues --    1.94798   2.01843   2.02799   2.04983   2.11110
 Alpha virt. eigenvalues --    2.14870   2.17749   2.30803   2.37024   2.43741
 Alpha virt. eigenvalues --    2.46990   2.59746   2.59776   2.65446   2.67912
 Alpha virt. eigenvalues --    2.70516   3.08539   3.09276   3.19526   3.49790
 Alpha virt. eigenvalues --    3.67279   3.89047   3.98137   4.00123   4.24074
 Alpha virt. eigenvalues --    4.40833   4.41090   4.57626   4.66639   4.69336
 Alpha virt. eigenvalues --    4.75030   4.80562   4.82849   4.84672   4.96064
 Alpha virt. eigenvalues --    4.98657   5.05882   5.20630   5.32851   5.47491
 Alpha virt. eigenvalues --    5.60633   5.69925   5.79195   5.89330   6.73830
 Alpha virt. eigenvalues --   31.77754  31.80545
          Condensed to atoms (all electrons):
               1          2          3          4          5          6
     1  N    6.554705   0.221104   0.395124  -0.055606   0.384079  -0.052915
     2  N    0.221104   6.554705  -0.055606   0.395124  -0.052915   0.384079
     3  H    0.395124  -0.055606   0.500188  -0.009292  -0.045256   0.001043
     4  H   -0.055606   0.395124  -0.009292   0.500188   0.001043  -0.045256
     5  H    0.384079  -0.052915  -0.045256   0.001043   0.474013   0.006344
     6  H   -0.052915   0.384079   0.001043  -0.045256   0.006344   0.474013
 Mulliken charges:
               1
     1  N   -0.446491
     2  N   -0.446491
     3  H    0.213800
     4  H    0.213800
     5  H    0.232691
     6  H    0.232691
 Sum of Mulliken charges =  -0.00000
 Mulliken charges with hydrogens summed into heavy atoms:
               1
     1  N   -0.000000
     2  N   -0.000000
 APT charges:
               1
     1  N   -0.244744
     2  N   -0.244744
     3  H    0.103825
     4  H    0.103825
     5  H    0.140919
     6  H    0.140919
 Sum of APT charges =   0.00000
 APT charges with hydrogens summed into heavy atoms:
               1
     1  N    0.000000
     2  N   -0.000000
 Electronic spatial extent (au):  <R**2>=             82.1936
 Charge=              0.0000 electrons
 Dipole moment (field-independent basis, Debye):
    X=             -0.0000    Y=             -0.0000    Z=              2.0424  Tot=              2.0424
 Quadrupole moment (field-independent basis, Debye-Ang):
   XX=            -12.3493   YY=            -12.8305   ZZ=            -12.9724
   XY=              2.6687   XZ=              0.0000   YZ=             -0.0000
 Traceless Quadrupole moment (field-independent basis, Debye-Ang):
   XX=              0.3681   YY=             -0.1131   ZZ=             -0.2550
   XY=              2.6687   XZ=              0.0000   YZ=             -0.0000
 Octapole moment (field-independent basis, Debye-Ang**2):
  XXX=             -0.0000  YYY=              0.0000  ZZZ=              3.1748  XYY=             -0.0000
  XXY=             -0.0000  XXZ=             -0.2250  XZZ=              0.0000  YZZ=              0.0000
  YYZ=              3.4959  XYZ=             -2.4360
 Hexadecapole moment (field-independent basis, Debye-Ang**3):
 XXXX=            -17.1709 YYYY=            -61.8941 ZZZZ=            -18.3571 XXXY=              1.2617
 XXXZ=              0.0000 YYYX=              1.7621 YYYZ=             -0.0000 ZZZX=             -0.0000
 ZZZY=             -0.0000 XXYY=            -12.4359 XXZZ=             -6.1958 YYZZ=            -12.8898
 XXYZ=              0.0000 YYXZ=              0.0000 ZZXY=             -0.5823
 N-N= 4.177409199369D+01 E-N=-3.452803124816D+02  KE= 1.113871749357D+02
 Symmetry A    KE= 5.730440380262D+01
 Symmetry B    KE= 5.408277113306D+01
  Exact polarizability:  16.845   1.211  21.028  -0.000   0.000  16.809
 Approx polarizability:  17.388   1.156  19.938  -0.000   0.000  17.375
 No NMR shielding tensors so no spin-rotation constants.
 Leave Link  601 at Wed Feb 19 14:52:29 2020, MaxMem=  1879048192 cpu:               1.7 elap:               0.2
 (Enter /opt/g16/l701.exe)
 SCFChk:  SCF convergence  8.46D-09 required  1.00D-08
 ... and contract with generalized density number  0.
 Compute integral second derivatives.
 R6Disp: Adding Grimme-D2 dispersion energy 2nd derivatives to the Hessian.
 Entering OneElI...
 Calculate overlap and kinetic energy integrals
    NBasis =  96  MinDer = 2  MaxDer = 2
 Requested accuracy = 0.1000D-14
 PrmmSu-InSpLW:  IPartL=    0 NPrtUS=    8 NPrtUL=    1 DoSpLW=F IThBeg=    0 IThEnd=    7 NThAct=    8.
 PrSmSu:  IncTry=   512 NBBP=            741 NTPThr=   100 NPartT=    8 Incr=           1 LDynOK=F GPUOK=F.
 PrsmSu:  NPrtUS=   8 ThrOK=T IAlg=2 LenDen=           0 ISkipM=0 DoSpLW=F IThBeg=    0 IThEnd=    7.
 Prism:   IPart=     0 DynPar=F LinDyn=F Incr=           1.
 PRISM was handed   234855313 working-precision words and   741 shell-pairs
 PRISM was handed   234855313 working-precision words and   741 shell-pairs
 PRISM was handed   234855313 working-precision words and   741 shell-pairs
 PRISM was handed   234855313 working-precision words and   741 shell-pairs
 PRISM was handed   234855313 working-precision words and   741 shell-pairs
 PRISM was handed   234855313 working-precision words and   741 shell-pairs
 PRISM was handed   234855313 working-precision words and   741 shell-pairs
 PRISM was handed   234855313 working-precision words and   741 shell-pairs
 IPart=  6 NShTot=          83 NBatch=          23 AvBLen=         3.6
 IPart=  5 NShTot=          83 NBatch=          23 AvBLen=         3.6
 IPart=  4 NShTot=          83 NBatch=          23 AvBLen=         3.6
 IPart=  7 NShTot=          83 NBatch=          23 AvBLen=         3.6
 IPart=  0 NShTot=         107 NBatch=          40 AvBLen=         2.7
 IPart=  3 NShTot=          96 NBatch=          32 AvBLen=         3.0
 IPart=  1 NShTot=         106 NBatch=          39 AvBLen=         2.7
 IPart=  2 NShTot=         100 NBatch=          35 AvBLen=         2.9
 PrSmSu:  NxtVal=              9.
 Entering OneElI...
 Calculate potential energy integrals
    NBasis =  96  MinDer = 2  MaxDer = 2
 Requested accuracy = 0.1000D-14
 PrmmSu-InSpLW:  IPartL=    0 NPrtUS=    8 NPrtUL=    1 DoSpLW=F IThBeg=    0 IThEnd=    7 NThAct=    8.
 PrSmSu:  IncTry=   512 NBBP=           4440 NTPThr=   100 NPartT=    8 Incr=           5 LDynOK=F GPUOK=F.
 PrsmSu:  NPrtUS=   8 ThrOK=T IAlg=2 LenDen=           0 ISkipM=0 DoSpLW=F IThBeg=    0 IThEnd=    7.
 Prism:   IPart=     0 DynPar=F LinDyn=F Incr=           5.
 PRISM was handed   234857221 working-precision words and   740 shell-pairs
 PRISM was handed   234857221 working-precision words and   740 shell-pairs
 PRISM was handed   234857221 working-precision words and   740 shell-pairs
 PRISM was handed   234857221 working-precision words and   740 shell-pairs
 PRISM was handed   234857221 working-precision words and   740 shell-pairs
 PRISM was handed   234857221 working-precision words and   740 shell-pairs
 PRISM was handed   234857221 working-precision words and   740 shell-pairs
 PRISM was handed   234857221 working-precision words and   740 shell-pairs
 IPart=  4 NShTot=         510 NBatch=          85 AvBLen=         6.0
 IPart=  5 NShTot=         510 NBatch=          85 AvBLen=         6.0
 IPart=  7 NShTot=         498 NBatch=          83 AvBLen=         6.0
 IPart=  6 NShTot=         498 NBatch=          83 AvBLen=         6.0
 IPart=  2 NShTot=         588 NBatch=          98 AvBLen=         6.0
 IPart=  3 NShTot=         576 NBatch=          96 AvBLen=         6.0
 IPart=  1 NShTot=         624 NBatch=         104 AvBLen=         6.0
 IPart=  0 NShTot=         636 NBatch=         106 AvBLen=         6.0
 PrSmSu:  NxtVal=             41.
   2 Symmetry operations used in ECPInt.
 ECPInt:  NShTT=     741 NPrTT=    2136 LenC2=     741 LenP2D=    1962.
 LDataN:  DoStor=F MaxTD1= 8 Len=  415
 LDataN:  DoStor=T MaxTD1= 8 Len=  415
 ECPSu:  NPrtUS=   8 ThrOK=T ISkipM=0 DoSpLW=F IThBeg=    0 IThEnd=    7.
 Polarizability after L701:
                1             2             3 
      1  0.168449D+02
      2  0.121070D+01  0.210278D+02
      3  0.000000D+00  0.000000D+00  0.168091D+02
 Dipole Derivatives after L701:
                 1             2             3             4             5 
      1  -0.293232D+00  0.559283D-01 -0.170188D+00 -0.293232D+00  0.559284D-01
      2   0.155442D+00 -0.168513D+00  0.336206D-01  0.155442D+00 -0.168513D+00
      3  -0.172640D+00  0.141284D+00 -0.272487D+00  0.172640D+00 -0.141283D+00
                 6             7             8             9            10 
      1   0.170188D+00  0.240890D+00 -0.351749D-01  0.755121D-01  0.240890D+00
      2  -0.336206D-01 -0.642900D-01  0.476805D-01 -0.135017D+00 -0.642900D-01
      3  -0.272487D+00  0.416310D-01 -0.468059D-01  0.229060D-01 -0.416310D-01
                11            12            13            14            15 
      1  -0.351749D-01 -0.755120D-01  0.523427D-01 -0.207534D-01  0.110148D-01
      2   0.476805D-01  0.135017D+00 -0.911523D-01  0.120832D+00 -0.731854D-01
      3   0.468058D-01  0.229060D-01  0.521314D-01 -0.375024D-01  0.249581D+00
                16            17            18 
      1   0.523427D-01 -0.207534D-01 -0.110148D-01
      2  -0.911523D-01  0.120832D+00  0.731854D-01
      3  -0.521314D-01  0.375024D-01  0.249581D+00
 Hessian after L701:
                1             2             3             4             5 
      1  0.924069D+01
      2 -0.484669D+00  0.380793D+01
      3  0.101661D+01 -0.837509D+00  0.943067D+01
      4 -0.531662D+01 -0.133969D+00  0.916195D-02  0.924069D+01
      5 -0.133969D+00  0.206754D+01 -0.605391D-01 -0.484669D+00  0.380793D+01
      6 -0.916195D-02  0.605391D-01 -0.531572D+01 -0.101661D+01  0.837509D+00
      7 -0.316575D+01 -0.282398D+00 -0.598570D+00  0.706525D-01 -0.630440D-01
      8 -0.277522D+00 -0.274586D+01  0.114159D+01 -0.961650D-01 -0.207607D-01
      9 -0.537105D+00  0.106489D+01 -0.118949D+01 -0.110897D+00  0.104295D+00
     10  0.706525D-01 -0.630440D-01  0.731289D-01 -0.316575D+01 -0.282398D+00
     11 -0.961650D-01 -0.207607D-01 -0.626107D-01 -0.277522D+00 -0.274586D+01
     12  0.110897D+00 -0.104295D+00  0.189990D+00  0.537105D+00 -0.106489D+01
     13 -0.991328D+00  0.887674D+00 -0.589821D+00  0.162348D+00  0.764065D-01
     14  0.996757D+00 -0.295369D+01 -0.243281D+00 -0.443216D-02 -0.155153D+00
     15 -0.654675D+00 -0.236796D+00 -0.317730D+01 -0.734317D-01 -0.531713D-01
     16  0.162348D+00  0.764065D-01  0.894869D-01 -0.991328D+00  0.887674D+00
     17 -0.443216D-02 -0.155153D+00  0.623541D-01  0.996757D+00 -0.295369D+01
     18  0.734317D-01  0.531713D-01  0.618500D-01  0.654675D+00  0.236796D+00
                6             7             8             9            10 
      6  0.943067D+01
      7 -0.731289D-01  0.314971D+01
      8  0.626107D-01  0.323141D+00  0.266346D+01
      9  0.189990D+00  0.489584D+00 -0.120387D+01  0.105122D+01
     10  0.598570D+00  0.920867D-02  0.520266D-02 -0.555019D-02  0.314971D+01
     11 -0.114159D+01  0.520266D-02 -0.244820D-01  0.964406D-02  0.323141D+00
     12 -0.118949D+01  0.555019D-02 -0.964406D-02  0.122773D-02 -0.489584D+00
     13 -0.894869D-01 -0.574512D-01  0.217079D-01  0.138457D+00 -0.637315D-02
     14 -0.623541D-01  0.156898D-01  0.109426D+00  0.358745D-02  0.140907D-02
     15  0.618500D-01  0.176445D+00 -0.509025D-02 -0.587361D-01 -0.120059D-03
     16  0.589821D+00 -0.637315D-02  0.236359D-01  0.255119D-01 -0.574512D-01
     17  0.243281D+00  0.140907D-02  0.182187D-01  0.214532D-01  0.156898D-01
     18 -0.317730D+01  0.120059D-03  0.144061D-01  0.578553D-02 -0.176445D+00
               11            12            13            14            15 
     11  0.266346D+01
     12  0.120387D+01  0.105122D+01
     13  0.236359D-01 -0.255119D-01  0.844959D+00
     14  0.182187D-01 -0.214532D-01 -0.106005D+01  0.295569D+01
     15 -0.144061D-01  0.578553D-02  0.559072D+00  0.316482D+00  0.318379D+01
     16  0.217079D-01 -0.138457D+00  0.478457D-01  0.506293D-01 -0.729037D-02
     17  0.109426D+00 -0.358745D-02  0.506293D-01  0.255118D-01 -0.701859D-02
     18  0.509025D-02 -0.587361D-01  0.729037D-02  0.701859D-02 -0.153849D-01
               16            17            18 
     16  0.844959D+00
     17 -0.106005D+01  0.295569D+01
     18 -0.559072D+00 -0.316482D+00  0.318379D+01
 Leave Link  701 at Wed Feb 19 14:52:29 2020, MaxMem=  1879048192 cpu:               3.3 elap:               0.4
 (Enter /opt/g16/l702.exe)
 L702 exits ... SP integral derivatives will be done elsewhere.
 Leave Link  702 at Wed Feb 19 14:52:30 2020, MaxMem=  1879048192 cpu:               0.3 elap:               0.0
 (Enter /opt/g16/l703.exe)
 Integral derivatives from FoFJK, PRISM(SPDF).
 Compute integral second derivatives, UseDBF=F ICtDFT=           0.
 ICntrl=    100127.
 Calling FoFJK, ICntrl=    100127 FMM=F ISym2X=1 I1Cent= 0 IOpClX= 0 NMat=1 NMatS=1 NMatT=0.
 FoFJK:  IHMeth= 1 ICntrl=  100127 DoSepK=T KAlg= 0 I1Cent=           0 FoldK=F
 IRaf=         1 NMat=       1 IRICut=       1 DoRegI=T DoRafI=F ISym2E= 1 IDoP0=0 IntGTp=1.
 FoFCou: FMM=F IPFlag=           0 FMFlag=      100000 FMFlg1=         800
         NFxFlg=           0 DoJE=F BraDBF=F KetDBF=F FulRan=T
         wScrn=  0.000000 ICntrl=    100527 IOpCl=  0 I1Cent=           0 NGrid=           0
         NMat0=    1 NMatS0=      1 NMatT0=    0 NMatD0=    1 NMtDS0=    0 NMtDT0=    0
 Petite list used in FoFCou.
 FoFCou:  KetSym=F NOpSet=  2 NOpAb=2 NOp=  2.
 FoFCou:  CnvScl= 1.00D+00 Thresh= 1.00D-12 IAcrcy=      10.
 PrismS was handed  1878984917 working-precision words and   740 shell-pairs
 FoFCou: LinMIO=F DoNuc=F BraDBF=F KetDBF=F HaveP=T PDBF=F HaveZ=T HaveW=F
         NIJTC =      10 NIJTAt=       0 NIJTCD=       0 NIJTT =      10
         IJTBeg=       1 IJTEnd=      10 KLTBeg=       1 KLTEnd=      10
         IPTBeg=       1 IPTEnd=      10 IPTBCv=       1 IPTECv=      10
         IZTBeg=       1 IZTEnd=      10 IZTBCv=       1 IZTECv=      10
         IWTBeg=      11 IWTEnd=      10 IWTBCv=      11 IWTECv=      10
         INTBeg=       1 INTEnd=       0 IFTBCv=       1 IFTECv=      10
 NCel replicated for PrismC:     1
 CoulSu-InSpLW:  IPartL=    0 NPrtUS=    8 NPrtUL=    1 DoSpLW=F IThBeg=    0 IThEnd=    7 NThAct=    8.
 CoulSu:  IncTry=  1024 NBBP=         274170 NTPThr=   100 NPartT=    8 Incr=         342 LDynOK=F GPUOK=F.
 CoulSu:  NPrtUS=   8 ThrOK=T IAlg=2 LenDen=           0 LWGrdD=           0 DoCopy=F ISkipM=0
          DoSpLW=F IThBeg=    0 IThEnd=    7.
 Enter PrismC:  IPart=  0 JobTyp=22 DoJE=F Cont=F.
 PrismC:  IPart=     0 DynPar=T LinDyn=F Incr=         342 UseFst=F UseS4=T ISplat=2.
 PrismC was handed   234858578 working-precision words and   740 shell-pairs
 Enter PrismC:  IPart=  5 JobTyp=22 DoJE=F Cont=F.
 PrismC:  IPart=     5 DynPar=T LinDyn=F Incr=         342 UseFst=F UseS4=T ISplat=2.
 PrismC was handed   234858578 working-precision words and   740 shell-pairs
 Enter PrismC:  IPart=  6 JobTyp=22 DoJE=F Cont=F.
 Enter PrismC:  IPart=  1 JobTyp=22 DoJE=F Cont=F.
 PrismC:  IPart=     6 DynPar=T LinDyn=F Incr=         342 UseFst=F UseS4=T ISplat=2.
 PrismC was handed   234858578 working-precision words and   740 shell-pairs
 PrismC:  IPart=     1 DynPar=T LinDyn=F Incr=         342 UseFst=F UseS4=T ISplat=2.
 PrismC was handed   234858578 working-precision words and   740 shell-pairs
 Enter PrismC:  IPart=  3 JobTyp=22 DoJE=F Cont=F.
 Enter PrismC:  IPart=  4 JobTyp=22 DoJE=F Cont=F.
 PrismC:  IPart=     3 DynPar=T LinDyn=F Incr=         342 UseFst=F UseS4=T ISplat=2.
 Enter PrismC:  IPart=  2 JobTyp=22 DoJE=F Cont=F.
 PrismC:  IPart=     4 DynPar=T LinDyn=F Incr=         342 UseFst=F UseS4=T ISplat=2.
 Enter PrismC:  IPart=  7 JobTyp=22 DoJE=F Cont=F.
 PrismC:  IPart=     2 DynPar=T LinDyn=F Incr=         342 UseFst=F UseS4=T ISplat=2.
 PrismC was handed   234858578 working-precision words and   740 shell-pairs
 PrismC was handed   234858578 working-precision words and   740 shell-pairs
 PrismC:  IPart=     7 DynPar=T LinDyn=F Incr=         342 UseFst=F UseS4=T ISplat=2.
 PrismC was handed   234858578 working-precision words and   740 shell-pairs
 PrismC was handed   234858578 working-precision words and   740 shell-pairs
 IPart=  3 NShTot=       18321 NShNF=       18321 NShFF=           0 MinMC=       7
           NShCPU=       18321 NBCPU=         474 AvBCPU=        38.7
           NShGPU=           0 NBGPU=           0 AvBGPU=         0.0
 IPart=  4 NShTot=       19012 NShNF=       19012 NShFF=           0 MinMC=       7
           NShCPU=       19012 NBCPU=         518 AvBCPU=        36.7
           NShGPU=           0 NBGPU=           0 AvBGPU=         0.0
 IPart=  1 NShTot=       19689 NShNF=       19689 NShFF=           0 MinMC=       7
           NShCPU=       19689 NBCPU=         499 AvBCPU=        39.5
           NShGPU=           0 NBGPU=           0 AvBGPU=         0.0
 IPart=  5 NShTot=       20850 NShNF=       20850 NShFF=           0 MinMC=       7
           NShCPU=       20850 NBCPU=         467 AvBCPU=        44.6
           NShGPU=           0 NBGPU=           0 AvBGPU=         0.0
 IPart=  2 NShTot=       21091 NShNF=       21091 NShFF=           0 MinMC=       7
           NShCPU=       21091 NBCPU=         533 AvBCPU=        39.6
           NShGPU=           0 NBGPU=           0 AvBGPU=         0.0
 IPart=  0 NShTot=        1953 NShNF=        1953 NShFF=           0 MinMC=       7
           NShCPU=        1953 NBCPU=          67 AvBCPU=        29.1
           NShGPU=           0 NBGPU=           0 AvBGPU=         0.0
 IPart=  7 NShTot=       19403 NShNF=       19403 NShFF=           0 MinMC=       7
           NShCPU=       19403 NBCPU=         582 AvBCPU=        33.3
           NShGPU=           0 NBGPU=           0 AvBGPU=         0.0
 IPart=  6 NShTot=       16222 NShNF=       16222 NShFF=           0 MinMC=       7
           NShCPU=       16222 NBCPU=         434 AvBCPU=        37.4
           NShGPU=           0 NBGPU=           0 AvBGPU=         0.0
 CoulSu:  NxtVal=         152191 LenVP=      234858579 MinMC=       7.
 FoFCou: FMM=F IPFlag=           0 FMFlag=      100000 FMFlg1=         800
         NFxFlg=           0 DoJE=F BraDBF=F KetDBF=F FulRan=T
         wScrn=  0.000000 ICntrl=    100127 IOpCl=  0 I1Cent=           0 NGrid=           0
         NMat0=    1 NMatS0=      0 NMatT0=    1 NMatD0=    1 NMtDS0=    0 NMtDT0=    0
         CW=    0.222036    0.777964
         WU=    0.000000   12.500000
 Petite list used in FoFCou.
 FoFCou:  KetSym=F NOpSet=  2 NOpAb=2 NOp=  2.
 FoFCou:  CnvScl= 1.00D+00 Thresh= 1.00D-12 IAcrcy=      10.
 IniFok:  ToCart=T IDoP0=2 DoConv=F DoRafP=T DoAdj=T
 PrismS was handed  1878984959 working-precision words and   740 shell-pairs
 FoFCou: LinMIO=F DoNuc=F BraDBF=F KetDBF=F HaveP=T PDBF=F HaveZ=T HaveW=F
         NIJTC =      10 NIJTAt=       0 NIJTCD=       0 NIJTT =      10
         IJTBeg=       1 IJTEnd=      10 KLTBeg=       1 KLTEnd=      10
         IPTBeg=       1 IPTEnd=      10 IPTBCv=       1 IPTECv=      10
         IZTBeg=       1 IZTEnd=      10 IZTBCv=       1 IZTECv=      10
         IWTBeg=      11 IWTEnd=      10 IWTBCv=      11 IWTECv=      10
         INTBeg=       1 INTEnd=       0 IFTBCv=       1 IFTECv=      10
 NCel replicated for PrismC:     1
 CoulSu-InSpLW:  IPartL=    0 NPrtUS=    8 NPrtUL=    1 DoSpLW=F IThBeg=    0 IThEnd=    7 NThAct=    8.
 CoulSu:  IncTry=  1024 NBBP=         274170 NTPThr=   100 NPartT=    8 Incr=         342 LDynOK=F GPUOK=F.
 CoulSu:  NPrtUS=   8 ThrOK=T IAlg=2 LenDen=           0 LWGrdD=           0 DoCopy=F ISkipM=0
          DoSpLW=F IThBeg=    0 IThEnd=    7.
 Enter PrismC:  IPart=  0 JobTyp=22 DoJE=F Cont=F.
 Linear combination for Coulomb/exchange, wScrn=  0.000000
 CW=    0.222036    0.777964
 WU=    0.000000   12.500000
 PrismC:  IPart=     0 DynPar=T LinDyn=F Incr=         342 UseFst=F UseS4=T ISplat=2.
 PrismC was handed   234858583 working-precision words and   740 shell-pairs
 Enter PrismC:  IPart=  6 JobTyp=22 DoJE=F Cont=F.
 Enter PrismC:  IPart=  4 JobTyp=22 DoJE=F Cont=F.
 Linear combination for Coulomb/exchange, wScrn=  0.000000
 CW=    0.222036    0.777964
 WU=    0.000000   12.500000
 PrismC:  IPart=     6 DynPar=T LinDyn=F Incr=         342 UseFst=F UseS4=T ISplat=2.
 Linear combination for Coulomb/exchange, wScrn=  0.000000
 CW=    0.222036    0.777964
 WU=    0.000000   12.500000
 Enter PrismC:  IPart=  7 JobTyp=22 DoJE=F Cont=F.
 PrismC:  IPart=     4 DynPar=T LinDyn=F Incr=         342 UseFst=F UseS4=T ISplat=2.
 Enter PrismC:  IPart=  2 JobTyp=22 DoJE=F Cont=F.
 Linear combination for Coulomb/exchange, wScrn=  0.000000
 CW=    0.222036    0.777964
 WU=    0.000000   12.500000
 Enter PrismC:  IPart=  3 JobTyp=22 DoJE=F Cont=F.
 PrismC:  IPart=     7 DynPar=T LinDyn=F Incr=         342 UseFst=F UseS4=T ISplat=2.
 Linear combination for Coulomb/exchange, wScrn=  0.000000
 CW=    0.222036    0.777964
 WU=    0.000000   12.500000
 Linear combination for Coulomb/exchange, wScrn=  0.000000
 CW=    0.222036    0.777964
 WU=    0.000000   12.500000
 PrismC:  IPart=     2 DynPar=T LinDyn=F Incr=         342 UseFst=F UseS4=T ISplat=2.
 PrismC:  IPart=     3 DynPar=T LinDyn=F Incr=         342 UseFst=F UseS4=T ISplat=2.
 Enter PrismC:  IPart=  1 JobTyp=22 DoJE=F Cont=F.
 Linear combination for Coulomb/exchange, wScrn=  0.000000
 CW=    0.222036    0.777964
 WU=    0.000000   12.500000
 Enter PrismC:  IPart=  5 JobTyp=22 DoJE=F Cont=F.
 PrismC was handed   234858583 working-precision words and   740 shell-pairs
 Linear combination for Coulomb/exchange, wScrn=  0.000000
 CW=    0.222036    0.777964
 WU=    0.000000   12.500000
 PrismC:  IPart=     1 DynPar=T LinDyn=F Incr=         342 UseFst=F UseS4=T ISplat=2.
 PrismC:  IPart=     5 DynPar=T LinDyn=F Incr=         342 UseFst=F UseS4=T ISplat=2.
 PrismC was handed   234858583 working-precision words and   740 shell-pairs
 PrismC was handed   234858583 working-precision words and   740 shell-pairs
 PrismC was handed   234858583 working-precision words and   740 shell-pairs
 PrismC was handed   234858583 working-precision words and   740 shell-pairs
 PrismC was handed   234858583 working-precision words and   740 shell-pairs
 PrismC was handed   234858583 working-precision words and   740 shell-pairs
 IPart=  4 NShTot=       18934 NShNF=       18934 NShFF=           0 MinMC=       7
           NShCPU=       18934 NBCPU=         502 AvBCPU=        37.7
           NShGPU=           0 NBGPU=           0 AvBGPU=         0.0
 IPart=  5 NShTot=       18905 NShNF=       18905 NShFF=           0 MinMC=       7
           NShCPU=       18905 NBCPU=         508 AvBCPU=        37.2
           NShGPU=           0 NBGPU=           0 AvBGPU=         0.0
 IPart=  1 NShTot=       19899 NShNF=       19899 NShFF=           0 MinMC=       7
           NShCPU=       19899 NBCPU=         516 AvBCPU=        38.6
           NShGPU=           0 NBGPU=           0 AvBGPU=         0.0
 IPart=  6 NShTot=       19423 NShNF=       19423 NShFF=           0 MinMC=       7
           NShCPU=       19423 NBCPU=         524 AvBCPU=        37.1
           NShGPU=           0 NBGPU=           0 AvBGPU=         0.0
 IPart=  3 NShTot=       19432 NShNF=       19432 NShFF=           0 MinMC=       7
           NShCPU=       19432 NBCPU=         615 AvBCPU=        31.6
           NShGPU=           0 NBGPU=           0 AvBGPU=         0.0
 IPart=  7 NShTot=       19068 NShNF=       19068 NShFF=           0 MinMC=       7
           NShCPU=       19068 NBCPU=         607 AvBCPU=        31.4
           NShGPU=           0 NBGPU=           0 AvBGPU=         0.0
 IPart=  2 NShTot=       19599 NShNF=       19599 NShFF=           0 MinMC=       7
           NShCPU=       19599 NBCPU=         586 AvBCPU=        33.4
           NShGPU=           0 NBGPU=           0 AvBGPU=         0.0
 IPart=  0 NShTot=        1239 NShNF=        1239 NShFF=           0 MinMC=       7
           NShCPU=        1239 NBCPU=          30 AvBCPU=        41.3
           NShGPU=           0 NBGPU=           0 AvBGPU=         0.0
 CoulSu:  NxtVal=         152191 LenVP=      234858584 MinMC=       7.
 ReadGW:  IGet=0 IStart=           1 Next=           1 LGW=           0.
 Remaining memory in FofDFT     1791.99 Mw
 CkSvGd:  ISavGI=        -1 IRadAn=       5 IRASav=       5 ISavGd=        -1.
 CalDSu-InSpLW:  IPartL=    0 NPrtUS=    8 NPrtUL=    1 DoSpLW=F IThBeg=    0 IThEnd=    7 NThAct=    8.
 CalDSu:  NPrtUS=   8 ThrOK=T IAlg=1 DoDPD=T LenP=        4656 LenD1P=             0 GPUOK=F
          ISkipM=0 DoSpLW=F IThBeg=    0 IThEnd=    7.
 IPart=  0 IRanGd=          0 ScrnBf=T ScrnGd=T RCrit=4.00D+00 DoMicB=T.
 IPart=  5         8065 of         8450 points in       7 batches and       32 microbatches, Max-NSigAt=       6 Max-NSgAt2=       6
 IPart=  1         7531 of         8344 points in      10 batches and       67 microbatches, Max-NSigAt=       6 Max-NSgAt2=       6
 IPart=  3         7209 of         7782 points in       8 batches and       48 microbatches, Max-NSigAt=       6 Max-NSgAt2=       6
 IPart=  4         7431 of         7558 points in       5 batches and       21 microbatches, Max-NSigAt=       6 Max-NSgAt2=       6
 IPart=  6         7944 of         8702 points in      10 batches and       81 microbatches, Max-NSigAt=       6 Max-NSgAt2=       6
 IPart=  2         7712 of         8316 points in       9 batches and       58 microbatches, Max-NSigAt=       6 Max-NSgAt2=       6
 IPart=  7         7707 of         8098 points in       6 batches and       53 microbatches, Max-NSigAt=       6 Max-NSgAt2=       6
 IPart=  0         8964 of         9474 points in       6 batches and       26 microbatches, Max-NSigAt=       6 Max-NSgAt2=       6
 Polarizability after L703:
                1             2             3 
      1  0.168449D+02
      2  0.121070D+01  0.210278D+02
      3  0.000000D+00  0.000000D+00  0.168091D+02
 Dipole Derivatives after L703:
                 1             2             3             4             5 
      1  -0.293232D+00  0.559283D-01 -0.170188D+00 -0.293232D+00  0.559284D-01
      2   0.155442D+00 -0.168513D+00  0.336206D-01  0.155442D+00 -0.168513D+00
      3  -0.172640D+00  0.141284D+00 -0.272487D+00  0.172640D+00 -0.141283D+00
                 6             7             8             9            10 
      1   0.170188D+00  0.240890D+00 -0.351749D-01  0.755121D-01  0.240890D+00
      2  -0.336206D-01 -0.642900D-01  0.476805D-01 -0.135017D+00 -0.642900D-01
      3  -0.272487D+00  0.416310D-01 -0.468059D-01  0.229060D-01 -0.416310D-01
                11            12            13            14            15 
      1  -0.351749D-01 -0.755120D-01  0.523427D-01 -0.207534D-01  0.110148D-01
      2   0.476805D-01  0.135017D+00 -0.911523D-01  0.120832D+00 -0.731854D-01
      3   0.468058D-01  0.229060D-01  0.521314D-01 -0.375024D-01  0.249581D+00
                16            17            18 
      1   0.523427D-01 -0.207534D-01 -0.110148D-01
      2  -0.911523D-01  0.120832D+00  0.731854D-01
      3  -0.521314D-01  0.375024D-01  0.249581D+00
 Hessian after L703:
                1             2             3             4             5 
      1  0.504458D+00
      2  0.122256D+00  0.480898D+00
      3 -0.212076D+00  0.101902D+00  0.474308D+00
      4 -0.709997D-01 -0.179365D-01  0.107756D-02  0.504458D+00
      5 -0.179365D-01 -0.254791D+00 -0.376432D-01  0.122256D+00  0.480898D+00
      6 -0.107756D-02  0.376432D-01 -0.728908D-01  0.212076D+00 -0.101902D+00
      7 -0.546645D-01  0.541142D-02  0.744875D-01 -0.302990D-03  0.495495D-02
      8  0.155345D-01 -0.927584D-01 -0.104680D+00  0.598816D-02 -0.317891D-01
      9  0.118440D+00 -0.135168D+00 -0.355368D+00 -0.758218D-02  0.705660D-02
     10 -0.302990D-03  0.495495D-02  0.351147D-02 -0.546645D-01  0.541142D-02
     11  0.598816D-02 -0.317891D-01  0.347723D-01  0.155345D-01 -0.927584D-01
     12  0.758218D-02 -0.705660D-02  0.686734D-02 -0.118440D+00  0.135168D+00
     13 -0.382741D+00 -0.119914D+00  0.125627D+00  0.425026D-02  0.522820D-02
     14 -0.874629D-01 -0.739279D-01  0.106035D-01 -0.383789D-01 -0.276317D-01
     15  0.819953D-01  0.523793D-02 -0.532406D-01 -0.513646D-02  0.255854D-02
     16  0.425026D-02  0.522820D-02  0.737216D-02 -0.382741D+00 -0.119914D+00
     17 -0.383789D-01 -0.276317D-01 -0.495459D-02 -0.874629D-01 -0.739279D-01
     18  0.513646D-02 -0.255854D-02  0.324584D-03 -0.819953D-01 -0.523793D-02
                6             7             8             9            10 
      6  0.474308D+00
      7 -0.351147D-02  0.642928D-01
      8 -0.347723D-01 -0.221499D-01  0.118273D+00
      9  0.686734D-02 -0.105342D+00  0.130611D+00  0.358025D+00
     10 -0.744875D-01  0.136856D-03  0.637540D-04 -0.116556D-02  0.642928D-01
     11  0.104680D+00  0.637540D-04  0.224929D-02  0.111498D-02 -0.221499D-01
     12 -0.355368D+00  0.116556D-02 -0.111498D-02  0.447650D-02  0.105342D+00
     13 -0.737216D-02 -0.101337D-01 -0.109842D-02 -0.528801D-02  0.671560D-03
     14  0.495459D-02  0.142362D-01  0.599525D-02 -0.200017D-02 -0.251646D-02
     15  0.324584D-03  0.355433D-01  0.111873D-01 -0.125935D-01  0.234306D-02
     16 -0.125627D+00  0.671560D-03  0.166187D-02  0.937909D-03 -0.101337D-01
     17 -0.106035D-01 -0.251646D-02 -0.196984D-02 -0.161393D-02  0.142362D-01
     18 -0.532406D-01 -0.234306D-02 -0.123063D-02 -0.140722D-02 -0.355433D-01
               11            12            13            14            15 
     11  0.118273D+00
     12 -0.130611D+00  0.358025D+00
     13  0.166187D-02 -0.937909D-03  0.386353D+00
     14 -0.196984D-02  0.161393D-02  0.114798D+00  0.104821D+00
     15  0.123063D-02 -0.140722D-02 -0.113387D+00 -0.176931D-01  0.659436D-01
     16 -0.109842D-02  0.528801D-02  0.159997D-02 -0.675877D-03 -0.135796D-02
     17  0.599525D-02  0.200017D-02 -0.675877D-03 -0.728658D-02 -0.252130D-02
     18 -0.111873D-01 -0.125935D-01  0.135796D-02  0.252130D-02  0.973112D-03
               16            17            18 
     16  0.386353D+00
     17  0.114798D+00  0.104821D+00
     18  0.113387D+00  0.176931D-01  0.659436D-01
 Leave Link  703 at Wed Feb 19 14:52:37 2020, MaxMem=  1879048192 cpu:              62.4 elap:               7.8
 (Enter /opt/g16/l716.exe)
 FrcOut:
 IF    =        39 IFX   =        57 IFXYZ =        75
 IFFX  =        93 IFFFX =       264 IFLen =        18
 IFFLen=       171 IFFFLn=         0 IEDerv=       264
 LEDerv=       917 IFroze=      1419 ICStrt=     16458
 Dipole        =-7.57088559D-16-1.66533454D-15 8.03523613D-01
 DipoleDeriv   =-2.93232191D-01 1.55442296D-01-1.72640251D-01
                 5.59283458D-02-1.68512698D-01 1.41283510D-01
                -1.70188298D-01 3.36206147D-02-2.72487247D-01
                -2.93232219D-01 1.55442303D-01 1.72640268D-01
                 5.59283626D-02-1.68512692D-01-1.41283479D-01
                 1.70188270D-01-3.36206172D-02-2.72487285D-01
                 2.40889548D-01-6.42899671D-02 4.16310039D-02
                -3.51749130D-02 4.76805494D-02-4.68058590D-02
                 7.55120648D-02-1.35016615D-01 2.29059810D-02
                 2.40889533D-01-6.42899647D-02-4.16310118D-02
                -3.51749274D-02 4.76805435D-02 4.68058406D-02
                -7.55120424D-02 1.35016622D-01 2.29059991D-02
                 5.23426575D-02-9.11523283D-02 5.21313800D-02
                -2.07534443D-02 1.20832159D-01-3.75024203D-02
                 1.10148143D-02-7.31854377D-02 2.49581285D-01
                 5.23426719D-02-9.11523428D-02-5.21313885D-02
                -2.07534325D-02 1.20832152D-01 3.75024081D-02
                -1.10148092D-02 7.31854333D-02 2.49581277D-01
 Polarizability= 1.68449140D+01 1.21069941D+00 2.10277529D+01
                -1.89226737D-08 6.56662631D-08 1.68090870D+01
 Quadrupole    = 2.73646441D-01-8.40931602D-02-1.89553281D-01
                 1.98409276D+00 2.65782105D-16-1.80411242D-16
 VibFq2-Diag1:  N=     18 IV=           7 MDV=  1879030160 NE2=   104390564
 Full mass-weighted force constant matrix:
 Low frequencies ---  -20.1883   -0.0010    0.0008    0.0009   11.4859   15.7467
 Low frequencies ---  459.7240  821.3765  972.8083
 OrtVCM:  Ph=1 IPass= 1 DotMx1= 0.00D+00
 OrtVCM:  IS=    1 I=    1 IndO=    1 Dot= 1.00D+00 DotN= 1.00D+00 ElMax1= 6.61D-01 ElMax1N= 6.61D-01
 OrtVCM:  Ph=2 NNew=    0 IAdd=    2 IPass= 1 DotMx2= 0.00D+00
 OrtVCM:  IS=    1 I=    2 IndO=    2 Dot= 1.00D+00 DotN= 1.00D+00 ElMax1= 6.61D-01 ElMax1N= 6.61D-01
 OrtVCM:  Ph=2 NNew=    0 IAdd=    3 IPass= 1 DotMx2= 0.00D+00
 OrtVCM:  IS=    1 I=    3 IndO=    3 Dot= 1.00D+00 DotN= 1.00D+00 ElMax1= 6.61D-01 ElMax1N= 6.61D-01
 OrtVCM:  Ph=2 NNew=    0 IAdd=    4 IPass= 1 DotMx2= 2.78D-17
 OrtVCM:  IS=    1 I=    4 IndO=    4 Dot= 1.00D+00 DotN= 1.00D+00 ElMax1= 4.65D-01 ElMax1N= 4.65D-01
 OrtVCM:  Ph=2 NNew=    0 IAdd=    5 IPass= 1 DotMx2= 5.55D-16
 OrtVCM:  IS=    1 I=    5 IndO=    5 Dot= 1.00D+00 DotN= 1.00D+00 ElMax1= 5.85D-01 ElMax1N= 5.85D-01
 OrtVCM:  Ph=2 NNew=    0 IAdd=    6 IPass= 1 DotMx2= 1.11D-16
 OrtVCM:  IS=    1 I=    6 IndO=    6 Dot= 1.00D+00 DotN= 1.00D+00 ElMax1= 5.87D-01 ElMax1N= 5.87D-01
 OrtVCM:  Ph=1 IPass= 1 DotMx1= 6.61D-01
 OrtVCM:  Ph=1 IPass= 2 DotMx1= 1.63D-16
 OrtVCM:  IS=    1 I=    1 IndO=    7 Dot= 2.12D-01 DotN= 2.12D-01 ElMax1= 2.63D-01 ElMax1N= 2.63D-01
 OrtVCM:  Ph=2 NNew=    0 IAdd=    2 IPass= 1 DotMx2= 1.01D-03
 OrtVCM:  Ph=2 NNew=    0 IAdd=    2 IPass= 2 DotMx2= 7.43D-18
 OrtVCM:  IS=    1 I=    2 IndO=    8 Dot= 5.62D-01 DotN= 5.62D-01 ElMax1= 5.62D-01 ElMax1N= 5.62D-01
 OrtVCM:  Ph=2 NNew=    0 IAdd=    3 IPass= 1 DotMx2= 2.75D-02
 OrtVCM:  Ph=2 NNew=    0 IAdd=    3 IPass= 2 DotMx2= 1.45D-17
 OrtVCM:  IS=    1 I=    3 IndO=    9 Dot= 2.06D-01 DotN= 2.06D-01 ElMax1= 2.78D-01 ElMax1N= 2.78D-01
 OrtVCM:  Ph=2 NNew=    0 IAdd=    4 IPass= 1 DotMx2= 2.17D-01
 OrtVCM:  Ph=2 NNew=    0 IAdd=    4 IPass= 2 DotMx2= 3.21D-17
 OrtVCM:  IS=    1 I=    4 IndO=   10 Dot= 1.64D-01 DotN= 1.64D-01 ElMax1= 2.63D-01 ElMax1N= 2.63D-01
 OrtVCM:  Ph=2 NNew=    0 IAdd=    5 IPass= 1 DotMx2= 5.85D-01
 OrtVCM:  Ph=2 NNew=    0 IAdd=    5 IPass= 2 DotMx2= 2.43D-17
 OrtVCM:  IS=    1 I=    5 IndO=   11 Dot= 2.13D-01 DotN= 2.13D-01 ElMax1= 2.21D-01 ElMax1N= 2.21D-01
 OrtVCM:  Ph=2 NNew=    0 IAdd=    6 IPass= 1 DotMx2= 1.77D-01
 OrtVCM:  Ph=2 NNew=    0 IAdd=    6 IPass= 2 DotMx2= 2.78D-17
 OrtVCM:  IS=    1 I=    6 IndO=   12 Dot= 1.72D-01 DotN= 1.72D-01 ElMax1= 2.65D-01 ElMax1N= 2.65D-01
 OrtVCM:  Ph=2 NNew=    0 IAdd=    7 IPass= 1 DotMx2= 4.82D-01
 OrtVCM:  Ph=2 NNew=    0 IAdd=    7 IPass= 2 DotMx2= 1.70D-16
 OrtVCM:  IS=    1 I=    7 IndO=   13 Dot= 4.43D-01 DotN= 4.43D-01 ElMax1= 4.43D-01 ElMax1N= 4.43D-01
 OrtVCM:  Ph=2 NNew=    0 IAdd=    8 IPass= 1 DotMx2= 3.83D-01
 OrtVCM:  Ph=2 NNew=    0 IAdd=    8 IPass= 2 DotMx2= 8.21D-17
 OrtVCM:  IS=    1 I=    8 IndO=   14 Dot= 6.77D-01 DotN= 6.77D-01 ElMax1= 6.77D-01 ElMax1N= 6.77D-01
 OrtVCM:  Ph=2 NNew=    0 IAdd=    9 IPass= 1 DotMx2= 6.13D-01
 OrtVCM:  Ph=2 NNew=    0 IAdd=    9 IPass= 2 DotMx2= 2.22D-16
 OrtVCM:  IS=    1 I=    9 IndO=   15 Dot= 4.08D-01 DotN= 4.08D-01 ElMax1= 4.08D-01 ElMax1N= 4.08D-01
 OrtVCM:  Ph=2 NNew=    0 IAdd=   10 IPass= 1 DotMx2= 4.66D-01
 OrtVCM:  Ph=2 NNew=    0 IAdd=   10 IPass= 2 DotMx2= 1.39D-16
 OrtVCM:  IS=    1 I=   10 IndO=   16 Dot= 3.08D-01 DotN= 3.08D-01 ElMax1= 3.08D-01 ElMax1N= 3.08D-01
 OrtVCM:  Ph=2 NNew=    0 IAdd=   11 IPass= 1 DotMx2= 3.83D-01
 OrtVCM:  Ph=2 NNew=    0 IAdd=   11 IPass= 2 DotMx2= 1.11D-16
 OrtVCM:  IS=    1 I=   11 IndO=   17 Dot= 3.83D-01 DotN= 3.83D-01 ElMax1= 3.83D-01 ElMax1N= 3.83D-01
 OrtVCM:  Ph=2 NNew=    0 IAdd=   12 IPass= 1 DotMx2= 6.38D-01
 OrtVCM:  Ph=2 NNew=    0 IAdd=   12 IPass= 2 DotMx2= 7.15D-17
 OrtVCM:  IS=    1 I=   12 IndO=    0 Dot= 3.47D-32 DotN= 3.47D-32 ElMax1= 9.57D-17 ElMax1N= 9.57D-17
 SchOr2:  IPass= 1 Test2A= 1.00D-01 IOff=     0 NDo=    12 NNew=    11
 OrtVCM:  Ph=1 IPass= 1 DotMx1= 5.72D-01
 OrtVCM:  Ph=1 IPass= 2 DotMx1= 1.25D-16
 OrtVCM:  IS=    1 I=    1 IndO=   18 Dot= 2.25D-01 DotN= 2.25D-01 ElMax1= 2.49D-01 ElMax1N= 2.49D-01
 SchOr2:  IPass= 1 Test2A= 1.00D-01 IOff=    12 NDo=     1 NNew=     1
 VibFq2-Diag2:  N=     12 IV=           7 MDV=  1879030160 NE2=   156585846
 Dipole derivative wrt mode   1: -2.44075D-07  6.89962D-09  6.42662D+00
 Vibrational polarizability contributions from mode   1       0.0000000       0.0000000       5.2590168
 Dipole derivative wrt mode   2:  1.23477D-07 -3.01479D-08  9.30135D+00
 Vibrational polarizability contributions from mode   2       0.0000000       0.0000000       3.4509688
 Dipole derivative wrt mode   3: -8.73467D+00  9.21215D+00 -2.52348D-08
 Vibrational polarizability contributions from mode   3       2.1695592       2.4132433       0.0000000
 Dipole derivative wrt mode   4: -9.33861D-08  5.04620D-08 -2.84745D+00
 Vibrational polarizability contributions from mode   4       0.0000000       0.0000000       0.1650928
 Dipole derivative wrt mode   5:  1.96598D+00  9.33174D-01 -4.55423D-08
 Vibrational polarizability contributions from mode   5       0.0606932       0.0136743       0.0000000
 Dipole derivative wrt mode   6: -2.45388D-07  5.14320D-10 -1.77305D+00
 Vibrational polarizability contributions from mode   6       0.0000000       0.0000000       0.0471355
 Dipole derivative wrt mode   7:  3.72876D+00  1.67797D+00 -3.59050D-07
 Vibrational polarizability contributions from mode   7       0.1316523       0.0266605       0.0000000
 Dipole derivative wrt mode   8:  1.90978D-07  5.62900D-08  3.67337D+00
 Vibrational polarizability contributions from mode   8       0.0000000       0.0000000       0.1255351
 Dipole derivative wrt mode   9:  4.23557D-01 -3.51787D+00 -5.85211D-07
 Vibrational polarizability contributions from mode   9       0.0003934       0.0271371       0.0000000
 Dipole derivative wrt mode  10:  2.01482D-07  3.60326D-07 -9.75797D-01
 Vibrational polarizability contributions from mode  10       0.0000000       0.0000000       0.0020784
 Dipole derivative wrt mode  11: -6.35602D-07  2.03613D-07 -9.20633D-01
 Vibrational polarizability contributions from mode  11       0.0000000       0.0000000       0.0017521
 Dipole derivative wrt mode  12:  1.85562D+00  1.52035D-01 -7.93869D-08
 Vibrational polarizability contributions from mode  12       0.0070982       0.0000476       0.0000000
 Diagonal vibrational polarizability:
        2.3693962       2.4807630       9.0515795
 NorSel:  MapVib=      1      2      3      4      5      6      7      8      9     10
 NorSel:  MapVib=     11     12
 Harmonic frequencies (cm**-1), IR intensities (KM/Mole), Raman scattering
 activities (A**4/AMU), depolarization ratios for plane and unpolarized
 incident light, reduced masses (AMU), force constants (mDyne/A),
 and normal coordinates:
                      1                      2                      3
                      A                      A                      B
 Frequencies --    459.7240               821.3764               972.8079
 Red. masses --      1.0457                 1.5885                 1.1859
 Frc consts  --      0.1302                 0.6314                 0.6612
 IR Inten    --     41.3015                86.5152               161.1581
  Atom  AN      X      Y      Z        X      Y      Z        X      Y      Z
     1   7     0.03  -0.01  -0.02    -0.06   0.13  -0.05     0.04  -0.04   0.06
     2   7    -0.03   0.01  -0.02     0.06  -0.13  -0.05     0.04  -0.04  -0.06
     3   1    -0.46   0.02  -0.16     0.33  -0.30   0.27    -0.35   0.18  -0.17
     4   1     0.46  -0.02  -0.16    -0.33   0.30   0.27    -0.35   0.18   0.17
     5   1     0.17  -0.03   0.48     0.18  -0.16   0.39    -0.23   0.39  -0.33
     6   1    -0.17   0.03   0.48    -0.18   0.16   0.39    -0.23   0.39   0.33
                      4                      5                      6
                      A                      B                      A
 Frequencies --   1149.6328              1309.1093              1339.7160
 Red. masses --      2.4602                 1.1748                 1.2340
 Frc consts  --      1.9157                 1.1862                 1.3049
 IR Inten    --      8.1080                 4.7359                 3.1437
  Atom  AN      X      Y      Z        X      Y      Z        X      Y      Z
     1   7     0.02   0.23   0.03     0.00  -0.00  -0.08     0.08   0.04  -0.00
     2   7    -0.02  -0.23   0.03     0.00  -0.00   0.08    -0.08  -0.04  -0.00
     3   1    -0.17   0.57  -0.17     0.04  -0.47   0.13    -0.14  -0.44   0.12
     4   1     0.17  -0.57  -0.17     0.04  -0.47  -0.13     0.14   0.44   0.12
     5   1    -0.02   0.14  -0.20    -0.10   0.49   0.10    -0.09   0.50  -0.07
     6   1     0.02  -0.14  -0.20    -0.10   0.49  -0.10     0.09  -0.50  -0.07
                      7                      8                      9
                      B                      A                      B
 Frequencies --   1685.8422              1700.7821              3503.1959
 Red. masses --      1.0908                 1.0498                 1.0514
 Frc consts  --      1.8265                 1.7891                 7.6027
 IR Inten    --     16.7192                13.4936                12.5548
  Atom  AN      X      Y      Z        X      Y      Z        X      Y      Z
     1   7    -0.02  -0.05   0.00     0.00  -0.03  -0.02    -0.01  -0.02  -0.03
     2   7    -0.02  -0.05  -0.00    -0.00   0.03  -0.02    -0.01  -0.02   0.03
     3   1     0.34   0.41  -0.06     0.33   0.30  -0.05    -0.18   0.24   0.57
     4   1     0.34   0.41   0.06    -0.33  -0.30  -0.05    -0.18   0.24  -0.57
     5   1    -0.03   0.31   0.33    -0.04   0.44   0.32     0.25   0.08  -0.10
     6   1    -0.03   0.31  -0.33     0.04  -0.44   0.32     0.25   0.08   0.10
                     10                     11                     12
                      A                      A                      B
 Frequencies --   3511.2598              3608.0705              3613.1268
 Red. masses --      1.0490                 1.0950                 1.0916
 Frc consts  --      7.6196                 8.3989                 8.3964
 IR Inten    --      0.9522                 0.8476                 3.4664
  Atom  AN      X      Y      Z        X      Y      Z        X      Y      Z
     1   7    -0.01  -0.02  -0.03    -0.05  -0.00   0.03    -0.05  -0.01   0.03
     2   7     0.01   0.02  -0.03     0.05   0.00   0.03    -0.05  -0.01  -0.03
     3   1    -0.17   0.22   0.53     0.08  -0.14  -0.34     0.06  -0.10  -0.25
     4   1     0.17  -0.22   0.53    -0.08   0.14  -0.34     0.06  -0.10   0.25
     5   1     0.34   0.11  -0.12     0.55   0.18  -0.15     0.59   0.20  -0.17
     6   1    -0.34  -0.11  -0.12    -0.55  -0.18  -0.15     0.59   0.20   0.17

 -------------------
 - Thermochemistry -
 -------------------
 Temperature   298.150 Kelvin.  Pressure   1.00000 Atm.
 Atom     1 has atomic number  7 and mass  14.00307
 Atom     2 has atomic number  7 and mass  14.00307
 Atom     3 has atomic number  1 and mass   1.00783
 Atom     4 has atomic number  1 and mass   1.00783
 Atom     5 has atomic number  1 and mass   1.00783
 Atom     6 has atomic number  1 and mass   1.00783
 Molecular mass:    32.03745 amu.
 Principal axes and moments of inertia in atomic units:
                           1         2         3
     Eigenvalues --    12.31900  73.24324  73.29715
           X            0.08126   0.99669   0.00000
           Y            0.99669  -0.08126   0.00000
           Z           -0.00000  -0.00000   1.00000
 This molecule is an asymmetric top.
 Rotational symmetry number  2.
 Rotational temperatures (Kelvin)      7.03092     1.18255     1.18168
 Rotational constants (GHZ):         146.50059    24.64038    24.62225
 Zero-point vibrational energy     141605.8 (Joules/Mol)
                                   33.84460 (Kcal/Mol)
 Warning -- explicit consideration of   1 degrees of freedom as
           vibrations may cause significant error
 Vibrational temperatures:    661.44  1181.78  1399.65  1654.07  1883.52
          (Kelvin)           1927.55  2425.55  2447.05  5040.32  5051.92
                             5191.21  5198.48
 
 Zero-point correction=                           0.053935 (Hartree/Particle)
 Thermal correction to Energy=                    0.057182
 Thermal correction to Enthalpy=                  0.058126
 Thermal correction to Gibbs Free Energy=         0.032017
 Sum of electronic and zero-point Energies=           -111.825355
 Sum of electronic and thermal Energies=              -111.822109
 Sum of electronic and thermal Enthalpies=            -111.821164
 Sum of electronic and thermal Free Energies=         -111.847274
 
                     E (Thermal)             CV                S
                      KCal/Mol        Cal/Mol-Kelvin    Cal/Mol-Kelvin
 Total                   35.882              8.914             54.951
 Electronic               0.000              0.000              0.000
 Translational            0.889              2.981             36.325
 Rotational               0.889              2.981             17.454
 Vibrational             34.105              2.952              1.172
 Vibration     1          0.818              1.339              0.767
                       Q            Log10(Q)             Ln(Q)
 Total Bot       0.187688D-14        -14.726563        -33.909164
 Total V=0       0.120699D+11         10.081704         23.213981
 Vib (Bot)       0.180911D-24        -24.742534        -56.971791
 Vib (Bot)    1  0.370063D+00         -0.431725         -0.994083
 Vib (V=0)       0.116341D+01          0.065733          0.151355
 Vib (V=0)    1  0.112205D+01          0.050012          0.115157
 Electronic      0.100000D+01          0.000000          0.000000
 Translational   0.712756D+07          6.852941         15.779479
 Rotational      0.145556D+04          3.163031          7.283147
 Write normal modes, IRwNMS=   765 IRotNM=-1 NVibU=    12.
 
                                                                 name
                                                             IR Spectrum
 
     33 33                                                              11           11     1                                        
     66 55                                                              76           33     1     9     8           4                
     10 10                                                              08           40     5     7     2           6                
     38 13                                                              16           09     0     3     1           0                
 
     XX XX                                                              XX           XX     X     X     X           X                
         X                                                              XX                        X     X           X                
                                                                                                  X     X           X                
                                                                                                  X     X           X                
                                                                                                  X     X           X                
                                                                                                  X     X                            
                                                                                                  X     X                            
                                                                                                  X     X                            
                                                                                                  X     X                            
                                                                                                  X     X                            
                                                                                                  X     X                            
                                                                                                  X                                  
                                                                                                  X                                  
                                                                                                  X                                  
                                                                                                  X                                  
                                                                                                  X                                  
                                                                                                  X                                  
                                                                                                  X                                  
                                                                                                  X                                  
                                                                                                  X                                  
 
 Forces in standard orientation:
 -------------------------------------------------------------------
 Center     Atomic                   Forces (Hartrees/Bohr)
 Number     Number              X              Y              Z
 -------------------------------------------------------------------
      1        7          -0.000165580    0.000032960   -0.000040271
      2        7           0.000165580   -0.000032960   -0.000040271
      3        1           0.000012173    0.000081635    0.000037421
      4        1          -0.000012173   -0.000081635    0.000037421
      5        1           0.000068564   -0.000009884    0.000002850
      6        1          -0.000068564    0.000009884    0.000002850
 -------------------------------------------------------------------
 Cartesian Forces:  Max     0.000165580 RMS     0.000069237
 ***** Axes restored to original set *****
 Rotating derivatives, DoTrsp=F IDiff=-2 LEDeriv=    916 LFDPrp=       0 LDFDPr=       0.
 -------------------------------------------------------------------
 Center     Atomic                   Forces (Hartrees/Bohr)
 Number     Number              X              Y              Z
 -------------------------------------------------------------------
      1        7          -0.000009904   -0.000168538    0.000040271
      2        7           0.000009904    0.000168538    0.000040271
      3        1          -0.000082533    0.000000845   -0.000037421
      4        1           0.000082533   -0.000000845   -0.000037421
      5        1           0.000000373    0.000069272   -0.000002850
      6        1          -0.000000373   -0.000069272   -0.000002850
 -------------------------------------------------------------------
 Cartesian Forces:  Max     0.000168538 RMS     0.000069237
 Z-matrix is all fixed cartesians, so copy forces.
 Force constants in Cartesian coordinates: 
                1             2             3             4             5 
      1  0.514609D+00
      2 -0.120848D+00  0.470747D+00
      3  0.718069D-01  0.224063D+00  0.474308D+00
      4 -0.256204D+00 -0.774546D-02 -0.371384D-01  0.514609D+00
      5 -0.774546D-02 -0.695865D-01 -0.623780D-02 -0.120848D+00  0.470747D+00
      6  0.371384D-01  0.623780D-02 -0.728908D-01 -0.718069D-01 -0.224063D+00
      7 -0.891900D-01 -0.203221D-01 -0.934569D-01 -0.297063D-01 -0.100655D-01
      8 -0.101990D-01 -0.582330D-01 -0.881598D-01 -0.903226D-02 -0.238585D-02
      9 -0.117619D+00 -0.135883D+00 -0.355368D+00  0.594827D-02  0.847957D-02
     10 -0.297063D-01 -0.100655D-01  0.349250D-01 -0.891900D-01 -0.203221D-01
     11 -0.903226D-02 -0.238585D-02  0.129794D-02 -0.101990D-01 -0.582330D-01
     12 -0.594827D-02 -0.847957D-02  0.686734D-02  0.117619D+00  0.135883D+00
     13 -0.107968D+00  0.125565D+00  0.277584D-01 -0.315405D-01  0.334158D-01
     14  0.158016D+00 -0.348700D+00 -0.122980D+00 -0.101912D-01  0.815900D-02
     15  0.164507D-01 -0.804987D-01 -0.532406D-01  0.182877D-02  0.543920D-02
     16 -0.315405D-01  0.334158D-01 -0.389503D-02 -0.107968D+00  0.125565D+00
     17 -0.101912D-01  0.815900D-02 -0.798282D-02  0.158016D+00 -0.348700D+00
     18 -0.182877D-02 -0.543920D-02  0.324584D-03 -0.164507D-01  0.804987D-01
                6             7             8             9            10 
      6  0.474308D+00
      7 -0.349250D-01  0.111227D+00
      8 -0.129794D-02  0.286582D-01  0.713383D-01
      9  0.686734D-02  0.114904D+00  0.122283D+00  0.358025D+00
     10  0.934569D-01  0.222679D-02  0.226054D-03  0.944316D-03  0.111227D+00
     11  0.881598D-01  0.226054D-03  0.159362D-03  0.130766D-02  0.286582D-01
     12 -0.355368D+00 -0.944316D-03 -0.130766D-02  0.447650D-02 -0.114904D+00
     13  0.389503D-02  0.747839D-02 -0.117940D-01 -0.270755D-02 -0.203627D-02
     14  0.798282D-02  0.354067D-02 -0.116169D-01  0.496316D-02 -0.203736D-02
     15  0.324584D-03  0.159633D-01 -0.336698D-01 -0.125935D-01  0.154080D-02
     16 -0.277584D-01 -0.203627D-02  0.214097D-02 -0.146981D-02  0.747839D-02
     17  0.122980D+00 -0.203736D-02  0.737995D-03 -0.115070D-02  0.354067D-02
     18 -0.532406D-01 -0.154080D-02  0.215182D-02 -0.140722D-02 -0.159633D-01
               11            12            13            14            15 
     11  0.713383D-01
     12 -0.122283D+00  0.358025D+00
     13  0.214097D-02  0.146981D-02  0.141369D+00
     14  0.737995D-03  0.115070D-02 -0.148769D+00  0.349804D+00
     15 -0.215182D-02 -0.140722D-02 -0.330996D-01  0.109882D+00  0.659436D-01
     16 -0.117940D-01  0.270755D-02 -0.730283D-02 -0.558663D-03 -0.268392D-02
     17 -0.116169D-01 -0.496316D-02 -0.558663D-03  0.161622D-02  0.998778D-03
     18  0.336698D-01 -0.125935D-01  0.268392D-02 -0.998778D-03  0.973112D-03
               16            17            18 
     16  0.141369D+00
     17 -0.148769D+00  0.349804D+00
     18  0.330996D-01 -0.109882D+00  0.659436D-01
 Final forces over variables, Energy=-1.11879290D+02:
 -9.90432389D-06 9.90432389D-06-8.25332296D-05 8.25332296D-05
  3.73212181D-07-3.73212179D-07-1.68537945D-04 1.68537945D-04
  8.44574000D-07-8.44574003D-07 6.92715561D-05-6.92715561D-05
  4.02706571D-05 4.02706571D-05-3.74205859D-05-3.74205859D-05
 -2.85007120D-06-2.85007119D-06
 Leave Link  716 at Wed Feb 19 14:52:37 2020, MaxMem=  1879048192 cpu:               0.4 elap:               0.1
 (Enter /opt/g16/l103.exe)

 GradGradGradGradGradGradGradGradGradGradGradGradGradGradGradGradGradGrad
 Berny optimization.
 Search for a local minimum.
 Step number   1 out of a maximum of    2
 All quantities printed in internal units (Hartrees-Bohrs-Radians)
 Second derivative matrix not updated -- analytic derivatives used.
 The second derivative matrix:
                          X1        Y1        Z1        X2        Y2
           X1           0.51461
           Y1          -0.12085   0.47075
           Z1           0.07181   0.22406   0.47431
           X2          -0.25620  -0.00775  -0.03714   0.51461
           Y2          -0.00775  -0.06959  -0.00624  -0.12085   0.47075
           Z2           0.03714   0.00624  -0.07289  -0.07181  -0.22406
           X3          -0.08919  -0.02032  -0.09346  -0.02971  -0.01007
           Y3          -0.01020  -0.05823  -0.08816  -0.00903  -0.00239
           Z3          -0.11762  -0.13588  -0.35537   0.00595   0.00848
           X4          -0.02971  -0.01007   0.03493  -0.08919  -0.02032
           Y4          -0.00903  -0.00239   0.00130  -0.01020  -0.05823
           Z4          -0.00595  -0.00848   0.00687   0.11762   0.13588
           X5          -0.10797   0.12557   0.02776  -0.03154   0.03342
           Y5           0.15802  -0.34870  -0.12298  -0.01019   0.00816
           Z5           0.01645  -0.08050  -0.05324   0.00183   0.00544
           X6          -0.03154   0.03342  -0.00390  -0.10797   0.12557
           Y6          -0.01019   0.00816  -0.00798   0.15802  -0.34870
           Z6          -0.00183  -0.00544   0.00032  -0.01645   0.08050
                          Z2        X3        Y3        Z3        X4
           Z2           0.47431
           X3          -0.03493   0.11123
           Y3          -0.00130   0.02866   0.07134
           Z3           0.00687   0.11490   0.12228   0.35803
           X4           0.09346   0.00223   0.00023   0.00094   0.11123
           Y4           0.08816   0.00023   0.00016   0.00131   0.02866
           Z4          -0.35537  -0.00094  -0.00131   0.00448  -0.11490
           X5           0.00390   0.00748  -0.01179  -0.00271  -0.00204
           Y5           0.00798   0.00354  -0.01162   0.00496  -0.00204
           Z5           0.00032   0.01596  -0.03367  -0.01259   0.00154
           X6          -0.02776  -0.00204   0.00214  -0.00147   0.00748
           Y6           0.12298  -0.00204   0.00074  -0.00115   0.00354
           Z6          -0.05324  -0.00154   0.00215  -0.00141  -0.01596
                          Y4        Z4        X5        Y5        Z5
           Y4           0.07134
           Z4          -0.12228   0.35803
           X5           0.00214   0.00147   0.14137
           Y5           0.00074   0.00115  -0.14877   0.34980
           Z5          -0.00215  -0.00141  -0.03310   0.10988   0.06594
           X6          -0.01179   0.00271  -0.00730  -0.00056  -0.00268
           Y6          -0.01162  -0.00496  -0.00056   0.00162   0.00100
           Z6           0.03367  -0.01259   0.00268  -0.00100   0.00097
                          X6        Y6        Z6
           X6           0.14137
           Y6          -0.14877   0.34980
           Z6           0.03310  -0.10988   0.06594
 ITU=  0
     Eigenvalues ---    0.00909   0.04559   0.05896   0.11072   0.13821
     Eigenvalues ---    0.14088   0.18066   0.39652   0.65853   0.91046
     Eigenvalues ---    0.92996   0.97036
 Angle between quadratic step and forces=  42.76 degrees.
 ClnCor:  largest displacement from symmetrization is 2.39D-14 for atom     4.
 Linear search not attempted -- first point.
 ClnCor:  largest displacement from symmetrization is 1.73D-15 for atom     5.
 B after Tr=     0.000000    0.000000    0.000065
         Rot=    1.000000   -0.000000    0.000000    0.000034 Ang=   0.00 deg.
 Variable       Old X    -DE/DX   Delta X   Delta X   Delta X     New X
                                 (Linear)    (Quad)   (Total)
    X1        1.32939  -0.00001   0.00000  -0.00014  -0.00013   1.32926
    Y1        0.18434  -0.00017   0.00000  -0.00042  -0.00051   0.18383
    Z1       -0.13630   0.00004   0.00000   0.00012   0.00018  -0.13611
    X2       -1.32939   0.00001   0.00000   0.00014   0.00013  -1.32926
    Y2       -0.18434   0.00017   0.00000   0.00042   0.00051  -0.18383
    Z2       -0.13630   0.00004   0.00000   0.00012   0.00018  -0.13611
    X3        1.99562  -0.00008   0.00000  -0.00073  -0.00068   1.99494
    Y3        0.73445   0.00000   0.00000   0.00014   0.00001   0.73446
    Z3        1.57165  -0.00004   0.00000  -0.00004   0.00003   1.57168
    X4       -1.99562   0.00008   0.00000   0.00073   0.00068  -1.99494
    Y4       -0.73445  -0.00000   0.00000  -0.00014  -0.00001  -0.73446
    Z4        1.57165  -0.00004   0.00000  -0.00004   0.00003   1.57168
    X5        2.15892   0.00000   0.00000   0.00027   0.00017   2.15909
    Y5       -1.46759   0.00007   0.00000   0.00010  -0.00005  -1.46764
    Z5       -0.60712  -0.00000   0.00000  -0.00028  -0.00021  -0.60733
    X6       -2.15892  -0.00000   0.00000  -0.00027  -0.00017  -2.15909
    Y6        1.46759  -0.00007   0.00000  -0.00010   0.00005   1.46764
    Z6       -0.60712  -0.00000   0.00000  -0.00028  -0.00021  -0.60733
         Item               Value     Threshold  Converged?
 Maximum Force            0.000169     0.000450     YES
 RMS     Force            0.000069     0.000300     YES
 Maximum Displacement     0.000681     0.001800     YES
 RMS     Displacement     0.000309     0.001200     YES
 Predicted change in Energy=-1.483741D-07
 Optimization completed.
    -- Stationary point found.
 GradGradGradGradGradGradGradGradGradGradGradGradGradGradGradGradGradGrad

 Leave Link  103 at Wed Feb 19 14:52:37 2020, MaxMem=  1879048192 cpu:               0.4 elap:               0.1
 (Enter /opt/g16/l9999.exe)

 ----------------------------------------------------------------------

 Electric dipole moment (input orientation):
 (Debye = 10**-18 statcoulomb cm , SI units = C m)
                  (au)            (Debye)         (10**-30 SI)
   Tot        0.803524D+00      0.204235D+01      0.681256D+01
   x          0.000000D+00      0.000000D+00      0.000000D+00
   y          0.000000D+00      0.000000D+00      0.000000D+00
   z          0.803524D+00      0.204235D+01      0.681256D+01

 Dipole polarizability, Alpha (input orientation).
 (esu units = cm**3 , SI units = C**2 m**2 J**-1)
 Alpha(0;0):
               (au)            (10**-24 esu)      (10**-40 SI)
   iso        0.182273D+02      0.270100D+01      0.300527D+01
   aniso      0.469517D+01      0.695753D+00      0.774130D+00
   xx         0.212783D+02      0.315312D+01      0.350831D+01
   yx        -0.595931D+00     -0.883079D-01     -0.982558D-01
   yy         0.165944D+02      0.245904D+01      0.273605D+01
   zx         0.000000D+00      0.000000D+00      0.000000D+00
   zy         0.000000D+00      0.000000D+00      0.000000D+00
   zz         0.168091D+02      0.249085D+01      0.277144D+01

 ----------------------------------------------------------------------

 Dipole orientation:
     7          1.32939020          0.18434467         -0.13629650
     7         -1.32939020         -0.18434467         -0.13629650
     1          1.99562449          0.73444773          1.57165120
     1         -1.99562449         -0.73444773          1.57165120
     1          2.15891950         -1.46758587         -0.60711609
     1         -2.15891950          1.46758587         -0.60711609

 Electric dipole moment (dipole orientation):
 (Debye = 10**-18 statcoulomb cm , SI units = C m)
                  (au)            (Debye)         (10**-30 SI)
   Tot        0.803524D+00      0.204235D+01      0.681256D+01
   x          0.000000D+00      0.000000D+00      0.000000D+00
   y          0.000000D+00      0.000000D+00      0.000000D+00
   z          0.803524D+00      0.204235D+01      0.681256D+01

 Dipole polarizability, Alpha (dipole orientation).
 (esu units = cm**3 , SI units = C**2 m**2 J**-1)
 Alpha(0;0):
               (au)            (10**-24 esu)      (10**-40 SI)
   iso        0.182273D+02      0.270100D+01      0.300527D+01
   aniso      0.469517D+01      0.695753D+00      0.774130D+00
   xx         0.212783D+02      0.315312D+01      0.350831D+01
   yx        -0.595931D+00     -0.883079D-01     -0.982558D-01
   yy         0.165944D+02      0.245904D+01      0.273605D+01
   zx         0.000000D+00      0.000000D+00      0.000000D+00
   zy         0.000000D+00      0.000000D+00      0.000000D+00
   zz         0.168091D+02      0.249085D+01      0.277144D+01

 ----------------------------------------------------------------------

 Test job not archived.
 1\1\GINC-NODE06\Freq\RwB97XD\def2TZVP\H4N2\ALONGD\19-Feb-2020\0\\#P gu
 ess=read wb97xd/def2tzvp freq iop(7/33=1) scf=(tight, direct) integral
 =(grid=ultrafine, Acc2E=12) scf=xqc iop(2/9=2000)\\name\\0,1\N,0.70348
 3,0.097551,-0.072125\N,-0.703483,-0.097551,-0.072125\H,1.056039,0.3886
 53,0.831682\H,-1.056039,-0.388653,0.831682\H,1.142451,-0.776613,-0.321
 272\H,-1.142451,0.776613,-0.321272\\Version=ES64L-G16RevB.01\State=1-A
 \HF=-111.8792902\RMSD=8.458e-09\RMSF=6.924e-05\ZeroPoint=0.0539348\The
 rmal=0.0571815\Dipole=0.,0.,0.8035236\DipoleDeriv=-0.1421082,-0.034972
 2,0.1162315,-0.1344861,-0.3196367,0.1904099,0.0099259,0.1731932,-0.272
 4872,-0.1421082,-0.0349722,-0.1162315,-0.1344861,-0.3196367,-0.1904099
 ,-0.0099259,-0.1731932,-0.2724873,0.0377932,0.0070118,-0.040644,0.0361
 269,0.2507769,-0.0476654,-0.123365,-0.0933415,0.022906,0.0377932,0.007
 0118,0.040644,0.0361269,0.2507769,0.0476654,0.123365,0.0933415,0.02290
 6,0.104315,0.0279604,-0.0299865,0.0983593,0.0688598,-0.0567884,-0.0709
 789,-0.0209627,0.2495813,0.104315,0.0279604,0.0299865,0.0983593,0.0688
 599,0.0567884,0.0709788,0.0209627,0.2495813\Polar=21.2782758,-0.595931
 4,16.5943911,0.,0.,16.809087\Quadrupole=0.4625374,-0.2729841,-0.189553
 3,-1.9578995,0.,0.\PG=C02 [X(H4N2)]\NImag=0\\0.51460858,-0.12084800,0.
 47074671,0.07180693,0.22406261,0.47430773,-0.25620377,-0.00774546,-0.0
 3713840,0.51460858,-0.00774546,-0.06958651,-0.00623780,-0.12084800,0.4
 7074671,0.03713840,0.00623780,-0.07289079,-0.07180693,-0.22406261,0.47
 430773,-0.08918996,-0.02032213,-0.09345691,-0.02970626,-0.01006547,-0.
 03492501,0.11122731,-0.01019901,-0.05823296,-0.08815977,-0.00903226,-0
 .00238585,-0.00129794,0.02865824,0.07133833,-0.11761897,-0.13588299,-0
 .35536826,0.00594827,0.00847957,0.00686734,0.11490374,0.12228330,0.358
 02515,-0.02970626,-0.01006547,0.03492501,-0.08918996,-0.02032213,0.093
 45691,0.00222679,0.00022605,0.00094432,0.11122731,-0.00903226,-0.00238
 585,0.00129794,-0.01019901,-0.05823296,0.08815977,0.00022605,0.0001593
 6,0.00130766,0.02865824,0.07133833,-0.00594827,-0.00847957,0.00686734,
 0.11761897,0.13588299,-0.35536826,-0.00094432,-0.00130766,0.00447650,-
 0.11490374,-0.12228330,0.35802515,-0.10796812,0.12556526,0.02775841,-0
 .03154048,0.03341580,0.00389503,0.00747839,-0.01179398,-0.00270755,-0.
 00203627,0.00214097,0.00146981,0.14136932,0.15801599,-0.34870039,-0.12
 298016,-0.01019125,0.00815900,0.00798282,0.00354067,-0.01161688,0.0049
 6316,-0.00203736,0.00073799,0.00115070,-0.14876939,0.34980405,0.016450
 68,-0.08049866,-0.05324060,0.00182877,0.00543920,0.00032458,0.01596330
 ,-0.03366976,-0.01259350,0.00154080,-0.00215182,-0.00140722,-0.0330996
 2,0.10988226,0.06594363,-0.03154048,0.03341580,-0.00389503,-0.10796812
 ,0.12556526,-0.02775841,-0.00203627,0.00214097,-0.00146981,0.00747839,
 -0.01179398,0.00270755,-0.00730283,-0.00055866,-0.00268392,0.14136932,
 -0.01019125,0.00815900,-0.00798282,0.15801599,-0.34870039,0.12298016,-
 0.00203736,0.00073799,-0.00115070,0.00354067,-0.01161688,-0.00496316,-
 0.00055866,0.00161622,0.00099878,-0.14876939,0.34980405,-0.00182877,-0
 .00543920,0.00032458,-0.01645068,0.08049866,-0.05324060,-0.00154080,0.
 00215182,-0.00140722,-0.01596330,0.03366976,-0.01259350,0.00268392,-0.
 00099878,0.00097311,0.03309962,-0.10988226,0.06594363\\0.00000990,0.00
 016854,-0.00004027,-0.00000990,-0.00016854,-0.00004027,0.00008253,-0.0
 0000084,0.00003742,-0.00008253,0.00000084,0.00003742,-0.00000037,-0.00
 006927,0.00000285,0.00000037,0.00006927,0.00000285\\\@


 A SLIP OF THE FOOT YOU MAY SOON RECOVER, BUT A SLIP OF THE TONGUE
 YOU MAY NEVER GET OVER. -- BEN FRANKLIN
 Job cpu time:       0 days  0 hours  2 minutes 51.2 seconds.
 Elapsed time:       0 days  0 hours  0 minutes 21.5 seconds.
 File lengths (MBytes):  RWF=      6 Int=      0 D2E=      0 Chk=      2 Scr=      1
 Normal termination of Gaussian 16 at Wed Feb 19 14:52:38 2020.
