 Entering Gaussian System, Link 0=g16
 Initial command:
 /opt/g16/l1.exe "/scratch/alongd/g16/a33754-33016/Gau-17814.inp" -scrdir="/scratch/alongd/g16/a33754-33016/"
 Entering Link 1 = /opt/g16/l1.exe PID=     17816.
  
 Copyright (c) 1988-2017, Gaussian, Inc.  All Rights Reserved.
  
 This is part of the Gaussian(R) 16 program.  It is based on
 the Gaussian(R) 09 system (copyright 2009, Gaussian, Inc.),
 the Gaussian(R) 03 system (copyright 2003, Gaussian, Inc.),
 the Gaussian(R) 98 system (copyright 1998, Gaussian, Inc.),
 the Gaussian(R) 94 system (copyright 1995, Gaussian, Inc.),
 the Gaussian 92(TM) system (copyright 1992, Gaussian, Inc.),
 the Gaussian 90(TM) system (copyright 1990, Gaussian, Inc.),
 the Gaussian 88(TM) system (copyright 1988, Gaussian, Inc.),
 the Gaussian 86(TM) system (copyright 1986, Carnegie Mellon
 University), and the Gaussian 82(TM) system (copyright 1983,
 Carnegie Mellon University). Gaussian is a federally registered
 trademark of Gaussian, Inc.
  
 This software contains proprietary and confidential information,
 including trade secrets, belonging to Gaussian, Inc.
  
 This software is provided under written license and may be
 used, copied, transmitted, or stored only in accord with that
 written license.
  
 The following legend is applicable only to US Government
 contracts under FAR:
  
                    RESTRICTED RIGHTS LEGEND
  
 Use, reproduction and disclosure by the US Government is
 subject to restrictions as set forth in subparagraphs (a)
 and (c) of the Commercial Computer Software - Restricted
 Rights clause in FAR 52.227-19.
  
 Gaussian, Inc.
 340 Quinnipiac St., Bldg. 40, Wallingford CT 06492
  
  
 ---------------------------------------------------------------
 Warning -- This program may not be used in any manner that
 competes with the business of Gaussian, Inc. or will provide
 assistance to any competitor of Gaussian, Inc.  The licensee
 of this program is prohibited from giving any competitor of
 Gaussian, Inc. access to this program.  By using this program,
 the user acknowledges that Gaussian, Inc. is engaged in the
 business of creating and licensing software in the field of
 computational chemistry and represents and warrants to the
 licensee that it is not a competitor of Gaussian, Inc. and that
 it will not use this program in any manner prohibited above.
 ---------------------------------------------------------------
  

 Cite this work as:
 Gaussian 16, Revision B.01,
 M. J. Frisch, G. W. Trucks, H. B. Schlegel, G. E. Scuseria, 
 M. A. Robb, J. R. Cheeseman, G. Scalmani, V. Barone, 
 G. A. Petersson, H. Nakatsuji, X. Li, M. Caricato, A. V. Marenich, 
 J. Bloino, B. G. Janesko, R. Gomperts, B. Mennucci, H. P. Hratchian, 
 J. V. Ortiz, A. F. Izmaylov, J. L. Sonnenberg, D. Williams-Young, 
 F. Ding, F. Lipparini, F. Egidi, J. Goings, B. Peng, A. Petrone, 
 T. Henderson, D. Ranasinghe, V. G. Zakrzewski, J. Gao, N. Rega, 
 G. Zheng, W. Liang, M. Hada, M. Ehara, K. Toyota, R. Fukuda, 
 J. Hasegawa, M. Ishida, T. Nakajima, Y. Honda, O. Kitao, H. Nakai, 
 T. Vreven, K. Throssell, J. A. Montgomery, Jr., J. E. Peralta, 
 F. Ogliaro, M. J. Bearpark, J. J. Heyd, E. N. Brothers, K. N. Kudin, 
 V. N. Staroverov, T. A. Keith, R. Kobayashi, J. Normand, 
 K. Raghavachari, A. P. Rendell, J. C. Burant, S. S. Iyengar, 
 J. Tomasi, M. Cossi, J. M. Millam, M. Klene, C. Adamo, R. Cammi, 
 J. W. Ochterski, R. L. Martin, K. Morokuma, O. Farkas, 
 J. B. Foresman, and D. J. Fox, Gaussian, Inc., Wallingford CT, 2016.
 
 ******************************************
 Gaussian 16:  ES64L-G16RevB.01 20-Dec-2017
                19-Feb-2020 
 ******************************************
 %chk=check.chk
 %mem=14336mb
 %NProcShared=8
 Will use up to    8 processors via shared memory.
 ----------------------------------------------------------------------
 #P guess=read uwb97xd/def2tzvp freq iop(7/33=1) scf=(tight, direct) in
 tegral=(grid=ultrafine, Acc2E=12) scf=xqc iop(2/9=2000)
 ----------------------------------------------------------------------
 1/10=4,30=1,38=1/1,3;
 2/9=2000,12=2,17=6,18=5,40=1/2;
 3/5=44,7=101,11=2,25=1,27=12,30=1,71=2,74=-58,75=-5,116=2,140=1/1,2,3;
 4/5=1/1;
 5/5=2,8=3,13=1,32=2,38=6,87=12,98=1/2,8;
 8/6=4,10=90,11=11,87=12/1;
 11/6=1,8=1,9=11,15=111,16=1,87=12/1,2,10;
 10/6=1,87=12/2;
 6/7=2,8=2,9=2,10=2,28=1,87=12/1;
 7/8=1,10=1,25=1,33=1,87=12/1,2,3,16;
 1/10=4,30=1/3;
 99//99;
 Leave Link    1 at Wed Feb 19 14:51:15 2020, MaxMem=  1879048192 cpu:               0.6 elap:               0.1
 (Enter /opt/g16/l101.exe)
 ----
 name
 ----
 Symbolic Z-matrix:
 Charge =  0 Multiplicity = 2
 N                     0.        0.        0.14115 
 H                    -0.80517   0.       -0.49356 
 H                     0.80517   0.       -0.49356 
 
 ITRead=  0  0  0
 MicOpt= -1 -1 -1
 NAtoms=      3 NQM=        3 NQMF=       0 NMMI=      0 NMMIF=      0
                NMic=       0 NMicF=      0.
                    Isotopes and Nuclear Properties:
 (Nuclear quadrupole moments (NQMom) in fm**2, nuclear magnetic moments (NMagM)
  in nuclear magnetons)

  Atom         1           2           3
 IAtWgt=          14           1           1
 AtmWgt=  14.0030740   1.0078250   1.0078250
 NucSpn=           2           1           1
 AtZEff=  -0.0000000  -0.0000000  -0.0000000
 NQMom=    2.0440000   0.0000000   0.0000000
 NMagM=    0.4037610   2.7928460   2.7928460
 AtZNuc=   7.0000000   1.0000000   1.0000000
 Leave Link  101 at Wed Feb 19 14:51:15 2020, MaxMem=  1879048192 cpu:               2.0 elap:               0.3
 (Enter /opt/g16/l103.exe)

 GradGradGradGradGradGradGradGradGradGradGradGradGradGradGradGradGradGrad
 Berny optimization.
 Initialization pass.
 Trust Radius=3.00D-01 FncErr=1.00D-07 GrdErr=1.00D-07 EigMax=2.50D+02 EigMin=1.00D-04
 Number of steps in this run=      2 maximum allowed number of steps=      2.
 GradGradGradGradGradGradGradGradGradGradGradGradGradGradGradGradGradGrad

 Leave Link  103 at Wed Feb 19 14:51:15 2020, MaxMem=  1879048192 cpu:               0.3 elap:               0.0
 (Enter /opt/g16/l202.exe)
                          Input orientation:                          
 ---------------------------------------------------------------------
 Center     Atomic      Atomic             Coordinates (Angstroms)
 Number     Number       Type             X           Y           Z
 ---------------------------------------------------------------------
      1          7           0        0.000000    0.000000    0.141154
      2          1           0       -0.805168    0.000000   -0.493556
      3          1           0        0.805168    0.000000   -0.493556
 ---------------------------------------------------------------------
                    Distance matrix (angstroms):
                    1          2          3
     1  N    0.000000
     2  H    1.025257   0.000000
     3  H    1.025257   1.610336   0.000000
 Stoichiometry    H2N(2)
 Framework group  C2V[C2(N),SGV(H2)]
 Deg. of freedom     2
 Full point group                 C2V     NOp   4
 Largest Abelian subgroup         C2V     NOp   4
 Largest concise Abelian subgroup C2      NOp   2
                         Standard orientation:                         
 ---------------------------------------------------------------------
 Center     Atomic      Atomic             Coordinates (Angstroms)
 Number     Number       Type             X           Y           Z
 ---------------------------------------------------------------------
      1          7           0        0.000000    0.000000    0.141047
      2          1           0       -0.000000    0.805168   -0.493663
      3          1           0       -0.000000   -0.805168   -0.493663
 ---------------------------------------------------------------------
 Rotational constants (GHZ):         711.9605272         386.7488654         250.6121527
 Leave Link  202 at Wed Feb 19 14:51:15 2020, MaxMem=  1879048192 cpu:               0.4 elap:               0.1
 (Enter /opt/g16/l301.exe)
 Standard basis: def2TZVP (5D, 7F)
 Ernie: Thresh=  0.10000D-02 Tol=  0.10000D-05 Strict=F.
 There are    22 symmetry adapted cartesian basis functions of A1  symmetry.
 There are     4 symmetry adapted cartesian basis functions of A2  symmetry.
 There are     9 symmetry adapted cartesian basis functions of B1  symmetry.
 There are    13 symmetry adapted cartesian basis functions of B2  symmetry.
 There are    19 symmetry adapted basis functions of A1  symmetry.
 There are     4 symmetry adapted basis functions of A2  symmetry.
 There are     8 symmetry adapted basis functions of B1  symmetry.
 There are    12 symmetry adapted basis functions of B2  symmetry.
    43 basis functions,    67 primitive gaussians,    48 cartesian basis functions
     5 alpha electrons        4 beta electrons
       nuclear repulsion energy         7.5545861386 Hartrees.
 IExCor= 4639 DFT=T Ex+Corr=wB97XD ExCW=0 ScaHFX=  1.000000
 ScaDFX=  1.000000  1.000000  1.000000  1.000000 ScalE2=  1.000000  1.000000
 IRadAn=      5 IRanWt=     -1 IRanGd=            0 ICorTp=0 IEmpDi=121
 HFx  wShort=  0.000000 wLong=  0.200000 cFull=  0.222036 cShort=  0.000000 cLong=  0.777964
 DFx  wShort=  0.000000 wLong=  0.200000 cFull=  0.000000 cShort=  0.000000 cLong=  1.000000
 NAtoms=    3 NActive=    3 NUniq=    2 SFac= 2.25D+00 NAtFMM=   60 NAOKFM=F Big=F
 Integral buffers will be    131072 words long.
 Raffenetti 2 integral format.
 Two-electron integral symmetry is turned on.
 R6Disp:  Grimme-D2 Dispersion energy=       -0.0000386256 Hartrees.
 Nuclear repulsion after empirical dispersion term =        7.5545475130 Hartrees.
 Leave Link  301 at Wed Feb 19 14:51:15 2020, MaxMem=  1879048192 cpu:               0.7 elap:               0.1
 (Enter /opt/g16/l302.exe)
 NPDir=0 NMtPBC=     1 NCelOv=     1 NCel=       1 NClECP=     1 NCelD=      1
         NCelK=      1 NCelE2=     1 NClLst=     1 CellRange=     0.0.
 One-electron integrals computed using PRISM.
 One-electron integral symmetry used in STVInt
   4 Symmetry operations used in ECPInt.
 ECPInt:  NShTT=     190 NPrTT=     556 LenC2=     191 LenP2D=     543.
 LDataN:  DoStor=T MaxTD1= 6 Len=  172
 NBasis=    43 RedAO= T EigKep=  6.10D-03  NBF=    19     4     8    12
 NBsUse=    43 1.00D-06 EigRej= -1.00D+00 NBFU=    19     4     8    12
 Precomputing XC quadrature grid using
 IXCGrd= 4 IRadAn=           5 IRanWt=          -1 IRanGd=           0 AccXCQ= 1.00D-12.
 Generated NRdTot=       0 NPtTot=           0 NUsed=           0 NTot=          32
 NSgBfM=    48    48    48    48    48 MxSgAt=     3 MxSgA2=     3.
 Leave Link  302 at Wed Feb 19 14:51:15 2020, MaxMem=  1879048192 cpu:               1.5 elap:               0.2
 (Enter /opt/g16/l303.exe)
 DipDrv:  MaxL=1.
 Leave Link  303 at Wed Feb 19 14:51:16 2020, MaxMem=  1879048192 cpu:               0.4 elap:               0.1
 (Enter /opt/g16/l401.exe)
 Initial guess from the checkpoint file:  "check.chk"
 B after Tr=    -0.000000   -0.000000    0.000000
         Rot=    1.000000   -0.000000    0.000000   -0.000000 Ang=   0.00 deg.
 Guess basis will be translated and rotated to current coordinates.
 JPrj=2 DoOrth=T DoCkMO=T.
 Initial guess orbital symmetries:
 Alpha Orbitals:
       Occupied  (A1) (A1) (B2) (A1) (B1)
       Virtual   (A1) (B2) (B2) (B1) (A1) (A1) (A1) (B2) (A2) (A1)
                 (B1) (A1) (B2) (B2) (B1) (A1) (A2) (A1) (B2) (B1)
                 (A1) (A1) (B2) (A1) (B2) (B1) (A1) (B1) (A2) (B2)
                 (B1) (A1) (A2) (A1) (B2) (B2) (A1) (A1)
 Beta  Orbitals:
       Occupied  (A1) (A1) (B2) (A1)
       Virtual   (B1) (A1) (B2) (B2) (A1) (B1) (A1) (A1) (B2) (A1)
                 (A2) (B1) (B2) (A1) (B2) (A1) (B1) (A2) (A1) (B2)
                 (B1) (A1) (A1) (B2) (A1) (B2) (B1) (A1) (B1) (A2)
                 (B2) (B1) (A1) (A2) (A1) (B2) (B2) (A1) (A1)
 The electronic state of the initial guess is 2-B1.
 Initial guess <Sx>= 0.0000 <Sy>= 0.0000 <Sz>= 0.5000 <S**2>= 0.7535 S= 0.5018
 Leave Link  401 at Wed Feb 19 14:51:16 2020, MaxMem=  1879048192 cpu:               1.0 elap:               0.1
 (Enter /opt/g16/l502.exe)
 Keep R1 and R2 ints in memory in symmetry-blocked form, NReq=7880296.
 FoFCou: FMM=F IPFlag=           0 FMFlag=           0 FMFlg1=           0
         NFxFlg=           0 DoJE=F BraDBF=F KetDBF=F FulRan=T
         wScrn=  0.000000 ICntrl=       600 IOpCl=  0 I1Cent=           0 NGrid=           0
         NMat0=    1 NMatS0=    946 NMatT0=    0 NMatD0=    1 NMtDS0=    0 NMtDT0=    0
 Petite list used in FoFCou.
 UHF open shell SCF:
 Using DIIS extrapolation, IDIIS=  1040.
 NGot=  1879048192 LenX=  1878802330 LenY=  1878799585
 Requested convergence on RMS density matrix=1.00D-08 within  32 cycles.
 Requested convergence on MAX density matrix=1.00D-06.
 Requested convergence on             energy=1.00D-06.
 No special actions if energy rises.

 Cycle   1  Pass 1  IDiag  1:
 E= -55.8807746558929    
 DIIS: error= 8.34D-09 at cycle   1 NSaved=   1.
 NSaved= 1 IEnMin= 1 EnMin= -55.8807746558929     IErMin= 1 ErrMin= 8.34D-09
 ErrMax= 8.34D-09  0.00D+00 EMaxC= 1.00D-01 BMatC= 1.27D-14 BMatP= 1.27D-14
 IDIUse=1 WtCom= 1.00D+00 WtEn= 0.00D+00
 Coeff-Com:  0.100D+01
 Coeff:      0.100D+01
 Gap=     0.512 Goal=   None    Shift=    0.000
 Gap=     0.358 Goal=   None    Shift=    0.000
 RMSDP=1.16D-09 MaxDP=1.24D-08              OVMax= 2.27D-08

 SCF Done:  E(UwB97XD) =  -55.8807746559     A.U. after    1 cycles
            NFock=  1  Conv=0.12D-08     -V/T= 2.0040
 <Sx>= 0.0000 <Sy>= 0.0000 <Sz>= 0.5000 <S**2>= 0.7535 S= 0.5018
 <L.S>= 0.000000000000E+00
 KE= 5.565623821279D+01 PE=-1.459140537899D+02 EE= 2.682249340819D+01
 Annihilation of the first spin contaminant:
 S**2 before annihilation     0.7535,   after     0.7500
 Leave Link  502 at Wed Feb 19 14:51:16 2020, MaxMem=  1879048192 cpu:               4.0 elap:               0.5
 (Enter /opt/g16/l508.exe)
 QCSCF skips out because SCF is already converged.
 Leave Link  508 at Wed Feb 19 14:51:16 2020, MaxMem=  1879048192 cpu:               0.2 elap:               0.0
 (Enter /opt/g16/l801.exe)
 DoSCS=F DFT=T ScalE2(SS,OS)=  1.000000  1.000000
 Range of M.O.s used for correlation:     1    43
 NBasis=    43 NAE=     5 NBE=     4 NFC=     0 NFV=     0
 NROrb=     43 NOA=     5 NOB=     4 NVA=    38 NVB=    39
 Leave Link  801 at Wed Feb 19 14:51:16 2020, MaxMem=  1879048192 cpu:               0.4 elap:               0.1
 (Enter /opt/g16/l1101.exe)
 Using compressed storage, NAtomX=     3.
 Will process      4 centers per pass.
   4 Symmetry operations used in ECPInt.
 ECPInt:  NShTT=     190 NPrTT=     556 LenC2=     191 LenP2D=     543.
 LDataN:  DoStor=T MaxTD1= 7 Len=  274
 R6Disp: Adding Grimme-D2 dispersion energy 1st derivatives to the gradient.
 Leave Link 1101 at Wed Feb 19 14:51:17 2020, MaxMem=  1879048192 cpu:               2.6 elap:               0.3
 (Enter /opt/g16/l1102.exe)
 Symmetrizing basis deriv contribution to polar:
 IMax=3 JMax=2 DiffMx= 0.00D+00
 Leave Link 1102 at Wed Feb 19 14:51:17 2020, MaxMem=  1879048192 cpu:               0.5 elap:               0.1
 (Enter /opt/g16/l1110.exe)
 Forming Gx(P) for the SCF density, NAtomX=     3.
 Integral derivatives from FoFJK, PRISM(SPDF).
 Do as many integral derivatives as possible in FoFJK.
 G2DrvN: MDV=    1879047828.
 G2DrvN: will do     4 centers at a time, making    1 passes.
 Calling FoFCou, ICntrl=  3107 FMM=F I1Cent=   0 AccDes= 1.00D-12.
 FoFJK:  IHMeth= 1 ICntrl=    3107 DoSepK=T KAlg= 0 I1Cent=           0 FoldK=F
 IRaf=         1 NMat=       1 IRICut=       1 DoRegI=T DoRafI=F ISym2E= 1 IDoP0=0 IntGTp=1.
 FoFCou: FMM=F IPFlag=           0 FMFlag=      100000 FMFlg1=           0
         NFxFlg=           0 DoJE=F BraDBF=F KetDBF=F FulRan=T
         wScrn=  0.000000 ICntrl=      3507 IOpCl=  0 I1Cent=           0 NGrid=           0
         NMat0=    1 NMatS0=      1 NMatT0=    0 NMatD0=    1 NMtDS0=    0 NMtDT0=    0
 Petite list used in FoFCou.
 End of G2Drv F.D. properties file   721 does not exist.
 End of G2Drv F.D. properties file   722 does not exist.
 End of G2Drv F.D. properties file   788 does not exist.
 Leave Link 1110 at Wed Feb 19 14:51:18 2020, MaxMem=  1879048192 cpu:              10.6 elap:               1.3
 (Enter /opt/g16/l1002.exe)
 Minotr:  UHF open shell wavefunction.
          IDoAtm=111
          Direct CPHF calculation.
          Differentiating once with respect to electric field.
                with respect to dipole field.
          Differentiating once with respect to nuclear coordinates.
          Using symmetry in CPHF.
          Requested convergence is 1.0D-08 RMS, and 1.0D-07 maximum.
          Secondary convergence is 1.0D-12 RMS, and 1.0D-12 maximum.
          NewPWx=T KeepS1=F KeepF1=F KeepIn=T MapXYZ=F SortEE=F KeepMc=T.
          895 words used for storage of precomputed grid.
 Keep R1 and R2 ints in memory in symmetry-blocked form, NReq=7855220.
 FoFCou: FMM=F IPFlag=           0 FMFlag=           0 FMFlg1=           0
         NFxFlg=           0 DoJE=F BraDBF=F KetDBF=F FulRan=T
         wScrn=  0.000000 ICntrl=       600 IOpCl=  0 I1Cent=           0 NGrid=           0
         NMat0=    1 NMatS0=    946 NMatT0=    0 NMatD0=    1 NMtDS0=    0 NMtDT0=    0
 Petite list used in FoFCou.
          MDV=    1879048192 using IRadAn=       1.
          Solving linear equations simultaneously, MaxMat=       0.
          There are     9 degrees of freedom in the 1st order CPHF.  IDoFFX=4 NUNeed=     9.
      9 vectors produced by pass  0 Test12= 3.84D-15 1.11D-08 XBig12= 6.71D+00 1.12D+00.
 AX will form     9 AO Fock derivatives at one time.
      9 vectors produced by pass  1 Test12= 3.84D-15 1.11D-08 XBig12= 6.18D-01 3.19D-01.
      9 vectors produced by pass  2 Test12= 3.84D-15 1.11D-08 XBig12= 1.92D-02 5.60D-02.
      9 vectors produced by pass  3 Test12= 3.84D-15 1.11D-08 XBig12= 1.66D-04 4.25D-03.
      9 vectors produced by pass  4 Test12= 3.84D-15 1.11D-08 XBig12= 2.27D-06 4.98D-04.
      9 vectors produced by pass  5 Test12= 3.84D-15 1.11D-08 XBig12= 3.89D-08 8.31D-05.
      7 vectors produced by pass  6 Test12= 3.84D-15 1.11D-08 XBig12= 4.67D-10 6.59D-06.
      4 vectors produced by pass  7 Test12= 3.84D-15 1.11D-08 XBig12= 2.24D-12 3.78D-07.
      1 vectors produced by pass  8 Test12= 3.84D-15 1.11D-08 XBig12= 2.30D-14 4.21D-08.
 InvSVY:  IOpt=1 It=  1 EMax= 2.22D-16
 Solved reduced A of dimension    66 with     9 vectors.
 FullF1:  Do perturbations      1 to       9.
 Isotropic polarizability for W=    0.000000        9.13 Bohr**3.
 End of Minotr F.D. properties file   721 does not exist.
 End of Minotr F.D. properties file   722 does not exist.
 End of Minotr F.D. properties file   788 does not exist.
 Leave Link 1002 at Wed Feb 19 14:51:20 2020, MaxMem=  1879048192 cpu:              17.1 elap:               2.1
 (Enter /opt/g16/l601.exe)
 Copying SCF densities to generalized density rwf, IOpCl= 1 IROHF=0.

 **********************************************************************

            Population analysis using the SCF Density.

 **********************************************************************

 Orbital symmetries:
 Alpha Orbitals:
       Occupied  (A1) (A1) (B2) (A1) (B1)
       Virtual   (A1) (B2) (B2) (B1) (A1) (A1) (A1) (B2) (A2) (A1)
                 (B1) (A1) (B2) (B2) (B1) (A1) (A2) (A1) (B2) (B1)
                 (A1) (A1) (B2) (A1) (B2) (B1) (A1) (B1) (A2) (B2)
                 (B1) (A1) (A2) (A1) (B2) (B2) (A1) (A1)
 Beta  Orbitals:
       Occupied  (A1) (A1) (B2) (A1)
       Virtual   (B1) (A1) (B2) (B2) (A1) (B1) (A1) (A1) (B2) (A1)
                 (A2) (B1) (B2) (A1) (B2) (A1) (B1) (A2) (A1) (B2)
                 (B1) (A1) (A1) (B2) (A1) (B2) (B1) (A1) (B1) (A2)
                 (B2) (B1) (A1) (A2) (A1) (B2) (B2) (A1) (A1)
 The electronic state is 2-B1.
 Alpha  occ. eigenvalues --  -14.46212  -0.95705  -0.56359  -0.41787  -0.40342
 Alpha virt. eigenvalues --    0.10888   0.17795   0.39127   0.41918   0.42170
 Alpha virt. eigenvalues --    0.48204   0.52923   0.58637   0.99710   1.00459
 Alpha virt. eigenvalues --    1.04555   1.31654   1.34162   1.74883   1.91198
 Alpha virt. eigenvalues --    1.91794   1.95434   2.07046   2.12448   2.20471
 Alpha virt. eigenvalues --    2.32826   2.50029   2.52734   3.05914   3.12485
 Alpha virt. eigenvalues --    3.93088   4.07400   4.23191   4.28005   4.34443
 Alpha virt. eigenvalues --    4.55837   4.59835   4.62836   4.71844   4.90088
 Alpha virt. eigenvalues --    5.41676   5.62499  31.44031
  Beta  occ. eigenvalues --  -14.44544  -0.89824  -0.54663  -0.39017
  Beta virt. eigenvalues --   -0.03212   0.11495   0.18223   0.38980   0.42984
  Beta virt. eigenvalues --    0.47023   0.49198   0.54218   0.59678   1.01444
  Beta virt. eigenvalues --    1.03522   1.08506   1.34532   1.35523   1.74772
  Beta virt. eigenvalues --    1.92714   1.94751   1.96661   2.09159   2.13365
  Beta virt. eigenvalues --    2.26875   2.33317   2.51816   2.53784   3.07404
  Beta virt. eigenvalues --    3.15467   3.98217   4.12715   4.30311   4.33839
  Beta virt. eigenvalues --    4.37149   4.63504   4.65428   4.69310   4.79469
  Beta virt. eigenvalues --    4.91899   5.44694   5.64405  31.46539
          Condensed to atoms (all electrons):
               1          2          3
     1  N    6.832700   0.308155   0.308155
     2  H    0.308155   0.494611  -0.027271
     3  H    0.308155  -0.027271   0.494611
          Atomic-Atomic Spin Densities.
               1          2          3
     1  N    1.050378   0.000400   0.000400
     2  H    0.000400  -0.029177   0.003189
     3  H    0.000400   0.003189  -0.029177
 Mulliken charges and spin densities:
               1          2
     1  N   -0.449010   1.051178
     2  H    0.224505  -0.025589
     3  H    0.224505  -0.025589
 Sum of Mulliken charges =   0.00000   1.00000
 Mulliken charges and spin densities with hydrogens summed into heavy atoms:
               1          2
     1  N    0.000000   1.000000
 APT charges:
               1
     1  N   -0.313866
     2  H    0.156933
     3  H    0.156933
 Sum of APT charges =   0.00000
 APT charges with hydrogens summed into heavy atoms:
               1
     1  N    0.000000
 Electronic spatial extent (au):  <R**2>=             21.8718
 Charge=              0.0000 electrons
 Dipole moment (field-independent basis, Debye):
    X=             -0.0000    Y=              0.0000    Z=             -1.9827  Tot=              1.9827
 Quadrupole moment (field-independent basis, Debye-Ang):
   XX=             -7.1171   YY=             -5.4801   ZZ=             -7.5833
   XY=              0.0000   XZ=              0.0000   YZ=              0.0000
 Traceless Quadrupole moment (field-independent basis, Debye-Ang):
   XX=             -0.3903   YY=              1.2468   ZZ=             -0.8565
   XY=              0.0000   XZ=              0.0000   YZ=              0.0000
 Octapole moment (field-independent basis, Debye-Ang**2):
  XXX=              0.0000  YYY=             -0.0000  ZZZ=             -2.0777  XYY=             -0.0000
  XXY=             -0.0000  XXZ=             -0.4871  XZZ=              0.0000  YZZ=              0.0000
  YYZ=             -1.3810  XYZ=             -0.0000
 Hexadecapole moment (field-independent basis, Debye-Ang**3):
 XXXX=             -6.4656 YYYY=             -9.2981 ZZZZ=            -10.8432 XXXY=             -0.0000
 XXXZ=             -0.0000 YYYX=             -0.0000 YYYZ=             -0.0000 ZZZX=             -0.0000
 ZZZY=             -0.0000 XXYY=             -2.8947 XXZZ=             -2.9194 YYZZ=             -3.0246
 XXYZ=              0.0000 YYXZ=              0.0000 ZZXY=             -0.0000
 N-N= 7.554547513033D+00 E-N=-1.459140536073D+02  KE= 5.565623821279D+01
 Symmetry A1   KE= 5.119462479982D+01
 Symmetry A2   KE= 4.482092047570D-35
 Symmetry B1   KE= 1.745226543849D+00
 Symmetry B2   KE= 2.716386869123D+00
 Symmetry A1   SP= 4.118592673939D-15
 Symmetry A2   SP=-9.676401617502D-36
 Symmetry B1   SP= 1.000000000000D+00
 Symmetry B2   SP= 2.455423153214D-15
  Exact polarizability:   6.926  -0.000  11.044  -0.000  -0.000   9.431
 Approx polarizability:   6.080   0.000  10.576   0.000   0.000   8.576
                          Isotropic Fermi Contact Couplings
        Atom                 a.u.       MegaHertz       Gauss      10(-4) cm-1
     1  N(14)              0.08761      28.30626      10.10038       9.44195
     2  H(1)              -0.01363     -60.94637     -21.74718     -20.32952
     3  H(1)              -0.01363     -60.94637     -21.74718     -20.32952
 --------------------------------------------------------
       Center         ----  Spin Dipole Couplings  ----
                      3XX-RR        3YY-RR        3ZZ-RR
 --------------------------------------------------------
     1   Atom        2.232815     -1.104206     -1.128610
     2   Atom       -0.015755      0.039688     -0.023933
     3   Atom       -0.015755      0.039688     -0.023933
 --------------------------------------------------------
                        XY            XZ            YZ
 --------------------------------------------------------
     1   Atom       -0.000000      0.000000     -0.000000
     2   Atom       -0.000000     -0.000000     -0.108151
     3   Atom       -0.000000     -0.000000      0.108151
 --------------------------------------------------------


 ---------------------------------------------------------------------------------
              Anisotropic Spin Dipole Couplings in Principal Axis System
 ---------------------------------------------------------------------------------

       Atom             a.u.   MegaHertz   Gauss  10(-4) cm-1        Axes

              Baa    -1.1286   -43.528   -15.532   -14.519  0.0000  0.0000  1.0000
     1 N(14)  Bbb    -1.1042   -42.587   -15.196   -14.205 -0.0000  1.0000 -0.0000
              Bcc     2.2328    86.115    30.728    28.725  1.0000  0.0000  0.0000
 
              Baa    -0.1049   -55.946   -19.963   -18.661  0.0000  0.5991  0.8007
     2 H(1)   Bbb    -0.0158    -8.406    -3.000    -2.804  1.0000 -0.0000  0.0000
              Bcc     0.1206    64.352    22.962    21.465  0.0000  0.8007 -0.5991
 
              Baa    -0.1049   -55.946   -19.963   -18.661  0.0000 -0.5991  0.8007
     3 H(1)   Bbb    -0.0158    -8.406    -3.000    -2.804  1.0000  0.0000  0.0000
              Bcc     0.1206    64.352    22.962    21.465 -0.0000  0.8007  0.5991
 

 ---------------------------------------------------------------------------------

 No NMR shielding tensors so no spin-rotation constants.
 Leave Link  601 at Wed Feb 19 14:51:20 2020, MaxMem=  1879048192 cpu:               2.2 elap:               0.3
 (Enter /opt/g16/l701.exe)
 SCFChk:  SCF convergence  1.16D-09 required  1.00D-08
 ... and contract with generalized density number  0.
 Compute integral second derivatives.
 R6Disp: Adding Grimme-D2 dispersion energy 2nd derivatives to the Hessian.
 Entering OneElI...
 Calculate overlap and kinetic energy integrals
    NBasis =  48  MinDer = 2  MaxDer = 2
 Requested accuracy = 0.1000D-14
 PrmmSu-InSpLW:  IPartL=    0 NPrtUS=    8 NPrtUL=    1 DoSpLW=F IThBeg=    0 IThEnd=    7 NThAct=    8.
 PrSmSu:  IncTry=   512 NBBP=            190 NTPThr=   100 NPartT=    8 Incr=           1 LDynOK=F GPUOK=F.
 PrsmSu:  NPrtUS=   8 ThrOK=T IAlg=2 LenDen=           0 ISkipM=0 DoSpLW=F IThBeg=    0 IThEnd=    7.
 Prism:   IPart=     0 DynPar=F LinDyn=F Incr=           1.
 PRISM was handed   234873326 working-precision words and   190 shell-pairs
 PRISM was handed   234873326 working-precision words and   190 shell-pairs
 PRISM was handed   234873326 working-precision words and   190 shell-pairs
 PRISM was handed   234873326 working-precision words and   190 shell-pairs
 PRISM was handed   234873326 working-precision words and   190 shell-pairs
 PRISM was handed   234873326 working-precision words and   190 shell-pairs
 PRISM was handed   234873326 working-precision words and   190 shell-pairs
 PRISM was handed   234873326 working-precision words and   190 shell-pairs
 IPart=  3 NShTot=          24 NBatch=          16 AvBLen=         1.5
 IPart=  5 NShTot=          17 NBatch=          11 AvBLen=         1.5
 IPart=  1 NShTot=          34 NBatch=          25 AvBLen=         1.4
 IPart=  4 NShTot=          17 NBatch=          11 AvBLen=         1.5
 IPart=  7 NShTot=          12 NBatch=           8 AvBLen=         1.5
 IPart=  6 NShTot=          15 NBatch=          11 AvBLen=         1.4
 IPart=  2 NShTot=          25 NBatch=          17 AvBLen=         1.5
 IPart=  0 NShTot=          46 NBatch=          36 AvBLen=         1.3
 PrSmSu:  NxtVal=              9.
 Entering OneElI...
 Calculate potential energy integrals
    NBasis =  48  MinDer = 2  MaxDer = 2
 Requested accuracy = 0.1000D-14
 PrmmSu-InSpLW:  IPartL=    0 NPrtUS=    8 NPrtUL=    1 DoSpLW=F IThBeg=    0 IThEnd=    7 NThAct=    8.
 PrSmSu:  IncTry=   512 NBBP=            570 NTPThr=   100 NPartT=    8 Incr=           1 LDynOK=F GPUOK=F.
 PrsmSu:  NPrtUS=   8 ThrOK=T IAlg=2 LenDen=           0 ISkipM=0 DoSpLW=F IThBeg=    0 IThEnd=    7.
 Prism:   IPart=     0 DynPar=F LinDyn=F Incr=           1.
 PRISM was handed   234873653 working-precision words and   190 shell-pairs
 PRISM was handed   234873653 working-precision words and   190 shell-pairs
 PRISM was handed   234873653 working-precision words and   190 shell-pairs
 PRISM was handed   234873653 working-precision words and   190 shell-pairs
 PRISM was handed   234873653 working-precision words and   190 shell-pairs
 PRISM was handed   234873653 working-precision words and   190 shell-pairs
 PRISM was handed   234873653 working-precision words and   190 shell-pairs
 PRISM was handed   234873653 working-precision words and   190 shell-pairs
 IPart=  2 NShTot=          78 NBatch=          26 AvBLen=         3.0
 IPart=  5 NShTot=          51 NBatch=          17 AvBLen=         3.0
 IPart=  7 NShTot=          36 NBatch=          12 AvBLen=         3.0
 IPart=  0 NShTot=         132 NBatch=          44 AvBLen=         3.0
 IPart=  6 NShTot=          45 NBatch=          15 AvBLen=         3.0
 IPart=  1 NShTot=         105 NBatch=          35 AvBLen=         3.0
 IPart=  3 NShTot=          72 NBatch=          24 AvBLen=         3.0
 IPart=  4 NShTot=          51 NBatch=          17 AvBLen=         3.0
 PrSmSu:  NxtVal=              9.
   4 Symmetry operations used in ECPInt.
 ECPInt:  NShTT=     190 NPrTT=     556 LenC2=     191 LenP2D=     543.
 LDataN:  DoStor=F MaxTD1= 8 Len=  415
 LDataN:  DoStor=T MaxTD1= 8 Len=  415
 ECPSu:  NPrtUS=   8 ThrOK=T ISkipM=0 DoSpLW=F IThBeg=    0 IThEnd=    7.
 Polarizability after L701:
                1             2             3 
      1  0.692645D+01
      2  0.000000D+00  0.110445D+02
      3  0.000000D+00  0.000000D+00  0.943096D+01
 Dipole Derivatives after L701:
                 1             2             3             4             5 
      1  -0.649990D+00  0.000000D+00  0.000000D+00  0.324995D+00  0.000000D+00
      2   0.000000D+00 -0.185214D+00  0.000000D+00  0.000000D+00  0.926070D-01
      3   0.000000D+00  0.000000D+00 -0.106395D+00  0.000000D+00  0.126539D+00
                 6             7             8             9 
      1   0.000000D+00  0.324995D+00  0.000000D+00  0.000000D+00
      2   0.183237D+00  0.000000D+00  0.926070D-01 -0.183237D+00
      3   0.531977D-01  0.000000D+00 -0.126539D+00  0.531977D-01
 Hessian after L701:
                1             2             3             4             5 
      1  0.425424D+01
      2  0.000000D+00  0.179413D+01
      3  0.000000D+00  0.000000D+00  0.295851D+01
      4 -0.212712D+01  0.000000D+00  0.000000D+00  0.210766D+01
      5  0.000000D+00 -0.897065D+00 -0.100111D+01  0.000000D+00  0.951406D+00
      6  0.000000D+00 -0.926646D+00 -0.147926D+01  0.000000D+00  0.963880D+00
      7 -0.212712D+01  0.000000D+00  0.000000D+00  0.194553D-01  0.000000D+00
      8  0.000000D+00 -0.897065D+00  0.100111D+01  0.000000D+00 -0.543416D-01
      9  0.000000D+00  0.926646D+00 -0.147926D+01  0.000000D+00  0.372336D-01
                6             7             8             9 
      6  0.144149D+01
      7  0.000000D+00  0.210766D+01
      8 -0.372336D-01  0.000000D+00  0.951406D+00
      9  0.377645D-01  0.000000D+00 -0.963880D+00  0.144149D+01
 Leave Link  701 at Wed Feb 19 14:51:21 2020, MaxMem=  1879048192 cpu:               3.3 elap:               0.4
 (Enter /opt/g16/l702.exe)
 L702 exits ... SP integral derivatives will be done elsewhere.
 Leave Link  702 at Wed Feb 19 14:51:21 2020, MaxMem=  1879048192 cpu:               0.4 elap:               0.1
 (Enter /opt/g16/l703.exe)
 Integral derivatives from FoFJK, PRISM(SPDF).
 Compute integral second derivatives, UseDBF=F ICtDFT=           0.
 ICntrl=    100127.
 Calling FoFJK, ICntrl=    100127 FMM=F ISym2X=1 I1Cent= 0 IOpClX= 1 NMat=1 NMatS=1 NMatT=0.
 FoFJK:  IHMeth= 1 ICntrl=  100127 DoSepK=T KAlg= 0 I1Cent=           0 FoldK=F
 IRaf=         1 NMat=       1 IRICut=       1 DoRegI=T DoRafI=F ISym2E= 1 IDoP0=0 IntGTp=1.
 FoFCou: FMM=F IPFlag=           0 FMFlag=      100000 FMFlg1=         800
         NFxFlg=           0 DoJE=F BraDBF=F KetDBF=F FulRan=T
         wScrn=  0.000000 ICntrl=    100527 IOpCl=  0 I1Cent=           0 NGrid=           0
         NMat0=    1 NMatS0=      1 NMatT0=    0 NMatD0=    1 NMtDS0=    0 NMtDT0=    0
 Petite list used in FoFCou.
 FoFCou:  KetSym=F NOpSet=  4 NOpAb=4 NOp=  4.
 FoFCou:  CnvScl= 1.00D+00 Thresh= 1.00D-12 IAcrcy=      10.
 PrismS was handed  1879025121 working-precision words and   190 shell-pairs
 FoFCou: LinMIO=F DoNuc=F BraDBF=F KetDBF=F HaveP=T PDBF=F HaveZ=T HaveW=F
         NIJTC =      10 NIJTAt=       0 NIJTCD=       0 NIJTT =      10
         IJTBeg=       1 IJTEnd=      10 KLTBeg=       1 KLTEnd=      10
         IPTBeg=       1 IPTEnd=      10 IPTBCv=       1 IPTECv=      10
         IZTBeg=       1 IZTEnd=      10 IZTBCv=       1 IZTECv=      10
         IWTBeg=      11 IWTEnd=      10 IWTBCv=      11 IWTECv=      10
         INTBeg=       1 INTEnd=       0 IFTBCv=       1 IFTECv=      10
 NCel replicated for PrismC:     1
 CoulSu-InSpLW:  IPartL=    0 NPrtUS=    8 NPrtUL=    1 DoSpLW=F IThBeg=    0 IThEnd=    7 NThAct=    8.
 CoulSu:  IncTry=  1024 NBBP=          18145 NTPThr=   100 NPartT=    8 Incr=          22 LDynOK=F GPUOK=F.
 CoulSu:  NPrtUS=   8 ThrOK=T IAlg=2 LenDen=           0 LWGrdD=           0 DoCopy=F ISkipM=0
          DoSpLW=F IThBeg=    0 IThEnd=    7.
 Enter PrismC:  IPart=  0 JobTyp=22 DoJE=F Cont=F.
 PrismC:  IPart=     0 DynPar=F LinDyn=F Incr=          22 UseFst=F UseS4=T ISplat=2.
 PrismC was handed   234873720 working-precision words and   190 shell-pairs
 Enter PrismC:  IPart=  2 JobTyp=22 DoJE=F Cont=F.
 PrismC:  IPart=     2 DynPar=F LinDyn=F Incr=          22 UseFst=F UseS4=T ISplat=2.
 PrismC was handed   234873720 working-precision words and   190 shell-pairs
 Enter PrismC:  IPart=  1 JobTyp=22 DoJE=F Cont=F.
 Enter PrismC:  IPart=  6 JobTyp=22 DoJE=F Cont=F.
 PrismC:  IPart=     1 DynPar=F LinDyn=F Incr=          22 UseFst=F UseS4=T ISplat=2.
 PrismC:  IPart=     6 DynPar=F LinDyn=F Incr=          22 UseFst=F UseS4=T ISplat=2.
 PrismC was handed   234873720 working-precision words and   190 shell-pairs
 PrismC was handed   234873720 working-precision words and   190 shell-pairs
 Enter PrismC:  IPart=  3 JobTyp=22 DoJE=F Cont=F.
 PrismC:  IPart=     3 DynPar=F LinDyn=F Incr=          22 UseFst=F UseS4=T ISplat=2.
 PrismC was handed   234873720 working-precision words and   190 shell-pairs
 Enter PrismC:  IPart=  4 JobTyp=22 DoJE=F Cont=F.
 PrismC:  IPart=     4 DynPar=F LinDyn=F Incr=          22 UseFst=F UseS4=T ISplat=2.
 PrismC was handed   234873720 working-precision words and   190 shell-pairs
 Enter PrismC:  IPart=  5 JobTyp=22 DoJE=F Cont=F.
 Enter PrismC:  IPart=  7 JobTyp=22 DoJE=F Cont=F.
 PrismC:  IPart=     5 DynPar=F LinDyn=F Incr=          22 UseFst=F UseS4=T ISplat=2.
 PrismC was handed   234873720 working-precision words and   190 shell-pairs
 PrismC:  IPart=     7 DynPar=F LinDyn=F Incr=          22 UseFst=F UseS4=T ISplat=2.
 PrismC was handed   234873720 working-precision words and   190 shell-pairs
 IPart=  6 NShTot=        1059 NShNF=        1059 NShFF=           0 MinMC=       7
           NShCPU=        1059 NBCPU=         291 AvBCPU=         3.6
           NShGPU=           0 NBGPU=           0 AvBGPU=         0.0
 IPart=  7 NShTot=        1125 NShNF=        1125 NShFF=           0 MinMC=       7
           NShCPU=        1125 NBCPU=         313 AvBCPU=         3.6
           NShGPU=           0 NBGPU=           0 AvBGPU=         0.0
 IPart=  5 NShTot=        1271 NShNF=        1271 NShFF=           0 MinMC=       7
           NShCPU=        1271 NBCPU=         351 AvBCPU=         3.6
           NShGPU=           0 NBGPU=           0 AvBGPU=         0.0
 IPart=  2 NShTot=        1235 NShNF=        1235 NShFF=           0 MinMC=       7
           NShCPU=        1235 NBCPU=         398 AvBCPU=         3.1
           NShGPU=           0 NBGPU=           0 AvBGPU=         0.0
 IPart=  3 NShTot=        1275 NShNF=        1275 NShFF=           0 MinMC=       7
           NShCPU=        1275 NBCPU=         405 AvBCPU=         3.1
           NShGPU=           0 NBGPU=           0 AvBGPU=         0.0
 IPart=  4 NShTot=        1166 NShNF=        1166 NShFF=           0 MinMC=       7
           NShCPU=        1166 NBCPU=         332 AvBCPU=         3.5
           NShGPU=           0 NBGPU=           0 AvBGPU=         0.0
 IPart=  1 NShTot=        1609 NShNF=        1609 NShFF=           0 MinMC=       7
           NShCPU=        1609 NBCPU=         540 AvBCPU=         3.0
           NShGPU=           0 NBGPU=           0 AvBGPU=         0.0
 IPart=  0 NShTot=        1605 NShNF=        1605 NShFF=           0 MinMC=       7
           NShCPU=        1605 NBCPU=         571 AvBCPU=         2.8
           NShGPU=           0 NBGPU=           0 AvBGPU=         0.0
 CoulSu:  NxtVal=            177 LenVP=      234873721 MinMC=       7.
 FoFCou: FMM=F IPFlag=           0 FMFlag=      100000 FMFlg1=         800
         NFxFlg=           0 DoJE=F BraDBF=F KetDBF=F FulRan=T
         wScrn=  0.000000 ICntrl=    100127 IOpCl=  1 I1Cent=           0 NGrid=           0
         NMat0=    1 NMatS0=      0 NMatT0=    1 NMatD0=    1 NMtDS0=    0 NMtDT0=    0
         CW=    0.222036    0.777964
         WU=    0.000000   12.500000
 Petite list used in FoFCou.
 FoFCou:  KetSym=F NOpSet=  4 NOpAb=4 NOp=  4.
 FoFCou:  CnvScl= 1.00D+00 Thresh= 1.00D-12 IAcrcy=      10.
 IniFok:  ToCart=T IDoP0=2 DoConv=F DoRafP=T DoAdj=T
 PrismS was handed  1879024952 working-precision words and   190 shell-pairs
 FoFCou: LinMIO=F DoNuc=F BraDBF=F KetDBF=F HaveP=T PDBF=F HaveZ=T HaveW=F
         NIJTC =      10 NIJTAt=       0 NIJTCD=       0 NIJTT =      10
         IJTBeg=       1 IJTEnd=      10 KLTBeg=       1 KLTEnd=      10
         IPTBeg=       1 IPTEnd=      10 IPTBCv=       1 IPTECv=      10
         IZTBeg=       1 IZTEnd=      10 IZTBCv=       1 IZTECv=      10
         IWTBeg=      11 IWTEnd=      10 IWTBCv=      11 IWTECv=      10
         INTBeg=       1 INTEnd=       0 IFTBCv=       1 IFTECv=      10
 NCel replicated for PrismC:     1
 CoulSu-InSpLW:  IPartL=    0 NPrtUS=    8 NPrtUL=    1 DoSpLW=F IThBeg=    0 IThEnd=    7 NThAct=    8.
 CoulSu:  IncTry=  1024 NBBP=          18145 NTPThr=   100 NPartT=    8 Incr=          22 LDynOK=F GPUOK=F.
 CoulSu:  NPrtUS=   8 ThrOK=T IAlg=2 LenDen=           0 LWGrdD=           0 DoCopy=F ISkipM=0
          DoSpLW=F IThBeg=    0 IThEnd=    7.
 Enter PrismC:  IPart=  0 JobTyp=22 DoJE=F Cont=F.
 Enter PrismC:  IPart=  7 JobTyp=22 DoJE=F Cont=F.
 Enter PrismC:  IPart=  3 JobTyp=22 DoJE=F Cont=F.
 Enter PrismC:  IPart=  4 JobTyp=22 DoJE=F Cont=F.
 Linear combination for Coulomb/exchange, wScrn=  0.000000
 CW=    0.222036    0.777964
 WU=    0.000000   12.500000
 Linear combination for Coulomb/exchange, wScrn=  0.000000
 CW=    0.222036    0.777964
 WU=    0.000000   12.500000
 PrismC:  IPart=     0 DynPar=F LinDyn=F Incr=          22 UseFst=F UseS4=T ISplat=2.
 Enter PrismC:  IPart=  1 JobTyp=22 DoJE=F Cont=F.
 PrismC was handed   234873699 working-precision words and   190 shell-pairs
 Enter PrismC:  IPart=  5 JobTyp=22 DoJE=F Cont=F.
 Linear combination for Coulomb/exchange, wScrn=  0.000000
 CW=    0.222036    0.777964
 WU=    0.000000   12.500000
 Enter PrismC:  IPart=  6 JobTyp=22 DoJE=F Cont=F.
 PrismC:  IPart=     4 DynPar=F LinDyn=F Incr=          22 UseFst=F UseS4=T ISplat=2.
 Enter PrismC:  IPart=  2 JobTyp=22 DoJE=F Cont=F.
 PrismC was handed   234873699 working-precision words and   190 shell-pairs
 PrismC:  IPart=     3 DynPar=F LinDyn=F Incr=          22 UseFst=F UseS4=T ISplat=2.
 PrismC was handed   234873699 working-precision words and   190 shell-pairs
 Linear combination for Coulomb/exchange, wScrn=  0.000000
 CW=    0.222036    0.777964
 WU=    0.000000   12.500000
 PrismC:  IPart=     5 DynPar=F LinDyn=F Incr=          22 UseFst=F UseS4=T ISplat=2.
 PrismC was handed   234873699 working-precision words and   190 shell-pairs
 Linear combination for Coulomb/exchange, wScrn=  0.000000
 CW=    0.222036    0.777964
 WU=    0.000000   12.500000
 Linear combination for Coulomb/exchange, wScrn=  0.000000
 CW=    0.222036    0.777964
 WU=    0.000000   12.500000
 PrismC:  IPart=     2 DynPar=F LinDyn=F Incr=          22 UseFst=F UseS4=T ISplat=2.
 PrismC was handed   234873699 working-precision words and   190 shell-pairs
 PrismC:  IPart=     7 DynPar=F LinDyn=F Incr=          22 UseFst=F UseS4=T ISplat=2.
 PrismC was handed   234873699 working-precision words and   190 shell-pairs
 Linear combination for Coulomb/exchange, wScrn=  0.000000
 CW=    0.222036    0.777964
 WU=    0.000000   12.500000
 PrismC:  IPart=     6 DynPar=F LinDyn=F Incr=          22 UseFst=F UseS4=T ISplat=2.
 PrismC was handed   234873699 working-precision words and   190 shell-pairs
 Linear combination for Coulomb/exchange, wScrn=  0.000000
 CW=    0.222036    0.777964
 WU=    0.000000   12.500000
 PrismC:  IPart=     1 DynPar=F LinDyn=F Incr=          22 UseFst=F UseS4=T ISplat=2.
 PrismC was handed   234873699 working-precision words and   190 shell-pairs
 IPart=  5 NShTot=        1271 NShNF=        1271 NShFF=           0 MinMC=       7
           NShCPU=        1271 NBCPU=         351 AvBCPU=         3.6
           NShGPU=           0 NBGPU=           0 AvBGPU=         0.0
 IPart=  6 NShTot=        1059 NShNF=        1059 NShFF=           0 MinMC=       7
           NShCPU=        1059 NBCPU=         291 AvBCPU=         3.6
           NShGPU=           0 NBGPU=           0 AvBGPU=         0.0
 IPart=  7 NShTot=        1125 NShNF=        1125 NShFF=           0 MinMC=       7
           NShCPU=        1125 NBCPU=         313 AvBCPU=         3.6
           NShGPU=           0 NBGPU=           0 AvBGPU=         0.0
 IPart=  3 NShTot=        1275 NShNF=        1275 NShFF=           0 MinMC=       7
           NShCPU=        1275 NBCPU=         405 AvBCPU=         3.1
           NShGPU=           0 NBGPU=           0 AvBGPU=         0.0
 IPart=  4 NShTot=        1166 NShNF=        1166 NShFF=           0 MinMC=       7
           NShCPU=        1166 NBCPU=         332 AvBCPU=         3.5
           NShGPU=           0 NBGPU=           0 AvBGPU=         0.0
 IPart=  2 NShTot=        1235 NShNF=        1235 NShFF=           0 MinMC=       7
           NShCPU=        1235 NBCPU=         398 AvBCPU=         3.1
           NShGPU=           0 NBGPU=           0 AvBGPU=         0.0
 IPart=  1 NShTot=        1609 NShNF=        1609 NShFF=           0 MinMC=       7
           NShCPU=        1609 NBCPU=         540 AvBCPU=         3.0
           NShGPU=           0 NBGPU=           0 AvBGPU=         0.0
 IPart=  0 NShTot=        1605 NShNF=        1605 NShFF=           0 MinMC=       7
           NShCPU=        1605 NBCPU=         571 AvBCPU=         2.8
           NShGPU=           0 NBGPU=           0 AvBGPU=         0.0
 CoulSu:  NxtVal=            177 LenVP=      234873700 MinMC=       7.
 ReadGW:  IGet=0 IStart=           1 Next=           1 LGW=           0.
 Remaining memory in FofDFT     1792.00 Mw
 CkSvGd:  ISavGI=        -1 IRadAn=       5 IRASav=       5 ISavGd=        -1.
 CalDSu-InSpLW:  IPartL=    0 NPrtUS=    8 NPrtUL=    1 DoSpLW=F IThBeg=    0 IThEnd=    7 NThAct=    8.
 CalDSu:  NPrtUS=   8 ThrOK=T IAlg=1 DoDPD=T LenP=        1176 LenD1P=             0 GPUOK=F
          ISkipM=0 DoSpLW=F IThBeg=    0 IThEnd=    7.
 IPart=  0 IRanGd=          0 ScrnBf=T ScrnGd=T RCrit=4.00D+00 DoMicB=T.
 IPart=  7         2124 of         2217 points in       6 batches and       14 microbatches, Max-NSigAt=       3 Max-NSgAt2=       3
 IPart=  6         2068 of         2108 points in       4 batches and       10 microbatches, Max-NSigAt=       3 Max-NSgAt2=       3
 IPart=  3         2260 of         2332 points in       5 batches and       13 microbatches, Max-NSigAt=       3 Max-NSgAt2=       3
 IPart=  1         2265 of         2378 points in       6 batches and       18 microbatches, Max-NSigAt=       3 Max-NSgAt2=       3
 IPart=  0         1972 of         2046 points in       4 batches and       19 microbatches, Max-NSigAt=       3 Max-NSgAt2=       3
 IPart=  4         2208 of         2299 points in       4 batches and       19 microbatches, Max-NSigAt=       3 Max-NSgAt2=       3
 IPart=  5         2187 of         2314 points in       7 batches and       25 microbatches, Max-NSigAt=       3 Max-NSgAt2=       3
 IPart=  2         2251 of         2285 points in       4 batches and       13 microbatches, Max-NSigAt=       3 Max-NSgAt2=       3
 Polarizability after L703:
                1             2             3 
      1  0.692645D+01
      2  0.000000D+00  0.110445D+02
      3  0.000000D+00  0.000000D+00  0.943096D+01
 Dipole Derivatives after L703:
                 1             2             3             4             5 
      1  -0.649990D+00  0.000000D+00  0.000000D+00  0.324995D+00  0.000000D+00
      2   0.000000D+00 -0.185214D+00  0.000000D+00  0.000000D+00  0.926070D-01
      3   0.000000D+00  0.000000D+00 -0.106395D+00  0.000000D+00  0.126539D+00
                 6             7             8             9 
      1   0.000000D+00  0.324995D+00  0.000000D+00  0.000000D+00
      2   0.183237D+00  0.000000D+00  0.926070D-01 -0.183237D+00
      3   0.531977D-01  0.000000D+00 -0.126539D+00  0.531977D-01
 Hessian after L703:
                1             2             3             4             5 
      1  0.457867D-04
      2  0.000000D+00  0.528564D+00
      3  0.000000D+00  0.000000D+00  0.366116D+00
      4 -0.228933D-04  0.000000D+00  0.000000D+00  0.560875D-04
      5  0.000000D+00 -0.264282D+00  0.155841D+00  0.000000D+00  0.292883D+00
      6  0.000000D+00  0.208256D+00 -0.183058D+00  0.000000D+00 -0.182049D+00
      7 -0.228933D-04  0.000000D+00  0.000000D+00 -0.331942D-04  0.000000D+00
      8  0.000000D+00 -0.264282D+00 -0.155841D+00  0.000000D+00 -0.286011D-01
      9  0.000000D+00 -0.208256D+00 -0.183058D+00  0.000000D+00  0.262071D-01
                6             7             8             9 
      6  0.173649D+00
      7  0.000000D+00  0.560875D-04
      8 -0.262071D-01  0.000000D+00  0.292883D+00
      9  0.940853D-02  0.000000D+00  0.182049D+00  0.173649D+00
 Leave Link  703 at Wed Feb 19 14:51:24 2020, MaxMem=  1879048192 cpu:              22.4 elap:               2.8
 (Enter /opt/g16/l716.exe)
 FrcOut:
 IF    =        40 IFX   =        49 IFXYZ =        58
 IFFX  =        67 IFFFX =       112 IFLen =         9
 IFFLen=        45 IFFFLn=         0 IEDerv=       112
 LEDerv=       485 IFroze=       733 ICStrt=      4559
 Dipole        =-3.85573287D-17 2.77555756D-17-7.80057896D-01
 DipoleDeriv   =-6.49989572D-01-4.25706884D-17-1.92360056D-17
                -1.40808177D-16-1.85213987D-01-1.23643059D-14
                -1.10072446D-16-1.50136641D-14-1.06395408D-01
                 3.24994786D-01-6.70539904D-18-3.32451309D-17
                 2.44390251D-18 9.26069934D-02 1.26539269D-01
                -2.52856785D-18 1.83236832D-01 5.31977039D-02
                 3.24994786D-01 1.59676430D-16 1.21522766D-16
                 1.24038376D-16 9.26069934D-02-1.26539269D-01
                 1.06191049D-16-1.83236832D-01 5.31977039D-02
 Polarizability= 6.92645018D+00-1.08617771D-16 1.10444768D+01
                -3.22771922D-17-5.99098679D-14 9.43095719D+00
 Quadrupole    =-2.90152104D-01 9.26941462D-01-6.36789357D-01
                 6.79040544D-17 3.89637809D-17 0.00000000D+00
 VibFq2-Diag1:  N=      9 IV=           4 MDV=  1879043073 NE2=   208782563
 Full mass-weighted force constant matrix:
 Low frequencies ---   -0.0011   -0.0002    0.0004   26.2041   47.7779   48.3830
 Low frequencies --- 1532.7084 3401.5437 3497.2534
 OrtVCM:  Ph=1 IPass= 1 DotMx1= 0.00D+00
 OrtVCM:  IS=    1 I=    1 IndO=    1 Dot= 1.00D+00 DotN= 1.00D+00 ElMax1= 9.35D-01 ElMax1N= 9.35D-01
 OrtVCM:  Ph=2 NNew=    0 IAdd=    2 IPass= 1 DotMx2= 0.00D+00
 OrtVCM:  IS=    1 I=    2 IndO=    2 Dot= 1.00D+00 DotN= 1.00D+00 ElMax1= 9.35D-01 ElMax1N= 9.35D-01
 OrtVCM:  Ph=2 NNew=    0 IAdd=    3 IPass= 1 DotMx2= 0.00D+00
 OrtVCM:  IS=    1 I=    3 IndO=    3 Dot= 1.00D+00 DotN= 1.00D+00 ElMax1= 9.35D-01 ElMax1N= 9.35D-01
 OrtVCM:  Ph=2 NNew=    0 IAdd=    4 IPass= 1 DotMx2= 1.11D-16
 OrtVCM:  IS=    1 I=    4 IndO=    4 Dot= 1.00D+00 DotN= 1.00D+00 ElMax1= 6.61D-01 ElMax1N= 6.61D-01
 OrtVCM:  Ph=2 NNew=    0 IAdd=    5 IPass= 1 DotMx2= 6.16D-33
 OrtVCM:  IS=    1 I=    5 IndO=    5 Dot= 1.00D+00 DotN= 1.00D+00 ElMax1= 7.07D-01 ElMax1N= 7.07D-01
 OrtVCM:  Ph=2 NNew=    0 IAdd=    6 IPass= 1 DotMx2= 6.69D-17
 OrtVCM:  IS=    1 I=    6 IndO=    6 Dot= 1.00D+00 DotN= 1.00D+00 ElMax1= 5.69D-01 ElMax1N= 5.69D-01
 OrtVCM:  Ph=1 IPass= 1 DotMx1= 9.35D-01
 OrtVCM:  Ph=1 IPass= 2 DotMx1= 8.32D-17
 OrtVCM:  IS=    1 I=    1 IndO=    0 Dot= 1.06D-33 DotN= 1.06D-33 ElMax1= 2.56D-17 ElMax1N= 2.56D-17
 OrtVCM:  IS=    1 I=    2 IndO=    7 Dot= 8.15D-02 DotN= 8.15D-02 ElMax1= 1.52D-01 ElMax1N= 1.52D-01
 OrtVCM:  Ph=2 NNew=    0 IAdd=    3 IPass= 1 DotMx2= 0.00D+00
 OrtVCM:  IS=    1 I=    3 IndO=    8 Dot= 1.26D-01 DotN= 1.26D-01 ElMax1= 2.35D-01 ElMax1N= 2.35D-01
 SchOr2:  IPass= 1 Test2A= 1.00D-01 IOff=     0 NDo=     3 NNew=     2
 OrtVCM:  Ph=1 IPass= 1 DotMx1= 7.07D-01
 OrtVCM:  Ph=1 IPass= 2 DotMx1= 1.66D-16
 OrtVCM:  IS=    1 I=    1 IndO=    0 Dot= 1.87D-33 DotN= 1.87D-33 ElMax1= 3.06D-17 ElMax1N= 3.06D-17
 SchOr2:  IPass= 1 Test2A= 1.00D-01 IOff=     3 NDo=     1 NNew=     0
 OrtVCM:  Ph=1 IPass= 1 DotMx1= 5.32D-01
 OrtVCM:  Ph=1 IPass= 2 DotMx1= 1.82D-16
 OrtVCM:  IS=    1 I=    1 IndO=    9 Dot= 5.00D-01 DotN= 5.00D-01 ElMax1= 5.00D-01 ElMax1N= 5.00D-01
 SchOr2:  IPass= 1 Test2A= 1.00D-01 IOff=     4 NDo=     1 NNew=     1
 VibFq2-Diag2:  N=      3 IV=           4 MDV=  1879043073 NE2=   626347690
 Dipole derivative wrt mode   1:  1.39885D-15  4.66294D-14  5.28063D+00
 Vibrational polarizability contributions from mode   1       0.0000000       0.0000000       0.3194376
 Dipole derivative wrt mode   2: -4.29877D-15 -1.56763D-13  3.05868D+00
 Vibrational polarizability contributions from mode   2       0.0000000       0.0000000       0.0217595
 Dipole derivative wrt mode   3:  4.60120D-15 -1.27476D+00  3.34177D-14
 Vibrational polarizability contributions from mode   3       0.0000000       0.0035755       0.0000000
 Diagonal vibrational polarizability:
        0.0000000       0.0035755       0.3411971
 NorSel:  MapVib=      1      2      3
 Harmonic frequencies (cm**-1), IR intensities (KM/Mole), Raman scattering
 activities (A**4/AMU), depolarization ratios for plane and unpolarized
 incident light, reduced masses (AMU), force constants (mDyne/A),
 and normal coordinates:
                      1                      2                      3
                     A1                     A1                     B2
 Frequencies --   1532.7084              3401.5437              3497.2534
 Red. masses --      1.0919                 1.0496                 1.0903
 Frc consts  --      1.5113                 7.1551                 7.8571
 IR Inten    --     27.8851                 9.3555                 1.6250
  Atom  AN      X      Y      Z        X      Y      Z        X      Y      Z
     1   7    -0.00   0.00  -0.08     0.00  -0.00   0.06    -0.00  -0.08  -0.00
     2   1     0.00   0.43   0.56     0.00   0.59  -0.39    -0.00   0.55  -0.44
     3   1     0.00  -0.43   0.56    -0.00  -0.59  -0.39     0.00   0.55   0.44

 -------------------
 - Thermochemistry -
 -------------------
 Temperature   298.150 Kelvin.  Pressure   1.00000 Atm.
 Atom     1 has atomic number  7 and mass  14.00307
 Atom     2 has atomic number  1 and mass   1.00783
 Atom     3 has atomic number  1 and mass   1.00783
 Molecular mass:    16.01872 amu.
 Principal axes and moments of inertia in atomic units:
                           1         2         3
     Eigenvalues --     2.53489   4.66644   7.20133
           X            0.00000   0.00000   1.00000
           Y            1.00000   0.00000   0.00000
           Z            0.00000   1.00000   0.00000
 This molecule is an asymmetric top.
 Rotational symmetry number  2.
 Rotational temperatures (Kelvin)     34.16872    18.56102    12.02749
 Rotational constants (GHZ):         711.96053   386.74887   250.61215
 Zero-point vibrational energy      50431.6 (Joules/Mol)
                                   12.05344 (Kcal/Mol)
 Vibrational temperatures:   2205.23  4894.06  5031.77
          (Kelvin)
 
 Zero-point correction=                           0.019208 (Hartree/Particle)
 Thermal correction to Energy=                    0.022045
 Thermal correction to Enthalpy=                  0.022989
 Thermal correction to Gibbs Free Energy=         0.000901
 Sum of electronic and zero-point Energies=            -55.861566
 Sum of electronic and thermal Energies=               -55.858729
 Sum of electronic and thermal Enthalpies=             -55.857785
 Sum of electronic and thermal Free Energies=          -55.879873
 
                     E (Thermal)             CV                S
                      KCal/Mol        Cal/Mol-Kelvin    Cal/Mol-Kelvin
 Total                   13.834              6.028             46.488
 Electronic               0.000              0.000              1.377
 Translational            0.889              2.981             34.259
 Rotational               0.889              2.981             10.842
 Vibrational             12.056              0.067              0.010
                       Q            Log10(Q)             Ln(Q)
 Total Bot       0.384992D+00         -0.414548         -0.954532
 Total V=0       0.263443D+09          8.420687         19.389348
 Vib (Bot)       0.146228D-08         -8.834968        -20.343266
 Vib (V=0)       0.100061D+01          0.000267          0.000614
 Electronic      0.200000D+01          0.301030          0.693147
 Translational   0.251997D+07          6.401396         14.739758
 Rotational      0.522390D+02          1.717994          3.955828
 Write normal modes, IRwNMS=   765 IRotNM=-1 NVibU=     3.
 
                                                                 name
                                                             IR Spectrum
 
     3   3                                                                   1                                                       
     4   4                                                                   5                                                       
     9   0                                                                   3                                                       
     7   2                                                                   3                                                       
 
     X   X                                                                   X                                                       
         X                                                                   X                                                       
         X                                                                   X                                                       
         X                                                                   X                                                       
         X                                                                   X                                                       
         X                                                                   X                                                       
         X                                                                   X                                                       
                                                                             X                                                       
                                                                             X                                                       
                                                                             X                                                       
                                                                             X                                                       
                                                                             X                                                       
                                                                             X                                                       
                                                                             X                                                       
                                                                             X                                                       
                                                                             X                                                       
                                                                             X                                                       
                                                                             X                                                       
                                                                             X                                                       
                                                                             X                                                       
 
 Forces in standard orientation:
 -------------------------------------------------------------------
 Center     Atomic                   Forces (Hartrees/Bohr)
 Number     Number              X              Y              Z
 -------------------------------------------------------------------
      1        7          -0.000000000   -0.000000000   -0.000082062
      2        1          -0.000000000    0.000028276    0.000041031
      3        1           0.000000000   -0.000028276    0.000041031
 -------------------------------------------------------------------
 Cartesian Forces:  Max     0.000082062 RMS     0.000036056
 ***** Axes restored to original set *****
 Rotating derivatives, DoTrsp=F IDiff=-2 LEDeriv=    484 LFDPrp=       0 LDFDPr=       0.
 -------------------------------------------------------------------
 Center     Atomic                   Forces (Hartrees/Bohr)
 Number     Number              X              Y              Z
 -------------------------------------------------------------------
      1        7          -0.000000000    0.000000000    0.000082062
      2        1           0.000028276    0.000000000   -0.000041031
      3        1          -0.000028276   -0.000000000   -0.000041031
 -------------------------------------------------------------------
 Cartesian Forces:  Max     0.000082062 RMS     0.000036056
 Z-matrix is all fixed cartesians, so copy forces.
 Force constants in Cartesian coordinates: 
                1             2             3             4             5 
      1  0.528564D+00
      2  0.000000D+00  0.457867D-04
      3  0.000000D+00  0.000000D+00  0.366116D+00
      4 -0.264282D+00  0.000000D+00 -0.155841D+00  0.292883D+00
      5  0.000000D+00 -0.228933D-04  0.000000D+00  0.000000D+00  0.560875D-04
      6 -0.208256D+00  0.000000D+00 -0.183058D+00  0.182049D+00  0.000000D+00
      7 -0.264282D+00  0.000000D+00  0.155841D+00 -0.286011D-01  0.000000D+00
      8  0.000000D+00 -0.228933D-04  0.000000D+00  0.000000D+00 -0.331942D-04
      9  0.208256D+00  0.000000D+00 -0.183058D+00 -0.262071D-01  0.000000D+00
                6             7             8             9 
      6  0.173649D+00
      7  0.262071D-01  0.292883D+00
      8  0.000000D+00  0.000000D+00  0.560875D-04
      9  0.940853D-02 -0.182049D+00  0.000000D+00  0.173649D+00
 Final forces over variables, Energy=-5.58807747D+01:
 -4.96066425D-16 2.82761343D-05-2.82761343D-05 3.06675569D-16
  4.93743816D-18-3.11613007D-16 8.20617327D-05-4.10308664D-05
 -4.10308664D-05
 Leave Link  716 at Wed Feb 19 14:51:24 2020, MaxMem=  1879048192 cpu:               0.4 elap:               0.1
 (Enter /opt/g16/l103.exe)

 GradGradGradGradGradGradGradGradGradGradGradGradGradGradGradGradGradGrad
 Berny optimization.
 Search for a local minimum.
 Step number   1 out of a maximum of    2
 All quantities printed in internal units (Hartrees-Bohrs-Radians)
 Second derivative matrix not updated -- analytic derivatives used.
 The second derivative matrix:
                          X1        Y1        Z1        X2        Y2
           X1           0.52856
           Y1           0.00000   0.00005
           Z1          -0.00000  -0.00000   0.36612
           X2          -0.26428   0.00000  -0.15584   0.29288
           Y2           0.00000  -0.00002  -0.00000  -0.00000   0.00006
           Z2          -0.20826   0.00000  -0.18306   0.18205  -0.00000
           X3          -0.26428  -0.00000   0.15584  -0.02860  -0.00000
           Y3          -0.00000  -0.00002   0.00000  -0.00000  -0.00003
           Z3           0.20826   0.00000  -0.18306  -0.02621   0.00000
                          Z2        X3        Y3        Z3
           Z2           0.17365
           X3           0.02621   0.29288
           Y3           0.00000   0.00000   0.00006
           Z3           0.00941  -0.18205  -0.00000   0.17365
 ITU=  0
     Eigenvalues ---    0.13186   0.62862   0.78309
 Angle between quadratic step and forces=  32.24 degrees.
 ClnCor:  largest displacement from symmetrization is 9.16D-16 for atom     3.
 Linear search not attempted -- first point.
 ClnCor:  largest displacement from symmetrization is 1.85D-32 for atom     1.
 B after Tr=    -0.000000   -0.000000    0.000120
         Rot=    1.000000   -0.000000    0.000000    0.000000 Ang=   0.00 deg.
 Variable       Old X    -DE/DX   Delta X   Delta X   Delta X     New X
                                 (Linear)    (Quad)   (Total)
    X1       -0.00000  -0.00000   0.00000  -0.00000  -0.00000  -0.00000
    Y1        0.00000   0.00000   0.00000   0.00000  -0.00000   0.00000
    Z1        0.26674   0.00008   0.00000   0.00022   0.00034   0.26708
    X2       -1.52155   0.00003   0.00000   0.00033   0.00033  -1.52121
    Y2        0.00000   0.00000   0.00000  -0.00000  -0.00000   0.00000
    Z2       -0.93269  -0.00004   0.00000  -0.00029  -0.00017  -0.93286
    X3        1.52155  -0.00003   0.00000  -0.00033  -0.00033   1.52121
    Y3       -0.00000  -0.00000   0.00000   0.00000   0.00000  -0.00000
    Z3       -0.93269  -0.00004   0.00000  -0.00029  -0.00017  -0.93286
         Item               Value     Threshold  Converged?
 Maximum Force            0.000082     0.000450     YES
 RMS     Force            0.000036     0.000300     YES
 Maximum Displacement     0.000339     0.001800     YES
 RMS     Displacement     0.000210     0.001200     YES
 Predicted change in Energy=-3.035569D-08
 Optimization completed.
    -- Stationary point found.
 GradGradGradGradGradGradGradGradGradGradGradGradGradGradGradGradGradGrad

 Leave Link  103 at Wed Feb 19 14:51:24 2020, MaxMem=  1879048192 cpu:               0.2 elap:               0.0
 (Enter /opt/g16/l9999.exe)

 ----------------------------------------------------------------------

 Electric dipole moment (input orientation):
 (Debye = 10**-18 statcoulomb cm , SI units = C m)
                  (au)            (Debye)         (10**-30 SI)
   Tot        0.780058D+00      0.198271D+01      0.661361D+01
   x          0.000000D+00      0.000000D+00      0.000000D+00
   y          0.000000D+00      0.000000D+00      0.000000D+00
   z         -0.780058D+00     -0.198271D+01     -0.661361D+01

 Dipole polarizability, Alpha (input orientation).
 (esu units = cm**3 , SI units = C**2 m**2 J**-1)
 Alpha(0;0):
               (au)            (10**-24 esu)      (10**-40 SI)
   iso        0.913396D+01      0.135351D+01      0.150599D+01
   aniso      0.359403D+01      0.532581D+00      0.592576D+00
   xx         0.110445D+02      0.163662D+01      0.182099D+01
   yx         0.000000D+00      0.000000D+00      0.000000D+00
   yy         0.692645D+01      0.102639D+01      0.114202D+01
   zx         0.000000D+00      0.000000D+00      0.000000D+00
   zy         0.000000D+00      0.000000D+00      0.000000D+00
   zz         0.943096D+01      0.139752D+01      0.155495D+01

 ----------------------------------------------------------------------

 Dipole orientation:
     7         -0.00000000          0.00000000         -0.26674240
     1         -1.52154700         -0.00000000          0.93268567
     1          1.52154700          0.00000000          0.93268567

 Electric dipole moment (dipole orientation):
 (Debye = 10**-18 statcoulomb cm , SI units = C m)
                  (au)            (Debye)         (10**-30 SI)
   Tot        0.780058D+00      0.198271D+01      0.661361D+01
   x          0.000000D+00      0.000000D+00      0.000000D+00
   y          0.000000D+00      0.000000D+00      0.000000D+00
   z          0.780058D+00      0.198271D+01      0.661361D+01

 Dipole polarizability, Alpha (dipole orientation).
 (esu units = cm**3 , SI units = C**2 m**2 J**-1)
 Alpha(0;0):
               (au)            (10**-24 esu)      (10**-40 SI)
   iso        0.913396D+01      0.135351D+01      0.150599D+01
   aniso      0.359403D+01      0.532581D+00      0.592576D+00
   xx         0.110445D+02      0.163662D+01      0.182099D+01
   yx         0.000000D+00      0.000000D+00      0.000000D+00
   yy         0.692645D+01      0.102639D+01      0.114202D+01
   zx         0.000000D+00      0.000000D+00      0.000000D+00
   zy         0.000000D+00      0.000000D+00      0.000000D+00
   zz         0.943096D+01      0.139752D+01      0.155495D+01

 ----------------------------------------------------------------------

 Test job not archived.
 1\1\GINC-NODE06\Freq\UwB97XD\def2TZVP\H2N1(2)\ALONGD\19-Feb-2020\0\\#P
  guess=read uwb97xd/def2tzvp freq iop(7/33=1) scf=(tight, direct) inte
 gral=(grid=ultrafine, Acc2E=12) scf=xqc iop(2/9=2000)\\name\\0,2\N,0.,
 0.,0.141154\H,-0.805168,0.,-0.493556\H,0.805168,0.,-0.493556\\Version=
 ES64L-G16RevB.01\State=2-B1\HF=-55.8807747\S2=0.75354\S2-1=0.\S2A=0.75
 0008\RMSD=1.161e-09\RMSF=3.606e-05\ZeroPoint=0.0192084\Thermal=0.02204
 52\Dipole=0.,0.,-0.7800579\DipoleDeriv=-0.185214,0.,0.,0.,-0.6499896,0
 .,0.,0.,-0.1063954,0.092607,0.,-0.1265393,0.,0.3249948,0.,-0.1832368,0
 .,0.0531977,0.092607,0.,0.1265393,0.,0.3249948,0.,0.1832368,0.,0.05319
 77\Polar=11.0444768,0.,6.9264502,0.,0.,9.4309572\Quadrupole=0.9269415,
 -0.2901521,-0.6367894,0.,0.,0.\PG=C02V [C2(N1),SGV(H2)]\NImag=0\\0.528
 56425,0.,0.00004579,0.,0.,0.36611585,-0.26428213,0.,-0.15584148,0.2928
 8318,0.,-0.00002289,0.,0.,0.00005609,-0.20825567,0.,-0.18305792,0.1820
 4858,0.,0.17364940,-0.26428213,0.,0.15584148,-0.02860105,0.,0.02620709
 ,0.29288318,0.,-0.00002289,0.,0.,-0.00003319,0.,0.,0.00005609,0.208255
 67,0.,-0.18305792,-0.02620709,0.,0.00940853,-0.18204858,0.,0.17364940\
 \0.,0.,-0.00008206,-0.00002828,0.,0.00004103,0.00002828,0.,0.00004103\
 \\@


 NATURE GIVES TO EVERY TIME AND SEASON SOME BEAUTY OF ITS OWN.

                                                    --DICKENS
 Job cpu time:       0 days  0 hours  1 minutes 11.8 seconds.
 Elapsed time:       0 days  0 hours  0 minutes  9.1 seconds.
 File lengths (MBytes):  RWF=      6 Int=      0 D2E=      0 Chk=      1 Scr=      1
 Normal termination of Gaussian 16 at Wed Feb 19 14:51:24 2020.
