 Entering Gaussian System, Link 0=g16
 Initial command:
 /opt/g16/l1.exe "/scratch/alongd/g16/a33756-33018/Gau-22282.inp" -scrdir="/scratch/alongd/g16/a33756-33018/"
 Entering Link 1 = /opt/g16/l1.exe PID=     22284.
  
 Copyright (c) 1988-2017, Gaussian, Inc.  All Rights Reserved.
  
 This is part of the Gaussian(R) 16 program.  It is based on
 the Gaussian(R) 09 system (copyright 2009, Gaussian, Inc.),
 the Gaussian(R) 03 system (copyright 2003, Gaussian, Inc.),
 the Gaussian(R) 98 system (copyright 1998, Gaussian, Inc.),
 the Gaussian(R) 94 system (copyright 1995, Gaussian, Inc.),
 the Gaussian 92(TM) system (copyright 1992, Gaussian, Inc.),
 the Gaussian 90(TM) system (copyright 1990, Gaussian, Inc.),
 the Gaussian 88(TM) system (copyright 1988, Gaussian, Inc.),
 the Gaussian 86(TM) system (copyright 1986, Carnegie Mellon
 University), and the Gaussian 82(TM) system (copyright 1983,
 Carnegie Mellon University). Gaussian is a federally registered
 trademark of Gaussian, Inc.
  
 This software contains proprietary and confidential information,
 including trade secrets, belonging to Gaussian, Inc.
  
 This software is provided under written license and may be
 used, copied, transmitted, or stored only in accord with that
 written license.
  
 The following legend is applicable only to US Government
 contracts under FAR:
  
                    RESTRICTED RIGHTS LEGEND
  
 Use, reproduction and disclosure by the US Government is
 subject to restrictions as set forth in subparagraphs (a)
 and (c) of the Commercial Computer Software - Restricted
 Rights clause in FAR 52.227-19.
  
 Gaussian, Inc.
 340 Quinnipiac St., Bldg. 40, Wallingford CT 06492
  
  
 ---------------------------------------------------------------
 Warning -- This program may not be used in any manner that
 competes with the business of Gaussian, Inc. or will provide
 assistance to any competitor of Gaussian, Inc.  The licensee
 of this program is prohibited from giving any competitor of
 Gaussian, Inc. access to this program.  By using this program,
 the user acknowledges that Gaussian, Inc. is engaged in the
 business of creating and licensing software in the field of
 computational chemistry and represents and warrants to the
 licensee that it is not a competitor of Gaussian, Inc. and that
 it will not use this program in any manner prohibited above.
 ---------------------------------------------------------------
  

 Cite this work as:
 Gaussian 16, Revision B.01,
 M. J. Frisch, G. W. Trucks, H. B. Schlegel, G. E. Scuseria, 
 M. A. Robb, J. R. Cheeseman, G. Scalmani, V. Barone, 
 G. A. Petersson, H. Nakatsuji, X. Li, M. Caricato, A. V. Marenich, 
 J. Bloino, B. G. Janesko, R. Gomperts, B. Mennucci, H. P. Hratchian, 
 J. V. Ortiz, A. F. Izmaylov, J. L. Sonnenberg, D. Williams-Young, 
 F. Ding, F. Lipparini, F. Egidi, J. Goings, B. Peng, A. Petrone, 
 T. Henderson, D. Ranasinghe, V. G. Zakrzewski, J. Gao, N. Rega, 
 G. Zheng, W. Liang, M. Hada, M. Ehara, K. Toyota, R. Fukuda, 
 J. Hasegawa, M. Ishida, T. Nakajima, Y. Honda, O. Kitao, H. Nakai, 
 T. Vreven, K. Throssell, J. A. Montgomery, Jr., J. E. Peralta, 
 F. Ogliaro, M. J. Bearpark, J. J. Heyd, E. N. Brothers, K. N. Kudin, 
 V. N. Staroverov, T. A. Keith, R. Kobayashi, J. Normand, 
 K. Raghavachari, A. P. Rendell, J. C. Burant, S. S. Iyengar, 
 J. Tomasi, M. Cossi, J. M. Millam, M. Klene, C. Adamo, R. Cammi, 
 J. W. Ochterski, R. L. Martin, K. Morokuma, O. Farkas, 
 J. B. Foresman, and D. J. Fox, Gaussian, Inc., Wallingford CT, 2016.
 
 ******************************************
 Gaussian 16:  ES64L-G16RevB.01 20-Dec-2017
                19-Feb-2020 
 ******************************************
 %chk=check.chk
 %mem=14336mb
 %NProcShared=8
 Will use up to    8 processors via shared memory.
 ----------------------------------------------------------------------
 #P guess=read uwb97xd/def2tzvp freq iop(7/33=1) scf=(tight, direct) in
 tegral=(grid=ultrafine, Acc2E=12) scf=xqc iop(2/9=2000)
 ----------------------------------------------------------------------
 1/10=4,30=1,38=1/1,3;
 2/9=2000,12=2,17=6,18=5,40=1/2;
 3/5=44,7=101,11=2,25=1,27=12,30=1,71=2,74=-58,75=-5,116=2,140=1/1,2,3;
 4/5=1/1;
 5/5=2,8=3,13=1,32=2,38=6,87=12,98=1/2,8;
 8/6=4,10=90,11=11,87=12/1;
 11/6=1,8=1,9=11,15=111,16=1,87=12/1,2,10;
 10/6=1,87=12/2;
 6/7=2,8=2,9=2,10=2,28=1,87=12/1;
 7/8=1,10=1,25=1,33=1,87=12/1,2,3,16;
 1/10=4,30=1/3;
 99//99;
 Leave Link    1 at Wed Feb 19 14:51:56 2020, MaxMem=  1879048192 cpu:               0.9 elap:               0.1
 (Enter /opt/g16/l101.exe)
 ----
 name
 ----
 Symbolic Z-matrix:
 Charge =  0 Multiplicity = 3
 N                     0.        0.        0.13026 
 H                     0.        0.       -0.90826 
 
 ITRead=  0  0
 MicOpt= -1 -1
 NAtoms=      2 NQM=        2 NQMF=       0 NMMI=      0 NMMIF=      0
                NMic=       0 NMicF=      0.
                    Isotopes and Nuclear Properties:
 (Nuclear quadrupole moments (NQMom) in fm**2, nuclear magnetic moments (NMagM)
  in nuclear magnetons)

  Atom         1           2
 IAtWgt=          14           1
 AtmWgt=  14.0030740   1.0078250
 NucSpn=           2           1
 AtZEff=  -0.0000000  -0.0000000
 NQMom=    2.0440000   0.0000000
 NMagM=    0.4037610   2.7928460
 AtZNuc=   7.0000000   1.0000000
 Leave Link  101 at Wed Feb 19 14:51:56 2020, MaxMem=  1879048192 cpu:               1.8 elap:               0.2
 (Enter /opt/g16/l103.exe)

 GradGradGradGradGradGradGradGradGradGradGradGradGradGradGradGradGradGrad
 Berny optimization.
 Initialization pass.
 Trust Radius=3.00D-01 FncErr=1.00D-07 GrdErr=1.00D-07 EigMax=2.50D+02 EigMin=1.00D-04
 Number of steps in this run=      2 maximum allowed number of steps=      2.
 GradGradGradGradGradGradGradGradGradGradGradGradGradGradGradGradGradGrad

 Leave Link  103 at Wed Feb 19 14:51:56 2020, MaxMem=  1879048192 cpu:               0.3 elap:               0.0
 (Enter /opt/g16/l202.exe)
                          Input orientation:                          
 ---------------------------------------------------------------------
 Center     Atomic      Atomic             Coordinates (Angstroms)
 Number     Number       Type             X           Y           Z
 ---------------------------------------------------------------------
      1          7           0        0.000000    0.000000    0.130257
      2          1           0        0.000000    0.000000   -0.908257
 ---------------------------------------------------------------------
 Stoichiometry    HN(3)
 Framework group  C*V[C*(HN)]
 Deg. of freedom     1
 Full point group                 C*V     NOp   4
 Largest Abelian subgroup         C2V     NOp   4
 Largest concise Abelian subgroup C1      NOp   1
                         Standard orientation:                         
 ---------------------------------------------------------------------
 Center     Atomic      Atomic             Coordinates (Angstroms)
 Number     Number       Type             X           Y           Z
 ---------------------------------------------------------------------
      1          7           0        0.000000    0.000000    0.129814
      2          1           0        0.000000    0.000000   -0.908700
 ---------------------------------------------------------------------
 Rotational constants (GHZ):           0.0000000         498.4144965         498.4144965
 Leave Link  202 at Wed Feb 19 14:51:56 2020, MaxMem=  1879048192 cpu:               0.3 elap:               0.0
 (Enter /opt/g16/l301.exe)
 Standard basis: def2TZVP (5D, 7F)
 Ernie: Thresh=  0.10000D-02 Tol=  0.10000D-05 Strict=F.
 There are    21 symmetry adapted cartesian basis functions of A1  symmetry.
 There are     3 symmetry adapted cartesian basis functions of A2  symmetry.
 There are     9 symmetry adapted cartesian basis functions of B1  symmetry.
 There are     9 symmetry adapted cartesian basis functions of B2  symmetry.
 There are    18 symmetry adapted basis functions of A1  symmetry.
 There are     3 symmetry adapted basis functions of A2  symmetry.
 There are     8 symmetry adapted basis functions of B1  symmetry.
 There are     8 symmetry adapted basis functions of B2  symmetry.
    37 basis functions,    59 primitive gaussians,    42 cartesian basis functions
     5 alpha electrons        3 beta electrons
       nuclear repulsion energy         3.5668661919 Hartrees.
 IExCor= 4639 DFT=T Ex+Corr=wB97XD ExCW=0 ScaHFX=  1.000000
 ScaDFX=  1.000000  1.000000  1.000000  1.000000 ScalE2=  1.000000  1.000000
 IRadAn=      5 IRanWt=     -1 IRanGd=            0 ICorTp=0 IEmpDi=121
 HFx  wShort=  0.000000 wLong=  0.200000 cFull=  0.222036 cShort=  0.000000 cLong=  0.777964
 DFx  wShort=  0.000000 wLong=  0.200000 cFull=  0.000000 cShort=  0.000000 cLong=  1.000000
 NAtoms=    2 NActive=    2 NUniq=    2 SFac= 1.00D+00 NAtFMM=   60 NAOKFM=F Big=F
 Integral buffers will be    131072 words long.
 Raffenetti 2 integral format.
 Two-electron integral symmetry is turned on.
 R6Disp:  Grimme-D2 Dispersion energy=       -0.0000009140 Hartrees.
 Nuclear repulsion after empirical dispersion term =        3.5668652779 Hartrees.
 Leave Link  301 at Wed Feb 19 14:51:56 2020, MaxMem=  1879048192 cpu:               0.7 elap:               0.1
 (Enter /opt/g16/l302.exe)
 NPDir=0 NMtPBC=     1 NCelOv=     1 NCel=       1 NClECP=     1 NCelD=      1
         NCelK=      1 NCelE2=     1 NClLst=     1 CellRange=     0.0.
 One-electron integrals computed using PRISM.
 One-electron integral symmetry used in STVInt
   4 Symmetry operations used in ECPInt.
 ECPInt:  NShTT=     120 NPrTT=     376 LenC2=     121 LenP2D=     370.
 LDataN:  DoStor=T MaxTD1= 6 Len=  172
 NBasis=    37 RedAO= T EigKep=  7.97D-03  NBF=    18     3     8     8
 NBsUse=    37 1.00D-06 EigRej= -1.00D+00 NBFU=    18     3     8     8
 Precomputing XC quadrature grid using
 IXCGrd= 4 IRadAn=           5 IRanWt=          -1 IRanGd=           0 AccXCQ= 1.00D-12.
 Generated NRdTot=       0 NPtTot=           0 NUsed=           0 NTot=          32
 NSgBfM=    42    42    42    42    42 MxSgAt=     2 MxSgA2=     2.
 Leave Link  302 at Wed Feb 19 14:51:57 2020, MaxMem=  1879048192 cpu:               1.5 elap:               0.2
 (Enter /opt/g16/l303.exe)
 DipDrv:  MaxL=1.
 Leave Link  303 at Wed Feb 19 14:51:57 2020, MaxMem=  1879048192 cpu:               0.6 elap:               0.1
 (Enter /opt/g16/l401.exe)
 Initial guess from the checkpoint file:  "check.chk"
 B after Tr=     0.000000    0.000000    0.000000
         Rot=    1.000000    0.000000    0.000000    0.000000 Ang=   0.00 deg.
 Guess basis will be translated and rotated to current coordinates.
 JPrj=2 DoOrth=T DoCkMO=T.
 Initial guess orbital symmetries:
 Alpha Orbitals:
       Occupied  (SG) (SG) (SG) (PI) (PI)
       Virtual   (SG) (SG) (PI) (PI) (SG) (SG) (PI) (PI) (DLTA)
                 (DLTA) (SG) (PI) (PI) (SG) (SG) (PI) (PI) (SG)
                 (SG) (PHI) (PHI) (DLTA) (DLTA) (PI) (PI) (DLTA)
                 (DLTA) (PI) (PI) (SG) (SG) (SG)
 Beta  Orbitals:
       Occupied  (SG) (SG) (SG)
       Virtual   (PI) (PI) (SG) (SG) (SG) (PI) (PI) (SG) (PI) (PI)
                 (DLTA) (DLTA) (SG) (PI) (PI) (SG) (SG) (PI) (PI)
                 (SG) (SG) (DLTA) (DLTA) (PHI) (PHI) (PI) (PI)
                 (DLTA) (DLTA) (PI) (PI) (SG) (SG) (SG)
 The electronic state of the initial guess is 3-SG.
 Initial guess <Sx>= 0.0000 <Sy>= 0.0000 <Sz>= 1.0000 <S**2>= 2.0072 S= 1.0024
 Leave Link  401 at Wed Feb 19 14:51:57 2020, MaxMem=  1879048192 cpu:               0.8 elap:               0.1
 (Enter /opt/g16/l502.exe)
 Keep R1 and R2 ints in memory in symmetry-blocked form, NReq=7413107.
 FoFCou: FMM=F IPFlag=           0 FMFlag=           0 FMFlg1=           0
         NFxFlg=           0 DoJE=F BraDBF=F KetDBF=F FulRan=T
         wScrn=  0.000000 ICntrl=       600 IOpCl=  0 I1Cent=           0 NGrid=           0
         NMat0=    1 NMatS0=    703 NMatT0=    0 NMatD0=    1 NMtDS0=    0 NMtDT0=    0
 Petite list used in FoFCou.
 UHF open shell SCF:
 Using DIIS extrapolation, IDIIS=  1040.
 NGot=  1879048192 LenX=  1878907737 LenY=  1878905532
 Requested convergence on RMS density matrix=1.00D-08 within  32 cycles.
 Requested convergence on MAX density matrix=1.00D-06.
 Requested convergence on             energy=1.00D-06.
 No special actions if energy rises.
 An orbital has undefined symmetry, so N**3 symmetry is turned off.

 Cycle   1  Pass 1  IDiag  1:
 E= -55.2221017721427    
 DIIS: error= 3.90D-08 at cycle   1 NSaved=   1.
 NSaved= 1 IEnMin= 1 EnMin= -55.2221017721427     IErMin= 1 ErrMin= 3.90D-08
 ErrMax= 3.90D-08  0.00D+00 EMaxC= 1.00D-01 BMatC= 1.41D-13 BMatP= 1.41D-13
 IDIUse=1 WtCom= 1.00D+00 WtEn= 0.00D+00
 Coeff-Com:  0.100D+01
 Coeff:      0.100D+01
 Gap=     0.546 Goal=   None    Shift=    0.000
 Gap=     0.419 Goal=   None    Shift=    0.000
 RMSDP=3.53D-09 MaxDP=3.77D-08              OVMax= 7.87D-08

 SCF Done:  E(UwB97XD) =  -55.2221017721     A.U. after    1 cycles
            NFock=  1  Conv=0.35D-08     -V/T= 2.0034
 <Sx>= 0.0000 <Sy>= 0.0000 <Sz>= 1.0000 <S**2>= 2.0072 S= 1.0024
 <L.S>= 0.000000000000E+00
 KE= 5.503262912351D+01 PE=-1.366965033669D+02 EE= 2.287490719326D+01
 Annihilation of the first spin contaminant:
 S**2 before annihilation     2.0072,   after     2.0000
 Leave Link  502 at Wed Feb 19 14:51:57 2020, MaxMem=  1879048192 cpu:               4.0 elap:               0.5
 (Enter /opt/g16/l508.exe)
 QCSCF skips out because SCF is already converged.
 Leave Link  508 at Wed Feb 19 14:51:57 2020, MaxMem=  1879048192 cpu:               0.2 elap:               0.0
 (Enter /opt/g16/l801.exe)
 DoSCS=F DFT=T ScalE2(SS,OS)=  1.000000  1.000000
 Range of M.O.s used for correlation:     1    37
 NBasis=    37 NAE=     5 NBE=     3 NFC=     0 NFV=     0
 NROrb=     37 NOA=     5 NOB=     3 NVA=    32 NVB=    34
 Leave Link  801 at Wed Feb 19 14:51:57 2020, MaxMem=  1879048192 cpu:               0.3 elap:               0.0
 (Enter /opt/g16/l1101.exe)
 Using compressed storage, NAtomX=     2.
 Will process      3 centers per pass.
   4 Symmetry operations used in ECPInt.
 ECPInt:  NShTT=     120 NPrTT=     376 LenC2=     121 LenP2D=     370.
 LDataN:  DoStor=T MaxTD1= 7 Len=  274
 R6Disp: Adding Grimme-D2 dispersion energy 1st derivatives to the gradient.
 Leave Link 1101 at Wed Feb 19 14:51:58 2020, MaxMem=  1879048192 cpu:               2.6 elap:               0.3
 (Enter /opt/g16/l1102.exe)
 Symmetrizing basis deriv contribution to polar:
 IMax=3 JMax=2 DiffMx= 0.00D+00
 Leave Link 1102 at Wed Feb 19 14:51:58 2020, MaxMem=  1879048192 cpu:               0.5 elap:               0.1
 (Enter /opt/g16/l1110.exe)
 Forming Gx(P) for the SCF density, NAtomX=     2.
 Integral derivatives from FoFJK, PRISM(SPDF).
 Do as many integral derivatives as possible in FoFJK.
 G2DrvN: MDV=    1879047908.
 G2DrvN: will do     3 centers at a time, making    1 passes.
 Calling FoFCou, ICntrl=  3107 FMM=F I1Cent=   0 AccDes= 1.00D-12.
 FoFJK:  IHMeth= 1 ICntrl=    3107 DoSepK=T KAlg= 0 I1Cent=           0 FoldK=F
 IRaf=         1 NMat=       1 IRICut=       1 DoRegI=T DoRafI=F ISym2E= 1 IDoP0=0 IntGTp=1.
 FoFCou: FMM=F IPFlag=           0 FMFlag=      100000 FMFlg1=           0
         NFxFlg=           0 DoJE=F BraDBF=F KetDBF=F FulRan=T
         wScrn=  0.000000 ICntrl=      3507 IOpCl=  0 I1Cent=           0 NGrid=           0
         NMat0=    1 NMatS0=      1 NMatT0=    0 NMatD0=    1 NMtDS0=    0 NMtDT0=    0
 Petite list used in FoFCou.
 End of G2Drv F.D. properties file   721 does not exist.
 End of G2Drv F.D. properties file   722 does not exist.
 End of G2Drv F.D. properties file   788 does not exist.
 Leave Link 1110 at Wed Feb 19 14:51:59 2020, MaxMem=  1879048192 cpu:               9.2 elap:               1.2
 (Enter /opt/g16/l1002.exe)
 Minotr:  UHF open shell wavefunction.
          IDoAtm=11
          Direct CPHF calculation.
          Differentiating once with respect to electric field.
                with respect to dipole field.
          Differentiating once with respect to nuclear coordinates.
          Using symmetry in CPHF.
          Requested convergence is 1.0D-08 RMS, and 1.0D-07 maximum.
          Secondary convergence is 1.0D-12 RMS, and 1.0D-12 maximum.
          NewPWx=T KeepS1=F KeepF1=F KeepIn=T MapXYZ=F SortEE=F KeepMc=T.
          590 words used for storage of precomputed grid.
 Keep R1 and R2 ints in memory in symmetry-blocked form, NReq=7387189.
 FoFCou: FMM=F IPFlag=           0 FMFlag=           0 FMFlg1=           0
         NFxFlg=           0 DoJE=F BraDBF=F KetDBF=F FulRan=T
         wScrn=  0.000000 ICntrl=       600 IOpCl=  0 I1Cent=           0 NGrid=           0
         NMat0=    1 NMatS0=    703 NMatT0=    0 NMatD0=    1 NMtDS0=    0 NMtDT0=    0
 Petite list used in FoFCou.
          MDV=    1879048192 using IRadAn=       1.
          Solving linear equations simultaneously, MaxMat=       0.
          There are     9 degrees of freedom in the 1st order CPHF.  IDoFFX=6 NUNeed=     3.
      6 vectors produced by pass  0 Test12= 2.91D-15 1.11D-08 XBig12= 6.08D+00 1.45D+00.
 AX will form     6 AO Fock derivatives at one time.
      6 vectors produced by pass  1 Test12= 2.91D-15 1.11D-08 XBig12= 4.62D-01 2.86D-01.
      6 vectors produced by pass  2 Test12= 2.91D-15 1.11D-08 XBig12= 1.59D-02 5.31D-02.
      6 vectors produced by pass  3 Test12= 2.91D-15 1.11D-08 XBig12= 1.46D-04 5.98D-03.
      6 vectors produced by pass  4 Test12= 2.91D-15 1.11D-08 XBig12= 2.27D-06 7.77D-04.
      6 vectors produced by pass  5 Test12= 2.91D-15 1.11D-08 XBig12= 2.82D-08 6.31D-05.
      6 vectors produced by pass  6 Test12= 2.91D-15 1.11D-08 XBig12= 2.49D-10 5.97D-06.
      4 vectors produced by pass  7 Test12= 2.91D-15 1.11D-08 XBig12= 1.90D-12 4.96D-07.
      1 vectors produced by pass  8 Test12= 2.91D-15 1.11D-08 XBig12= 1.50D-14 4.59D-08.
 InvSVY:  IOpt=1 It=  1 EMax= 2.48D-16
 Solved reduced A of dimension    47 with     6 vectors.
 FullF1:  Do perturbations      1 to       3.
 Isotropic polarizability for W=    0.000000        7.51 Bohr**3.
 End of Minotr F.D. properties file   721 does not exist.
 End of Minotr F.D. properties file   722 does not exist.
 End of Minotr F.D. properties file   788 does not exist.
 Leave Link 1002 at Wed Feb 19 14:52:00 2020, MaxMem=  1879048192 cpu:               8.9 elap:               1.1
 (Enter /opt/g16/l601.exe)
 Copying SCF densities to generalized density rwf, IOpCl= 1 IROHF=0.

 **********************************************************************

            Population analysis using the SCF Density.

 **********************************************************************

 Orbital symmetries:
 Alpha Orbitals:
       Occupied  (SG) (SG) (SG) (PI) (PI)
       Virtual   (SG) (SG) (PI) (PI) (SG) (SG) (PI) (PI) (DLTA)
                 (DLTA) (SG) (PI) (PI) (SG) (SG) (PI) (PI) (SG)
                 (SG) (PHI) (PHI) (DLTA) (DLTA) (PI) (PI) (DLTA)
                 (DLTA) (PI) (PI) (SG) (SG) (SG)
 Beta  Orbitals:
       Occupied  (SG) (SG) (SG)
       Virtual   (PI) (PI) (SG) (SG) (SG) (PI) (PI) (SG) (PI) (PI)
                 (DLTA) (DLTA) (SG) (PI) (PI) (SG) (SG) (PI) (PI)
                 (SG) (SG) (DLTA) (DLTA) (PHI) (PHI) (PI) (PI)
                 (DLTA) (DLTA) (PI) (PI) (SG) (SG) (SG)
 The electronic state is 3-SG.
 Alpha  occ. eigenvalues --  -14.50869  -0.94596  -0.49487  -0.42485  -0.42485
 Alpha virt. eigenvalues --    0.12091   0.39139   0.41544   0.41544   0.42227
 Alpha virt. eigenvalues --    0.53756   1.01015   1.01015   1.07505   1.07505
 Alpha virt. eigenvalues --    1.34431   1.90852   1.90852   1.99643   2.01218
 Alpha virt. eigenvalues --    2.12054   2.12054   2.44534   2.96998   3.90401
 Alpha virt. eigenvalues --    3.90401   3.90578   3.90578   4.22536   4.22536
 Alpha virt. eigenvalues --    4.44000   4.44000   4.57018   4.57018   4.75474
 Alpha virt. eigenvalues --    5.45841  31.27035
  Beta  occ. eigenvalues --  -14.47411  -0.82136  -0.44225
  Beta virt. eigenvalues --   -0.02283  -0.02283   0.13345   0.40890   0.42882
  Beta virt. eigenvalues --    0.47599   0.47599   0.56066   1.05279   1.05279
  Beta virt. eigenvalues --    1.15437   1.15437   1.37002   1.93943   1.93943
  Beta virt. eigenvalues --    2.02539   2.06093   2.21483   2.21483   2.47572
  Beta virt. eigenvalues --    2.99369   4.00085   4.00085   4.03517   4.03517
  Beta virt. eigenvalues --    4.30204   4.30204   4.61788   4.61788   4.65729
  Beta virt. eigenvalues --    4.65729   4.83728   5.50492  31.32444
          Condensed to atoms (all electrons):
               1          2
     1  N    6.973507   0.239926
     2  H    0.239926   0.546642
          Atomic-Atomic Spin Densities.
               1          2
     1  N    2.034263   0.013007
     2  H    0.013007  -0.060278
 Mulliken charges and spin densities:
               1          2
     1  N   -0.213432   2.047270
     2  H    0.213432  -0.047270
 Sum of Mulliken charges =  -0.00000   2.00000
 Mulliken charges and spin densities with hydrogens summed into heavy atoms:
               1          2
     1  N   -0.000000   2.000000
 APT charges:
               1
     1  N   -0.165472
     2  H    0.165472
 Sum of APT charges =  -0.00000
 APT charges with hydrogens summed into heavy atoms:
               1
     1  N   -0.000000
 Electronic spatial extent (au):  <R**2>=             17.0882
 Charge=             -0.0000 electrons
 Dipole moment (field-independent basis, Debye):
    X=              0.0000    Y=              0.0000    Z=             -1.6273  Tot=              1.6273
 Quadrupole moment (field-independent basis, Debye-Ang):
   XX=             -6.2936   YY=             -6.2936   ZZ=             -5.8643
   XY=              0.0000   XZ=              0.0000   YZ=             -0.0000
 Traceless Quadrupole moment (field-independent basis, Debye-Ang):
   XX=             -0.1431   YY=             -0.1431   ZZ=              0.2862
   XY=              0.0000   XZ=              0.0000   YZ=             -0.0000
 Octapole moment (field-independent basis, Debye-Ang**2):
  XXX=              0.0000  YYY=              0.0000  ZZZ=             -2.2464  XYY=              0.0000
  XXY=              0.0000  XXZ=             -0.3861  XZZ=              0.0000  YZZ=             -0.0000
  YYZ=             -0.3861  XYZ=              0.0000
 Hexadecapole moment (field-independent basis, Debye-Ang**3):
 XXXX=             -5.6675 YYYY=             -5.6675 ZZZZ=             -9.0742 XXXY=              0.0000
 XXXZ=              0.0000 YYYX=              0.0000 YYYZ=             -0.0000 ZZZX=              0.0000
 ZZZY=             -0.0000 XXYY=             -1.8892 XXZZ=             -2.6672 YYZZ=             -2.6672
 XXYZ=              0.0000 YYXZ=              0.0000 ZZXY=              0.0000
 N-N= 3.566865277949D+00 E-N=-1.366965038021D+02  KE= 5.503262912351D+01
 Symmetry A1   KE= 5.136179173392D+01
 Symmetry A2   KE= 8.122751885295D-31
 Symmetry B1   KE= 1.835418694794D+00
 Symmetry B2   KE= 1.835418694794D+00
 Symmetry A1   SP=-8.120498089063D-15
 Symmetry A2   SP= 1.856562596901D-32
 Symmetry B1   SP= 1.000000000000D+00
 Symmetry B2   SP= 1.000000000000D+00
  Exact polarizability:   6.198   0.000   6.198  -0.000   0.000  10.129
 Approx polarizability:   5.420   0.000   5.420  -0.000   0.000   9.178
                          Isotropic Fermi Contact Couplings
        Atom                 a.u.       MegaHertz       Gauss      10(-4) cm-1
     1  N(14)              0.12255      19.79785       7.06437       6.60385
     2  H(1)              -0.02620     -58.55186     -20.89276     -19.53080
 --------------------------------------------------------
       Center         ----  Spin Dipole Couplings  ----
                      3XX-RR        3YY-RR        3ZZ-RR
 --------------------------------------------------------
     1   Atom        1.146891      1.146891     -2.293783
     2   Atom       -0.119819     -0.119819      0.239638
 --------------------------------------------------------
                        XY            XZ            YZ
 --------------------------------------------------------
     1   Atom        0.000000      0.000000      0.000000
     2   Atom        0.000000      0.000000      0.000000
 --------------------------------------------------------


 ---------------------------------------------------------------------------------
              Anisotropic Spin Dipole Couplings in Principal Axis System
 ---------------------------------------------------------------------------------

       Atom             a.u.   MegaHertz   Gauss  10(-4) cm-1        Axes

              Baa    -2.2938   -88.466   -31.567   -29.509  0.0000  0.0000  1.0000
     1 N(14)  Bbb     1.1469    44.233    15.783    14.755  1.0000  0.0000  0.0000
              Bcc     1.1469    44.233    15.783    14.755 -0.0000  1.0000  0.0000
 
              Baa    -0.1198   -63.930   -22.812   -21.325 -0.0000  1.0000  0.0000
     2 H(1)   Bbb    -0.1198   -63.930   -22.812   -21.325  1.0000  0.0000  0.0000
              Bcc     0.2396   127.859    45.623    42.649  0.0000  0.0000  1.0000
 

 ---------------------------------------------------------------------------------

 No NMR shielding tensors so no spin-rotation constants.
 Leave Link  601 at Wed Feb 19 14:52:00 2020, MaxMem=  1879048192 cpu:               2.1 elap:               0.3
 (Enter /opt/g16/l701.exe)
 SCFChk:  SCF convergence  3.53D-09 required  1.00D-08
 ... and contract with generalized density number  0.
 Compute integral second derivatives.
 R6Disp: Adding Grimme-D2 dispersion energy 2nd derivatives to the Hessian.
 Entering OneElI...
 Calculate overlap and kinetic energy integrals
    NBasis =  42  MinDer = 2  MaxDer = 2
 Requested accuracy = 0.1000D-14
 PrmmSu-InSpLW:  IPartL=    0 NPrtUS=    8 NPrtUL=    1 DoSpLW=F IThBeg=    0 IThEnd=    7 NThAct=    8.
 PrSmSu:  IncTry=   512 NBBP=            120 NTPThr=   100 NPartT=    8 Incr=           1 LDynOK=F GPUOK=F.
 PrsmSu:  NPrtUS=   8 ThrOK=T IAlg=2 LenDen=           0 ISkipM=0 DoSpLW=F IThBeg=    0 IThEnd=    7.
 Prism:   IPart=     0 DynPar=F LinDyn=F Incr=           1.
 PRISM was handed   234875344 working-precision words and   120 shell-pairs
 PRISM was handed   234875344 working-precision words and   120 shell-pairs
 PRISM was handed   234875344 working-precision words and   120 shell-pairs
 PRISM was handed   234875344 working-precision words and   120 shell-pairs
 PRISM was handed   234875344 working-precision words and   120 shell-pairs
 PRISM was handed   234875344 working-precision words and   120 shell-pairs
 PRISM was handed   234875344 working-precision words and   120 shell-pairs
 PRISM was handed   234875344 working-precision words and   120 shell-pairs
 IPart=  5 NShTot=           8 NBatch=           6 AvBLen=         1.3
 IPart=  3 NShTot=          12 NBatch=          10 AvBLen=         1.2
 IPart=  7 NShTot=           3 NBatch=           3 AvBLen=         1.0
 IPart=  2 NShTot=          18 NBatch=          16 AvBLen=         1.1
 IPart=  6 NShTot=           5 NBatch=           3 AvBLen=         1.7
 IPart=  4 NShTot=          12 NBatch=          10 AvBLen=         1.2
 IPart=  1 NShTot=          24 NBatch=          21 AvBLen=         1.1
 IPart=  0 NShTot=          38 NBatch=          35 AvBLen=         1.1
 PrSmSu:  NxtVal=              9.
 Entering OneElI...
 Calculate potential energy integrals
    NBasis =  42  MinDer = 2  MaxDer = 2
 Requested accuracy = 0.1000D-14
 PrmmSu-InSpLW:  IPartL=    0 NPrtUS=    8 NPrtUL=    1 DoSpLW=F IThBeg=    0 IThEnd=    7 NThAct=    8.
 PrSmSu:  IncTry=   512 NBBP=            240 NTPThr=   100 NPartT=    8 Incr=           1 LDynOK=F GPUOK=F.
 PrsmSu:  NPrtUS=   8 ThrOK=T IAlg=2 LenDen=           0 ISkipM=0 DoSpLW=F IThBeg=    0 IThEnd=    7.
 Prism:   IPart=     0 DynPar=F LinDyn=F Incr=           1.
 PRISM was handed   234875576 working-precision words and   120 shell-pairs
 PRISM was handed   234875576 working-precision words and   120 shell-pairs
 PRISM was handed   234875576 working-precision words and   120 shell-pairs
 PRISM was handed   234875576 working-precision words and   120 shell-pairs
 PRISM was handed   234875576 working-precision words and   120 shell-pairs
 PRISM was handed   234875576 working-precision words and   120 shell-pairs
 PRISM was handed   234875576 working-precision words and   120 shell-pairs
 PRISM was handed   234875576 working-precision words and   120 shell-pairs
 IPart=  6 NShTot=          10 NBatch=           5 AvBLen=         2.0
 IPart=  7 NShTot=           6 NBatch=           3 AvBLen=         2.0
 IPart=  2 NShTot=          36 NBatch=          18 AvBLen=         2.0
 IPart=  0 NShTot=          74 NBatch=          37 AvBLen=         2.0
 IPart=  5 NShTot=          16 NBatch=           8 AvBLen=         2.0
 IPart=  1 NShTot=          50 NBatch=          25 AvBLen=         2.0
 IPart=  3 NShTot=          24 NBatch=          12 AvBLen=         2.0
 IPart=  4 NShTot=          24 NBatch=          12 AvBLen=         2.0
 PrSmSu:  NxtVal=              9.
   4 Symmetry operations used in ECPInt.
 ECPInt:  NShTT=     120 NPrTT=     376 LenC2=     121 LenP2D=     370.
 LDataN:  DoStor=F MaxTD1= 8 Len=  415
 LDataN:  DoStor=T MaxTD1= 8 Len=  415
 ECPSu:  NPrtUS=   8 ThrOK=T ISkipM=0 DoSpLW=F IThBeg=    0 IThEnd=    7.
 Polarizability after L701:
                1             2             3 
      1  0.619822D+01
      2  0.000000D+00  0.619822D+01
      3  0.000000D+00  0.000000D+00  0.101293D+02
 Dipole Derivatives after L701:
                 1             2             3             4             5 
      1  -0.326527D+00  0.000000D+00  0.000000D+00  0.326527D+00  0.000000D+00
      2   0.000000D+00 -0.326527D+00  0.000000D+00  0.000000D+00  0.326527D+00
      3   0.000000D+00  0.000000D+00  0.156636D+00  0.000000D+00  0.000000D+00
                 6 
      1   0.000000D+00
      2   0.000000D+00
      3  -0.156636D+00
 Hessian after L701:
                1             2             3             4             5 
      1  0.186423D+01
      2  0.000000D+00  0.186423D+01
      3  0.000000D+00  0.000000D+00  0.203235D+00
      4 -0.186423D+01  0.000000D+00  0.000000D+00  0.186423D+01
      5  0.000000D+00 -0.186423D+01  0.000000D+00  0.000000D+00  0.186423D+01
      6  0.000000D+00  0.000000D+00 -0.203235D+00  0.000000D+00  0.000000D+00
                6 
      6  0.203235D+00
 Leave Link  701 at Wed Feb 19 14:52:01 2020, MaxMem=  1879048192 cpu:               3.3 elap:               0.4
 (Enter /opt/g16/l702.exe)
 L702 exits ... SP integral derivatives will be done elsewhere.
 Leave Link  702 at Wed Feb 19 14:52:01 2020, MaxMem=  1879048192 cpu:               0.5 elap:               0.1
 (Enter /opt/g16/l703.exe)
 Integral derivatives from FoFJK, PRISM(SPDF).
 Compute integral second derivatives, UseDBF=F ICtDFT=           0.
 ICntrl=    100127.
 Calling FoFJK, ICntrl=    100127 FMM=F ISym2X=1 I1Cent= 0 IOpClX= 1 NMat=1 NMatS=1 NMatT=0.
 FoFJK:  IHMeth= 1 ICntrl=  100127 DoSepK=T KAlg= 0 I1Cent=           0 FoldK=F
 IRaf=         1 NMat=       1 IRICut=       1 DoRegI=T DoRafI=F ISym2E= 1 IDoP0=0 IntGTp=1.
 FoFCou: FMM=F IPFlag=           0 FMFlag=      100000 FMFlg1=         800
         NFxFlg=           0 DoJE=F BraDBF=F KetDBF=F FulRan=T
         wScrn=  0.000000 ICntrl=    100527 IOpCl=  0 I1Cent=           0 NGrid=           0
         NMat0=    1 NMatS0=      1 NMatT0=    0 NMatD0=    1 NMtDS0=    0 NMtDT0=    0
 Petite list used in FoFCou.
 FoFCou:  KetSym=F NOpSet=  4 NOpAb=4 NOp=  4.
 FoFCou:  CnvScl= 1.00D+00 Thresh= 1.00D-12 IAcrcy=      10.
 PrismS was handed  1879030659 working-precision words and   120 shell-pairs
 FoFCou: LinMIO=F DoNuc=F BraDBF=F KetDBF=F HaveP=T PDBF=F HaveZ=T HaveW=F
         NIJTC =      10 NIJTAt=       0 NIJTCD=       0 NIJTT =      10
         IJTBeg=       1 IJTEnd=      10 KLTBeg=       1 KLTEnd=      10
         IPTBeg=       1 IPTEnd=      10 IPTBCv=       1 IPTECv=      10
         IZTBeg=       1 IZTEnd=      10 IZTBCv=       1 IZTECv=      10
         IWTBeg=      11 IWTEnd=      10 IWTBCv=      11 IWTECv=      10
         INTBeg=       1 INTEnd=       0 IFTBCv=       1 IFTECv=      10
 NCel replicated for PrismC:     1
 CoulSu-InSpLW:  IPartL=    0 NPrtUS=    8 NPrtUL=    1 DoSpLW=F IThBeg=    0 IThEnd=    7 NThAct=    8.
 CoulSu:  IncTry=  1024 NBBP=           7260 NTPThr=   100 NPartT=    8 Incr=           9 LDynOK=F GPUOK=F.
 CoulSu:  NPrtUS=   8 ThrOK=T IAlg=2 LenDen=           0 LWGrdD=           0 DoCopy=F ISkipM=0
          DoSpLW=F IThBeg=    0 IThEnd=    7.
 Enter PrismC:  IPart=  0 JobTyp=22 DoJE=F Cont=F.
 PrismC:  IPart=     0 DynPar=F LinDyn=F Incr=           9 UseFst=F UseS4=T ISplat=2.
 PrismC was handed   234875664 working-precision words and   120 shell-pairs
 Enter PrismC:  IPart=  7 JobTyp=22 DoJE=F Cont=F.
 Enter PrismC:  IPart=  4 JobTyp=22 DoJE=F Cont=F.
 PrismC:  IPart=     7 DynPar=F LinDyn=F Incr=           9 UseFst=F UseS4=T ISplat=2.
 PrismC was handed   234875664 working-precision words and   120 shell-pairs
 PrismC:  IPart=     4 DynPar=F LinDyn=F Incr=           9 UseFst=F UseS4=T ISplat=2.
 PrismC was handed   234875664 working-precision words and   120 shell-pairs
 Enter PrismC:  IPart=  3 JobTyp=22 DoJE=F Cont=F.
 PrismC:  IPart=     3 DynPar=F LinDyn=F Incr=           9 UseFst=F UseS4=T ISplat=2.
 PrismC was handed   234875664 working-precision words and   120 shell-pairs
 Enter PrismC:  IPart=  6 JobTyp=22 DoJE=F Cont=F.
 Enter PrismC:  IPart=  2 JobTyp=22 DoJE=F Cont=F.
 PrismC:  IPart=     6 DynPar=F LinDyn=F Incr=           9 UseFst=F UseS4=T ISplat=2.
 Enter PrismC:  IPart=  5 JobTyp=22 DoJE=F Cont=F.
 PrismC was handed   234875664 working-precision words and   120 shell-pairs
 Enter PrismC:  IPart=  1 JobTyp=22 DoJE=F Cont=F.
 PrismC:  IPart=     2 DynPar=F LinDyn=F Incr=           9 UseFst=F UseS4=T ISplat=2.
 PrismC was handed   234875664 working-precision words and   120 shell-pairs
 PrismC:  IPart=     1 DynPar=F LinDyn=F Incr=           9 UseFst=F UseS4=T ISplat=2.
 PrismC was handed   234875664 working-precision words and   120 shell-pairs
 PrismC:  IPart=     5 DynPar=F LinDyn=F Incr=           9 UseFst=F UseS4=T ISplat=2.
 PrismC was handed   234875664 working-precision words and   120 shell-pairs
 IPart=  7 NShTot=         658 NShNF=         658 NShFF=           0 MinMC=       7
           NShCPU=         658 NBCPU=         232 AvBCPU=         2.8
           NShGPU=           0 NBGPU=           0 AvBGPU=         0.0
 IPart=  6 NShTot=         706 NShNF=         706 NShFF=           0 MinMC=       7
           NShCPU=         706 NBCPU=         232 AvBCPU=         3.0
           NShGPU=           0 NBGPU=           0 AvBGPU=         0.0
 IPart=  5 NShTot=         796 NShNF=         796 NShFF=           0 MinMC=       7
           NShCPU=         796 NBCPU=         298 AvBCPU=         2.7
           NShGPU=           0 NBGPU=           0 AvBGPU=         0.0
 IPart=  3 NShTot=         905 NShNF=         905 NShFF=           0 MinMC=       7
           NShCPU=         905 NBCPU=         373 AvBCPU=         2.4
           NShGPU=           0 NBGPU=           0 AvBGPU=         0.0
 IPart=  4 NShTot=         862 NShNF=         862 NShFF=           0 MinMC=       7
           NShCPU=         862 NBCPU=         352 AvBCPU=         2.4
           NShGPU=           0 NBGPU=           0 AvBGPU=         0.0
 IPart=  2 NShTot=         980 NShNF=         980 NShFF=           0 MinMC=       7
           NShCPU=         980 NBCPU=         439 AvBCPU=         2.2
           NShGPU=           0 NBGPU=           0 AvBGPU=         0.0
 IPart=  1 NShTot=        1097 NShNF=        1097 NShFF=           0 MinMC=       7
           NShCPU=        1097 NBCPU=         505 AvBCPU=         2.2
           NShGPU=           0 NBGPU=           0 AvBGPU=         0.0
 IPart=  0 NShTot=        1256 NShNF=        1256 NShFF=           0 MinMC=       7
           NShCPU=        1256 NBCPU=         595 AvBCPU=         2.1
           NShGPU=           0 NBGPU=           0 AvBGPU=         0.0
 CoulSu:  NxtVal=             73 LenVP=      234875665 MinMC=       7.
 FoFCou: FMM=F IPFlag=           0 FMFlag=      100000 FMFlg1=         800
         NFxFlg=           0 DoJE=F BraDBF=F KetDBF=F FulRan=T
         wScrn=  0.000000 ICntrl=    100127 IOpCl=  1 I1Cent=           0 NGrid=           0
         NMat0=    1 NMatS0=      0 NMatT0=    1 NMatD0=    1 NMtDS0=    0 NMtDT0=    0
         CW=    0.222036    0.777964
         WU=    0.000000   12.500000
 Petite list used in FoFCou.
 FoFCou:  KetSym=F NOpSet=  4 NOpAb=4 NOp=  4.
 FoFCou:  CnvScl= 1.00D+00 Thresh= 1.00D-12 IAcrcy=      10.
 IniFok:  ToCart=T IDoP0=2 DoConv=F DoRafP=T DoAdj=T
 PrismS was handed  1879030553 working-precision words and   120 shell-pairs
 FoFCou: LinMIO=F DoNuc=F BraDBF=F KetDBF=F HaveP=T PDBF=F HaveZ=T HaveW=F
         NIJTC =      10 NIJTAt=       0 NIJTCD=       0 NIJTT =      10
         IJTBeg=       1 IJTEnd=      10 KLTBeg=       1 KLTEnd=      10
         IPTBeg=       1 IPTEnd=      10 IPTBCv=       1 IPTECv=      10
         IZTBeg=       1 IZTEnd=      10 IZTBCv=       1 IZTECv=      10
         IWTBeg=      11 IWTEnd=      10 IWTBCv=      11 IWTECv=      10
         INTBeg=       1 INTEnd=       0 IFTBCv=       1 IFTECv=      10
 NCel replicated for PrismC:     1
 CoulSu-InSpLW:  IPartL=    0 NPrtUS=    8 NPrtUL=    1 DoSpLW=F IThBeg=    0 IThEnd=    7 NThAct=    8.
 CoulSu:  IncTry=  1024 NBBP=           7260 NTPThr=   100 NPartT=    8 Incr=           9 LDynOK=F GPUOK=F.
 CoulSu:  NPrtUS=   8 ThrOK=T IAlg=2 LenDen=           0 LWGrdD=           0 DoCopy=F ISkipM=0
          DoSpLW=F IThBeg=    0 IThEnd=    7.
 Enter PrismC:  IPart=  0 JobTyp=22 DoJE=F Cont=F.
 Enter PrismC:  IPart=  3 JobTyp=22 DoJE=F Cont=F.
 Enter PrismC:  IPart=  7 JobTyp=22 DoJE=F Cont=F.
 Linear combination for Coulomb/exchange, wScrn=  0.000000
 CW=    0.222036    0.777964
 WU=    0.000000   12.500000
 Linear combination for Coulomb/exchange, wScrn=  0.000000
 CW=    0.222036    0.777964
 WU=    0.000000   12.500000
 PrismC:  IPart=     0 DynPar=F LinDyn=F Incr=           9 UseFst=F UseS4=T ISplat=2.
 Linear combination for Coulomb/exchange, wScrn=  0.000000
 CW=    0.222036    0.777964
 WU=    0.000000   12.500000
 PrismC:  IPart=     7 DynPar=F LinDyn=F Incr=           9 UseFst=F UseS4=T ISplat=2.
 PrismC:  IPart=     3 DynPar=F LinDyn=F Incr=           9 UseFst=F UseS4=T ISplat=2.
 PrismC was handed   234875651 working-precision words and   120 shell-pairs
 PrismC was handed   234875651 working-precision words and   120 shell-pairs
 PrismC was handed   234875651 working-precision words and   120 shell-pairs
 Enter PrismC:  IPart=  4 JobTyp=22 DoJE=F Cont=F.
 Linear combination for Coulomb/exchange, wScrn=  0.000000
 CW=    0.222036    0.777964
 WU=    0.000000   12.500000
 PrismC:  IPart=     4 DynPar=F LinDyn=F Incr=           9 UseFst=F UseS4=T ISplat=2.
 PrismC was handed   234875651 working-precision words and   120 shell-pairs
 Enter PrismC:  IPart=  5 JobTyp=22 DoJE=F Cont=F.
 Linear combination for Coulomb/exchange, wScrn=  0.000000
 CW=    0.222036    0.777964
 WU=    0.000000   12.500000
 PrismC:  IPart=     5 DynPar=F LinDyn=F Incr=           9 UseFst=F UseS4=T ISplat=2.
 PrismC was handed   234875651 working-precision words and   120 shell-pairs
 Enter PrismC:  IPart=  6 JobTyp=22 DoJE=F Cont=F.
 Enter PrismC:  IPart=  2 JobTyp=22 DoJE=F Cont=F.
 Linear combination for Coulomb/exchange, wScrn=  0.000000
 CW=    0.222036    0.777964
 WU=    0.000000   12.500000
 PrismC:  IPart=     6 DynPar=F LinDyn=F Incr=           9 UseFst=F UseS4=T ISplat=2.
 Linear combination for Coulomb/exchange, wScrn=  0.000000
 CW=    0.222036    0.777964
 WU=    0.000000   12.500000
 PrismC:  IPart=     2 DynPar=F LinDyn=F Incr=           9 UseFst=F UseS4=T ISplat=2.
 PrismC was handed   234875651 working-precision words and   120 shell-pairs
 PrismC was handed   234875651 working-precision words and   120 shell-pairs
 Enter PrismC:  IPart=  1 JobTyp=22 DoJE=F Cont=F.
 Linear combination for Coulomb/exchange, wScrn=  0.000000
 CW=    0.222036    0.777964
 WU=    0.000000   12.500000
 PrismC:  IPart=     1 DynPar=F LinDyn=F Incr=           9 UseFst=F UseS4=T ISplat=2.
 PrismC was handed   234875651 working-precision words and   120 shell-pairs
 IPart=  7 NShTot=         658 NShNF=         658 NShFF=           0 MinMC=       7
           NShCPU=         658 NBCPU=         232 AvBCPU=         2.8
           NShGPU=           0 NBGPU=           0 AvBGPU=         0.0
 IPart=  6 NShTot=         706 NShNF=         706 NShFF=           0 MinMC=       7
           NShCPU=         706 NBCPU=         232 AvBCPU=         3.0
           NShGPU=           0 NBGPU=           0 AvBGPU=         0.0
 IPart=  5 NShTot=         796 NShNF=         796 NShFF=           0 MinMC=       7
           NShCPU=         796 NBCPU=         298 AvBCPU=         2.7
           NShGPU=           0 NBGPU=           0 AvBGPU=         0.0
 IPart=  3 NShTot=         905 NShNF=         905 NShFF=           0 MinMC=       7
           NShCPU=         905 NBCPU=         373 AvBCPU=         2.4
           NShGPU=           0 NBGPU=           0 AvBGPU=         0.0
 IPart=  4 NShTot=         862 NShNF=         862 NShFF=           0 MinMC=       7
           NShCPU=         862 NBCPU=         352 AvBCPU=         2.4
           NShGPU=           0 NBGPU=           0 AvBGPU=         0.0
 IPart=  2 NShTot=         980 NShNF=         980 NShFF=           0 MinMC=       7
           NShCPU=         980 NBCPU=         439 AvBCPU=         2.2
           NShGPU=           0 NBGPU=           0 AvBGPU=         0.0
 IPart=  1 NShTot=        1097 NShNF=        1097 NShFF=           0 MinMC=       7
           NShCPU=        1097 NBCPU=         505 AvBCPU=         2.2
           NShGPU=           0 NBGPU=           0 AvBGPU=         0.0
 IPart=  0 NShTot=        1256 NShNF=        1256 NShFF=           0 MinMC=       7
           NShCPU=        1256 NBCPU=         595 AvBCPU=         2.1
           NShGPU=           0 NBGPU=           0 AvBGPU=         0.0
 CoulSu:  NxtVal=             73 LenVP=      234875652 MinMC=       7.
 ReadGW:  IGet=0 IStart=           1 Next=           1 LGW=           0.
 Remaining memory in FofDFT     1792.00 Mw
 CkSvGd:  ISavGI=        -1 IRadAn=       5 IRASav=       5 ISavGd=        -1.
 CalDSu-InSpLW:  IPartL=    0 NPrtUS=    8 NPrtUL=    1 DoSpLW=F IThBeg=    0 IThEnd=    7 NThAct=    8.
 CalDSu:  NPrtUS=   8 ThrOK=T IAlg=1 DoDPD=T LenP=         903 LenD1P=             0 GPUOK=F
          ISkipM=0 DoSpLW=F IThBeg=    0 IThEnd=    7.
 IPart=  0 IRanGd=          0 ScrnBf=T ScrnGd=T RCrit=4.00D+00 DoMicB=T.
 IPart=  6         1419 of         1468 points in       5 batches and       11 microbatches, Max-NSigAt=       2 Max-NSgAt2=       2
 IPart=  1         1584 of         1640 points in       6 batches and       14 microbatches, Max-NSigAt=       2 Max-NSgAt2=       2
 IPart=  3         1585 of         1640 points in       6 batches and       13 microbatches, Max-NSigAt=       2 Max-NSgAt2=       2
 IPart=  2         1488 of         1528 points in       5 batches and       12 microbatches, Max-NSigAt=       2 Max-NSgAt2=       2
 IPart=  4         1537 of         1561 points in       4 batches and       10 microbatches, Max-NSigAt=       2 Max-NSgAt2=       2
 IPart=  7         1532 of         1574 points in       5 batches and       16 microbatches, Max-NSigAt=       2 Max-NSgAt2=       2
 IPart=  0         1422 of         1452 points in       4 batches and       12 microbatches, Max-NSigAt=       2 Max-NSgAt2=       2
 IPart=  5         1564 of         1582 points in       4 batches and        8 microbatches, Max-NSigAt=       2 Max-NSgAt2=       2
 Polarizability after L703:
                1             2             3 
      1  0.619822D+01
      2  0.000000D+00  0.619822D+01
      3  0.000000D+00  0.000000D+00  0.101293D+02
 Dipole Derivatives after L703:
                 1             2             3             4             5 
      1  -0.326527D+00  0.000000D+00  0.000000D+00  0.326527D+00  0.000000D+00
      2   0.000000D+00 -0.326527D+00  0.000000D+00  0.000000D+00  0.326527D+00
      3   0.000000D+00  0.000000D+00  0.156636D+00  0.000000D+00  0.000000D+00
                 6 
      1   0.000000D+00
      2   0.000000D+00
      3  -0.156636D+00
 Hessian after L703:
                1             2             3             4             5 
      1  0.629421D-04
      2  0.000000D+00  0.629421D-04
      3  0.000000D+00  0.000000D+00  0.389752D+00
      4 -0.629421D-04  0.000000D+00  0.000000D+00  0.629421D-04
      5  0.000000D+00 -0.629421D-04  0.000000D+00  0.000000D+00  0.629421D-04
      6  0.000000D+00  0.000000D+00 -0.389752D+00  0.000000D+00  0.000000D+00
                6 
      6  0.389752D+00
 Leave Link  703 at Wed Feb 19 14:52:04 2020, MaxMem=  1879048192 cpu:              22.1 elap:               2.8
 (Enter /opt/g16/l716.exe)
 FrcOut:
 IF    =        31 IFX   =        37 IFXYZ =        43
 IFFX  =        49 IFFFX =        70 IFLen =         6
 IFFLen=        21 IFFFLn=         0 IEDerv=        70
 LEDerv=       341 IFroze=       513 ICStrt=      3356
 Dipole        = 0.00000000D+00 9.48900315D-33-6.40238282D-01
 DipoleDeriv   =-3.26526857D-01 6.08752029D-16-1.27276995D-17
                 3.03161824D-16-3.26526857D-01 1.72064850D-16
                -2.49528784D-17-2.65535190D-17 1.56636235D-01
                 3.26526857D-01-6.62369737D-16 1.27276995D-17
                -3.16998870D-16 3.26526857D-01-1.72064850D-16
                 2.49528784D-17 2.65535190D-17-1.56636235D-01
 Polarizability= 6.19821798D+00 7.14621746D-16 6.19821798D+00
                -3.43826502D-16 3.64849305D-16 1.01293310D+01
 Quadrupole    =-1.06385615D-01-1.06385615D-01 2.12771230D-01
                 1.31472423D-32 0.00000000D+00-3.41435426D-33
 VibFq2-Diag1:  N=      6 IV=           3 MDV=  1879044470 NE2=   313174078
 Full mass-weighted force constant matrix:
 Low frequencies ---    0.0006    0.0013    0.0013   42.0605   42.0605 3309.7691
 OrtVCM:  Ph=1 IPass= 1 DotMx1= 0.00D+00
 OrtVCM:  IS=    1 I=    1 IndO=    1 Dot= 1.00D+00 DotN= 1.00D+00 ElMax1= 9.66D-01 ElMax1N= 9.66D-01
 OrtVCM:  Ph=2 NNew=    0 IAdd=    2 IPass= 1 DotMx2= 0.00D+00
 OrtVCM:  IS=    1 I=    2 IndO=    2 Dot= 1.00D+00 DotN= 1.00D+00 ElMax1= 9.66D-01 ElMax1N= 9.66D-01
 OrtVCM:  Ph=2 NNew=    0 IAdd=    3 IPass= 1 DotMx2= 0.00D+00
 OrtVCM:  IS=    1 I=    3 IndO=    3 Dot= 1.00D+00 DotN= 1.00D+00 ElMax1= 9.66D-01 ElMax1N= 9.66D-01
 OrtVCM:  Ph=2 NNew=    0 IAdd=    4 IPass= 1 DotMx2= 0.00D+00
 OrtVCM:  IS=    1 I=    4 IndO=    4 Dot= 1.00D+00 DotN= 1.00D+00 ElMax1= 9.66D-01 ElMax1N= 9.66D-01
 OrtVCM:  Ph=2 NNew=    0 IAdd=    5 IPass= 1 DotMx2= 0.00D+00
 OrtVCM:  IS=    1 I=    5 IndO=    5 Dot= 1.00D+00 DotN= 1.00D+00 ElMax1= 9.66D-01 ElMax1N= 9.66D-01
 OrtVCM:  Ph=1 IPass= 1 DotMx1= 9.66D-01
 OrtVCM:  Ph=1 IPass= 2 DotMx1= 5.36D-17
 OrtVCM:  IS=    1 I=    1 IndO=    0 Dot= 9.50D-66 DotN= 9.50D-66 ElMax1= 3.08D-33 ElMax1N= 3.08D-33
 SchOr2:  IPass= 1 Test2A= 1.00D-01 IOff=     0 NDo=     1 NNew=     0
 OrtVCM:  Ph=1 IPass= 1 DotMx1= 9.66D-01
 OrtVCM:  Ph=1 IPass= 2 DotMx1= 5.36D-17
 OrtVCM:  IS=    1 I=    1 IndO=    0 Dot= 9.50D-66 DotN= 9.50D-66 ElMax1= 3.08D-33 ElMax1N= 3.08D-33
 SchOr2:  IPass= 1 Test2A= 1.00D-01 IOff=     1 NDo=     1 NNew=     0
 OrtVCM:  Ph=1 IPass= 1 DotMx1= 9.66D-01
 OrtVCM:  Ph=1 IPass= 2 DotMx1= 5.55D-17
 OrtVCM:  IS=    1 I=    1 IndO=    6 Dot= 6.71D-02 DotN= 6.71D-02 ElMax1= 2.50D-01 ElMax1N= 2.50D-01
 SchOr2:  IPass= 1 Test2A= 1.00D-01 IOff=     2 NDo=     1 NNew=     1
 VibFq2-Diag2:  N=      1 IV=           3 MDV=  1879044470 NE2=  1879044468
 Dipole derivative wrt mode   1:  8.03518D-16  8.55060D-16 -5.04391D+00
 Vibrational polarizability contributions from mode   1       0.0000000       0.0000000       0.0624988
 Diagonal vibrational polarizability:
        0.0000000       0.0000000       0.0624988
 NorSel:  MapVib=      1
 Harmonic frequencies (cm**-1), IR intensities (KM/Mole), Raman scattering
 activities (A**4/AMU), depolarization ratios for plane and unpolarized
 incident light, reduced masses (AMU), force constants (mDyne/A),
 and normal coordinates:
                      1
                     SG
 Frequencies --   3309.7691
 Red. masses --      1.0748
 Frc consts  --      6.9370
 IR Inten    --     25.4410
  Atom  AN      X      Y      Z
     1   7    -0.00  -0.00  -0.07
     2   1    -0.00  -0.00   1.00

 -------------------
 - Thermochemistry -
 -------------------
 Temperature   298.150 Kelvin.  Pressure   1.00000 Atm.
 Atom     1 has atomic number  7 and mass  14.00307
 Atom     2 has atomic number  1 and mass   1.00783
 Molecular mass:    15.01090 amu.
 Principal axes and moments of inertia in atomic units:
                           1         2         3
     Eigenvalues --     0.00000   3.62096   3.62096
           X            0.00000  -0.00000   1.00000
           Y            0.00000   1.00000   0.00000
           Z            1.00000   0.00000   0.00000
 This molecule is a prolate symmetric top.
 Rotational symmetry number  1.
 Rotational temperature (Kelvin)     23.92012
 Rotational constant (GHZ):         498.414497
 Zero-point vibrational energy      19796.8 (Joules/Mol)
                                    4.73155 (Kcal/Mol)
 Vibrational temperatures:   4762.02
          (Kelvin)
 
 Zero-point correction=                           0.007540 (Hartree/Particle)
 Thermal correction to Energy=                    0.009901
 Thermal correction to Enthalpy=                  0.010845
 Thermal correction to Gibbs Free Energy=        -0.009704
 Sum of electronic and zero-point Energies=            -55.214562
 Sum of electronic and thermal Energies=               -55.212201
 Sum of electronic and thermal Enthalpies=             -55.211257
 Sum of electronic and thermal Free Energies=          -55.231806
 
                     E (Thermal)             CV                S
                      KCal/Mol        Cal/Mol-Kelvin    Cal/Mol-Kelvin
 Total                    6.213              4.968             43.249
 Electronic               0.000              0.000              2.183
 Translational            0.889              2.981             34.065
 Rotational               0.592              1.987              7.001
 Vibrational              4.732              0.000              0.000
                       Q            Log10(Q)             Ln(Q)
 Total Bot       0.290807D+05          4.463604         10.277829
 Total V=0       0.854784D+08          7.931857         18.263775
 Vib (Bot)       0.340211D-03         -3.468252         -7.985946
 Vib (V=0)       0.100000D+01          0.000000          0.000000
 Electronic      0.300000D+01          0.477121          1.098612
 Translational   0.228594D+07          6.359064         14.642286
 Rotational      0.124644D+02          1.095671          2.522877
 Write normal modes, IRwNMS=   765 IRotNM=-1 NVibU=     1.
 Forces in standard orientation:
 -------------------------------------------------------------------
 Center     Atomic                   Forces (Hartrees/Bohr)
 Number     Number              X              Y              Z
 -------------------------------------------------------------------
      1        7          -0.000000000    0.000000000   -0.000057472
      2        1           0.000000000   -0.000000000    0.000057472
 -------------------------------------------------------------------
 Cartesian Forces:  Max     0.000057472 RMS     0.000033181
 ***** Axes restored to original set *****
 Rotating derivatives, DoTrsp=F IDiff=-2 LEDeriv=    340 LFDPrp=       0 LDFDPr=       0.
 -------------------------------------------------------------------
 Center     Atomic                   Forces (Hartrees/Bohr)
 Number     Number              X              Y              Z
 -------------------------------------------------------------------
      1        7           0.000000000   -0.000000000    0.000057472
      2        1          -0.000000000    0.000000000   -0.000057472
 -------------------------------------------------------------------
 Cartesian Forces:  Max     0.000057472 RMS     0.000033181
 Z-matrix is all fixed cartesians, so copy forces.
 Force constants in Cartesian coordinates: 
                1             2             3             4             5 
      1  0.629421D-04
      2  0.000000D+00  0.629421D-04
      3  0.000000D+00  0.000000D+00  0.389752D+00
      4 -0.629421D-04  0.000000D+00  0.000000D+00  0.629421D-04
      5  0.000000D+00 -0.629421D-04  0.000000D+00  0.000000D+00  0.629421D-04
      6  0.000000D+00  0.000000D+00 -0.389752D+00  0.000000D+00  0.000000D+00
                6 
      6  0.389752D+00
 Final forces over variables, Energy=-5.52221018D+01:
  8.65884755D-65-8.65884755D-65-2.38835968D-32 2.38835968D-32
  5.74718800D-05-5.74718800D-05
 Leave Link  716 at Wed Feb 19 14:52:04 2020, MaxMem=  1879048192 cpu:               0.5 elap:               0.1
 (Enter /opt/g16/l103.exe)

 GradGradGradGradGradGradGradGradGradGradGradGradGradGradGradGradGradGrad
 Berny optimization.
 Search for a local minimum.
 Step number   1 out of a maximum of    2
 All quantities printed in internal units (Hartrees-Bohrs-Radians)
 Second derivative matrix not updated -- analytic derivatives used.
 The second derivative matrix:
                          X1        Y1        Z1        X2        Y2
           X1           0.00006
           Y1           0.00000   0.00006
           Z1          -0.00000  -0.00000   0.38975
           X2          -0.00006  -0.00000   0.00000   0.00006
           Y2          -0.00000  -0.00006   0.00000   0.00000   0.00006
           Z2           0.00000   0.00000  -0.38975  -0.00000  -0.00000
                          Z2
           Z2           0.38975
 ITU=  0
     Eigenvalues ---    0.64755
 Angle between quadratic step and forces=  24.30 degrees.
 ClnCor:  largest displacement from symmetrization is 0.00D+00 for atom     0.
 Linear search not attempted -- first point.
 ClnCor:  largest displacement from symmetrization is 0.00D+00 for atom     0.
 B after Tr=     0.000000    0.000000    0.000033
         Rot=    1.000000    0.000000    0.000000    0.000000 Ang=   0.00 deg.
 Variable       Old X    -DE/DX   Delta X   Delta X   Delta X     New X
                                 (Linear)    (Quad)   (Total)
    X1        0.00000   0.00000   0.00000   0.00000   0.00000   0.00000
    Y1        0.00000  -0.00000   0.00000   0.00000   0.00000   0.00000
    Z1        0.24615   0.00006   0.00000   0.00004   0.00007   0.24622
    X2        0.00000  -0.00000   0.00000   0.00000   0.00000   0.00000
    Y2        0.00000   0.00000   0.00000   0.00000   0.00000   0.00000
    Z2       -1.71636  -0.00006   0.00000  -0.00011  -0.00007  -1.71643
         Item               Value     Threshold  Converged?
 Maximum Force            0.000057     0.000450     YES
 RMS     Force            0.000033     0.000300     YES
 Maximum Displacement     0.000074     0.001800     YES
 RMS     Displacement     0.000043     0.001200     YES
 Predicted change in Energy=-4.237329D-09
 Optimization completed.
    -- Stationary point found.
 GradGradGradGradGradGradGradGradGradGradGradGradGradGradGradGradGradGrad

 Leave Link  103 at Wed Feb 19 14:52:04 2020, MaxMem=  1879048192 cpu:               0.3 elap:               0.0
 (Enter /opt/g16/l9999.exe)

 ----------------------------------------------------------------------

 Electric dipole moment (input orientation):
 (Debye = 10**-18 statcoulomb cm , SI units = C m)
                  (au)            (Debye)         (10**-30 SI)
   Tot        0.640238D+00      0.162732D+01      0.542817D+01
   x          0.000000D+00      0.000000D+00      0.000000D+00
   y          0.000000D+00      0.000000D+00      0.000000D+00
   z         -0.640238D+00     -0.162732D+01     -0.542817D+01

 Dipole polarizability, Alpha (input orientation).
 (esu units = cm**3 , SI units = C**2 m**2 J**-1)
 Alpha(0;0):
               (au)            (10**-24 esu)      (10**-40 SI)
   iso        0.750859D+01      0.111266D+01      0.123800D+01
   aniso      0.393111D+01      0.582531D+00      0.648153D+00
   xx         0.619822D+01      0.918481D+00      0.102195D+01
   yx         0.000000D+00      0.000000D+00      0.000000D+00
   yy         0.619822D+01      0.918481D+00      0.102195D+01
   zx         0.000000D+00      0.000000D+00      0.000000D+00
   zy         0.000000D+00      0.000000D+00      0.000000D+00
   zz         0.101293D+02      0.150101D+01      0.167010D+01

 ----------------------------------------------------------------------

 Dipole orientation:
     7          0.00000000         -0.00000000         -0.24615006
     1          0.00000000          0.00000000          1.71635698

 Electric dipole moment (dipole orientation):
 (Debye = 10**-18 statcoulomb cm , SI units = C m)
                  (au)            (Debye)         (10**-30 SI)
   Tot        0.640238D+00      0.162732D+01      0.542817D+01
   x          0.000000D+00      0.000000D+00      0.000000D+00
   y          0.000000D+00      0.000000D+00      0.000000D+00
   z          0.640238D+00      0.162732D+01      0.542817D+01

 Dipole polarizability, Alpha (dipole orientation).
 (esu units = cm**3 , SI units = C**2 m**2 J**-1)
 Alpha(0;0):
               (au)            (10**-24 esu)      (10**-40 SI)
   iso        0.750859D+01      0.111266D+01      0.123800D+01
   aniso      0.393111D+01      0.582531D+00      0.648153D+00
   xx         0.619822D+01      0.918481D+00      0.102195D+01
   yx         0.000000D+00      0.000000D+00      0.000000D+00
   yy         0.619822D+01      0.918481D+00      0.102195D+01
   zx         0.000000D+00      0.000000D+00      0.000000D+00
   zy         0.000000D+00      0.000000D+00      0.000000D+00
   zz         0.101293D+02      0.150101D+01      0.167010D+01

 ----------------------------------------------------------------------

 Test job not archived.
 1\1\GINC-NODE08\Freq\UwB97XD\def2TZVP\H1N1(3)\ALONGD\19-Feb-2020\0\\#P
  guess=read uwb97xd/def2tzvp freq iop(7/33=1) scf=(tight, direct) inte
 gral=(grid=ultrafine, Acc2E=12) scf=xqc iop(2/9=2000)\\name\\0,3\N,0.,
 0.,0.130257\H,0.,0.,-0.908257\\Version=ES64L-G16RevB.01\State=3-SG\HF=
 -55.2221018\S2=2.007243\S2-1=0.\S2A=2.000017\RMSD=3.533e-09\RMSF=3.318
 e-05\ZeroPoint=0.0075402\Thermal=0.0099007\Dipole=0.,0.,-0.6402383\Dip
 oleDeriv=-0.3265269,0.,0.,0.,-0.3265269,0.,0.,0.,0.1566362,0.3265269,0
 .,0.,0.,0.3265269,0.,0.,0.,-0.1566362\Polar=6.198218,0.,6.198218,0.,0.
 ,10.129331\Quadrupole=-0.1063856,-0.1063856,0.2127712,0.,0.,0.\PG=C*V 
 [C*(H1N1)]\NImag=0\\0.00006294,0.,0.00006294,0.,0.,0.38975229,-0.00006
 294,0.,0.,0.00006294,0.,-0.00006294,0.,0.,0.00006294,0.,0.,-0.38975229
 ,0.,0.,0.38975229\\0.,0.,-0.00005747,0.,0.,0.00005747\\\@


 ALMOST ALL THE CHEMICAL PROCESSES WHICH OCCUR IN NATURE,
 WHETHER IN ANIMAL OR VEGETABLE ORGANISMS,
 OR IN THE NON-LIVING SURFACE OF THE EARTH ... 
 TAKE PLACE BETWEEN SUBSTANCES IN SOLUTION

                                    -- W. OSTWALD, 1890
 Job cpu time:       0 days  0 hours  1 minutes  1.9 seconds.
 Elapsed time:       0 days  0 hours  0 minutes  7.9 seconds.
 File lengths (MBytes):  RWF=      6 Int=      0 D2E=      0 Chk=      1 Scr=      1
 Normal termination of Gaussian 16 at Wed Feb 19 14:52:04 2020.
