 Entering Gaussian System, Link 0=g16
 Initial command:
 /home/gridsan/groups/GRPAPI/Software/g16/l1.exe "/state/partition1/user/alongd/a1960-10999370/Gau-68656.inp" -scrdir="/state/partition1/user/alongd/a1960-10999370/"
 Entering Link 1 = /home/gridsan/groups/GRPAPI/Software/g16/l1.exe PID=     68658.
  
 Copyright (c) 1988-2017, Gaussian, Inc.  All Rights Reserved.
  
 This is part of the Gaussian(R) 16 program.  It is based on
 the Gaussian(R) 09 system (copyright 2009, Gaussian, Inc.),
 the Gaussian(R) 03 system (copyright 2003, Gaussian, Inc.),
 the Gaussian(R) 98 system (copyright 1998, Gaussian, Inc.),
 the Gaussian(R) 94 system (copyright 1995, Gaussian, Inc.),
 the Gaussian 92(TM) system (copyright 1992, Gaussian, Inc.),
 the Gaussian 90(TM) system (copyright 1990, Gaussian, Inc.),
 the Gaussian 88(TM) system (copyright 1988, Gaussian, Inc.),
 the Gaussian 86(TM) system (copyright 1986, Carnegie Mellon
 University), and the Gaussian 82(TM) system (copyright 1983,
 Carnegie Mellon University). Gaussian is a federally registered
 trademark of Gaussian, Inc.
  
 This software contains proprietary and confidential information,
 including trade secrets, belonging to Gaussian, Inc.
  
 This software is provided under written license and may be
 used, copied, transmitted, or stored only in accord with that
 written license.
  
 The following legend is applicable only to US Government
 contracts under FAR:
  
                    RESTRICTED RIGHTS LEGEND
  
 Use, reproduction and disclosure by the US Government is
 subject to restrictions as set forth in subparagraphs (a)
 and (c) of the Commercial Computer Software - Restricted
 Rights clause in FAR 52.227-19.
  
 Gaussian, Inc.
 340 Quinnipiac St., Bldg. 40, Wallingford CT 06492
  
  
 ---------------------------------------------------------------
 Warning -- This program may not be used in any manner that
 competes with the business of Gaussian, Inc. or will provide
 assistance to any competitor of Gaussian, Inc.  The licensee
 of this program is prohibited from giving any competitor of
 Gaussian, Inc. access to this program.  By using this program,
 the user acknowledges that Gaussian, Inc. is engaged in the
 business of creating and licensing software in the field of
 computational chemistry and represents and warrants to the
 licensee that it is not a competitor of Gaussian, Inc. and that
 it will not use this program in any manner prohibited above.
 ---------------------------------------------------------------
  

 Cite this work as:
 Gaussian 16, Revision B.01,
 M. J. Frisch, G. W. Trucks, H. B. Schlegel, G. E. Scuseria, 
 M. A. Robb, J. R. Cheeseman, G. Scalmani, V. Barone, 
 G. A. Petersson, H. Nakatsuji, X. Li, M. Caricato, A. V. Marenich, 
 J. Bloino, B. G. Janesko, R. Gomperts, B. Mennucci, H. P. Hratchian, 
 J. V. Ortiz, A. F. Izmaylov, J. L. Sonnenberg, D. Williams-Young, 
 F. Ding, F. Lipparini, F. Egidi, J. Goings, B. Peng, A. Petrone, 
 T. Henderson, D. Ranasinghe, V. G. Zakrzewski, J. Gao, N. Rega, 
 G. Zheng, W. Liang, M. Hada, M. Ehara, K. Toyota, R. Fukuda, 
 J. Hasegawa, M. Ishida, T. Nakajima, Y. Honda, O. Kitao, H. Nakai, 
 T. Vreven, K. Throssell, J. A. Montgomery, Jr., J. E. Peralta, 
 F. Ogliaro, M. J. Bearpark, J. J. Heyd, E. N. Brothers, K. N. Kudin, 
 V. N. Staroverov, T. A. Keith, R. Kobayashi, J. Normand, 
 K. Raghavachari, A. P. Rendell, J. C. Burant, S. S. Iyengar, 
 J. Tomasi, M. Cossi, J. M. Millam, M. Klene, C. Adamo, R. Cammi, 
 J. W. Ochterski, R. L. Martin, K. Morokuma, O. Farkas, 
 J. B. Foresman, and D. J. Fox, Gaussian, Inc., Wallingford CT, 2016.
 
 ******************************************
 Gaussian 16:  ES64L-G16RevB.01 20-Dec-2017
                20-Sep-2021 
 ******************************************
 %chk=check.chk
 %mem=14336mb
 %NProcShared=8
 Will use up to    8 processors via shared memory.
 ----------------------------------------------------------------------
 #P opt=(ts, calcfc, noeigentest, maxcycles=100, tight, maxstep=5) gues
 s=read cbs-qb3 scf=(tight, direct) integral=(grid=ultrafine, Acc2E=12)
  IOp(2/9=2000) scf=xqc
 ----------------------------------------------------------------------
 1/5=1,6=100,7=10,8=5,10=4,11=1,18=20,26=4,38=1/1,3;
 2/9=2000,12=2,17=6,18=5,40=1/2;
 3/5=4,6=6,7=700,11=2,25=1,27=12,30=1,71=2,74=-5,75=-5,116=-2,140=1/1,2,3;
 4/5=1/1;
 5/5=2,8=3,13=1,32=2,38=6,87=12/2,8;
 8/6=4,10=90,11=11,87=12/1;
 11/6=1,8=1,9=11,15=111,16=1,87=12/1,2,10;
 10/6=1,13=1,87=12/2;
 6/7=2,8=2,9=2,10=2,28=1,87=12/1;
 7/10=1,18=20,25=1,87=12/1,2,3,16;
 1/5=1,6=100,7=10,8=5,10=4,11=1,18=20,26=4/3(2);
 2/9=2000/2;
 99//99;
 2/9=2000/2;
 3/5=4,6=6,7=700,11=2,25=1,27=12,30=1,71=1,74=-5,75=-5/1,2,3;
 4/5=5,16=3,69=1/1;
 5/5=2,8=3,13=1,32=2,38=5,87=12/2,8;
 7/87=12/1,2,3,16;
 1/5=1,6=100,7=10,8=5,11=1,18=20,26=4/3(-5);
 2/9=2000/2;
 6/7=2,8=2,9=2,10=2,19=2,28=1,87=12/1;
 99/9=1/99;
 Leave Link    1 at Mon Sep 20 08:37:09 2021, MaxMem=  1879048192 cpu:               0.7 elap:               0.1
 (Enter /home/gridsan/groups/GRPAPI/Software/g16/l101.exe)
 ----
 TS20
 ----
 Symbolic Z-matrix:
 Charge =  0 Multiplicity = 1
 O                     1.09552  -0.19509  -1.22839 
 N                     1.40109  -0.51405  -0.02842 
 O                     2.49277  -0.92719   0.20142 
 C                    -0.01449   0.84275   0.07631 
 C                    -1.27089   0.06339   0.20469 
 H                    -0.00002   1.60629  -0.70639 
 H                     0.43113   1.20245   1.00876 
 H                    -1.19043  -0.72096   0.96701 
 H                    -2.06387   0.77021   0.50714 
 H                    -1.55761  -0.38172  -0.75569 
 
 Add virtual bond connecting atoms C4         and O1         Dist= 3.78D+00.
 Add virtual bond connecting atoms C4         and N2         Dist= 3.71D+00.
 ITRead=  0  0  0  0  0  0  0  0  0  0
 MicOpt= -1 -1 -1 -1 -1 -1 -1 -1 -1 -1
 NAtoms=     10 NQM=       10 NQMF=       0 NMMI=      0 NMMIF=      0
                NMic=       0 NMicF=      0.
                    Isotopes and Nuclear Properties:
 (Nuclear quadrupole moments (NQMom) in fm**2, nuclear magnetic moments (NMagM)
  in nuclear magnetons)

  Atom         1           2           3           4           5           6           7           8           9          10
 IAtWgt=          16          14          16          12          12           1           1           1           1           1
 AtmWgt=  15.9949146  14.0030740  15.9949146  12.0000000  12.0000000   1.0078250   1.0078250   1.0078250   1.0078250   1.0078250
 NucSpn=           0           2           0           0           0           1           1           1           1           1
 AtZEff=  -0.0000000  -0.0000000  -0.0000000  -0.0000000  -0.0000000  -0.0000000  -0.0000000  -0.0000000  -0.0000000  -0.0000000
 NQMom=    0.0000000   2.0440000   0.0000000   0.0000000   0.0000000   0.0000000   0.0000000   0.0000000   0.0000000   0.0000000
 NMagM=    0.0000000   0.4037610   0.0000000   0.0000000   0.0000000   2.7928460   2.7928460   2.7928460   2.7928460   2.7928460
 AtZNuc=   8.0000000   7.0000000   8.0000000   6.0000000   6.0000000   1.0000000   1.0000000   1.0000000   1.0000000   1.0000000
 Leave Link  101 at Mon Sep 20 08:37:09 2021, MaxMem=  1879048192 cpu:               2.5 elap:               0.3
 (Enter /home/gridsan/groups/GRPAPI/Software/g16/l103.exe)

 GradGradGradGradGradGradGradGradGradGradGradGradGradGradGradGradGradGrad
 Berny optimization.
 Initialization pass.
                           ----------------------------
                           !    Initial Parameters    !
                           ! (Angstroms and Degrees)  !
 --------------------------                            --------------------------
 ! Name  Definition              Value          Derivative Info.                !
 --------------------------------------------------------------------------------
 ! R1    R(1,2)                  1.2787         calculate D2E/DX2 analytically  !
 ! R2    R(1,4)                  2.0029         calculate D2E/DX2 analytically  !
 ! R3    R(2,3)                  1.1897         calculate D2E/DX2 analytically  !
 ! R4    R(2,4)                  1.9636         calculate D2E/DX2 analytically  !
 ! R5    R(4,5)                  1.4841         calculate D2E/DX2 analytically  !
 ! R6    R(4,6)                  1.0935         calculate D2E/DX2 analytically  !
 ! R7    R(4,7)                  1.0943         calculate D2E/DX2 analytically  !
 ! R8    R(5,8)                  1.0967         calculate D2E/DX2 analytically  !
 ! R9    R(5,9)                  1.1045         calculate D2E/DX2 analytically  !
 ! R10   R(5,10)                 1.0967         calculate D2E/DX2 analytically  !
 ! A1    A(1,2,3)              119.1583         calculate D2E/DX2 analytically  !
 ! A2    A(3,2,4)              153.0236         calculate D2E/DX2 analytically  !
 ! A3    A(1,4,5)              104.6802         calculate D2E/DX2 analytically  !
 ! A4    A(1,4,6)               83.5821         calculate D2E/DX2 analytically  !
 ! A5    A(1,4,7)              119.9821         calculate D2E/DX2 analytically  !
 ! A6    A(2,4,5)              104.6001         calculate D2E/DX2 analytically  !
 ! A7    A(2,4,6)              115.7689         calculate D2E/DX2 analytically  !
 ! A8    A(2,4,7)               88.7974         calculate D2E/DX2 analytically  !
 ! A9    A(5,4,6)              116.0906         calculate D2E/DX2 analytically  !
 ! A10   A(5,4,7)              116.3387         calculate D2E/DX2 analytically  !
 ! A11   A(6,4,7)              112.0241         calculate D2E/DX2 analytically  !
 ! A12   A(4,5,8)              111.9372         calculate D2E/DX2 analytically  !
 ! A13   A(4,5,9)              107.1843         calculate D2E/DX2 analytically  !
 ! A14   A(4,5,10)             111.0227         calculate D2E/DX2 analytically  !
 ! A15   A(8,5,9)              108.6638         calculate D2E/DX2 analytically  !
 ! A16   A(8,5,10)             109.7315         calculate D2E/DX2 analytically  !
 ! A17   A(9,5,10)             108.1701         calculate D2E/DX2 analytically  !
 ! D1    D(3,2,4,5)           -143.5608         calculate D2E/DX2 analytically  !
 ! D2    D(3,2,4,6)             87.3595         calculate D2E/DX2 analytically  !
 ! D3    D(3,2,4,7)            -26.6171         calculate D2E/DX2 analytically  !
 ! D4    D(1,4,5,8)             86.605          calculate D2E/DX2 analytically  !
 ! D5    D(1,4,5,9)           -154.3389         calculate D2E/DX2 analytically  !
 ! D6    D(1,4,5,10)           -36.3995         calculate D2E/DX2 analytically  !
 ! D7    D(2,4,5,8)             47.6971         calculate D2E/DX2 analytically  !
 ! D8    D(2,4,5,9)            166.7533         calculate D2E/DX2 analytically  !
 ! D9    D(2,4,5,10)           -75.3073         calculate D2E/DX2 analytically  !
 ! D10   D(6,4,5,8)            176.5836         calculate D2E/DX2 analytically  !
 ! D11   D(6,4,5,9)            -64.3603         calculate D2E/DX2 analytically  !
 ! D12   D(6,4,5,10)            53.5791         calculate D2E/DX2 analytically  !
 ! D13   D(7,4,5,8)            -48.3161         calculate D2E/DX2 analytically  !
 ! D14   D(7,4,5,9)             70.7401         calculate D2E/DX2 analytically  !
 ! D15   D(7,4,5,10)          -171.3205         calculate D2E/DX2 analytically  !
 --------------------------------------------------------------------------------
 Trust Radius=5.00D-02 FncErr=1.00D-07 GrdErr=1.00D-06 EigMax=2.50D+02 EigMin=1.00D-04
 Number of steps in this run=    100 maximum allowed number of steps=    100.
 Search for a saddle point of order  1.
 GradGradGradGradGradGradGradGradGradGradGradGradGradGradGradGradGradGrad

 Leave Link  103 at Mon Sep 20 08:37:09 2021, MaxMem=  1879048192 cpu:               0.1 elap:               0.0
 (Enter /home/gridsan/groups/GRPAPI/Software/g16/l202.exe)
                          Input orientation:                          
 ---------------------------------------------------------------------
 Center     Atomic      Atomic             Coordinates (Angstroms)
 Number     Number       Type             X           Y           Z
 ---------------------------------------------------------------------
      1          8           0        1.095519   -0.195092   -1.228385
      2          7           0        1.401087   -0.514050   -0.028422
      3          8           0        2.492772   -0.927193    0.201420
      4          6           0       -0.014488    0.842746    0.076312
      5          6           0       -1.270893    0.063393    0.204687
      6          1           0       -0.000018    1.606290   -0.706393
      7          1           0        0.431127    1.202452    1.008756
      8          1           0       -1.190429   -0.720964    0.967005
      9          1           0       -2.063873    0.770210    0.507136
     10          1           0       -1.557614   -0.381715   -0.755688
 ---------------------------------------------------------------------
                    Distance matrix (angstroms):
                    1          2          3          4          5
     1  O    0.000000
     2  N    1.278678   0.000000
     3  O    2.128997   1.189660   0.000000
     4  C    2.002862   1.963598   3.071594   0.000000
     5  C    2.778564   2.743585   3.891843   1.484057   0.000000
     6  H    2.172016   2.630320   3.668332   1.093543   2.196752
     7  H    2.720174   2.227766   3.072061   1.094264   2.200194
     8  H    3.212762   2.783818   3.767575   2.149735   1.096731
     9  H    3.731702   3.733911   4.872130   2.095435   1.104483
    10  H    2.701367   3.049646   4.197527   2.138403   1.096654
                    6          7          8          9         10
     6  H    0.000000
     7  H    1.814031   0.000000
     8  H    3.103780   2.516091   0.000000
     9  H    2.535977   2.581372   1.788291   0.000000
    10  H    2.526005   3.094824   1.793763   1.782682   0.000000
 Stoichiometry    C2H5NO2
 Framework group  C1[X(C2H5NO2)]
 Deg. of freedom    24
 Full point group                 C1      NOp   1
 Largest Abelian subgroup         C1      NOp   1
 Largest concise Abelian subgroup C1      NOp   1
                         Standard orientation:                         
 ---------------------------------------------------------------------
 Center     Atomic      Atomic             Coordinates (Angstroms)
 Number     Number       Type             X           Y           Z
 ---------------------------------------------------------------------
      1          8           0        0.520045    1.026544   -0.223307
      2          7           0        0.818877   -0.207900   -0.075436
      3          8           0        1.964221   -0.523711   -0.014266
      4          6           0       -0.968581    0.050866    0.695117
      5          6           0       -1.903603   -0.321292   -0.395596
      6          1           0       -1.145584    1.019535    1.170709
      7          1           0       -0.740906   -0.730110    1.427000
      8          1           0       -1.628826   -1.274421   -0.863423
      9          1           0       -2.906412   -0.425097    0.055493
     10          1           0       -1.951439    0.465285   -1.158262
 ---------------------------------------------------------------------
 Rotational constants (GHZ):          12.3921012           3.1539830           2.9225242
 Leave Link  202 at Mon Sep 20 08:37:09 2021, MaxMem=  1879048192 cpu:               0.1 elap:               0.0
 (Enter /home/gridsan/groups/GRPAPI/Software/g16/l301.exe)
 Standard basis: 6-311G(2d,d,p) (5D, 7F)
 Ernie: Thresh=  0.10000D-02 Tol=  0.10000D-05 Strict=F.
 There are   125 symmetry adapted cartesian basis functions of A   symmetry.
 There are   120 symmetry adapted basis functions of A   symmetry.
   120 basis functions,   200 primitive gaussians,   125 cartesian basis functions
    20 alpha electrons       20 beta electrons
       nuclear repulsion energy       176.7247701482 Hartrees.
 IExCor=  402 DFT=T Ex+Corr=B3LYP ExCW=0 ScaHFX=  0.200000
 ScaDFX=  0.800000  0.720000  1.000000  0.810000 ScalE2=  1.000000  1.000000
 IRadAn=      5 IRanWt=     -1 IRanGd=            0 ICorTp=0 IEmpDi=  4
 NAtoms=   10 NActive=   10 NUniq=   10 SFac= 1.00D+00 NAtFMM=   60 NAOKFM=F Big=F
 Integral buffers will be    131072 words long.
 Raffenetti 2 integral format.
 Two-electron integral symmetry is turned on.
 Leave Link  301 at Mon Sep 20 08:37:09 2021, MaxMem=  1879048192 cpu:               0.4 elap:               0.1
 (Enter /home/gridsan/groups/GRPAPI/Software/g16/l302.exe)
 NPDir=0 NMtPBC=     1 NCelOv=     1 NCel=       1 NClECP=     1 NCelD=      1
         NCelK=      1 NCelE2=     1 NClLst=     1 CellRange=     0.0.
 One-electron integrals computed using PRISM.
 One-electron integral symmetry used in STVInt
 NBasis=   120 RedAO= T EigKep=  3.01D-03  NBF=   120
 NBsUse=   120 1.00D-06 EigRej= -1.00D+00 NBFU=   120
 Precomputing XC quadrature grid using
 IXCGrd= 4 IRadAn=           5 IRanWt=          -1 IRanGd=           0 AccXCQ= 1.00D-12.
 Generated NRdTot=       0 NPtTot=           0 NUsed=           0 NTot=          32
 NSgBfM=   125   125   125   125   125 MxSgAt=    10 MxSgA2=    10.
 Leave Link  302 at Mon Sep 20 08:37:09 2021, MaxMem=  1879048192 cpu:               0.9 elap:               0.1
 (Enter /home/gridsan/groups/GRPAPI/Software/g16/l303.exe)
 DipDrv:  MaxL=1.
 Leave Link  303 at Mon Sep 20 08:37:09 2021, MaxMem=  1879048192 cpu:               0.2 elap:               0.0
 (Enter /home/gridsan/groups/GRPAPI/Software/g16/l401.exe)
 Initial guess from the checkpoint file:  "check.chk"
 B after Tr=     0.000000   -0.000000   -0.000000
         Rot=   -0.016816   -0.016158    0.473277    0.880605 Ang=-181.93 deg.
 Guess basis will be translated and rotated to current coordinates.
 JPrj=2 DoOrth=T DoCkMO=T.
 Leave Link  401 at Mon Sep 20 08:37:10 2021, MaxMem=  1879048192 cpu:               0.7 elap:               0.1
 (Enter /home/gridsan/groups/GRPAPI/Software/g16/l502.exe)
 Keep R1 ints in memory in canonical form, NReq=33970429.
 FoFCou: FMM=F IPFlag=           0 FMFlag=           0 FMFlg1=           0
         NFxFlg=           0 DoJE=F BraDBF=F KetDBF=F FulRan=T
         wScrn=  0.000000 ICntrl=       600 IOpCl=  0 I1Cent=           0 NGrid=           0
         NMat0=    1 NMatS0=   7260 NMatT0=    0 NMatD0=    1 NMtDS0=    0 NMtDT0=    0
 Symmetry not used in FoFCou.
 Two-electron integral symmetry not used.
 Closed shell SCF:
 Using DIIS extrapolation, IDIIS=  1040.
 NGot=  1879048192 LenX=  1852657101 LenY=  1852641035
 Requested convergence on RMS density matrix=1.00D-08 within  32 cycles.
 Requested convergence on MAX density matrix=1.00D-06.
 Requested convergence on             energy=1.00D-06.
 No special actions if energy rises.

 Cycle   1  Pass 1  IDiag  1:
 E= -279.804108826980    
 DIIS: error= 7.51D-02 at cycle   1 NSaved=   1.
 NSaved= 1 IEnMin= 1 EnMin= -279.804108826980     IErMin= 1 ErrMin= 7.51D-02
 ErrMax= 7.51D-02  0.00D+00 EMaxC= 1.00D-01 BMatC= 1.48D+00 BMatP= 1.48D+00
 IDIUse=3 WtCom= 2.49D-01 WtEn= 7.51D-01
 Coeff-Com:  0.100D+01
 Coeff-En:   0.100D+01
 Coeff:      0.100D+01
 Gap=     0.295 Goal=   None    Shift=    0.000
 GapD=    0.295 DampG=1.000 DampE=0.500 DampFc=0.5000 IDamp=-1.
 Damping current iteration by 5.00D-01
 RMSDP=2.14D-02 MaxDP=3.56D-01              OVMax= 9.15D-01

 Cycle   2  Pass 1  IDiag  1:
 E= -281.803058046090     Delta-E=       -1.998949219110 Rises=F Damp=T
 DIIS: error= 4.19D-02 at cycle   2 NSaved=   2.
 NSaved= 2 IEnMin= 2 EnMin= -281.803058046090     IErMin= 2 ErrMin= 4.19D-02
 ErrMax= 4.19D-02  0.00D+00 EMaxC= 1.00D-01 BMatC= 4.38D-01 BMatP= 1.48D+00
 IDIUse=3 WtCom= 5.81D-01 WtEn= 4.19D-01
 Coeff-Com: -0.269D+00 0.127D+01
 Coeff-En:   0.000D+00 0.100D+01
 Coeff:     -0.156D+00 0.116D+01
 Gap=     0.218 Goal=   None    Shift=    0.000
 RMSDP=1.38D-02 MaxDP=2.50D-01 DE=-2.00D+00 OVMax= 6.45D-01

 Cycle   3  Pass 1  IDiag  1:
 E= -282.397012362765     Delta-E=       -0.593954316675 Rises=F Damp=F
 DIIS: error= 1.11D-01 at cycle   3 NSaved=   3.
 NSaved= 3 IEnMin= 3 EnMin= -282.397012362765     IErMin= 2 ErrMin= 4.19D-02
 ErrMax= 1.11D-01  0.00D+00 EMaxC= 1.00D-01 BMatC= 2.14D+00 BMatP= 4.38D-01
 IDIUse=2 WtCom= 0.00D+00 WtEn= 1.00D+00
 Coeff-En:   0.000D+00 0.357D+00 0.643D+00
 Coeff:      0.000D+00 0.357D+00 0.643D+00
 Gap=     0.010 Goal=   None    Shift=    0.000
 RMSDP=2.23D-02 MaxDP=6.24D-01 DE=-5.94D-01 OVMax= 6.53D-01

 Cycle   4  Pass 1  IDiag  1:
 E= -279.735693020692     Delta-E=        2.661319342073 Rises=F Damp=F
 DIIS: error= 1.59D-01 at cycle   4 NSaved=   4.
 NSaved= 4 IEnMin= 3 EnMin= -282.397012362765     IErMin= 2 ErrMin= 4.19D-02
 ErrMax= 1.59D-01  0.00D+00 EMaxC= 1.00D-01 BMatC= 5.35D+00 BMatP= 4.38D-01
 IDIUse=2 WtCom= 0.00D+00 WtEn= 1.00D+00
 Coeff-En:   0.000D+00 0.000D+00 0.643D+00 0.357D+00
 Coeff:      0.000D+00 0.000D+00 0.643D+00 0.357D+00
 Gap=     0.013 Goal=   None    Shift=    0.000
 RMSDP=1.72D-02 MaxDP=4.43D-01 DE= 2.66D+00 OVMax= 5.29D-01

 Cycle   5  Pass 1  IDiag  1:
 E= -283.953148196027     Delta-E=       -4.217455175334 Rises=F Damp=F
 DIIS: error= 4.62D-02 at cycle   5 NSaved=   5.
 NSaved= 5 IEnMin= 5 EnMin= -283.953148196027     IErMin= 2 ErrMin= 4.19D-02
 ErrMax= 4.62D-02  0.00D+00 EMaxC= 1.00D-01 BMatC= 4.19D-01 BMatP= 4.38D-01
 IDIUse=3 WtCom= 5.38D-01 WtEn= 4.62D-01
 Coeff-Com: -0.281D+00 0.671D+00 0.249D+00-0.361D-02 0.365D+00
 Coeff-En:   0.000D+00 0.000D+00 0.201D+00 0.000D+00 0.799D+00
 Coeff:     -0.151D+00 0.361D+00 0.227D+00-0.194D-02 0.565D+00
 Gap=     0.168 Goal=   None    Shift=    0.000
 RMSDP=5.99D-03 MaxDP=1.06D-01 DE=-4.22D+00 OVMax= 3.33D-01

 Cycle   6  Pass 1  IDiag  1:
 E= -284.075717929753     Delta-E=       -0.122569733726 Rises=F Damp=F
 DIIS: error= 5.44D-02 at cycle   6 NSaved=   6.
 NSaved= 6 IEnMin= 6 EnMin= -284.075717929753     IErMin= 2 ErrMin= 4.19D-02
 ErrMax= 5.44D-02  0.00D+00 EMaxC= 1.00D-01 BMatC= 3.14D-01 BMatP= 4.19D-01
 IDIUse=3 WtCom= 5.38D-01 WtEn= 4.62D-01
 Coeff-Com:  0.732D-02-0.432D-02 0.458D-01-0.373D-01 0.495D+00 0.494D+00
 Coeff-En:   0.000D+00 0.000D+00 0.000D+00 0.000D+00 0.418D+00 0.582D+00
 Coeff:      0.394D-02-0.232D-02 0.246D-01-0.201D-01 0.459D+00 0.535D+00
 Gap=     0.144 Goal=   None    Shift=    0.000
 RMSDP=3.13D-03 MaxDP=7.63D-02 DE=-1.23D-01 OVMax= 2.09D-01

 Cycle   7  Pass 1  IDiag  1:
 E= -284.276078311774     Delta-E=       -0.200360382021 Rises=F Damp=F
 DIIS: error= 1.49D-02 at cycle   7 NSaved=   7.
 NSaved= 7 IEnMin= 7 EnMin= -284.276078311774     IErMin= 7 ErrMin= 1.49D-02
 ErrMax= 1.49D-02  0.00D+00 EMaxC= 1.00D-01 BMatC= 4.13D-02 BMatP= 3.14D-01
 IDIUse=3 WtCom= 8.51D-01 WtEn= 1.49D-01
 Coeff-Com: -0.909D-02 0.166D-01-0.380D-01 0.293D-02 0.144D+00 0.268D+00
 Coeff-Com:  0.615D+00
 Coeff-En:   0.000D+00 0.000D+00 0.000D+00 0.000D+00 0.000D+00 0.821D-01
 Coeff-En:   0.918D+00
 Coeff:     -0.774D-02 0.141D-01-0.324D-01 0.249D-02 0.123D+00 0.241D+00
 Coeff:      0.660D+00
 Gap=     0.146 Goal=   None    Shift=    0.000
 RMSDP=1.39D-03 MaxDP=2.37D-02 DE=-2.00D-01 OVMax= 8.42D-02

 Cycle   8  Pass 1  IDiag  1:
 E= -284.303065182084     Delta-E=       -0.026986870311 Rises=F Damp=F
 DIIS: error= 5.31D-03 at cycle   8 NSaved=   8.
 NSaved= 8 IEnMin= 8 EnMin= -284.303065182084     IErMin= 8 ErrMin= 5.31D-03
 ErrMax= 5.31D-03  0.00D+00 EMaxC= 1.00D-01 BMatC= 4.45D-03 BMatP= 4.13D-02
 IDIUse=3 WtCom= 9.47D-01 WtEn= 5.31D-02
 Coeff-Com:  0.230D-02-0.579D-02-0.902D-02 0.152D-02 0.120D-01 0.362D-01
 Coeff-Com:  0.306D+00 0.657D+00
 Coeff-En:   0.000D+00 0.000D+00 0.000D+00 0.000D+00 0.000D+00 0.000D+00
 Coeff-En:   0.160D+00 0.840D+00
 Coeff:      0.218D-02-0.548D-02-0.854D-02 0.144D-02 0.113D-01 0.343D-01
 Coeff:      0.298D+00 0.667D+00
 Gap=     0.151 Goal=   None    Shift=    0.000
 RMSDP=4.51D-04 MaxDP=7.75D-03 DE=-2.70D-02 OVMax= 3.06D-02

 Cycle   9  Pass 1  IDiag  1:
 E= -284.306020687108     Delta-E=       -0.002955505024 Rises=F Damp=F
 DIIS: error= 1.58D-03 at cycle   9 NSaved=   9.
 NSaved= 9 IEnMin= 9 EnMin= -284.306020687108     IErMin= 9 ErrMin= 1.58D-03
 ErrMax= 1.58D-03  0.00D+00 EMaxC= 1.00D-01 BMatC= 4.69D-04 BMatP= 4.45D-03
 IDIUse=3 WtCom= 9.84D-01 WtEn= 1.58D-02
 Coeff-Com:  0.105D-02-0.205D-02-0.163D-02-0.198D-03-0.109D-02-0.214D-02
 Coeff-Com:  0.124D+00 0.455D+00 0.427D+00
 Coeff-En:   0.000D+00 0.000D+00 0.000D+00 0.000D+00 0.000D+00 0.000D+00
 Coeff-En:   0.000D+00 0.124D+00 0.876D+00
 Coeff:      0.103D-02-0.202D-02-0.161D-02-0.195D-03-0.107D-02-0.211D-02
 Coeff:      0.122D+00 0.449D+00 0.435D+00
 Gap=     0.147 Goal=   None    Shift=    0.000
 RMSDP=1.25D-04 MaxDP=2.19D-03 DE=-2.96D-03 OVMax= 7.70D-03

 Cycle  10  Pass 1  IDiag  1:
 E= -284.306423977873     Delta-E=       -0.000403290765 Rises=F Damp=F
 DIIS: error= 1.37D-04 at cycle  10 NSaved=  10.
 NSaved=10 IEnMin=10 EnMin= -284.306423977873     IErMin=10 ErrMin= 1.37D-04
 ErrMax= 1.37D-04  0.00D+00 EMaxC= 1.00D-01 BMatC= 2.40D-06 BMatP= 4.69D-04
 IDIUse=3 WtCom= 9.99D-01 WtEn= 1.37D-03
 Coeff-Com: -0.140D-03 0.246D-03-0.171D-04-0.193D-03-0.159D-02-0.209D-02
 Coeff-Com:  0.231D-01 0.101D+00 0.118D+00 0.762D+00
 Coeff-En:   0.000D+00 0.000D+00 0.000D+00 0.000D+00 0.000D+00 0.000D+00
 Coeff-En:   0.000D+00 0.000D+00 0.000D+00 0.100D+01
 Coeff:     -0.139D-03 0.246D-03-0.171D-04-0.193D-03-0.159D-02-0.209D-02
 Coeff:      0.230D-01 0.101D+00 0.118D+00 0.762D+00
 Gap=     0.147 Goal=   None    Shift=    0.000
 RMSDP=1.39D-05 MaxDP=2.48D-04 DE=-4.03D-04 OVMax= 4.95D-04

 Cycle  11  Pass 1  IDiag  1:
 E= -284.306425660397     Delta-E=       -0.000001682524 Rises=F Damp=F
 DIIS: error= 6.73D-05 at cycle  11 NSaved=  11.
 NSaved=11 IEnMin=11 EnMin= -284.306425660397     IErMin=11 ErrMin= 6.73D-05
 ErrMax= 6.73D-05  0.00D+00 EMaxC= 1.00D-01 BMatC= 4.99D-07 BMatP= 2.40D-06
 IDIUse=1 WtCom= 1.00D+00 WtEn= 0.00D+00
 Coeff-Com: -0.122D-03 0.228D-03 0.992D-04-0.242D-04-0.828D-03-0.348D-03
 Coeff-Com:  0.639D-03 0.334D-02 0.868D-02 0.299D+00 0.689D+00
 Coeff:     -0.122D-03 0.228D-03 0.992D-04-0.242D-04-0.828D-03-0.348D-03
 Coeff:      0.639D-03 0.334D-02 0.868D-02 0.299D+00 0.689D+00
 Gap=     0.147 Goal=   None    Shift=    0.000
 RMSDP=4.61D-06 MaxDP=1.35D-04 DE=-1.68D-06 OVMax= 1.87D-04

 Cycle  12  Pass 1  IDiag  1:
 E= -284.306426094787     Delta-E=       -0.000000434390 Rises=F Damp=F
 DIIS: error= 2.16D-05 at cycle  12 NSaved=  12.
 NSaved=12 IEnMin=12 EnMin= -284.306426094787     IErMin=12 ErrMin= 2.16D-05
 ErrMax= 2.16D-05  0.00D+00 EMaxC= 1.00D-01 BMatC= 4.61D-08 BMatP= 4.99D-07
 IDIUse=1 WtCom= 1.00D+00 WtEn= 0.00D+00
 Coeff-Com:  0.134D-05-0.383D-05 0.330D-04 0.120D-04-0.238D-03 0.168D-03
 Coeff-Com: -0.156D-02-0.772D-02-0.852D-02 0.476D-01 0.282D+00 0.688D+00
 Coeff:      0.134D-05-0.383D-05 0.330D-04 0.120D-04-0.238D-03 0.168D-03
 Coeff:     -0.156D-02-0.772D-02-0.852D-02 0.476D-01 0.282D+00 0.688D+00
 Gap=     0.147 Goal=   None    Shift=    0.000
 RMSDP=1.43D-06 MaxDP=4.30D-05 DE=-4.34D-07 OVMax= 6.74D-05

 Cycle  13  Pass 1  IDiag  1:
 E= -284.306426140506     Delta-E=       -0.000000045719 Rises=F Damp=F
 DIIS: error= 2.46D-06 at cycle  13 NSaved=  13.
 NSaved=13 IEnMin=13 EnMin= -284.306426140506     IErMin=13 ErrMin= 2.46D-06
 ErrMax= 2.46D-06  0.00D+00 EMaxC= 1.00D-01 BMatC= 1.23D-09 BMatP= 4.61D-08
 IDIUse=1 WtCom= 1.00D+00 WtEn= 0.00D+00
 Coeff-Com:  0.588D-06-0.153D-05 0.301D-05 0.188D-05-0.184D-04 0.615D-04
 Coeff-Com: -0.265D-03-0.163D-02-0.270D-02-0.882D-02 0.110D-01 0.132D+00
 Coeff-Com:  0.870D+00
 Coeff:      0.588D-06-0.153D-05 0.301D-05 0.188D-05-0.184D-04 0.615D-04
 Coeff:     -0.265D-03-0.163D-02-0.270D-02-0.882D-02 0.110D-01 0.132D+00
 Coeff:      0.870D+00
 Gap=     0.147 Goal=   None    Shift=    0.000
 RMSDP=3.40D-07 MaxDP=5.21D-06 DE=-4.57D-08 OVMax= 2.43D-05

 Cycle  14  Pass 1  IDiag  1:
 E= -284.306426141899     Delta-E=       -0.000000001392 Rises=F Damp=F
 DIIS: error= 7.92D-07 at cycle  14 NSaved=  14.
 NSaved=14 IEnMin=14 EnMin= -284.306426141899     IErMin=14 ErrMin= 7.92D-07
 ErrMax= 7.92D-07  0.00D+00 EMaxC= 1.00D-01 BMatC= 7.87D-11 BMatP= 1.23D-09
 IDIUse=1 WtCom= 1.00D+00 WtEn= 0.00D+00
 Coeff-Com:  0.658D-06-0.129D-05-0.629D-06-0.115D-06 0.943D-05-0.233D-05
 Coeff-Com:  0.394D-05 0.111D-03-0.175D-03-0.359D-02-0.121D-01-0.113D-01
 Coeff-Com:  0.133D+00 0.894D+00
 Coeff:      0.658D-06-0.129D-05-0.629D-06-0.115D-06 0.943D-05-0.233D-05
 Coeff:      0.394D-05 0.111D-03-0.175D-03-0.359D-02-0.121D-01-0.113D-01
 Coeff:      0.133D+00 0.894D+00
 Gap=     0.147 Goal=   None    Shift=    0.000
 RMSDP=9.19D-08 MaxDP=2.00D-06 DE=-1.39D-09 OVMax= 5.15D-06

 Cycle  15  Pass 1  IDiag  1:
 E= -284.306426141978     Delta-E=       -0.000000000079 Rises=F Damp=F
 DIIS: error= 1.04D-07 at cycle  15 NSaved=  15.
 NSaved=15 IEnMin=15 EnMin= -284.306426141978     IErMin=15 ErrMin= 1.04D-07
 ErrMax= 1.04D-07  0.00D+00 EMaxC= 1.00D-01 BMatC= 1.85D-12 BMatP= 7.87D-11
 IDIUse=1 WtCom= 1.00D+00 WtEn= 0.00D+00
 Coeff-Com:  0.196D-06-0.361D-06-0.193D-06-0.757D-07 0.237D-05-0.299D-05
 Coeff-Com:  0.105D-04 0.689D-04 0.690D-04-0.271D-04-0.144D-02-0.529D-02
 Coeff-Com: -0.950D-02 0.985D-01 0.918D+00
 Coeff:      0.196D-06-0.361D-06-0.193D-06-0.757D-07 0.237D-05-0.299D-05
 Coeff:      0.105D-04 0.689D-04 0.690D-04-0.271D-04-0.144D-02-0.529D-02
 Coeff:     -0.950D-02 0.985D-01 0.918D+00
 Gap=     0.147 Goal=   None    Shift=    0.000
 RMSDP=1.27D-08 MaxDP=1.67D-07 DE=-7.91D-11 OVMax= 9.54D-07

 Cycle  16  Pass 1  IDiag  1:
 E= -284.306426141979     Delta-E=       -0.000000000001 Rises=F Damp=F
 DIIS: error= 3.33D-08 at cycle  16 NSaved=  16.
 NSaved=16 IEnMin=16 EnMin= -284.306426141979     IErMin=16 ErrMin= 3.33D-08
 ErrMax= 3.33D-08  0.00D+00 EMaxC= 1.00D-01 BMatC= 2.13D-13 BMatP= 1.85D-12
 IDIUse=1 WtCom= 1.00D+00 WtEn= 0.00D+00
 Coeff-Com: -0.171D-07 0.402D-07-0.219D-07-0.215D-07 0.207D-06-0.462D-06
 Coeff-Com:  0.217D-05 0.421D-05 0.197D-04 0.108D-03 0.204D-03-0.605D-03
 Coeff-Com: -0.652D-02-0.158D-01 0.154D+00 0.869D+00
 Coeff:     -0.171D-07 0.402D-07-0.219D-07-0.215D-07 0.207D-06-0.462D-06
 Coeff:      0.217D-05 0.421D-05 0.197D-04 0.108D-03 0.204D-03-0.605D-03
 Coeff:     -0.652D-02-0.158D-01 0.154D+00 0.869D+00
 Gap=     0.147 Goal=   None    Shift=    0.000
 RMSDP=3.24D-09 MaxDP=3.58D-08 DE=-1.31D-12 OVMax= 1.90D-07

 SCF Done:  E(RB3LYP) =  -284.306426142     A.U. after   16 cycles
            NFock= 16  Conv=0.32D-08     -V/T= 2.0027
 KE= 2.835294734593D+02 PE=-1.020889399911D+03 EE= 2.763287301611D+02
 Leave Link  502 at Mon Sep 20 08:37:13 2021, MaxMem=  1879048192 cpu:              27.0 elap:               3.8
 (Enter /home/gridsan/groups/GRPAPI/Software/g16/l508.exe)
 QCSCF skips out because SCF is already converged.
 Leave Link  508 at Mon Sep 20 08:37:13 2021, MaxMem=  1879048192 cpu:               0.0 elap:               0.0
 (Enter /home/gridsan/groups/GRPAPI/Software/g16/l801.exe)
 DoSCS=F DFT=T ScalE2(SS,OS)=  1.000000  1.000000
 Range of M.O.s used for correlation:     1   120
 NBasis=   120 NAE=    20 NBE=    20 NFC=     0 NFV=     0
 NROrb=    120 NOA=    20 NOB=    20 NVA=   100 NVB=   100
 Leave Link  801 at Mon Sep 20 08:37:13 2021, MaxMem=  1879048192 cpu:               0.1 elap:               0.0
 (Enter /home/gridsan/groups/GRPAPI/Software/g16/l1101.exe)
 Using compressed storage, NAtomX=    10.
 Will process     11 centers per pass.
 Leave Link 1101 at Mon Sep 20 08:37:14 2021, MaxMem=  1879048192 cpu:               1.4 elap:               0.2
 (Enter /home/gridsan/groups/GRPAPI/Software/g16/l1102.exe)
 Symmetrizing basis deriv contribution to polar:
 IMax=3 JMax=2 DiffMx= 0.00D+00
 Leave Link 1102 at Mon Sep 20 08:37:14 2021, MaxMem=  1879048192 cpu:               0.2 elap:               0.0
 (Enter /home/gridsan/groups/GRPAPI/Software/g16/l1110.exe)
 Forming Gx(P) for the SCF density, NAtomX=    10.
 Integral derivatives from FoFJK, PRISM(SPDF).
 Do as many integral derivatives as possible in FoFJK.
 G2DrvN: MDV=    1879047236.
 G2DrvN: will do    11 centers at a time, making    1 passes.
 Calling FoFCou, ICntrl=  3107 FMM=F I1Cent=   0 AccDes= 1.00D-12.
 FoFJK:  IHMeth= 1 ICntrl=    3107 DoSepK=F KAlg= 0 I1Cent=           0 FoldK=F
 IRaf=         0 NMat=       1 IRICut=       1 DoRegI=T DoRafI=F ISym2E= 0 IDoP0=0 IntGTp=1.
 FoFCou: FMM=F IPFlag=           0 FMFlag=      100000 FMFlg1=           0
         NFxFlg=           0 DoJE=F BraDBF=F KetDBF=F FulRan=T
         wScrn=  0.000000 ICntrl=      3107 IOpCl=  0 I1Cent=           0 NGrid=           0
         NMat0=    1 NMatS0=      1 NMatT0=    0 NMatD0=    1 NMtDS0=    0 NMtDT0=    0
 Symmetry not used in FoFCou.
 End of G2Drv F.D. properties file   721 does not exist.
 End of G2Drv F.D. properties file   722 does not exist.
 End of G2Drv F.D. properties file   788 does not exist.
 Leave Link 1110 at Mon Sep 20 08:37:18 2021, MaxMem=  1879048192 cpu:              33.5 elap:               4.2
 (Enter /home/gridsan/groups/GRPAPI/Software/g16/l1002.exe)
 Minotr:  Closed shell wavefunction.
          IDoAtm=1111111111
          Direct CPHF calculation.
          Differentiating once with respect to nuclear coordinates.
          Requested convergence is 1.0D-08 RMS, and 1.0D-07 maximum.
          Secondary convergence is 1.0D-12 RMS, and 1.0D-12 maximum.
          NewPWx=T KeepS1=F KeepF1=F KeepIn=T MapXYZ=F SortEE=F KeepMc=T.
         2981 words used for storage of precomputed grid.
 Keep R1 ints in memory in canonical form, NReq=33952196.
 FoFCou: FMM=F IPFlag=           0 FMFlag=           0 FMFlg1=           0
         NFxFlg=           0 DoJE=F BraDBF=F KetDBF=F FulRan=T
         wScrn=  0.000000 ICntrl=       600 IOpCl=  0 I1Cent=           0 NGrid=           0
         NMat0=    1 NMatS0=   7260 NMatT0=    0 NMatD0=    1 NMtDS0=    0 NMtDT0=    0
 Symmetry not used in FoFCou.
 Two-electron integral symmetry not used.
          MDV=    1879048192 using IRadAn=       1.
          Solving linear equations simultaneously, MaxMat=       0.
          There are    33 degrees of freedom in the 1st order CPHF.  IDoFFX=6 NUNeed=     0.
     27 vectors produced by pass  0 Test12= 6.06D-15 3.03D-09 XBig12= 1.70D-01 2.35D-01.
 AX will form    27 AO Fock derivatives at one time.
     27 vectors produced by pass  1 Test12= 6.06D-15 3.03D-09 XBig12= 3.07D-02 1.01D-01.
     27 vectors produced by pass  2 Test12= 6.06D-15 3.03D-09 XBig12= 7.31D-04 6.40D-03.
     27 vectors produced by pass  3 Test12= 6.06D-15 3.03D-09 XBig12= 1.03D-05 5.59D-04.
     27 vectors produced by pass  4 Test12= 6.06D-15 3.03D-09 XBig12= 4.35D-08 3.57D-05.
     21 vectors produced by pass  5 Test12= 6.06D-15 3.03D-09 XBig12= 4.13D-11 9.25D-07.
      6 vectors produced by pass  6 Test12= 6.06D-15 3.03D-09 XBig12= 3.37D-14 3.77D-08.
 InvSVY:  IOpt=1 It=  1 EMax= 1.78D-15
 Solved reduced A of dimension   162 with    27 vectors.
 End of Minotr F.D. properties file   721 does not exist.
 End of Minotr F.D. properties file   722 does not exist.
 End of Minotr F.D. properties file   788 does not exist.
 Leave Link 1002 at Mon Sep 20 08:37:22 2021, MaxMem=  1879048192 cpu:              33.8 elap:               4.3
 (Enter /home/gridsan/groups/GRPAPI/Software/g16/l601.exe)
 Copying SCF densities to generalized density rwf, IOpCl= 0 IROHF=0.

 **********************************************************************

            Population analysis using the SCF Density.

 **********************************************************************

 Orbital symmetries:
       Occupied  (A) (A) (A) (A) (A) (A) (A) (A) (A) (A) (A) (A)
                 (A) (A) (A) (A) (A) (A) (A) (A)
       Virtual   (A) (A) (A) (A) (A) (A) (A) (A) (A) (A) (A) (A)
                 (A) (A) (A) (A) (A) (A) (A) (A) (A) (A) (A) (A)
                 (A) (A) (A) (A) (A) (A) (A) (A) (A) (A) (A) (A)
                 (A) (A) (A) (A) (A) (A) (A) (A) (A) (A) (A) (A)
                 (A) (A) (A) (A) (A) (A) (A) (A) (A) (A) (A) (A)
                 (A) (A) (A) (A) (A) (A) (A) (A) (A) (A) (A) (A)
                 (A) (A) (A) (A) (A) (A) (A) (A) (A) (A) (A) (A)
                 (A) (A) (A) (A) (A) (A) (A) (A) (A) (A) (A) (A)
                 (A) (A) (A) (A)
 The electronic state is 1-A.
 Alpha  occ. eigenvalues --  -19.14875 -19.14039 -14.47235 -10.28344 -10.20244
 Alpha  occ. eigenvalues --   -1.20521  -1.03078  -0.80899  -0.66008  -0.61843
 Alpha  occ. eigenvalues --   -0.51259  -0.50243  -0.49601  -0.48819  -0.43939
 Alpha  occ. eigenvalues --   -0.43037  -0.39954  -0.31116  -0.29347  -0.23427
 Alpha virt. eigenvalues --   -0.08736  -0.03353   0.03406   0.06405   0.06963
 Alpha virt. eigenvalues --    0.09422   0.12426   0.18775   0.25579   0.27311
 Alpha virt. eigenvalues --    0.27961   0.30251   0.31828   0.40027   0.40944
 Alpha virt. eigenvalues --    0.49381   0.51500   0.54020   0.54265   0.56190
 Alpha virt. eigenvalues --    0.57430   0.62527   0.64172   0.66407   0.71365
 Alpha virt. eigenvalues --    0.77331   0.79127   0.79623   0.83692   0.85243
 Alpha virt. eigenvalues --    0.88966   0.95729   0.99877   1.04427   1.17379
 Alpha virt. eigenvalues --    1.19763   1.31185   1.38855   1.41112   1.41795
 Alpha virt. eigenvalues --    1.45126   1.46269   1.49264   1.51806   1.54300
 Alpha virt. eigenvalues --    1.64032   1.66828   1.71447   1.74562   1.79817
 Alpha virt. eigenvalues --    1.84131   1.88557   1.91358   1.98255   2.02423
 Alpha virt. eigenvalues --    2.06907   2.17249   2.24393   2.28977   2.29464
 Alpha virt. eigenvalues --    2.39389   2.40274   2.42521   2.45193   2.47306
 Alpha virt. eigenvalues --    2.53851   2.56890   2.64604   2.66437   2.70736
 Alpha virt. eigenvalues --    2.80150   2.81362   2.84200   2.87919   3.05171
 Alpha virt. eigenvalues --    3.06976   3.14613   3.18450   3.29725   3.37032
 Alpha virt. eigenvalues --    3.55604   3.66581   3.71941   3.74595   3.77569
 Alpha virt. eigenvalues --    3.78951   4.04694   4.11035   4.40108   4.83573
 Alpha virt. eigenvalues --    4.86165   4.86551   4.95864   5.40646   6.00124
 Alpha virt. eigenvalues --   23.75035  23.88557  35.33457  49.81275  49.91726
          Condensed to atoms (all electrons):
               1          2          3          4          5          6
     1  O    8.396981   0.026666  -0.097996   0.010048  -0.015467  -0.043274
     2  N    0.026666   6.551770   0.235864   0.108747  -0.036439   0.014312
     3  O   -0.097996   0.235864   8.111441  -0.013522   0.001003  -0.001927
     4  C    0.010048   0.108747  -0.013522   4.964687   0.334648   0.386099
     5  C   -0.015467  -0.036439   0.001003   0.334648   4.852660  -0.024258
     6  H   -0.043274   0.014312  -0.001927   0.386099  -0.024258   0.554323
     7  H    0.009925  -0.044673   0.007114   0.381649  -0.025582  -0.047528
     8  H   -0.005683   0.011168  -0.001118  -0.030784   0.400906   0.008393
     9  H    0.000744   0.002893  -0.000059  -0.033045   0.377133  -0.000692
    10  H    0.012354  -0.006156   0.000319  -0.029693   0.399988  -0.010463
               7          8          9         10
     1  O    0.009925  -0.005683   0.000744   0.012354
     2  N   -0.044673   0.011168   0.002893  -0.006156
     3  O    0.007114  -0.001118  -0.000059   0.000319
     4  C    0.381649  -0.030784  -0.033045  -0.029693
     5  C   -0.025582   0.400906   0.377133   0.399988
     6  H   -0.047528   0.008393  -0.000692  -0.010463
     7  H    0.561483  -0.011095  -0.001707   0.007795
     8  H   -0.011095   0.539733  -0.022297  -0.028802
     9  H   -0.001707  -0.022297   0.569439  -0.019724
    10  H    0.007795  -0.028802  -0.019724   0.525910
 Mulliken charges:
               1
     1  O   -0.294298
     2  N    0.135849
     3  O   -0.241120
     4  C   -0.078834
     5  C   -0.264593
     6  H    0.165015
     7  H    0.162617
     8  H    0.139579
     9  H    0.127314
    10  H    0.148471
 Sum of Mulliken charges =  -0.00000
 Mulliken charges with hydrogens summed into heavy atoms:
               1
     1  O   -0.294298
     2  N    0.135849
     3  O   -0.241120
     4  C    0.248798
     5  C    0.150771
 APT charges:
               1
     1  O   -0.117188
     2  N   -0.340883
     3  O    0.154705
     4  C   -0.580584
     5  C   -1.014670
     6  H    0.397446
     7  H    0.355600
     8  H    0.297239
     9  H    0.521707
    10  H    0.326629
 Sum of APT charges =  -0.00000
 APT charges with hydrogens summed into heavy atoms:
               1
     1  O   -0.117188
     2  N   -0.340883
     3  O    0.154705
     4  C    0.172461
     5  C    0.130905
 Electronic spatial extent (au):  <R**2>=            448.1216
 Charge=              0.0000 electrons
 Dipole moment (field-independent basis, Debye):
    X=             -4.3295    Y=             -0.7732    Z=              1.1612  Tot=              4.5487
 Quadrupole moment (field-independent basis, Debye-Ang):
   XX=            -30.9338   YY=            -31.4030   ZZ=            -27.4439
   XY=              0.4253   XZ=             -0.6074   YZ=              0.6035
 Traceless Quadrupole moment (field-independent basis, Debye-Ang):
   XX=             -1.0069   YY=             -1.4761   ZZ=              2.4830
   XY=              0.4253   XZ=             -0.6074   YZ=              0.6035
 Octapole moment (field-independent basis, Debye-Ang**2):
  XXX=             -7.0311  YYY=             -0.5147  ZZZ=              0.4253  XYY=             -0.5381
  XXY=              2.6208  XXZ=              0.3027  XZZ=              2.3815  YZZ=              0.1855
  YYZ=              0.8424  XYZ=              0.0984
 Hexadecapole moment (field-independent basis, Debye-Ang**3):
 XXXX=           -398.0666 YYYY=            -90.8372 ZZZZ=            -68.8230 XXXY=              4.2509
 XXXZ=             -3.7130 YYYX=             -3.8231 YYYZ=              1.3191 ZZZX=             -1.5531
 ZZZY=             -1.7916 XXYY=            -83.1250 XXZZ=            -74.5336 YYZZ=            -24.2847
 XXYZ=             -0.1005 YYXZ=             -0.2362 ZZXY=             -1.8425
 N-N= 1.767247701482D+02 E-N=-1.020889398803D+03  KE= 2.835294734593D+02
  Exact polarizability:   0.000   0.000   0.000   0.000   0.000   0.000
 Approx polarizability: 104.365 -18.538  66.871 -10.327  -3.062  44.511
 No NMR shielding tensors so no spin-rotation constants.
 Leave Link  601 at Mon Sep 20 08:37:22 2021, MaxMem=  1879048192 cpu:               0.6 elap:               0.1
 (Enter /home/gridsan/groups/GRPAPI/Software/g16/l701.exe)
 ... and contract with generalized density number  0.
 Compute integral second derivatives.
 Leave Link  701 at Mon Sep 20 08:37:23 2021, MaxMem=  1879048192 cpu:               1.7 elap:               0.2
 (Enter /home/gridsan/groups/GRPAPI/Software/g16/l702.exe)
 L702 exits ... SP integral derivatives will be done elsewhere.
 Leave Link  702 at Mon Sep 20 08:37:23 2021, MaxMem=  1879048192 cpu:               0.1 elap:               0.0
 (Enter /home/gridsan/groups/GRPAPI/Software/g16/l703.exe)
 Integral derivatives from FoFJK, PRISM(SPDF).
 Compute integral second derivatives, UseDBF=F ICtDFT=           0.
 Calling FoFJK, ICntrl=    100147 FMM=F ISym2X=0 I1Cent= 0 IOpClX= 0 NMat=1 NMatS=1 NMatT=0.
 FoFJK:  IHMeth= 1 ICntrl=  100147 DoSepK=F KAlg= 0 I1Cent=           0 FoldK=F
 IRaf=         0 NMat=       1 IRICut=       1 DoRegI=T DoRafI=F ISym2E= 0 IDoP0=0 IntGTp=1.
 FoFCou: FMM=F IPFlag=           0 FMFlag=      100000 FMFlg1=         800
         NFxFlg=           0 DoJE=F BraDBF=F KetDBF=F FulRan=T
         wScrn=  0.000000 ICntrl=    100147 IOpCl=  0 I1Cent=           0 NGrid=           0
         NMat0=    1 NMatS0=      1 NMatT0=    0 NMatD0=    1 NMtDS0=    0 NMtDT0=    0
 Symmetry not used in FoFCou.
 Leave Link  703 at Mon Sep 20 08:37:33 2021, MaxMem=  1879048192 cpu:              81.8 elap:              10.3
 (Enter /home/gridsan/groups/GRPAPI/Software/g16/l716.exe)
 Dipole        =-1.70335382D+00-3.04209438D-01 4.56838569D-01
 Polarizability= 0.00000000D+00 0.00000000D+00 0.00000000D+00
                 0.00000000D+00 0.00000000D+00 0.00000000D+00
 ***** Axes restored to original set *****
 -------------------------------------------------------------------
 Center     Atomic                   Forces (Hartrees/Bohr)
 Number     Number              X              Y              Z
 -------------------------------------------------------------------
      1        8          -0.000896636    0.001694801   -0.018353671
      2        7          -0.007639710   -0.000839496    0.012382903
      3        8           0.014669518   -0.005817858    0.002710375
      4        6          -0.003619509    0.012229210    0.004288064
      5        6          -0.003482030   -0.003641507    0.000018517
      6        1           0.000611713   -0.004397402    0.003921566
      7        1          -0.001796110   -0.002102877   -0.005145276
      8        1          -0.000701696    0.003334012   -0.003360298
      9        1           0.001899231   -0.002348723   -0.000830257
     10        1           0.000955228    0.001889840    0.004368078
 -------------------------------------------------------------------
 Cartesian Forces:  Max     0.018353671 RMS     0.006167777
 Force constants in Cartesian coordinates: 
                1             2             3             4             5 
      1  0.955018D-01
      2 -0.302117D-01 -0.723938D-02
      3  0.860593D-01 -0.106678D+00  0.470090D+00
      4 -0.573998D-01 -0.417244D-02 -0.173005D-01  0.734403D+00
      5 -0.178669D-01  0.577068D-01  0.806414D-01 -0.232446D+00  0.572140D-01
      6  0.580696D-01 -0.207488D-01 -0.464188D+00 -0.102477D-01  0.319151D-01
      7 -0.202283D-01  0.155374D-01 -0.880270D-01 -0.650568D+00  0.241500D+00
      8  0.313908D-01 -0.204789D-01  0.363844D-01  0.227471D+00 -0.845109D-01
      9 -0.111840D+00  0.621146D-01  0.453101D-02 -0.239613D-01 -0.540206D-02
     10 -0.569755D-02  0.116943D-01  0.952450D-02 -0.201447D-01 -0.171006D-01
     11  0.197592D-02 -0.220135D-01  0.594705D-03 -0.255766D-02 -0.171787D-01
     12 -0.453521D-01  0.780614D-01 -0.136310D-01  0.496356D-01 -0.103274D+00
     13 -0.898357D-02  0.251329D-03  0.386742D-02 -0.119966D-01  0.646061D-03
     14  0.564932D-02  0.175781D-02 -0.364134D-02  0.836583D-02  0.149402D-03
     15  0.394669D-02 -0.179466D-02 -0.292156D-02  0.469038D-02  0.115581D-02
     16 -0.123385D-01  0.224463D-01  0.327291D-02  0.994049D-02 -0.863570D-02
     17  0.135326D-01 -0.203734D-01 -0.589537D-02 -0.518302D-02  0.882223D-02
     18  0.770269D-02 -0.162761D-01  0.244638D-02 -0.391276D-02  0.375941D-02
     19  0.721944D-02 -0.137568D-01  0.142854D-02 -0.439695D-02  0.348358D-01
     20 -0.367935D-02  0.985407D-02 -0.148881D-02  0.734076D-02 -0.263452D-01
     21 -0.226839D-02  0.406107D-02  0.117465D-02  0.484225D-02 -0.780653D-02
     22  0.994444D-03 -0.947118D-03 -0.128653D-02  0.312811D-03  0.101326D-02
     23 -0.521103D-03  0.104859D-02 -0.919374D-03  0.163995D-02  0.938472D-03
     24 -0.263081D-03  0.716637D-03  0.661537D-03 -0.269644D-03 -0.159367D-02
     25  0.737931D-04 -0.108813D-02  0.822322D-03 -0.603928D-03 -0.198270D-02
     26 -0.133842D-02  0.253217D-03  0.825422D-03 -0.728723D-03  0.164974D-02
     27  0.223425D-02  0.331269D-03  0.115281D-02 -0.252013D-02  0.214657D-04
     28  0.858102D-03  0.246877D-03  0.163896D-02  0.453450D-03  0.363419D-04
     29  0.106876D-02 -0.515442D-03  0.176915D-03  0.270529D-03  0.155417D-02
     30  0.171064D-02  0.212583D-03  0.684395D-03 -0.956131D-03  0.582773D-03
                6             7             8             9            10 
      6  0.419949D+00
      7 -0.746255D-01  0.674081D+00
      8  0.291384D-01 -0.260504D+00  0.998523D-01
      9 -0.764517D-01  0.150535D+00 -0.721194D-01  0.110627D+00
     10  0.215436D-01  0.147576D-01  0.134677D-04 -0.143695D-01  0.355872D+00
     11 -0.374712D-01 -0.539032D-02  0.784221D-02  0.177086D-01  0.163821D+00
     12  0.123549D+00  0.530727D-02  0.865380D-02 -0.412477D-01  0.817228D-01
     13  0.190462D-02 -0.607371D-02  0.331372D-02 -0.153223D-03 -0.171816D+00
     14  0.320613D-03  0.545336D-02 -0.214726D-02 -0.208466D-03 -0.911022D-01
     15  0.133535D-02  0.235219D-02 -0.139989D-02 -0.483061D-03  0.221802D-02
     16  0.164009D-01 -0.227581D-02  0.211413D-03 -0.626463D-02 -0.502672D-01
     17 -0.112793D-01  0.979485D-03 -0.115132D-02  0.387430D-02 -0.135616D-01
     18 -0.849052D-02  0.163415D-02 -0.407436D-03  0.387849D-02 -0.377678D-02
     19 -0.100802D-01 -0.789678D-02 -0.232651D-02  0.595155D-02 -0.884388D-01
     20  0.639431D-02  0.572514D-02  0.173565D-03 -0.514773D-02 -0.490297D-01
     21  0.884583D-02  0.241891D-02 -0.616786D-03 -0.285140D-02 -0.101118D+00
     22 -0.365806D-03 -0.630410D-03 -0.609863D-04 -0.496837D-04  0.130809D-02
     23  0.199736D-02 -0.696761D-03 -0.126989D-03 -0.825262D-03  0.291433D-02
     24  0.116428D-03 -0.193218D-05  0.398096D-03  0.162119D-03  0.178425D-02
     25 -0.133639D-02 -0.221227D-02  0.120844D-02  0.128459D-03 -0.231684D-01
     26  0.412278D-03 -0.204536D-02  0.641916D-03 -0.388290D-03 -0.511273D-02
     27 -0.286642D-02  0.966954D-04  0.179177D-03  0.127579D-02  0.237429D-02
     28 -0.126304D-02  0.104598D-02 -0.717210D-03  0.233809D-04 -0.124053D-01
     29 -0.678821D-03 -0.559470D-03 -0.945648D-04  0.393719D-03 -0.253666D-02
     30 -0.179883D-02  0.310560D-03 -0.210316D-03  0.559459D-03  0.971426D-04
               11            12            13            14            15 
     11  0.411669D+00
     12 -0.692707D-01  0.462904D+00
     13 -0.868278D-01  0.282674D-02  0.479395D+00
     14 -0.126874D+00  0.130326D-01 -0.572452D-03  0.547273D+00
     15  0.140014D-01 -0.836654D-01  0.180830D-01 -0.834013D-02  0.562153D+00
     16 -0.829565D-02 -0.187213D-01  0.367104D-02 -0.204499D-01  0.208546D-01
     17 -0.171120D+00  0.148889D+00  0.262973D-03 -0.582535D-02  0.101127D-01
     18  0.136800D+00 -0.191401D+00 -0.885222D-03 -0.300166D-03  0.576070D-03
     19 -0.444965D-01 -0.805063D-01 -0.693171D-02 -0.100921D-01 -0.258029D-01
     20 -0.678883D-01 -0.744579D-01 -0.511731D-02 -0.157530D-02 -0.111959D-01
     21 -0.631477D-01 -0.256024D+00  0.261018D-02  0.391599D-02  0.742882D-02
     22 -0.236783D-01  0.249743D-01 -0.488431D-01  0.167683D-01 -0.192686D-01
     23 -0.147459D-01  0.115240D-01  0.119170D-01 -0.177776D+00  0.125033D+00
     24  0.171455D-02 -0.234054D-02 -0.165496D-01  0.126051D+00 -0.175346D+00
     25  0.186208D-01  0.838216D-02 -0.168318D+00  0.111272D+00  0.482641D-01
     26  0.873159D-02  0.335653D-02  0.105021D+00 -0.143788D+00 -0.409696D-01
     27 -0.209354D-02 -0.271913D-02  0.476007D-01 -0.417640D-01 -0.602455D-01
     28 -0.131717D-01 -0.282692D-01 -0.601028D-01 -0.252920D-01 -0.553373D-01
     29 -0.842332D-02 -0.165151D-01 -0.288945D-01 -0.911957D-01 -0.866025D-01
     30  0.116353D-02  0.457585D-02 -0.593046D-01 -0.890664D-01 -0.248832D+00
               16            17            18            19            20 
     16  0.478428D-01
     17  0.100519D-01  0.179073D+00
     18 -0.255274D-02 -0.141026D+00  0.206112D+00
     19  0.618238D-02 -0.339044D-02  0.109468D-02  0.975673D-01
     20  0.637956D-02  0.100137D-01  0.180438D-01  0.408106D-01  0.757940D-01
     21 -0.116839D-01 -0.582654D-02 -0.155453D-01  0.104800D+00  0.687391D-01
     22 -0.425050D-02 -0.307580D-02 -0.322162D-03  0.161933D-03  0.139693D-02
     23 -0.327892D-02  0.295246D-03 -0.518576D-03  0.805113D-03  0.286800D-04
     24 -0.404196D-03  0.583536D-03  0.142580D-02  0.885538D-03 -0.777139D-03
     25  0.982394D-03 -0.816621D-03  0.334421D-03  0.794732D-03 -0.689672D-03
     26  0.967319D-03  0.718064D-04  0.268113D-03  0.609633D-03  0.223329D-03
     27 -0.579473D-03  0.732800D-03  0.197804D-03  0.602722D-03 -0.328533D-03
     28  0.512973D-03  0.120041D-02  0.683720D-03 -0.426154D-02 -0.313696D-02
     29  0.603636D-03  0.193680D-03 -0.343855D-03 -0.299862D-02 -0.278447D-03
     30 -0.322140D-03 -0.165794D-03  0.800914D-03  0.162600D-02  0.218837D-03
               21            22            23            24            25 
     21  0.255716D+00
     22  0.601988D-04  0.537410D-01
     23 -0.242024D-03 -0.128931D-01  0.192726D+00
     24  0.605100D-03  0.170423D-01 -0.139689D+00  0.184649D+00
     25 -0.954863D-03 -0.142107D-02  0.838549D-03 -0.137689D-03  0.187195D+00
     26 -0.469773D-03  0.151940D-01 -0.134476D-01 -0.750161D-02 -0.121783D+00
     27 -0.235451D-03 -0.162261D-01  0.127000D-01  0.685007D-02 -0.540193D-01
     28  0.129351D-02 -0.137313D-02 -0.725059D-03 -0.208589D-02  0.667801D-02
     29  0.139319D-02  0.628285D-02  0.110595D-01  0.200969D-01 -0.557951D-02
     30  0.885717D-03 -0.455788D-02 -0.906016D-02 -0.167840D-01 -0.148318D-02
               26            27            28            29            30 
     26  0.154320D+00
     27  0.468956D-01  0.629623D-01
     28  0.921629D-02  0.204363D-01  0.685943D-01
     29 -0.865584D-02 -0.166742D-01  0.323430D-01  0.963560D-01
     30 -0.242875D-02 -0.637227D-02  0.628796D-01  0.987537D-01  0.266281D+00
 FormGI is forming the generalized inverse of G from B-inverse, IUseBI=4.
 Leave Link  716 at Mon Sep 20 08:37:33 2021, MaxMem=  1879048192 cpu:               0.2 elap:               0.0
 (Enter /home/gridsan/groups/GRPAPI/Software/g16/l103.exe)

 GradGradGradGradGradGradGradGradGradGradGradGradGradGradGradGradGradGrad
 Berny optimization.
 Red2BG is reusing G-inverse.
 Internal  Forces:  Max     0.016005409 RMS     0.003966231
 Search for a saddle point.
 Step number   1 out of a maximum of  100
 All quantities printed in internal units (Hartrees-Bohrs-Radians)
 Swapping is turned off.
 Second derivative matrix not updated -- analytic derivatives used.
 ITU=  0
     Eigenvalues ---   -0.23872   0.00114   0.00266   0.01612   0.02349
     Eigenvalues ---    0.03391   0.03762   0.04683   0.06624   0.07949
     Eigenvalues ---    0.08902   0.10688   0.12486   0.14650   0.15905
     Eigenvalues ---    0.26859   0.31197   0.32479   0.32860   0.33193
     Eigenvalues ---    0.33642   0.34122   0.39576   0.84267
 Eigenvectors required to have negative eigenvalues:
                          R2        R4        A3        A5        A7
   1                    0.57864  -0.51721  -0.27627   0.26382  -0.25880
                          A6        A2        R1        D1        D3
   1                    0.23805  -0.20959  -0.14623   0.12376   0.08533
 RFO step:  Lambda0=1.307238149D-05 Lambda=-2.53840198D-03.
 Linear search not attempted -- option 19 set.
 Maximum step size (   0.050) exceeded in Quadratic search.
    -- Step size scaled by   0.212
 Iteration  1 RMS(Cart)=  0.00724160 RMS(Int)=  0.00008233
 Iteration  2 RMS(Cart)=  0.00007902 RMS(Int)=  0.00003393
 Iteration  3 RMS(Cart)=  0.00000001 RMS(Int)=  0.00003393
 ITry= 1 IFail=0 DXMaxC= 2.49D-02 DCOld= 1.00D+10 DXMaxT= 5.00D-02 DXLimC= 3.00D+00 Rises=F
 Variable       Old X    -DE/DX   Delta X   Delta X   Delta X     New X
                                 (Linear)    (Quad)   (Total)
    R1        2.41635   0.01411   0.00000   0.00529   0.00528   2.42163
    R2        3.78486   0.00572   0.00000   0.03004   0.02999   3.81486
    R3        2.24813   0.01601   0.00000   0.00352   0.00352   2.25165
    R4        3.71066   0.00463   0.00000   0.02976   0.02981   3.74047
    R5        2.80446   0.00154   0.00000  -0.00083  -0.00083   2.80364
    R6        2.06650  -0.00587   0.00000  -0.00468  -0.00468   2.06181
    R7        2.06786  -0.00581   0.00000  -0.00468  -0.00468   2.06318
    R8        2.07252  -0.00477   0.00000  -0.00303  -0.00303   2.06949
    R9        2.08717  -0.00309   0.00000  -0.00151  -0.00151   2.08567
   R10        2.07238  -0.00484   0.00000  -0.00318  -0.00318   2.06920
    A1        2.07970   0.00021   0.00000  -0.00271  -0.00285   2.07686
    A2        2.67077   0.00100   0.00000   0.01696   0.01691   2.68767
    A3        1.82701   0.00032   0.00000  -0.00509  -0.00515   1.82187
    A4        1.45878  -0.00188   0.00000  -0.00563  -0.00560   1.45318
    A5        2.09408   0.00057   0.00000  -0.00621  -0.00617   2.08792
    A6        1.82562  -0.00042   0.00000  -0.00207  -0.00203   1.82359
    A7        2.02055   0.00101   0.00000  -0.01047  -0.01048   2.01007
    A8        1.54981  -0.00133   0.00000  -0.00514  -0.00517   1.54464
    A9        2.02616   0.00031   0.00000   0.00427   0.00422   2.03038
   A10        2.03049   0.00047   0.00000   0.00338   0.00334   2.03383
   A11        1.95519  -0.00033   0.00000   0.00578   0.00572   1.96091
   A12        1.95367   0.00034   0.00000   0.00046   0.00046   1.95413
   A13        1.87072   0.00057   0.00000  -0.00042  -0.00042   1.87030
   A14        1.93771   0.00030   0.00000   0.00097   0.00097   1.93868
   A15        1.89654  -0.00045   0.00000  -0.00125  -0.00125   1.89529
   A16        1.91518  -0.00035   0.00000   0.00050   0.00050   1.91568
   A17        1.88792  -0.00043   0.00000  -0.00037  -0.00037   1.88755
    D1       -2.50561   0.00015   0.00000   0.00571   0.00575  -2.49986
    D2        1.52471  -0.00066   0.00000   0.00939   0.00938   1.53409
    D3       -0.46456   0.00021   0.00000   0.00754   0.00756  -0.45700
    D4        1.51154   0.00163   0.00000  -0.00286  -0.00284   1.50870
    D5       -2.69372   0.00164   0.00000  -0.00439  -0.00437  -2.69809
    D6       -0.63529   0.00162   0.00000  -0.00455  -0.00453  -0.63982
    D7        0.83247  -0.00150   0.00000   0.00189   0.00187   0.83434
    D8        2.91039  -0.00150   0.00000   0.00036   0.00035   2.91074
    D9       -1.31436  -0.00151   0.00000   0.00020   0.00018  -1.31418
   D10        3.08196  -0.00028   0.00000  -0.01067  -0.01069   3.07127
   D11       -1.12330  -0.00027   0.00000  -0.01220  -0.01222  -1.13552
   D12        0.93513  -0.00028   0.00000  -0.01236  -0.01238   0.92275
   D13       -0.84327   0.00012   0.00000   0.00788   0.00789  -0.83538
   D14        1.23465   0.00012   0.00000   0.00635   0.00637   1.24101
   D15       -2.99011   0.00011   0.00000   0.00619   0.00621  -2.98390
         Item               Value     Threshold  Converged?
 Maximum Force            0.016005     0.000015     NO 
 RMS     Force            0.003966     0.000010     NO 
 Maximum Displacement     0.024937     0.000060     NO 
 RMS     Displacement     0.007244     0.000040     NO 
 Predicted change in Energy=-4.823044D-04
 Lowest energy point so far.  Saving SCF results.
 GradGradGradGradGradGradGradGradGradGradGradGradGradGradGradGradGradGrad

 Leave Link  103 at Mon Sep 20 08:37:33 2021, MaxMem=  1879048192 cpu:               0.1 elap:               0.0
 (Enter /home/gridsan/groups/GRPAPI/Software/g16/l202.exe)
                          Input orientation:                          
 ---------------------------------------------------------------------
 Center     Atomic      Atomic             Coordinates (Angstroms)
 Number     Number       Type             X           Y           Z
 ---------------------------------------------------------------------
      1          8           0        1.100599   -0.198798   -1.230053
      2          7           0        1.410347   -0.511859   -0.026631
      3          8           0        2.499505   -0.940389    0.196587
      4          6           0       -0.021392    0.850777    0.079458
      5          6           0       -1.273297    0.064609    0.205162
      6          1           0       -0.001593    1.606834   -0.706930
      7          1           0        0.426131    1.207115    1.009376
      8          1           0       -1.190577   -0.718368    0.966354
      9          1           0       -2.069627    0.766489    0.507400
     10          1           0       -1.556906   -0.380334   -0.754295
 ---------------------------------------------------------------------
                    Distance matrix (angstroms):
                    1          2          3          4          5
     1  O    0.000000
     2  N    1.281474   0.000000
     3  O    2.131244   1.191524   0.000000
     4  C    2.018735   1.979371   3.094660   0.000000
     5  C    2.786504   2.754631   3.904374   1.483620   0.000000
     6  H    2.179172   2.635383   3.682415   1.091064   2.197180
     7  H    2.728835   2.235367   3.093748   1.091788   2.200031
     8  H    3.216153   2.791679   3.776048   2.148439   1.095129
     9  H    3.741771   3.745609   4.887434   2.094160   1.103686
    10  H    2.705852   3.058004   4.203845   2.137424   1.094973
                    6          7          8          9         10
     6  H    0.000000
     7  H    1.813403   0.000000
     8  H    3.101632   2.514573   0.000000
     9  H    2.541170   2.583591   1.785544   0.000000
    10  H    2.523902   3.092405   1.791395   1.780437   0.000000
 Stoichiometry    C2H5NO2
 Framework group  C1[X(C2H5NO2)]
 Deg. of freedom    24
 Full point group                 C1      NOp   1
 RotChk:  IX=0 Diff= 6.55D-03
 Largest Abelian subgroup         C1      NOp   1
 Largest concise Abelian subgroup C1      NOp   1
                         Standard orientation:                         
 ---------------------------------------------------------------------
 Center     Atomic      Atomic             Coordinates (Angstroms)
 Number     Number       Type             X           Y           Z
 ---------------------------------------------------------------------
      1          8           0        0.524598    1.026254   -0.226299
      2          7           0        0.824203   -0.209320   -0.065771
      3          8           0        1.972499   -0.523484   -0.016315
      4          6           0       -0.982944    0.052579    0.698126
      5          6           0       -1.907774   -0.322103   -0.399795
      6          1           0       -1.153393    1.024310    1.164072
      7          1           0       -0.754848   -0.724623    1.430198
      8          1           0       -1.630032   -1.275305   -0.861937
      9          1           0       -2.913594   -0.425413    0.042672
     10          1           0       -1.950018    0.461259   -1.163683
 ---------------------------------------------------------------------
 Rotational constants (GHZ):          12.3616623           3.1263692           2.9002811
 Leave Link  202 at Mon Sep 20 08:37:33 2021, MaxMem=  1879048192 cpu:               0.1 elap:               0.0
 (Enter /home/gridsan/groups/GRPAPI/Software/g16/l301.exe)
 Standard basis: 6-311G(2d,d,p) (5D, 7F)
 Ernie: Thresh=  0.10000D-02 Tol=  0.10000D-05 Strict=F.
 There are   125 symmetry adapted cartesian basis functions of A   symmetry.
 There are   120 symmetry adapted basis functions of A   symmetry.
   120 basis functions,   200 primitive gaussians,   125 cartesian basis functions
    20 alpha electrons       20 beta electrons
       nuclear repulsion energy       176.2610107615 Hartrees.
 IExCor=  402 DFT=T Ex+Corr=B3LYP ExCW=0 ScaHFX=  0.200000
 ScaDFX=  0.800000  0.720000  1.000000  0.810000 ScalE2=  1.000000  1.000000
 IRadAn=      5 IRanWt=     -1 IRanGd=            0 ICorTp=0 IEmpDi=  4
 NAtoms=   10 NActive=   10 NUniq=   10 SFac= 1.00D+00 NAtFMM=   60 NAOKFM=F Big=F
 Integral buffers will be    131072 words long.
 Raffenetti 2 integral format.
 Two-electron integral symmetry is turned on.
 Leave Link  301 at Mon Sep 20 08:37:33 2021, MaxMem=  1879048192 cpu:               0.4 elap:               0.1
 (Enter /home/gridsan/groups/GRPAPI/Software/g16/l302.exe)
 NPDir=0 NMtPBC=     1 NCelOv=     1 NCel=       1 NClECP=     1 NCelD=      1
         NCelK=      1 NCelE2=     1 NClLst=     1 CellRange=     0.0.
 One-electron integrals computed using PRISM.
 One-electron integral symmetry used in STVInt
 NBasis=   120 RedAO= T EigKep=  3.02D-03  NBF=   120
 NBsUse=   120 1.00D-06 EigRej= -1.00D+00 NBFU=   120
 Precomputing XC quadrature grid using
 IXCGrd= 4 IRadAn=           5 IRanWt=          -1 IRanGd=           0 AccXCQ= 1.00D-12.
 Generated NRdTot=       0 NPtTot=           0 NUsed=           0 NTot=          32
 NSgBfM=   125   125   125   125   125 MxSgAt=    10 MxSgA2=    10.
 Leave Link  302 at Mon Sep 20 08:37:33 2021, MaxMem=  1879048192 cpu:               0.9 elap:               0.1
 (Enter /home/gridsan/groups/GRPAPI/Software/g16/l303.exe)
 DipDrv:  MaxL=1.
 Leave Link  303 at Mon Sep 20 08:37:33 2021, MaxMem=  1879048192 cpu:               0.2 elap:               0.0
 (Enter /home/gridsan/groups/GRPAPI/Software/g16/l401.exe)
 Initial guess from the checkpoint file:  "check.chk"
 B after Tr=    -0.000000    0.000000    0.000000
         Rot=    0.999999    0.001167    0.000999    0.000061 Ang=   0.18 deg.
 Guess basis will be translated and rotated to current coordinates.
 JPrj=2 DoOrth=T DoCkMO=T.
 Generating alternative initial guess.
 ExpMin= 1.03D-01 ExpMax= 8.59D+03 ExpMxC= 1.30D+03 IAcc=3 IRadAn=         5 AccDes= 0.00D+00
 Harris functional with IExCor=  402 and IRadAn=       5 diagonalized for initial guess.
 HarFok:  IExCor=  402 AccDes= 0.00D+00 IRadAn=         5 IDoV= 1 UseB2=F ITyADJ=14
 ICtDFT=  3500011 ScaDFX=  1.000000  1.000000  1.000000  1.000000
 FoFCou: FMM=F IPFlag=           0 FMFlag=      100000 FMFlg1=           0
         NFxFlg=           0 DoJE=T BraDBF=F KetDBF=T FulRan=T
         wScrn=  0.000000 ICntrl=       500 IOpCl=  0 I1Cent=   200000004 NGrid=           0
         NMat0=    1 NMatS0=      1 NMatT0=    0 NMatD0=    1 NMtDS0=    0 NMtDT0=    0
 Petite list used in FoFCou.
 Harris En= -284.349433190014    
 Leave Link  401 at Mon Sep 20 08:37:34 2021, MaxMem=  1879048192 cpu:               2.6 elap:               0.3
 (Enter /home/gridsan/groups/GRPAPI/Software/g16/l502.exe)
 Keep R1 ints in memory in canonical form, NReq=33970429.
 FoFCou: FMM=F IPFlag=           0 FMFlag=           0 FMFlg1=           0
         NFxFlg=           0 DoJE=F BraDBF=F KetDBF=F FulRan=T
         wScrn=  0.000000 ICntrl=       600 IOpCl=  0 I1Cent=           0 NGrid=           0
         NMat0=    1 NMatS0=   7260 NMatT0=    0 NMatD0=    1 NMtDS0=    0 NMtDT0=    0
 Symmetry not used in FoFCou.
 Two-electron integral symmetry not used.
 Closed shell SCF:
 Using DIIS extrapolation, IDIIS=  1040.
 NGot=  1879048192 LenX=  1852657101 LenY=  1852641035
 Requested convergence on RMS density matrix=1.00D-08 within  32 cycles.
 Requested convergence on MAX density matrix=1.00D-06.
 Requested convergence on             energy=1.00D-06.
 No special actions if energy rises.
 Integral accuracy reduced to 1.0D-05 until final iterations.

 Cycle   1  Pass 0  IDiag  1:
 E= -284.306610470107    
 DIIS: error= 7.77D-04 at cycle   1 NSaved=   1.
 NSaved= 1 IEnMin= 1 EnMin= -284.306610470107     IErMin= 1 ErrMin= 7.77D-04
 ErrMax= 7.77D-04  0.00D+00 EMaxC= 1.00D-01 BMatC= 1.53D-04 BMatP= 1.53D-04
 IDIUse=3 WtCom= 9.92D-01 WtEn= 7.77D-03
 Coeff-Com:  0.100D+01
 Coeff-En:   0.100D+01
 Coeff:      0.100D+01
 Gap=     0.567 Goal=   None    Shift=    0.000
 RMSDP=1.61D-04 MaxDP=2.17D-03              OVMax= 9.89D-03

 Cycle   2  Pass 0  IDiag  1:
 E= -284.306881724238     Delta-E=       -0.000271254131 Rises=F Damp=F
 DIIS: error= 1.89D-04 at cycle   2 NSaved=   2.
 NSaved= 2 IEnMin= 2 EnMin= -284.306881724238     IErMin= 2 ErrMin= 1.89D-04
 ErrMax= 1.89D-04  0.00D+00 EMaxC= 1.00D-01 BMatC= 1.14D-05 BMatP= 1.53D-04
 IDIUse=3 WtCom= 9.98D-01 WtEn= 1.89D-03
 Coeff-Com:  0.211D-01 0.979D+00
 Coeff-En:   0.000D+00 0.100D+01
 Coeff:      0.211D-01 0.979D+00
 Gap=     0.145 Goal=   None    Shift=    0.000
 RMSDP=5.51D-05 MaxDP=8.42D-04 DE=-2.71D-04 OVMax= 3.23D-03

 Cycle   3  Pass 0  IDiag  1:
 E= -284.306860068586     Delta-E=        0.000021655653 Rises=F Damp=F
 DIIS: error= 6.26D-04 at cycle   3 NSaved=   3.
 NSaved= 3 IEnMin= 2 EnMin= -284.306881724238     IErMin= 2 ErrMin= 1.89D-04
 ErrMax= 6.26D-04  0.00D+00 EMaxC= 1.00D-01 BMatC= 4.67D-05 BMatP= 1.14D-05
 IDIUse=3 WtCom= 2.86D-01 WtEn= 7.14D-01
 Coeff-Com: -0.503D-01 0.722D+00 0.328D+00
 Coeff-En:   0.000D+00 0.723D+00 0.277D+00
 Coeff:     -0.144D-01 0.723D+00 0.291D+00
 Gap=     0.145 Goal=   None    Shift=    0.000
 RMSDP=3.92D-05 MaxDP=7.53D-04 DE= 2.17D-05 OVMax= 2.67D-03

 Cycle   4  Pass 0  IDiag  1:
 E= -284.306893186782     Delta-E=       -0.000033118197 Rises=F Damp=F
 DIIS: error= 1.40D-04 at cycle   4 NSaved=   4.
 NSaved= 4 IEnMin= 4 EnMin= -284.306893186782     IErMin= 4 ErrMin= 1.40D-04
 ErrMax= 1.40D-04  0.00D+00 EMaxC= 1.00D-01 BMatC= 2.81D-06 BMatP= 1.14D-05
 IDIUse=3 WtCom= 9.99D-01 WtEn= 1.40D-03
 Coeff-Com: -0.359D-01 0.364D+00 0.206D+00 0.466D+00
 Coeff-En:   0.000D+00 0.000D+00 0.566D-02 0.994D+00
 Coeff:     -0.359D-01 0.364D+00 0.205D+00 0.467D+00
 Gap=     0.145 Goal=   None    Shift=    0.000
 RMSDP=1.68D-05 MaxDP=2.70D-04 DE=-3.31D-05 OVMax= 1.34D-03

 Cycle   5  Pass 0  IDiag  1:
 E= -284.306895201632     Delta-E=       -0.000002014849 Rises=F Damp=F
 DIIS: error= 6.35D-05 at cycle   5 NSaved=   5.
 NSaved= 5 IEnMin= 5 EnMin= -284.306895201632     IErMin= 5 ErrMin= 6.35D-05
 ErrMax= 6.35D-05  0.00D+00 EMaxC= 1.00D-01 BMatC= 7.64D-07 BMatP= 2.81D-06
 IDIUse=1 WtCom= 1.00D+00 WtEn= 0.00D+00
 Coeff-Com: -0.866D-02 0.496D-01 0.444D-01 0.348D+00 0.567D+00
 Coeff:     -0.866D-02 0.496D-01 0.444D-01 0.348D+00 0.567D+00
 Gap=     0.145 Goal=   None    Shift=    0.000
 RMSDP=6.04D-06 MaxDP=1.17D-04 DE=-2.01D-06 OVMax= 4.16D-04

 Initial convergence to 1.0D-05 achieved.  Increase integral accuracy.
 Cycle   6  Pass 1  IDiag  1:
 E= -284.306908876965     Delta-E=       -0.000013675333 Rises=F Damp=F
 DIIS: error= 1.26D-05 at cycle   1 NSaved=   1.
 NSaved= 1 IEnMin= 1 EnMin= -284.306908876965     IErMin= 1 ErrMin= 1.26D-05
 ErrMax= 1.26D-05  0.00D+00 EMaxC= 1.00D-01 BMatC= 2.57D-08 BMatP= 2.57D-08
 IDIUse=1 WtCom= 1.00D+00 WtEn= 0.00D+00
 Coeff-Com:  0.100D+01
 Coeff:      0.100D+01
 Gap=     0.145 Goal=   None    Shift=    0.000
 RMSDP=6.04D-06 MaxDP=1.17D-04 DE=-1.37D-05 OVMax= 1.95D-04

 Cycle   7  Pass 1  IDiag  1:
 E= -284.306908851220     Delta-E=        0.000000025745 Rises=F Damp=F
 DIIS: error= 3.42D-05 at cycle   2 NSaved=   2.
 NSaved= 2 IEnMin= 1 EnMin= -284.306908876965     IErMin= 1 ErrMin= 1.26D-05
 ErrMax= 3.42D-05  0.00D+00 EMaxC= 1.00D-01 BMatC= 9.15D-08 BMatP= 2.57D-08
 IDIUse=1 WtCom= 1.00D+00 WtEn= 0.00D+00
 Coeff-Com:  0.666D+00 0.334D+00
 Coeff:      0.666D+00 0.334D+00
 Gap=     0.145 Goal=   None    Shift=    0.000
 RMSDP=1.58D-06 MaxDP=2.85D-05 DE= 2.57D-08 OVMax= 7.62D-05

 Cycle   8  Pass 1  IDiag  1:
 E= -284.306908913917     Delta-E=       -0.000000062697 Rises=F Damp=F
 DIIS: error= 6.25D-06 at cycle   3 NSaved=   3.
 NSaved= 3 IEnMin= 3 EnMin= -284.306908913917     IErMin= 3 ErrMin= 6.25D-06
 ErrMax= 6.25D-06  0.00D+00 EMaxC= 1.00D-01 BMatC= 4.91D-09 BMatP= 2.57D-08
 IDIUse=1 WtCom= 1.00D+00 WtEn= 0.00D+00
 Coeff-Com:  0.311D+00 0.207D+00 0.482D+00
 Coeff:      0.311D+00 0.207D+00 0.482D+00
 Gap=     0.145 Goal=   None    Shift=    0.000
 RMSDP=5.96D-07 MaxDP=8.40D-06 DE=-6.27D-08 OVMax= 3.57D-05

 Cycle   9  Pass 1  IDiag  1:
 E= -284.306908916628     Delta-E=       -0.000000002711 Rises=F Damp=F
 DIIS: error= 4.27D-06 at cycle   4 NSaved=   4.
 NSaved= 4 IEnMin= 4 EnMin= -284.306908916628     IErMin= 4 ErrMin= 4.27D-06
 ErrMax= 4.27D-06  0.00D+00 EMaxC= 1.00D-01 BMatC= 2.21D-09 BMatP= 4.91D-09
 IDIUse=1 WtCom= 1.00D+00 WtEn= 0.00D+00
 Coeff-Com:  0.441D-01 0.593D-01 0.389D+00 0.508D+00
 Coeff:      0.441D-01 0.593D-01 0.389D+00 0.508D+00
 Gap=     0.145 Goal=   None    Shift=    0.000
 RMSDP=5.23D-07 MaxDP=7.76D-06 DE=-2.71D-09 OVMax= 4.17D-05

 Cycle  10  Pass 1  IDiag  1:
 E= -284.306908918065     Delta-E=       -0.000000001437 Rises=F Damp=F
 DIIS: error= 2.50D-06 at cycle   5 NSaved=   5.
 NSaved= 5 IEnMin= 5 EnMin= -284.306908918065     IErMin= 5 ErrMin= 2.50D-06
 ErrMax= 2.50D-06  0.00D+00 EMaxC= 1.00D-01 BMatC= 1.11D-09 BMatP= 2.21D-09
 IDIUse=1 WtCom= 1.00D+00 WtEn= 0.00D+00
 Coeff-Com: -0.913D-01-0.412D-01 0.103D+00 0.477D+00 0.552D+00
 Coeff:     -0.913D-01-0.412D-01 0.103D+00 0.477D+00 0.552D+00
 Gap=     0.145 Goal=   None    Shift=    0.000
 RMSDP=2.46D-07 MaxDP=3.26D-06 DE=-1.44D-09 OVMax= 1.77D-05

 Cycle  11  Pass 1  IDiag  1:
 E= -284.306908919006     Delta-E=       -0.000000000941 Rises=F Damp=F
 DIIS: error= 5.01D-07 at cycle   6 NSaved=   6.
 NSaved= 6 IEnMin= 6 EnMin= -284.306908919006     IErMin= 6 ErrMin= 5.01D-07
 ErrMax= 5.01D-07  0.00D+00 EMaxC= 1.00D-01 BMatC= 2.71D-11 BMatP= 1.11D-09
 IDIUse=1 WtCom= 1.00D+00 WtEn= 0.00D+00
 Coeff-Com: -0.436D-01-0.255D-01 0.577D-02 0.186D+00 0.252D+00 0.625D+00
 Coeff:     -0.436D-01-0.255D-01 0.577D-02 0.186D+00 0.252D+00 0.625D+00
 Gap=     0.145 Goal=   None    Shift=    0.000
 RMSDP=4.86D-08 MaxDP=1.03D-06 DE=-9.41D-10 OVMax= 3.25D-06

 Cycle  12  Pass 1  IDiag  1:
 E= -284.306908919031     Delta-E=       -0.000000000025 Rises=F Damp=F
 DIIS: error= 1.35D-07 at cycle   7 NSaved=   7.
 NSaved= 7 IEnMin= 7 EnMin= -284.306908919031     IErMin= 7 ErrMin= 1.35D-07
 ErrMax= 1.35D-07  0.00D+00 EMaxC= 1.00D-01 BMatC= 3.10D-12 BMatP= 2.71D-11
 IDIUse=1 WtCom= 1.00D+00 WtEn= 0.00D+00
 Coeff-Com: -0.161D-01-0.110D-01-0.596D-02 0.646D-01 0.880D-01 0.320D+00
 Coeff-Com:  0.560D+00
 Coeff:     -0.161D-01-0.110D-01-0.596D-02 0.646D-01 0.880D-01 0.320D+00
 Coeff:      0.560D+00
 Gap=     0.145 Goal=   None    Shift=    0.000
 RMSDP=1.90D-08 MaxDP=2.68D-07 DE=-2.53D-11 OVMax= 1.35D-06

 Cycle  13  Pass 1  IDiag  1:
 E= -284.306908919035     Delta-E=       -0.000000000004 Rises=F Damp=F
 DIIS: error= 6.06D-08 at cycle   8 NSaved=   8.
 NSaved= 8 IEnMin= 8 EnMin= -284.306908919035     IErMin= 8 ErrMin= 6.06D-08
 ErrMax= 6.06D-08  0.00D+00 EMaxC= 1.00D-01 BMatC= 6.28D-13 BMatP= 3.10D-12
 IDIUse=1 WtCom= 1.00D+00 WtEn= 0.00D+00
 Coeff-Com:  0.102D-02-0.445D-03-0.655D-02-0.755D-02-0.145D-01 0.276D-01
 Coeff-Com:  0.324D+00 0.676D+00
 Coeff:      0.102D-02-0.445D-03-0.655D-02-0.755D-02-0.145D-01 0.276D-01
 Coeff:      0.324D+00 0.676D+00
 Gap=     0.145 Goal=   None    Shift=    0.000
 RMSDP=7.03D-09 MaxDP=1.29D-07 DE=-3.58D-12 OVMax= 3.27D-07

 SCF Done:  E(RB3LYP) =  -284.306908919     A.U. after   13 cycles
            NFock= 13  Conv=0.70D-08     -V/T= 2.0028
 KE= 2.835187586097D+02 PE=-1.019979134296D+03 EE= 2.758924560053D+02
 Leave Link  502 at Mon Sep 20 08:37:36 2021, MaxMem=  1879048192 cpu:              18.2 elap:               2.7
 (Enter /home/gridsan/groups/GRPAPI/Software/g16/l508.exe)
 QCSCF skips out because SCF is already converged.
 Leave Link  508 at Mon Sep 20 08:37:36 2021, MaxMem=  1879048192 cpu:               0.0 elap:               0.0
 (Enter /home/gridsan/groups/GRPAPI/Software/g16/l701.exe)
 ... and contract with generalized density number  0.
 Compute integral first derivatives.
 Leave Link  701 at Mon Sep 20 08:37:36 2021, MaxMem=  1879048192 cpu:               1.5 elap:               0.2
 (Enter /home/gridsan/groups/GRPAPI/Software/g16/l702.exe)
 L702 exits ... SP integral derivatives will be done elsewhere.
 Leave Link  702 at Mon Sep 20 08:37:37 2021, MaxMem=  1879048192 cpu:               0.2 elap:               0.0
 (Enter /home/gridsan/groups/GRPAPI/Software/g16/l703.exe)
 Integral derivatives from FoFJK, PRISM(SPDF).
 Compute integral first derivatives, UseDBF=F ICtDFT=           0.
 Calling FoFJK, ICntrl=      2127 FMM=F ISym2X=0 I1Cent= 0 IOpClX= 0 NMat=1 NMatS=1 NMatT=0.
 FoFJK:  IHMeth= 1 ICntrl=    2127 DoSepK=F KAlg= 0 I1Cent=           0 FoldK=F
 IRaf=         0 NMat=       1 IRICut=       1 DoRegI=T DoRafI=F ISym2E= 0 IDoP0=0 IntGTp=1.
 FoFCou: FMM=F IPFlag=           0 FMFlag=      100000 FMFlg1=         800
         NFxFlg=           0 DoJE=F BraDBF=F KetDBF=F FulRan=T
         wScrn=  0.000000 ICntrl=      2127 IOpCl=  0 I1Cent=           0 NGrid=           0
         NMat0=    1 NMatS0=      1 NMatT0=    0 NMatD0=    1 NMtDS0=    0 NMtDT0=    0
 Symmetry not used in FoFCou.
 Leave Link  703 at Mon Sep 20 08:37:37 2021, MaxMem=  1879048192 cpu:               6.7 elap:               0.9
 (Enter /home/gridsan/groups/GRPAPI/Software/g16/l716.exe)
 Dipole        =-1.73221331D+00-3.08866992D-01 4.65171251D-01
 ***** Axes restored to original set *****
 -------------------------------------------------------------------
 Center     Atomic                   Forces (Hartrees/Bohr)
 Number     Number              X              Y              Z
 -------------------------------------------------------------------
      1        8          -0.000713886    0.001255354   -0.014555069
      2        7          -0.005821073   -0.000493513    0.009831390
      3        8           0.011540635   -0.004791625    0.002109610
      4        6          -0.003089655    0.009836108    0.003462137
      5        6          -0.002711584   -0.002920961   -0.000000652
      6        1           0.000490506   -0.003487666    0.003060681
      7        1          -0.001378457   -0.001676092   -0.004058825
      8        1          -0.000561329    0.002624860   -0.002652684
      9        1           0.001509680   -0.001849694   -0.000641555
     10        1           0.000735163    0.001503228    0.003444967
 -------------------------------------------------------------------
 Cartesian Forces:  Max     0.014555069 RMS     0.004890331
 Leave Link  716 at Mon Sep 20 08:37:37 2021, MaxMem=  1879048192 cpu:               0.2 elap:               0.0
 (Enter /home/gridsan/groups/GRPAPI/Software/g16/l103.exe)

 GradGradGradGradGradGradGradGradGradGradGradGradGradGradGradGradGradGrad
 Berny optimization.
 FormGI is forming the generalized inverse of G from B-inverse, IUseBI=4.
 Internal  Forces:  Max     0.012667602 RMS     0.003143747
 Search for a saddle point.
 Step number   2 out of a maximum of  100
 All quantities printed in internal units (Hartrees-Bohrs-Radians)
 Swapping is turned off.
 Update second derivatives using D2CorX and points    1    2
 ITU=  0  0
     Eigenvalues ---   -0.23876   0.00114   0.00269   0.01603   0.02341
     Eigenvalues ---    0.03391   0.03762   0.04683   0.06608   0.07949
     Eigenvalues ---    0.08897   0.10687   0.12486   0.14649   0.15905
     Eigenvalues ---    0.26861   0.31197   0.32481   0.32860   0.33193
     Eigenvalues ---    0.33642   0.34128   0.39553   0.84240
 Eigenvectors required to have negative eigenvalues:
                          R2        R4        A3        A5        A7
   1                    0.57386  -0.51781  -0.27856   0.26453  -0.25978
                          A6        A2        R1        D1        D3
   1                    0.24069  -0.21313  -0.14471   0.12473   0.08455
 RFO step:  Lambda0=9.157472889D-06 Lambda=-1.71760093D-03.
 Linear search not attempted -- option 19 set.
 Maximum step size (   0.050) exceeded in Quadratic search.
    -- Step size scaled by   0.241
 Iteration  1 RMS(Cart)=  0.00740431 RMS(Int)=  0.00011059
 Iteration  2 RMS(Cart)=  0.00009660 RMS(Int)=  0.00004092
 Iteration  3 RMS(Cart)=  0.00000002 RMS(Int)=  0.00004092
 ITry= 1 IFail=0 DXMaxC= 2.69D-02 DCOld= 1.00D+10 DXMaxT= 5.00D-02 DXLimC= 3.00D+00 Rises=F
 Variable       Old X    -DE/DX   Delta X   Delta X   Delta X     New X
                                 (Linear)    (Quad)   (Total)
    R1        2.42163   0.01120   0.00000   0.00469   0.00469   2.42632
    R2        3.81486   0.00456   0.00000   0.02967   0.02960   3.84446
    R3        2.25165   0.01267   0.00000   0.00322   0.00322   2.25487
    R4        3.74047   0.00379   0.00000   0.02971   0.02977   3.77024
    R5        2.80364   0.00122   0.00000  -0.00091  -0.00091   2.80272
    R6        2.06181  -0.00461   0.00000  -0.00424  -0.00424   2.05757
    R7        2.06318  -0.00457   0.00000  -0.00426  -0.00426   2.05892
    R8        2.06949  -0.00376   0.00000  -0.00271  -0.00271   2.06678
    R9        2.08567  -0.00244   0.00000  -0.00130  -0.00130   2.08437
   R10        2.06920  -0.00382   0.00000  -0.00286  -0.00286   2.06634
    A1        2.07686   0.00018   0.00000  -0.00272  -0.00289   2.07396
    A2        2.68767   0.00083   0.00000   0.01824   0.01818   2.70585
    A3        1.82187   0.00026   0.00000  -0.00500  -0.00506   1.81680
    A4        1.45318  -0.00150   0.00000  -0.00566  -0.00563   1.44755
[...]
 (rs|ai) integrals will be sorted in core.
 Spin components of T(2) and E(2):
     alpha-alpha T2 =       0.4022075036D-01 E2=     -0.1294956729D+00
     alpha-beta  T2 =       0.2242759921D+00 E2=     -0.7687170500D+00
     beta-beta   T2 =       0.4022075036D-01 E2=     -0.1294956729D+00
 The integrals were generated   1 times.
 ANorm=    0.1142242309D+01
 E2 =    -0.1027708396D+01 EUMP2 =    -0.28371219872020D+03
 Leave Link  906 at Mon Sep 20 08:40:04 2021, MaxMem=  1879048192 cpu:              59.0 elap:               7.7
 (Enter /home/gridsan/groups/GRPAPI/Software/g16/l904.exe)

 Complete Basis Set (CBS) Extrapolation:
 M. R. Nyden and G. A. Petersson, JCP 75, 1843 (1981)
 G. A. Petersson and M. A. Al-Laham, JCP 94, 6081 (1991)
 G. A. Petersson, T. Tensfeldt, and J. A. Montgomery, JCP 94, 6091 (1991)
 J. A. Montgomery, J. W. Ochterski, and G. A. Petersson, JCP 101, 5900 (1994)

 
 Available Memory in CBS = 1879048192
 Minimum Number of PNO for Extrapolation =  10
 Absolute Overlaps: IRadAn =         5
 LocTrn: ILocal=3 LocCor=F DoCore=F.
 GSVD:  LWork=       -1140 too small for GESVD, short by        4950 words or        4950 for optimal perf.
 LocMO: Using population method
 Initial Trace= 0.15000000D+02 Initial TraceA= 0.42885161D+01
 RMSG= 0.32200163D-08
 There are a total of      229578 grid points.
 ElSum from         orbitals=       19.9999993311
 E2(CBS)=      -1.127609 CBS-Int=       0.032180 OIii=       8.143475
 Leave Link  904 at Mon Sep 20 08:40:14 2021, MaxMem=  1879048192 cpu:              53.7 elap:               8.3
 (Enter /home/gridsan/groups/GRPAPI/Software/g16/l601.exe)
 Copying SCF densities to generalized density rwf, IOpCl= 0 IROHF=0.

 **********************************************************************

            Population analysis using the SCF Density.

 **********************************************************************

 Orbital symmetries:
       Occupied  (A) (A) (A) (A) (A) (A) (A) (A) (A) (A) (A) (A)
                 (A) (A) (A) (A) (A) (A) (A) (A)
       Virtual   (A) (A) (A) (A) (A) (A) (A) (A) (A) (A) (A) (A)
                 (A) (A) (A) (A) (A) (A) (A) (A) (A) (A) (A) (A)
                 (A) (A) (A) (A) (A) (A) (A) (A) (A) (A) (A) (A)
                 (A) (A) (A) (A) (A) (A) (A) (A) (A) (A) (A) (A)
                 (A) (A) (A) (A) (A) (A) (A) (A) (A) (A) (A) (A)
                 (A) (A) (A) (A) (A) (A) (A) (A) (A) (A) (A) (A)
                 (A) (A) (A) (A) (A) (A) (A) (A) (A) (A) (A) (A)
                 (A) (A) (A) (A) (A) (A) (A) (A) (A) (A) (A) (A)
                 (A) (A) (A) (A) (A) (A) (A) (A) (A) (A) (A) (A)
                 (A) (A) (A) (A) (A) (A) (A) (A) (A) (A) (A) (A)
                 (A) (A) (A) (A) (A) (A) (A) (A) (A) (A) (A) (A)
                 (A) (A) (A) (A) (A) (A) (A) (A) (A) (A) (A) (A)
                 (A) (A) (A) (A) (A) (A) (A) (A) (A) (A) (A) (A)
                 (A) (A) (A) (A) (A) (A) (A) (A) (A) (A) (A) (A)
                 (A) (A) (A) (A) (A) (A) (A) (A) (A) (A) (A) (A)
                 (A) (A) (A) (A) (A) (A) (A) (A) (A) (A) (A) (A)
                 (A) (A) (A) (A) (A) (A) (A) (A)
 The electronic state is 1-A.
 Alpha  occ. eigenvalues --  -20.56998 -20.55311 -15.73453 -11.39741 -11.27828
 Alpha  occ. eigenvalues --   -1.53247  -1.32833  -1.10470  -0.91020  -0.85405
 Alpha  occ. eigenvalues --   -0.70898  -0.69260  -0.66477  -0.64432  -0.61412
 Alpha  occ. eigenvalues --   -0.60785  -0.57544  -0.44592  -0.42048  -0.38071
 Alpha virt. eigenvalues --    0.01971   0.03907   0.05183   0.05553   0.06786
 Alpha virt. eigenvalues --    0.08318   0.11896   0.12865   0.13574   0.14103
 Alpha virt. eigenvalues --    0.14983   0.16269   0.17372   0.18311   0.18885
 Alpha virt. eigenvalues --    0.20049   0.21835   0.25059   0.25898   0.27615
 Alpha virt. eigenvalues --    0.29993   0.30714   0.33367   0.34312   0.34452
 Alpha virt. eigenvalues --    0.36406   0.37138   0.39269   0.40067   0.41469
 Alpha virt. eigenvalues --    0.43315   0.49556   0.51761   0.52853   0.54169
 Alpha virt. eigenvalues --    0.54756   0.57844   0.62682   0.63691   0.66380
 Alpha virt. eigenvalues --    0.67199   0.70014   0.72597   0.72734   0.73764
 Alpha virt. eigenvalues --    0.76999   0.81347   0.82976   0.88510   0.90850
 Alpha virt. eigenvalues --    0.93620   0.97728   1.01600   1.06373   1.07266
 Alpha virt. eigenvalues --    1.11318   1.14314   1.18559   1.20284   1.22241
 Alpha virt. eigenvalues --    1.23567   1.25359   1.26689   1.29761   1.31089
 Alpha virt. eigenvalues --    1.33112   1.34169   1.35391   1.37354   1.38113
 Alpha virt. eigenvalues --    1.40160   1.41676   1.46281   1.48178   1.51074
 Alpha virt. eigenvalues --    1.52636   1.53853   1.56580   1.60990   1.62272
 Alpha virt. eigenvalues --    1.64240   1.65606   1.70006   1.75133   1.77529
 Alpha virt. eigenvalues --    1.81799   1.83022   1.87456   1.91075   1.94714
 Alpha virt. eigenvalues --    1.96383   2.10630   2.15629   2.23258   2.36727
 Alpha virt. eigenvalues --    2.36949   2.45972   2.66609   2.69894   2.72864
 Alpha virt. eigenvalues --    2.77347   2.80507   2.84573   2.90941   2.98364
 Alpha virt. eigenvalues --    3.06495   3.07807   3.11560   3.19501   3.27331
 Alpha virt. eigenvalues --    3.29479   3.33474   3.39730   3.41125   3.43170
 Alpha virt. eigenvalues --    3.46758   3.51272   3.55679   3.64708   3.69743
 Alpha virt. eigenvalues --    3.71572   3.73529   3.78215   3.84017   3.88176
 Alpha virt. eigenvalues --    3.89352   3.97126   3.98668   4.09696   4.11318
 Alpha virt. eigenvalues --    4.15396   4.16424   4.18757   4.21547   4.24112
 Alpha virt. eigenvalues --    4.30453   4.37315   4.37551   4.38628   4.39865
 Alpha virt. eigenvalues --    4.47610   4.48973   4.52142   4.53693   4.55891
 Alpha virt. eigenvalues --    4.60853   4.66598   4.75872   4.80732   4.85620
 Alpha virt. eigenvalues --    4.87925   4.89873   4.97374   5.07024   5.11600
 Alpha virt. eigenvalues --    5.13495   5.19369   5.23475   5.28257   5.30661
 Alpha virt. eigenvalues --    5.49243   5.50455   5.54929   5.57427   5.58031
 Alpha virt. eigenvalues --    5.62110   5.63063   5.65733   5.72107   5.76297
 Alpha virt. eigenvalues --    5.79708   5.90378   5.95807   6.02745   6.03345
 Alpha virt. eigenvalues --    6.04300   6.08830   6.17293   6.38315   6.59450
 Alpha virt. eigenvalues --    6.72300   7.07120   7.32838   7.32877   7.34809
 Alpha virt. eigenvalues --    7.43690   7.53784   7.62105   7.70044   7.74172
 Alpha virt. eigenvalues --    7.75877   7.97165   8.06984   8.32458   8.54386
 Alpha virt. eigenvalues --   25.18745  25.51076  37.37880  51.77982  51.89272
          Condensed to atoms (all electrons):
               1          2          3          4          5          6
     1  O    8.377181  -0.122748  -0.061240   0.231062  -0.039082  -0.106562
     2  N   -0.122748   6.949969   0.294832  -0.053595  -0.080438   0.090694
     3  O   -0.061240   0.294832   8.000907  -0.006690   0.006241  -0.006019
     4  C    0.231062  -0.053595  -0.006690   5.047610  -0.033468   0.368536
     5  C   -0.039082  -0.080438   0.006241  -0.033468   5.104117  -0.007070
     6  H   -0.106562   0.090694  -0.006019   0.368536  -0.007070   0.528053
     7  H    0.024513  -0.091748   0.012080   0.405616   0.003398  -0.030885
     8  H   -0.012947   0.014094  -0.003425  -0.018732   0.414885   0.003987
     9  H    0.008464   0.003238   0.000385   0.025781   0.343472  -0.009903
    10  H   -0.001337  -0.007299   0.000640  -0.032416   0.437466  -0.000064
               7          8          9         10
     1  O    0.024513  -0.012947   0.008464  -0.001337
     2  N   -0.091748   0.014094   0.003238  -0.007299
     3  O    0.012080  -0.003425   0.000385   0.000640
     4  C    0.405616  -0.018732   0.025781  -0.032416
     5  C    0.003398   0.414885   0.343472   0.437466
     6  H   -0.030885   0.003987  -0.009903  -0.000064
     7  H    0.534031  -0.008014   0.001864  -0.000294
     8  H   -0.008014   0.552589  -0.029433  -0.021335
     9  H    0.001864  -0.029433   0.618249  -0.028293
    10  H   -0.000294  -0.021335  -0.028293   0.530879
 Mulliken charges:
               1
     1  O   -0.297302
     2  N    0.003003
     3  O   -0.237709
     4  C    0.066297
     5  C   -0.149520
     6  H    0.169232
     7  H    0.149439
     8  H    0.108330
     9  H    0.066176
    10  H    0.122054
 Sum of Mulliken charges =  -0.00000
 Mulliken charges with hydrogens summed into heavy atoms:
               1
     1  O   -0.297302
     2  N    0.003003
     3  O   -0.237709
     4  C    0.384969
     5  C    0.147039
 Electronic spatial extent (au):  <R**2>=            464.5432
 Charge=             -0.0000 electrons
 Dipole moment (field-independent basis, Debye):
    X=             -7.0224    Y=             -1.1291    Z=              1.9906  Tot=              7.3858
 Quadrupole moment (field-independent basis, Debye-Ang):
   XX=            -31.2231   YY=            -32.1815   ZZ=            -26.9887
   XY=              0.3430   XZ=             -0.7551   YZ=              1.2576
 Traceless Quadrupole moment (field-independent basis, Debye-Ang):
   XX=             -1.0920   YY=             -2.0504   ZZ=              3.1424
   XY=              0.3430   XZ=             -0.7551   YZ=              1.2576
 Octapole moment (field-independent basis, Debye-Ang**2):
  XXX=            -19.8163  YYY=             -1.0977  ZZZ=              2.3782  XYY=             -3.8000
  XXY=              2.3539  XXZ=              1.1372  XZZ=             -1.0397  YZZ=             -0.4141
  YYZ=              1.4382  XYZ=              0.2386
 Hexadecapole moment (field-independent basis, Debye-Ang**3):
 XXXX=           -415.6836 YYYY=            -94.0934 ZZZZ=            -66.5649 XXXY=              6.3673
 XXXZ=             -1.9895 YYYX=             -3.9087 YYYZ=              2.8107 ZZZX=             -1.7915
 ZZZY=             -1.6967 XXYY=            -87.9780 XXZZ=            -76.9187 YYZZ=            -24.8569
 XXYZ=              1.2016 YYXZ=             -0.4594 ZZXY=             -1.8044
 N-N= 1.740775312356D+02 E-N=-1.013783660376D+03  KE= 2.822961292118D+02
 Leave Link  601 at Mon Sep 20 08:40:14 2021, MaxMem=  1879048192 cpu:               0.3 elap:               0.1
 (Enter /home/gridsan/groups/GRPAPI/Software/g16/l9999.exe)

 Test job not archived.
 1\1\GINC-D-9-10-2\SP\RMP2-FC\CBSB3\C2H5N1O2\ALONGD\20-Sep-2021\0\\#P G
 eom=AllCheck Guess=TCheck SCRF=Check Test MP2/CBSB3 CBSExtrap=(NMin=10
 ,MinPop)\\TS20\\0,1\O,0,1.1388240131,-0.2067312772,-1.2365946222\N,0,1
 .4592824458,-0.4940284394,-0.0186760428\O,0,2.5145936826,-1.027296993,
 0.1807208734\C,0,-0.0590058102,0.8950684711,0.0912499449\C,0,-1.282500
 8528,0.0691705243,0.2081665502\H,0,-0.0160682992,1.6110938181,-0.71872
 4787\H,0,0.4003994646,1.2407854835,1.0084961389\H,0,-1.1786533748,-0.7
 119822966,0.9602704257\H,0,-2.0968534958,0.7412466829,0.5205958889\H,0
 ,-1.5568277733,-0.3712489738,-0.7490763701\\Version=ES64L-G16RevB.01\S
 tate=1-A\HF=-282.6844903\MP2=-283.7121987\E2(CBS)=-1.1276094\CBS-Int=-
 1.0954291\OIii=8.1434748\RMSD=9.270e-09\PG=C01 [X(C2H5N1O2)]\\@


 GARLIC THEN HAVE POWER TO SAVE FROM DEATH
 BEAR WITH IT THOUGH IT MAKETH UNSAVORY BREATH,
 AND SCORN NOT GARLIC LIKE SOME THAT THINK
 IT ONLY MAKETH MEN WINK AND DRINK AND STINK.
   --  SIR JOHN HARRINGTON,
       "THE ENGLISHMAN'S DOCTOR", 1609
 Diagonal vibrational polarizability:
        0.0000000       0.0000000       0.0000000
    1 imaginary frequencies ignored.

 Complete Basis Set (CBS) Extrapolation:
 M. R. Nyden and G. A. Petersson, JCP 75, 1843 (1981)
 G. A. Petersson and M. A. Al-Laham, JCP 94, 6081 (1991)
 G. A. Petersson, T. Tensfeldt, and J. A. Montgomery, JCP 94, 6091 (1991)
 J. A. Montgomery, J. W. Ochterski, and G. A. Petersson, JCP 101, 5900 (1994)

 Temperature=               298.150000 Pressure=                       1.000000
 E(ZPE)=                      0.072623 E(Thermal)=                     0.078657
 E(SCF)=                   -282.684490 DE(MP2)=                       -1.027708
 DE(CBS)=                    -0.099901 DE(MP34)=                      -0.030782
 DE(CCSD)=                   -0.034546 DE(Int)=                        0.032180
 DE(Empirical)=              -0.047151
 CBS-QB3 (0 K)=            -283.819775 CBS-QB3 Energy=              -283.813741
 CBS-QB3 Enthalpy=         -283.812797 CBS-QB3 Free Energy=         -283.849484

 Test job not archived.
 1\1\GINC-D-9-10-2\Mixed\CBS-QB3\CBS-QB3\C2H5N1O2\ALONGD\20-Sep-2021\0\
 \#P opt=(ts, calcfc, noeigentest, maxcycles=100, tight, maxstep=5) gue
 ss=read cbs-qb3 scf=(tight, direct) integral=(grid=ultrafine, Acc2E=12
 ) IOp(2/9=2000) scf=xqc\\TS20\\0,1\O,0,1.1388240131,-0.2067312772,-1.2
 365946222\N,0,1.4592824458,-0.4940284394,-0.0186760428\O,0,2.514593682
 6,-1.027296993,0.1807208734\C,0,-0.0590058102,0.8950684711,0.091249944
 9\C,0,-1.2825008528,0.0691705243,0.2081665502\H,0,-0.0160682992,1.6110
 938181,-0.718724787\H,0,0.4003994646,1.2407854835,1.0084961389\H,0,-1.
 1786533748,-0.7119822966,0.9602704257\H,0,-2.0968534958,0.7412466829,0
 .5205958889\H,0,-1.5568277733,-0.3712489738,-0.7490763701\\Version=ES6
 4L-G16RevB.01\State=1-A\HF/CbsB3=-282.6844903\E2(CBS)/CbsB3=-1.1276094
 \CBS-Int/CbsB3=0.0321802\OIii/CbsB3=8.1434748\MP2/CbsB4=-283.4591484\M
 P4(SDQ)/CbsB4=-283.4899304\MP4(SDQ)/6-31+G(d')=-283.450528\QCISD(T)/6-
 31+G(d')=-283.4850737\CBSQB3=-283.8197747\FreqCoord=2.1520654888,-0.39
 06654952,-2.336825163,2.757644161,-0.9335784482,-0.035292606,4.7518933
 747,-1.9413099654,0.3415129557,-0.1115048211,1.6914342732,0.1724374048
 ,-2.4235753662,0.1307133468,0.3933777683,-0.0303646847,3.0445260772,-1
 .3581930063,0.7566453284,2.3447447431,1.9057815002,-2.2273320741,-1.34
 5451546,1.8146481101,-3.9624788305,1.4007532214,0.9837836516,-2.941978
 1147,-0.7015588846,-1.4155491859\PG=C01 [X(C2H5N1O2)]\NImag=1\\0.08794
 350,-0.03538158,0.01011676,0.07591861,-0.07521578,0.42713068,-0.048922
 26,0.00418966,-0.00550372,0.62347987,-0.00346872,0.02909290,0.03697415
 ,-0.27884154,0.13689143,0.05946006,-0.04392213,-0.41629598,-0.04203469
 ,0.05156079,0.37036074,-0.02358733,0.01669635,-0.08302254,-0.55179652,
 0.27329392,-0.04509835,0.57620886,0.02643228,-0.01751543,0.04486512,0.
 26540070,-0.13938356,0.02337491,-0.29196628,0.15305343,-0.10450382,0.0
 6847576,0.00466575,0.00002260,-0.01116569,-0.06873571,0.11879132,-0.06
 954550,0.10243320,-0.00430264,0.00776815,0.00233116,-0.01620065,-0.010
 18366,0.02502701,0.01636540,-0.00472941,-0.01442837,0.34532720,0.00112
 572,-0.01570847,0.00258697,-0.00209363,-0.01940921,-0.03015284,-0.0040
 4280,0.00769266,0.01423658,0.17895857,0.41631799,-0.04176404,0.0615255
 3,-0.01769432,0.04530683,-0.07648769,0.11745412,0.00421754,0.00394092,
 -0.04088701,0.09459050,-0.08201592,0.51936306,-0.00828980,0.00033193,0
 .00378107,-0.00943612,-0.00024648,0.00171026,-0.00643451,0.00390109,-0
 .00028553,-0.16562146,-0.08975857,0.00015343,0.47515144,0.00454781,0.0
 0139467,-0.00343632,0.00624679,0.00166523,0.00012037,0.00432192,-0.002
 36268,0.00019735,-0.09359447,-0.13520749,0.01333233,-0.00043336,0.5536
 8528,0.00269031,-0.00203094,-0.00264163,0.00452743,0.00205904,0.001424
 18,0.00200170,-0.00168791,-0.00039813,-0.00084566,0.01331840,-0.086483
 50,0.02462065,-0.00858813,0.58050163,-0.01189203,0.01925557,0.00257177
 ,0.00850918,-0.00742673,0.01633802,-0.00177421,0.00046500,-0.00634543,
 -0.04729839,-0.01447187,-0.01285724,0.00431869,-0.02017829,0.02128150,
 0.04401977,0.01176920,-0.01626087,-0.00434459,-0.00473737,0.00783222,-
 0.01145781,0.00032494,-0.00110004,0.00425849,-0.01885282,-0.17012785,0
 .16090838,0.00004765,-0.00496544,0.01045801,0.01761778,0.17353165,0.00
 717343,-0.01326901,0.00171407,-0.00349821,0.00273742,-0.00776367,0.001
 53355,-0.00047263,0.00350925,0.00048927,0.15022431,-0.21862314,-0.0010
 3719,-0.00076865,0.00149820,-0.00718289,-0.15492073,0.23136979,0.00676
 707,-0.01109394,0.00273177,-0.00601706,0.02756192,-0.01257856,-0.00744
 082,0.00016928,0.00677443,-0.09332784,-0.04979996,-0.09501405,-0.00620
 369,-0.00989259,-0.02550204,0.00703127,-0.00336607,0.00193178,0.102096
 46,-0.00459672,0.00837719,-0.00194929,0.00840556,-0.01980180,0.0091292
 4,0.00482641,-0.00132139,-0.00552898,-0.05418575,-0.06943802,-0.079516
 38,-0.00554294,-0.00113158,-0.01190399,0.00599429,0.01091984,0.0173010
 3,0.04798295,0.07241001,-0.00246064,0.00306846,0.00074197,0.00499247,-
 0.00449864,0.00818163,0.00122625,-0.00098462,-0.00254275,-0.11291057,-
 0.06951157,-0.27333586,0.00276435,0.00415430,0.00820367,-0.01208443,-0
 .00656318,-0.01420469,0.11816869,0.07357557,0.27191398,0.00106667,-0.0
 0100811,-0.00118796,0.00025000,0.00110813,-0.00053327,-0.00065364,-0.0
 0001357,0.00002535,0.00174908,-0.02370330,0.02504149,-0.04764129,0.021
 43139,-0.02451965,-0.00420164,-0.00324694,-0.00046356,0.00007205,0.001
 54735,0.00002668,0.05302508,-0.00050752,0.00086163,-0.00082138,0.00158
 595,0.00082830,0.00193512,-0.00072885,-0.00004037,-0.00086734,0.003545
 73,-0.01496522,0.01231748,0.01656569,-0.18540170,0.13229921,-0.0031719
 2,0.00015013,-0.00073340,0.00079679,0.00015807,-0.00020246,-0.01843444
 ,0.20030160,-0.00029469,0.00062528,0.00048965,-0.00034867,-0.00140243,
 0.00009090,-0.00014567,0.00047719,0.00016018,0.00279274,0.00160428,-0.
 00199538,-0.02236217,0.13284489,-0.17981877,-0.00062965,0.00082891,0.0
 0143995,0.00091316,-0.00078651,0.00058247,0.02248738,-0.14691824,0.188
 88991,0.00034826,-0.00106043,0.00076668,-0.00040591,-0.00216833,-0.001
 19669,-0.00175238,0.00124972,0.00000114,-0.02440918,0.01696564,0.00853
 238,-0.17800347,0.11348806,0.05302989,0.00090281,-0.00091295,0.0002802
 6,0.00084567,-0.00090029,-0.00097944,-0.00207952,0.00141885,0.00024787
 ,0.19797164,-0.00098189,0.00016729,0.00098066,-0.00038658,0.00099224,0
 .00030001,-0.00207893,0.00089881,-0.00048316,-0.00624027,0.00939833,0.
 00372757,0.10485525,-0.13500514,-0.04159528,0.00121298,-0.00021974,0.0
 0025140,0.00070853,0.00014578,-0.00058821,0.01628860,-0.01327517,-0.00
 777275,-0.12305181,0.14525443,0.00212444,0.00047028,0.00123582,-0.0024
 4475,-0.00015098,-0.00296207,0.00010059,0.00024041,0.00127247,0.002985
 27,-0.00160885,-0.00286757,0.05168216,-0.04317650,-0.05989802,-0.00075
 511,0.00094110,0.00026098,0.00078044,-0.00051885,-0.00032211,-0.016674
 52,0.01219272,0.00682330,-0.05910675,0.04771795,0.06323913,0.00086856,
 0.00030241,0.00161316,0.00053945,0.00037150,-0.00109379,0.00086515,-0.
 00090882,-0.00005170,-0.01228152,-0.01317981,-0.02820684,-0.05783979,-
 0.02593725,-0.05728413,0.00038456,0.00135657,0.00077356,-0.00382309,-0
 .00353086,0.00125666,-0.00158678,-0.00107029,-0.00266030,0.00658209,0.
 00967412,0.02130823,0.06629137,0.00106142,-0.00052569,0.00036046,0.000
 23047,0.00129225,-0.00088765,-0.00064669,0.00007858,0.00042249,-0.0024
 8605,-0.00855273,-0.01773223,-0.02972028,-0.09267116,-0.09232841,0.000
 70319,0.00024011,-0.00034974,-0.00306691,-0.00031811,0.00155035,0.0060
 3089,0.01138272,0.02049936,-0.00502847,-0.00835682,-0.01610727,0.03292
 244,0.09743084,0.00165634,0.00027256,0.00065400,-0.00101928,0.00037402
 ,-0.00175414,0.00039561,-0.00020788,0.00052275,-0.00003136,0.00131863,
 0.00506960,-0.06102704,-0.09467965,-0.26238763,-0.00033654,-0.00010858
 ,0.00079926,0.00179438,0.00019816,0.00078169,-0.00420193,-0.00920171,-
 0.01666221,-0.00157534,-0.00253819,-0.00678193,0.06434516,0.10457265,0
 .27975859\\-0.00000046,-0.00000015,-0.00000126,-0.00000025,-0.00000020
 ,0.00000049,0.00000021,-0.00000093,-0.00000070,0.,-0.00000036,-0.00000
 037,-0.00000010,0.00000050,0.00000051,0.00000010,0.00000016,0.00000025
 ,0.00000058,-0.00000011,0.00000001,0.00000002,0.00000024,0.00000024,0.
 00000024,0.00000044,0.00000044,-0.00000034,0.00000041,0.00000038\\\@
 Job cpu time:       0 days  0 hours  2 minutes 20.4 seconds.
 Elapsed time:       0 days  0 hours  0 minutes 25.3 seconds.
 File lengths (MBytes):  RWF=   1912 Int=      0 D2E=      0 Chk=      5 Scr=      1
 Normal termination of Gaussian 16 at Mon Sep 20 08:40:14 2021.
