 Entering Gaussian System, Link 0=/Local/ce_dana/g09/g09
 Initial command:
 /Local/ce_dana/g09/l1.exe "/storage/ce_dana/alongd/scratch/g09/Gau-1729.inp" -scrdir="/storage/ce_dana/alongd/scratch/g09/"
 Entering Link 1 = /Local/ce_dana/g09/l1.exe PID=      1743.
  
 Copyright (c) 1988,1990,1992,1993,1995,1998,2003,2009,2013,
            Gaussian, Inc.  All Rights Reserved.
  
 This is part of the Gaussian(R) 09 program.  It is based on
 the Gaussian(R) 03 system (copyright 2003, Gaussian, Inc.),
 the Gaussian(R) 98 system (copyright 1998, Gaussian, Inc.),
 the Gaussian(R) 94 system (copyright 1995, Gaussian, Inc.),
 the Gaussian 92(TM) system (copyright 1992, Gaussian, Inc.),
 the Gaussian 90(TM) system (copyright 1990, Gaussian, Inc.),
 the Gaussian 88(TM) system (copyright 1988, Gaussian, Inc.),
 the Gaussian 86(TM) system (copyright 1986, Carnegie Mellon
 University), and the Gaussian 82(TM) system (copyright 1983,
 Carnegie Mellon University). Gaussian is a federally registered
 trademark of Gaussian, Inc.
  
 This software contains proprietary and confidential information,
 including trade secrets, belonging to Gaussian, Inc.
  
 This software is provided under written license and may be
 used, copied, transmitted, or stored only in accord with that
 written license.
  
 The following legend is applicable only to US Government
 contracts under FAR:
  
                    RESTRICTED RIGHTS LEGEND
  
 Use, reproduction and disclosure by the US Government is
 subject to restrictions as set forth in subparagraphs (a)
 and (c) of the Commercial Computer Software - Restricted
 Rights clause in FAR 52.227-19.
  
 Gaussian, Inc.
 340 Quinnipiac St., Bldg. 40, Wallingford CT 06492
  
  
 ---------------------------------------------------------------
 Warning -- This program may not be used in any manner that
 competes with the business of Gaussian, Inc. or will provide
 assistance to any competitor of Gaussian, Inc.  The licensee
 of this program is prohibited from giving any competitor of
 Gaussian, Inc. access to this program.  By using this program,
 the user acknowledges that Gaussian, Inc. is engaged in the
 business of creating and licensing software in the field of
 computational chemistry and represents and warrants to the
 licensee that it is not a competitor of Gaussian, Inc. and that
 it will not use this program in any manner prohibited above.
 ---------------------------------------------------------------
  

 Cite this work as:
 Gaussian 09, Revision D.01,
 M. J. Frisch, G. W. Trucks, H. B. Schlegel, G. E. Scuseria, 
 M. A. Robb, J. R. Cheeseman, G. Scalmani, V. Barone, B. Mennucci, 
 G. A. Petersson, H. Nakatsuji, M. Caricato, X. Li, H. P. Hratchian, 
 A. F. Izmaylov, J. Bloino, G. Zheng, J. L. Sonnenberg, M. Hada, 
 M. Ehara, K. Toyota, R. Fukuda, J. Hasegawa, M. Ishida, T. Nakajima, 
 Y. Honda, O. Kitao, H. Nakai, T. Vreven, J. A. Montgomery, Jr., 
 J. E. Peralta, F. Ogliaro, M. Bearpark, J. J. Heyd, E. Brothers, 
 K. N. Kudin, V. N. Staroverov, T. Keith, R. Kobayashi, J. Normand, 
 K. Raghavachari, A. Rendell, J. C. Burant, S. S. Iyengar, J. Tomasi, 
 M. Cossi, N. Rega, J. M. Millam, M. Klene, J. E. Knox, J. B. Cross, 
 V. Bakken, C. Adamo, J. Jaramillo, R. Gomperts, R. E. Stratmann, 
 O. Yazyev, A. J. Austin, R. Cammi, C. Pomelli, J. W. Ochterski, 
 R. L. Martin, K. Morokuma, V. G. Zakrzewski, G. A. Voth, 
 P. Salvador, J. J. Dannenberg, S. Dapprich, A. D. Daniels, 
 O. Farkas, J. B. Foresman, J. V. Ortiz, J. Cioslowski, 
 and D. J. Fox, Gaussian, Inc., Wallingford CT, 2013.
 
 ******************************************
 Gaussian 09:  ES64L-G09RevD.01 24-Apr-2013
                15-Sep-2021 
 ******************************************
 %chk=check.chk
 %mem=6144mb
 %NProcShared=8
 Will use up to    8 processors via shared memory.
 ----------------------------------------------------------------------
 #P opt=(ts, calcfc, noeigentest, maxcycles=100, tight, maxstep=5) gues
 s=read cbs-qb3 scf=(tight, direct) integral=(grid=ultrafine, Acc2E=12)
  IOp(2/9=2000) scf=xqc
 ----------------------------------------------------------------------
 1/5=1,6=100,7=10,8=5,10=4,11=1,14=-1,18=20,26=4,38=1/1,3;
 2/9=2000,12=2,17=6,18=5,40=1/2;
 3/5=4,6=6,7=700,11=2,16=1,25=1,30=1,71=2,74=-5,75=-5,116=-2,140=1/1,2,3;
 4/5=1/1;
 5/5=2,8=3,13=1,32=2,38=6,87=12/2,8;
 8/6=4,10=90,11=11,87=12/1;
 11/6=1,8=1,9=11,15=111,16=1,87=12/1,2,10;
 10/6=1,13=1,87=12/2;
 6/7=2,8=2,9=2,10=2,28=1/1;
 7/10=1,18=20,25=1,87=12/1,2,3,16;
 1/5=1,6=100,7=10,8=5,10=4,11=1,14=-1,18=20,26=4/3(2);
 2/9=2000/2;
 99//99;
 2/9=2000/2;
 3/5=4,6=6,7=700,11=2,16=1,25=1,30=1,71=1,74=-5,75=-5/1,2,3;
 4/5=5,16=3,69=1/1;
 5/5=2,8=3,13=1,32=2,38=5,87=12/2,8;
 7/87=12/1,2,3,16;
 1/5=1,6=100,7=10,8=5,11=1,14=-1,18=20,26=4/3(-5);
 2/9=2000/2;
 6/7=2,8=2,9=2,10=2,19=2,28=1/1;
 99/9=1/99;
 Leave Link    1 at Wed Sep 15 11:29:30 2021, MaxMem=   805306368 cpu:         0.1
 (Enter /Local/ce_dana/g09/l101.exe)
 ---
 TS1
 ---
 Symbolic Z-matrix:
 Charge =  0 Multiplicity = 2
 N                     0.02261  -0.36647  -1.20519 
 C                    -0.06601  -0.39634   0.21446 
 C                     0.02162   0.9291    0.94841 
 H                    -0.87155  -0.40406  -1.6822 
 H                     0.57153   0.40919  -1.56191 
 H                     0.87009  -1.06871   0.6597 
 H                    -0.93944  -0.9878    0.52716 
 H                    -0.82759   1.58311   0.68948 
 H                     0.02276   0.77849   2.03836 
 H                     0.95071   1.4607    0.68598 
 H                     1.71658  -1.61873   1.09221 
 
 Add virtual bond connecting atoms H11        and H6         Dist= 2.08D+00.
 NAtoms=     11 NQM=       11 NQMF=       0 NMMI=      0 NMMIF=      0
                NMic=       0 NMicF=      0.
                    Isotopes and Nuclear Properties:
 (Nuclear quadrupole moments (NQMom) in fm**2, nuclear magnetic moments (NMagM)
  in nuclear magnetons)

  Atom         1           2           3           4           5           6           7           8           9          10
 IAtWgt=          14          12          12           1           1           1           1           1           1           1
 AtmWgt=  14.0030740  12.0000000  12.0000000   1.0078250   1.0078250   1.0078250   1.0078250   1.0078250   1.0078250   1.0078250
 NucSpn=           2           0           0           1           1           1           1           1           1           1
 AtZEff=   0.0000000   0.0000000   0.0000000   0.0000000   0.0000000   0.0000000   0.0000000   0.0000000   0.0000000   0.0000000
 NQMom=    2.0440000   0.0000000   0.0000000   0.0000000   0.0000000   0.0000000   0.0000000   0.0000000   0.0000000   0.0000000
 NMagM=    0.4037610   0.0000000   0.0000000   2.7928460   2.7928460   2.7928460   2.7928460   2.7928460   2.7928460   2.7928460
 AtZNuc=   7.0000000   6.0000000   6.0000000   1.0000000   1.0000000   1.0000000   1.0000000   1.0000000   1.0000000   1.0000000

  Atom        11
 IAtWgt=           1
 AtmWgt=   1.0078250
 NucSpn=           1
 AtZEff=   0.0000000
 NQMom=    0.0000000
 NMagM=    2.7928460
 AtZNuc=   1.0000000
 Leave Link  101 at Wed Sep 15 11:29:30 2021, MaxMem=   805306368 cpu:         0.3
 (Enter /Local/ce_dana/g09/l103.exe)

 GradGradGradGradGradGradGradGradGradGradGradGradGradGradGradGradGradGrad
 Berny optimization.
 Initialization pass.
                           ----------------------------
                           !    Initial Parameters    !
                           ! (Angstroms and Degrees)  !
 --------------------------                            --------------------------
 ! Name  Definition              Value          Derivative Info.                !
 --------------------------------------------------------------------------------
 ! R1    R(1,2)                  1.4227         calculate D2E/DX2 analytically  !
 ! R2    R(1,4)                  1.0141         calculate D2E/DX2 analytically  !
 ! R3    R(1,5)                  1.015          calculate D2E/DX2 analytically  !
 ! R4    R(2,3)                  1.5176         calculate D2E/DX2 analytically  !
 ! R5    R(2,6)                  1.2356         calculate D2E/DX2 analytically  !
 ! R6    R(2,7)                  1.1002         calculate D2E/DX2 analytically  !
 ! R7    R(3,8)                  1.1027         calculate D2E/DX2 analytically  !
 ! R8    R(3,9)                  1.1003         calculate D2E/DX2 analytically  !
 ! R9    R(3,10)                 1.1021         calculate D2E/DX2 analytically  !
 ! R10   R(6,11)                 1.0982         calculate D2E/DX2 analytically  !
 ! A1    A(2,1,4)              114.434          calculate D2E/DX2 analytically  !
 ! A2    A(2,1,5)              113.6047         calculate D2E/DX2 analytically  !
 ! A3    A(4,1,5)              109.868          calculate D2E/DX2 analytically  !
 ! A4    A(1,2,3)              117.4284         calculate D2E/DX2 analytically  !
 ! A5    A(1,2,6)              108.8933         calculate D2E/DX2 analytically  !
 ! A6    A(1,2,7)              110.1414         calculate D2E/DX2 analytically  !
 ! A7    A(3,2,6)              104.907          calculate D2E/DX2 analytically  !
 ! A8    A(3,2,7)              112.2036         calculate D2E/DX2 analytically  !
 ! A9    A(6,2,7)              101.9174         calculate D2E/DX2 analytically  !
 ! A10   A(2,3,8)              111.0979         calculate D2E/DX2 analytically  !
 ! A11   A(2,3,9)              111.0749         calculate D2E/DX2 analytically  !
 ! A12   A(2,3,10)             110.7803         calculate D2E/DX2 analytically  !
 ! A13   A(8,3,9)              108.3357         calculate D2E/DX2 analytically  !
 ! A14   A(8,3,10)             107.892          calculate D2E/DX2 analytically  !
 ! A15   A(9,3,10)             107.5189         calculate D2E/DX2 analytically  !
 ! A16   L(2,6,11,9,-1)        176.9999         calculate D2E/DX2 analytically  !
 ! A17   L(2,6,11,9,-2)        181.3315         calculate D2E/DX2 analytically  !
 ! D1    D(4,1,2,3)            -98.5559         calculate D2E/DX2 analytically  !
 ! D2    D(4,1,2,6)            142.5002         calculate D2E/DX2 analytically  !
 ! D3    D(4,1,2,7)             31.5227         calculate D2E/DX2 analytically  !
 ! D4    D(5,1,2,3)             28.7384         calculate D2E/DX2 analytically  !
 ! D5    D(5,1,2,6)            -90.2055         calculate D2E/DX2 analytically  !
 ! D6    D(5,1,2,7)            158.817          calculate D2E/DX2 analytically  !
 ! D7    D(1,2,3,8)             63.8771         calculate D2E/DX2 analytically  !
 ! D8    D(1,2,3,9)           -175.4563         calculate D2E/DX2 analytically  !
 ! D9    D(1,2,3,10)           -56.0315         calculate D2E/DX2 analytically  !
 ! D10   D(6,2,3,8)           -175.08           calculate D2E/DX2 analytically  !
 ! D11   D(6,2,3,9)            -54.4134         calculate D2E/DX2 analytically  !
 ! D12   D(6,2,3,10)            65.0113         calculate D2E/DX2 analytically  !
 ! D13   D(7,2,3,8)            -65.2357         calculate D2E/DX2 analytically  !
 ! D14   D(7,2,3,9)             55.4309         calculate D2E/DX2 analytically  !
 ! D15   D(7,2,3,10)           174.8556         calculate D2E/DX2 analytically  !
 --------------------------------------------------------------------------------
 Trust Radius=5.00D-02 FncErr=1.00D-07 GrdErr=1.00D-06
 Number of steps in this run=    100 maximum allowed number of steps=    100.
 Search for a saddle point of order  1.
 GradGradGradGradGradGradGradGradGradGradGradGradGradGradGradGradGradGrad

 Leave Link  103 at Wed Sep 15 11:29:30 2021, MaxMem=   805306368 cpu:         0.0
 (Enter /Local/ce_dana/g09/l202.exe)
                          Input orientation:                          
 ---------------------------------------------------------------------
 Center     Atomic      Atomic             Coordinates (Angstroms)
 Number     Number       Type             X           Y           Z
 ---------------------------------------------------------------------
      1          7           0        0.022608   -0.366465   -1.205194
      2          6           0       -0.066012   -0.396341    0.214460
      3          6           0        0.021624    0.929098    0.948413
      4          1           0       -0.871550   -0.404056   -1.682203
      5          1           0        0.571533    0.409193   -1.561913
      6          1           0        0.870092   -1.068714    0.659695
      7          1           0       -0.939441   -0.987800    0.527159
      8          1           0       -0.827593    1.583111    0.689481
      9          1           0        0.022763    0.778494    2.038364
     10          1           0        0.950707    1.460696    0.685983
     11          1           0        1.716579   -1.618733    1.092211
 ---------------------------------------------------------------------
                    Distance matrix (angstroms):
                    1          2          3          4          5
     1  N    0.000000
     2  C    1.422731   0.000000
     3  C    2.513266   1.517615   0.000000
     4  H    1.014135   2.060651   3.081428   0.000000
     5  H    1.014994   2.052035   2.621915   1.660823   0.000000
     6  H    2.165455   1.235561   2.189637   2.993255   2.684937
     7  H    2.076690   1.100219   2.185314   2.286186   2.932380
     8  H    2.848417   2.173449   1.102700   3.094455   2.899036
     9  H    3.439709   2.171346   1.100307   4.005102   3.660536
    10  H    2.788626   2.169018   1.102117   3.522247   2.510472
    11  H    3.117015   2.332878   3.063494   3.983871   3.531004
                    6          7          8          9         10
     6  H    0.000000
     7  H    1.816184   0.000000
     8  H    3.148841   2.578457   0.000000
     9  H    2.455783   2.515824   1.786057   0.000000
    10  H    2.530831   3.097260   1.782512   1.776349   0.000000
    11  H    1.098240   2.787795   4.109356   3.083977   3.199135
                   11
    11  H    0.000000
 Stoichiometry    C2H8N(2)
 Framework group  C1[X(C2H8N)]
 Deg. of freedom    27
 Full point group                 C1      NOp   1
 Largest Abelian subgroup         C1      NOp   1
 Largest concise Abelian subgroup C1      NOp   1
                         Standard orientation:                         
 ---------------------------------------------------------------------
 Center     Atomic      Atomic             Coordinates (Angstroms)
 Number     Number       Type             X           Y           Z
 ---------------------------------------------------------------------
      1          7           0        1.279593   -0.214013   -0.127495
      2          6           0        0.052981    0.376199    0.286310
      3          6           0       -1.228439   -0.360436   -0.057911
      4          1           0        1.758905   -0.737127    0.597130
      5          1           0        1.195371   -0.781909   -0.964521
      6          1           0       -0.061162    1.481782   -0.253383
      7          1           0        0.103372    0.647415    1.351386
      8          1           0       -1.273099   -1.338003    0.450338
      9          1           0       -2.112489    0.224123    0.237763
     10          1           0       -1.296985   -0.539622   -1.143201
     11          1           0       -0.218320    2.446855   -0.753450
 ---------------------------------------------------------------------
 Rotational constants (GHZ):     22.5542246      8.4290003      7.2832244
 Leave Link  202 at Wed Sep 15 11:29:30 2021, MaxMem=   805306368 cpu:         0.0
 (Enter /Local/ce_dana/g09/l301.exe)
 Standard basis: 6-311G(2d,d,p) (5D, 7F)
 Ernie: Thresh=  0.10000D-02 Tol=  0.10000D-05 Strict=F.
 There are   105 symmetry adapted cartesian basis functions of A   symmetry.
 There are   102 symmetry adapted basis functions of A   symmetry.
   102 basis functions,   160 primitive gaussians,   105 cartesian basis functions
    14 alpha electrons       13 beta electrons
       nuclear repulsion energy        87.7037813180 Hartrees.
 IExCor=  402 DFT=T Ex+Corr=B3LYP ExCW=0 ScaHFX=  0.200000
 ScaDFX=  0.800000  0.720000  1.000000  0.810000 ScalE2=  1.000000  1.000000
 IRadAn=      5 IRanWt=     -1 IRanGd=            0 ICorTp=0 IEmpDi=  4
 NAtoms=   11 NActive=   11 NUniq=   11 SFac= 1.00D+00 NAtFMM=   60 NAOKFM=F Big=F
 Integral buffers will be    131072 words long.
 Raffenetti 2 integral format.
 Two-electron integral symmetry is turned on.
 Leave Link  301 at Wed Sep 15 11:29:30 2021, MaxMem=   805306368 cpu:         0.1
 (Enter /Local/ce_dana/g09/l302.exe)
 NPDir=0 NMtPBC=     1 NCelOv=     1 NCel=       1 NClECP=     1 NCelD=      1
         NCelK=      1 NCelE2=     1 NClLst=     1 CellRange=     0.0.
 One-electron integrals computed using PRISM.
 NBasis=   102 RedAO= T EigKep=  2.80D-03  NBF=   102
 NBsUse=   102 1.00D-06 EigRej= -1.00D+00 NBFU=   102
 Precomputing XC quadrature grid using
 IXCGrd= 4 IRadAn=           5 IRanWt=          -1 IRanGd=           0 AccXCQ= 0.00D+00.
 Generated NRdTot=       0 NPtTot=           0 NUsed=           0 NTot=          32
 NSgBfM=   105   105   105   105   105 MxSgAt=    11 MxSgA2=    11.
 Leave Link  302 at Wed Sep 15 11:29:31 2021, MaxMem=   805306368 cpu:         0.9
 (Enter /Local/ce_dana/g09/l303.exe)
 DipDrv:  MaxL=1.
 Leave Link  303 at Wed Sep 15 11:29:31 2021, MaxMem=   805306368 cpu:         0.1
 (Enter /Local/ce_dana/g09/l401.exe)
 Initial guess from the checkpoint file:  "check.chk"
 B after Tr=    -0.000000    0.000000   -0.000000
         Rot=    0.141985    0.881571   -0.435547    0.113892 Ang= 163.67 deg.
 Guess basis will be translated and rotated to current coordinates.
 JPrj=2 DoOrth=T DoCkMO=T.
 Initial guess <Sx>= 0.0000 <Sy>= 0.0000 <Sz>= 0.5000 <S**2>= 0.7500 S= 0.5000
 Leave Link  401 at Wed Sep 15 11:29:31 2021, MaxMem=   805306368 cpu:         0.3
 (Enter /Local/ce_dana/g09/l502.exe)
 UHF open shell SCF:
 Using DIIS extrapolation, IDIIS=  1040.
 Integral symmetry usage will be decided dynamically.
 Keep R1 and R2 ints in memory in canonical form, NReq=28569832.
 IVT=       40658 IEndB=       40658 NGot=   805306368 MDV=   777666449
 LenX=   777666449 LenY=   777654983
 Requested convergence on RMS density matrix=1.00D-08 within  64 cycles.
 Requested convergence on MAX density matrix=1.00D-06.
 Requested convergence on             energy=1.00D-06.
 No special actions if energy rises.
 FoFCou: FMM=F IPFlag=           0 FMFlag=           0 FMFlg1=           0
         NFxFlg=           0 DoJE=F BraDBF=F KetDBF=F FulRan=T
         wScrn=  0.000000 ICntrl=     600 IOpCl=  0 I1Cent=           0 NGrid=           0
         NMat0=    1 NMatS0=   5253 NMatT0=    0 NMatD0=    1 NMtDS0=    0 NMtDT0=    0
 Symmetry not used in FoFCou.

 Cycle   1  Pass 1  IDiag  1:
 E= -131.318358356624    
 DIIS: error= 8.98D-02 at cycle   1 NSaved=   1.
 NSaved= 1 IEnMin= 1 EnMin= -131.318358356624     IErMin= 1 ErrMin= 8.98D-02
 ErrMax= 8.98D-02  0.00D+00 EMaxC= 1.00D-01 BMatC= 7.08D+00 BMatP= 7.08D+00
 IDIUse=3 WtCom= 1.02D-01 WtEn= 8.98D-01
 Coeff-Com:  0.100D+01
 Coeff-En:   0.100D+01
 Coeff:      0.100D+01
 Gap=     0.536 Goal=   None    Shift=    0.000
 Gap=     0.615 Goal=   None    Shift=    0.000
 GapD=    0.536 DampG=2.000 DampE=0.500 DampFc=1.0000 IDamp=-1.
 RMSDP=4.33D-02 MaxDP=2.77D+00              OVMax= 8.13D-01

 Cycle   2  Pass 1  IDiag  1:
 E= -133.619468867875     Delta-E=       -2.301110511251 Rises=F Damp=F
 DIIS: error= 1.14D-01 at cycle   2 NSaved=   2.
 NSaved= 2 IEnMin= 2 EnMin= -133.619468867875     IErMin= 1 ErrMin= 8.98D-02
 ErrMax= 1.14D-01  0.00D+00 EMaxC= 1.00D-01 BMatC= 5.46D+00 BMatP= 7.08D+00
 IDIUse=3 WtCom= 0.00D+00 WtEn= 1.00D+00
 Coeff-Com:  0.444D+00 0.556D+00
 Coeff-En:   0.196D-01 0.980D+00
 Coeff:      0.196D-01 0.980D+00
 Gap=    -0.353 Goal=   None    Shift=    0.000
 Gap=     0.402 Goal=   None    Shift=    0.000
 RMSDP=4.83D-02 MaxDP=2.78D+00 DE=-2.30D+00 OVMax= 9.26D-01

 Cycle   3  Pass 1  IDiag  1:
 E= -121.083450720059     Delta-E=       12.536018147816 Rises=F Damp=F
 DIIS: error= 2.18D-01 at cycle   3 NSaved=   3.
 NSaved= 3 IEnMin= 2 EnMin= -133.619468867875     IErMin= 1 ErrMin= 8.98D-02
 ErrMax= 2.18D-01  0.00D+00 EMaxC= 1.00D-01 BMatC= 4.60D+01 BMatP= 5.46D+00
 IDIUse=2 WtCom= 0.00D+00 WtEn= 1.00D+00
 Coeff-En:   0.000D+00 0.834D+00 0.166D+00
 Coeff:      0.000D+00 0.834D+00 0.166D+00
 Gap=    -0.152 Goal=   None    Shift=    0.000
 Gap=    -0.107 Goal=   None    Shift=    0.000
 RMSDP=2.65D-02 MaxDP=7.08D-01 DE= 1.25D+01 OVMax= 9.66D-01

 Cycle   4  Pass 1  IDiag  1:
 E= -134.805352312265     Delta-E=      -13.721901592207 Rises=F Damp=F
 DIIS: error= 8.63D-02 at cycle   4 NSaved=   4.
 NSaved= 4 IEnMin= 4 EnMin= -134.805352312265     IErMin= 4 ErrMin= 8.63D-02
 ErrMax= 8.63D-02  0.00D+00 EMaxC= 1.00D-01 BMatC= 4.12D+00 BMatP= 5.46D+00
 IDIUse=3 WtCom= 1.37D-01 WtEn= 8.63D-01
 Coeff-Com:  0.564D-01 0.435D+00-0.223D-01 0.531D+00
 Coeff-En:   0.000D+00 0.333D+00 0.000D+00 0.667D+00
 Coeff:      0.772D-02 0.347D+00-0.305D-02 0.649D+00
 Gap=     0.236 Goal=   None    Shift=    0.000
 Gap=     0.179 Goal=   None    Shift=    0.000
 RMSDP=9.33D-03 MaxDP=2.27D-01 DE=-1.37D+01 OVMax= 3.79D-01

 Cycle   5  Pass 1  IDiag  1:
 E= -135.643808871859     Delta-E=       -0.838456559593 Rises=F Damp=F
 DIIS: error= 2.80D-02 at cycle   5 NSaved=   5.
 NSaved= 5 IEnMin= 5 EnMin= -135.643808871859     IErMin= 5 ErrMin= 2.80D-02
 ErrMax= 2.80D-02  0.00D+00 EMaxC= 1.00D-01 BMatC= 2.95D-01 BMatP= 4.12D+00
 IDIUse=3 WtCom= 7.20D-01 WtEn= 2.80D-01
 Coeff-Com:  0.597D-02 0.762D-01-0.153D-01 0.234D+00 0.699D+00
 Coeff-En:   0.000D+00 0.000D+00 0.000D+00 0.000D+00 0.100D+01
 Coeff:      0.429D-02 0.549D-01-0.110D-01 0.168D+00 0.783D+00
 Gap=     0.242 Goal=   None    Shift=    0.000
 Gap=     0.188 Goal=   None    Shift=    0.000
 RMSDP=3.23D-03 MaxDP=6.92D-02 DE=-8.38D-01 OVMax= 1.32D-01

 Cycle   6  Pass 1  IDiag  1:
 E= -135.685704802557     Delta-E=       -0.041895930698 Rises=F Damp=F
 DIIS: error= 1.97D-02 at cycle   6 NSaved=   6.
 NSaved= 6 IEnMin= 6 EnMin= -135.685704802557     IErMin= 6 ErrMin= 1.97D-02
 ErrMax= 1.97D-02  0.00D+00 EMaxC= 1.00D-01 BMatC= 1.18D-01 BMatP= 2.95D-01
 IDIUse=3 WtCom= 8.03D-01 WtEn= 1.97D-01
 Coeff-Com: -0.356D-03 0.124D-01-0.605D-03 0.637D-02 0.372D+00 0.610D+00
 Coeff-En:   0.000D+00 0.000D+00 0.000D+00 0.000D+00 0.285D+00 0.715D+00
 Coeff:     -0.285D-03 0.998D-02-0.486D-03 0.511D-02 0.355D+00 0.631D+00
 Gap=     0.232 Goal=   None    Shift=    0.000
 Gap=     0.165 Goal=   None    Shift=    0.000
 RMSDP=1.43D-03 MaxDP=3.38D-02 DE=-4.19D-02 OVMax= 6.80D-02

 Cycle   7  Pass 1  IDiag  1:
 E= -135.713436936067     Delta-E=       -0.027732133510 Rises=F Damp=F
 DIIS: error= 3.10D-03 at cycle   7 NSaved=   7.
 NSaved= 7 IEnMin= 7 EnMin= -135.713436936067     IErMin= 7 ErrMin= 3.10D-03
 ErrMax= 3.10D-03  0.00D+00 EMaxC= 1.00D-01 BMatC= 2.51D-03 BMatP= 1.18D-01
 IDIUse=3 WtCom= 9.69D-01 WtEn= 3.10D-02
 Coeff-Com: -0.457D-03-0.159D-02 0.700D-03-0.117D-01 0.495D-01 0.204D+00
 Coeff-Com:  0.759D+00
 Coeff-En:   0.000D+00 0.000D+00 0.000D+00 0.000D+00 0.000D+00 0.000D+00
 Coeff-En:   0.100D+01
 Coeff:     -0.443D-03-0.154D-02 0.678D-03-0.113D-01 0.480D-01 0.198D+00
 Coeff:      0.767D+00
 Gap=     0.228 Goal=   None    Shift=    0.000
 Gap=     0.174 Goal=   None    Shift=    0.000
 RMSDP=2.71D-04 MaxDP=4.77D-03 DE=-2.77D-02 OVMax= 1.62D-02

 Cycle   8  Pass 1  IDiag  1:
 E= -135.714119870650     Delta-E=       -0.000682934583 Rises=F Damp=F
 DIIS: error= 7.76D-04 at cycle   8 NSaved=   8.
 NSaved= 8 IEnMin= 8 EnMin= -135.714119870650     IErMin= 8 ErrMin= 7.76D-04
 ErrMax= 7.76D-04  0.00D+00 EMaxC= 1.00D-01 BMatC= 2.20D-04 BMatP= 2.51D-03
 IDIUse=3 WtCom= 9.92D-01 WtEn= 7.76D-03
 Coeff-Com: -0.102D-03-0.699D-03-0.183D-04-0.772D-03 0.276D-02 0.349D-01
 Coeff-Com:  0.284D+00 0.680D+00
 Coeff-En:   0.000D+00 0.000D+00 0.000D+00 0.000D+00 0.000D+00 0.000D+00
 Coeff-En:   0.000D+00 0.100D+01
 Coeff:     -0.101D-03-0.694D-03-0.181D-04-0.766D-03 0.274D-02 0.346D-01
 Coeff:      0.281D+00 0.683D+00
 Gap=     0.228 Goal=   None    Shift=    0.000
 Gap=     0.176 Goal=   None    Shift=    0.000
 RMSDP=7.73D-05 MaxDP=1.91D-03 DE=-6.83D-04 OVMax= 3.34D-03

 Cycle   9  Pass 1  IDiag  1:
 E= -135.714171738104     Delta-E=       -0.000051867454 Rises=F Damp=F
 DIIS: error= 3.05D-04 at cycle   9 NSaved=   9.
 NSaved= 9 IEnMin= 9 EnMin= -135.714171738104     IErMin= 9 ErrMin= 3.05D-04
 ErrMax= 3.05D-04  0.00D+00 EMaxC= 1.00D-01 BMatC= 5.10D-05 BMatP= 2.20D-04
 IDIUse=3 WtCom= 9.97D-01 WtEn= 3.05D-03
 Coeff-Com:  0.517D-04-0.521D-03 0.380D-04 0.158D-03-0.106D-01-0.229D-01
 Coeff-Com: -0.190D-01 0.324D+00 0.728D+00
 Coeff-En:   0.000D+00 0.000D+00 0.000D+00 0.000D+00 0.000D+00 0.000D+00
 Coeff-En:   0.000D+00 0.190D-01 0.981D+00
 Coeff:      0.515D-04-0.520D-03 0.379D-04 0.157D-03-0.106D-01-0.228D-01
 Coeff:     -0.189D-01 0.323D+00 0.729D+00
 Gap=     0.228 Goal=   None    Shift=    0.000
 Gap=     0.176 Goal=   None    Shift=    0.000
 RMSDP=3.95D-05 MaxDP=1.04D-03 DE=-5.19D-05 OVMax= 1.14D-03

 Cycle  10  Pass 1  IDiag  1:
 E= -135.714185272915     Delta-E=       -0.000013534811 Rises=F Damp=F
 DIIS: error= 8.94D-05 at cycle  10 NSaved=  10.
 NSaved=10 IEnMin=10 EnMin= -135.714185272915     IErMin=10 ErrMin= 8.94D-05
 ErrMax= 8.94D-05  0.00D+00 EMaxC= 1.00D-01 BMatC= 2.88D-06 BMatP= 5.10D-05
 IDIUse=1 WtCom= 1.00D+00 WtEn= 0.00D+00
 Coeff-Com: -0.609D-05-0.453D-04-0.221D-05 0.390D-03-0.287D-02-0.998D-02
 Coeff-Com: -0.397D-01 0.907D-03 0.202D+00 0.849D+00
 Coeff:     -0.609D-05-0.453D-04-0.221D-05 0.390D-03-0.287D-02-0.998D-02
 Coeff:     -0.397D-01 0.907D-03 0.202D+00 0.849D+00
 Gap=     0.228 Goal=   None    Shift=    0.000
 Gap=     0.176 Goal=   None    Shift=    0.000
 RMSDP=1.16D-05 MaxDP=2.53D-04 DE=-1.35D-05 OVMax= 8.55D-04

 Cycle  11  Pass 1  IDiag  1:
 E= -135.714186346253     Delta-E=       -0.000001073338 Rises=F Damp=F
 DIIS: error= 2.09D-05 at cycle  11 NSaved=  11.
 NSaved=11 IEnMin=11 EnMin= -135.714186346253     IErMin=11 ErrMin= 2.09D-05
 ErrMax= 2.09D-05  0.00D+00 EMaxC= 1.00D-01 BMatC= 1.42D-07 BMatP= 2.88D-06
 IDIUse=1 WtCom= 1.00D+00 WtEn= 0.00D+00
 Coeff-Com: -0.275D-05 0.233D-04-0.574D-05 0.799D-05 0.663D-04-0.191D-03
 Coeff-Com: -0.503D-02-0.240D-01-0.104D-01 0.148D+00 0.892D+00
 Coeff:     -0.275D-05 0.233D-04-0.574D-05 0.799D-05 0.663D-04-0.191D-03
 Coeff:     -0.503D-02-0.240D-01-0.104D-01 0.148D+00 0.892D+00
 Gap=     0.228 Goal=   None    Shift=    0.000
 Gap=     0.176 Goal=   None    Shift=    0.000
 RMSDP=3.21D-06 MaxDP=1.40D-04 DE=-1.07D-06 OVMax= 1.08D-04

 Cycle  12  Pass 1  IDiag  1:
 E= -135.714186404919     Delta-E=       -0.000000058666 Rises=F Damp=F
 DIIS: error= 4.57D-06 at cycle  12 NSaved=  12.
 NSaved=12 IEnMin=12 EnMin= -135.714186404919     IErMin=12 ErrMin= 4.57D-06
 ErrMax= 4.57D-06  0.00D+00 EMaxC= 1.00D-01 BMatC= 1.20D-08 BMatP= 1.42D-07
 IDIUse=1 WtCom= 1.00D+00 WtEn= 0.00D+00
 Coeff-Com: -0.123D-05 0.756D-05 0.135D-05-0.466D-04 0.194D-03 0.700D-03
 Coeff-Com:  0.254D-02-0.383D-02-0.176D-01-0.439D-01 0.135D+00 0.927D+00
 Coeff:     -0.123D-05 0.756D-05 0.135D-05-0.466D-04 0.194D-03 0.700D-03
 Coeff:      0.254D-02-0.383D-02-0.176D-01-0.439D-01 0.135D+00 0.927D+00
 Gap=     0.228 Goal=   None    Shift=    0.000
 Gap=     0.176 Goal=   None    Shift=    0.000
 RMSDP=8.75D-07 MaxDP=2.41D-05 DE=-5.87D-08 OVMax= 2.39D-05

 Cycle  13  Pass 1  IDiag  1:
 E= -135.714186409759     Delta-E=       -0.000000004840 Rises=F Damp=F
 DIIS: error= 1.11D-06 at cycle  13 NSaved=  13.
 NSaved=13 IEnMin=13 EnMin= -135.714186409759     IErMin=13 ErrMin= 1.11D-06
 ErrMax= 1.11D-06  0.00D+00 EMaxC= 1.00D-01 BMatC= 6.07D-10 BMatP= 1.20D-08
 IDIUse=1 WtCom= 1.00D+00 WtEn= 0.00D+00
 Coeff-Com: -0.179D-06-0.138D-05 0.120D-06-0.114D-05 0.193D-04 0.624D-04
 Coeff-Com:  0.481D-03 0.917D-03-0.109D-02-0.118D-01-0.383D-01 0.839D-01
 Coeff-Com:  0.966D+00
 Coeff:     -0.179D-06-0.138D-05 0.120D-06-0.114D-05 0.193D-04 0.624D-04
 Coeff:      0.481D-03 0.917D-03-0.109D-02-0.118D-01-0.383D-01 0.839D-01
 Coeff:      0.966D+00
 Gap=     0.228 Goal=   None    Shift=    0.000
 Gap=     0.176 Goal=   None    Shift=    0.000
 RMSDP=2.21D-07 MaxDP=4.99D-06 DE=-4.84D-09 OVMax= 6.52D-06

 Cycle  14  Pass 1  IDiag  1:
 E= -135.714186410052     Delta-E=       -0.000000000292 Rises=F Damp=F
 DIIS: error= 4.12D-07 at cycle  14 NSaved=  14.
 NSaved=14 IEnMin=14 EnMin= -135.714186410052     IErMin=14 ErrMin= 4.12D-07
 ErrMax= 4.12D-07  0.00D+00 EMaxC= 1.00D-01 BMatC= 6.66D-11 BMatP= 6.07D-10
 IDIUse=1 WtCom= 1.00D+00 WtEn= 0.00D+00
 Coeff-Com: -0.290D-07-0.660D-06-0.100D-06 0.325D-05-0.323D-05-0.202D-04
 Coeff-Com: -0.559D-04 0.328D-03 0.712D-03 0.520D-03-0.135D-01-0.434D-01
 Coeff-Com:  0.150D+00 0.905D+00
 Coeff:     -0.290D-07-0.660D-06-0.100D-06 0.325D-05-0.323D-05-0.202D-04
 Coeff:     -0.559D-04 0.328D-03 0.712D-03 0.520D-03-0.135D-01-0.434D-01
 Coeff:      0.150D+00 0.905D+00
 Gap=     0.228 Goal=   None    Shift=    0.000
 Gap=     0.176 Goal=   None    Shift=    0.000
 RMSDP=6.70D-08 MaxDP=1.19D-06 DE=-2.92D-10 OVMax= 2.08D-06

 Cycle  15  Pass 1  IDiag  1:
 E= -135.714186410081     Delta-E=       -0.000000000029 Rises=F Damp=F
 DIIS: error= 1.45D-07 at cycle  15 NSaved=  15.
 NSaved=15 IEnMin=15 EnMin= -135.714186410081     IErMin=15 ErrMin= 1.45D-07
 ErrMax= 1.45D-07  0.00D+00 EMaxC= 1.00D-01 BMatC= 6.92D-12 BMatP= 6.66D-11
 IDIUse=1 WtCom= 1.00D+00 WtEn= 0.00D+00
 Coeff-Com:  0.671D-08-0.236D-07 0.677D-08 0.172D-06-0.219D-05-0.600D-05
 Coeff-Com: -0.506D-04-0.418D-04 0.218D-03 0.117D-02 0.179D-02-0.153D-01
 Coeff-Com: -0.821D-01 0.135D+00 0.959D+00
 Coeff:      0.671D-08-0.236D-07 0.677D-08 0.172D-06-0.219D-05-0.600D-05
 Coeff:     -0.506D-04-0.418D-04 0.218D-03 0.117D-02 0.179D-02-0.153D-01
 Coeff:     -0.821D-01 0.135D+00 0.959D+00
 Gap=     0.228 Goal=   None    Shift=    0.000
 Gap=     0.176 Goal=   None    Shift=    0.000
 RMSDP=2.09D-08 MaxDP=3.91D-07 DE=-2.91D-11 OVMax= 7.31D-07

 Cycle  16  Pass 1  IDiag  1:
 E= -135.714186410085     Delta-E=       -0.000000000004 Rises=F Damp=F
 DIIS: error= 2.48D-08 at cycle  16 NSaved=  16.
 NSaved=16 IEnMin=16 EnMin= -135.714186410085     IErMin=16 ErrMin= 2.48D-08
 ErrMax= 2.48D-08  0.00D+00 EMaxC= 1.00D-01 BMatC= 3.05D-13 BMatP= 6.92D-12
 IDIUse=1 WtCom= 1.00D+00 WtEn= 0.00D+00
 Coeff-Com:  0.322D-08 0.293D-07 0.650D-08-0.113D-06-0.268D-06-0.165D-06
 Coeff-Com: -0.137D-05-0.192D-04-0.237D-04 0.226D-04 0.101D-02 0.206D-02
 Coeff-Com: -0.157D-01-0.559D-01 0.622D-01 0.101D+01
 Coeff:      0.322D-08 0.293D-07 0.650D-08-0.113D-06-0.268D-06-0.165D-06
 Coeff:     -0.137D-05-0.192D-04-0.237D-04 0.226D-04 0.101D-02 0.206D-02
 Coeff:     -0.157D-01-0.559D-01 0.622D-01 0.101D+01
 Gap=     0.228 Goal=   None    Shift=    0.000
 Gap=     0.176 Goal=   None    Shift=    0.000
 RMSDP=4.78D-09 MaxDP=1.63D-07 DE=-3.78D-12 OVMax= 1.40D-07

 SCF Done:  E(UB3LYP) =  -135.714186410     A.U. after   16 cycles
            NFock= 16  Conv=0.48D-08     -V/T= 2.0048
 <Sx>= 0.0000 <Sy>= 0.0000 <Sz>= 0.5000 <S**2>= 0.7566 S= 0.5033
 <L.S>=  0.00000000000    
 KE= 1.350722263215D+02 PE=-4.901215404656D+02 EE= 1.316313464159D+02
 Annihilation of the first spin contaminant:
 S**2 before annihilation     0.7566,   after     0.7500
 Leave Link  502 at Wed Sep 15 11:29:45 2021, MaxMem=   805306368 cpu:       109.0
 (Enter /Local/ce_dana/g09/l508.exe)
 QCSCF skips out because SCF is already converged.
 Leave Link  508 at Wed Sep 15 11:29:45 2021, MaxMem=   805306368 cpu:         0.0
 (Enter /Local/ce_dana/g09/l801.exe)
 DoSCS=F DFT=T ScalE2(SS,OS)=  1.000000  1.000000
 Range of M.O.s used for correlation:     1   102
 NBasis=   102 NAE=    14 NBE=    13 NFC=     0 NFV=     0
 NROrb=    102 NOA=    14 NOB=    13 NVA=    88 NVB=    89
 Leave Link  801 at Wed Sep 15 11:29:45 2021, MaxMem=   805306368 cpu:         0.0
 (Enter /Local/ce_dana/g09/l1101.exe)
 Using compressed storage, NAtomX=    11.
 Will process     12 centers per pass.
 Leave Link 1101 at Wed Sep 15 11:29:46 2021, MaxMem=   805306368 cpu:         2.4
 (Enter /Local/ce_dana/g09/l1102.exe)
 Symmetrizing basis deriv contribution to polar:
 IMax=3 JMax=2 DiffMx= 0.00D+00
 Leave Link 1102 at Wed Sep 15 11:29:46 2021, MaxMem=   805306368 cpu:         0.1
 (Enter /Local/ce_dana/g09/l1110.exe)
 Forming Gx(P) for the SCF density, NAtomX=    11.
 Integral derivatives from FoFJK, PRISM(SPDF).
 Do as many integral derivatives as possible in FoFJK.
 G2DrvN: MDV=     805306176.
 G2DrvN: will do    12 centers at a time, making    1 passes.
 Calling FoFCou, ICntrl=  3107 FMM=F I1Cent=   0 AccDes= 1.00D-12.
 FoFJK:  IHMeth= 1 ICntrl=    3107 DoSepK=F KAlg= 0 I1Cent=   0 FoldK=F
 IRaf=         0 NMat=   1 IRICut=       1 DoRegI=T DoRafI=F ISym2E= 0.
 FoFCou: FMM=F IPFlag=           0 FMFlag=      100000 FMFlg1=           0
         NFxFlg=           0 DoJE=F BraDBF=F KetDBF=F FulRan=T
         wScrn=  0.000000 ICntrl=    3107 IOpCl=  1 I1Cent=           0 NGrid=           0
         NMat0=    1 NMatS0=      1 NMatT0=    0 NMatD0=    1 NMtDS0=    0 NMtDT0=    0
 Symmetry not used in FoFCou.
 End of G2Drv F.D. properties file   721 does not exist.
 End of G2Drv F.D. properties file   722 does not exist.
 End of G2Drv F.D. properties file   788 does not exist.
 Leave Link 1110 at Wed Sep 15 11:30:05 2021, MaxMem=   805306368 cpu:       150.4
 (Enter /Local/ce_dana/g09/l1002.exe)
 Minotr:  UHF open shell wavefunction.
          IDoAtm=11111111111
          Direct CPHF calculation.
          Differentiating once with respect to nuclear coordinates.
          Requested convergence is 1.0D-08 RMS, and 1.0D-07 maximum.
          Secondary convergence is 1.0D-12 RMS, and 1.0D-12 maximum.
          NewPWx=T KeepS1=F KeepF1=F KeepIn=T MapXYZ=F SortEE=F KeepMc=T.
          MDV=     805306050 using IRadAn=       1.
 Generate precomputed XC quadrature information.
 Keep R1 and R2 ints in memory in canonical form, NReq=28530617.
 FoFCou: FMM=F IPFlag=           0 FMFlag=           0 FMFlg1=           0
         NFxFlg=           0 DoJE=F BraDBF=F KetDBF=F FulRan=T
         wScrn=  0.000000 ICntrl=     600 IOpCl=  0 I1Cent=           0 NGrid=           0
         NMat0=    1 NMatS0=   5253 NMatT0=    0 NMatD0=    1 NMtDS0=    0 NMtDT0=    0
 Symmetry not used in FoFCou.
          Solving linear equations simultaneously, MaxMat=       0.
          There are    36 degrees of freedom in the 1st order CPHF.  IDoFFX=6 NUNeed=     0.
     30 vectors produced by pass  0 Test12= 6.64D-15 2.78D-09 XBig12= 2.02D-01 2.02D-01.
 AX will form    30 AO Fock derivatives at one time.
     30 vectors produced by pass  1 Test12= 6.64D-15 2.78D-09 XBig12= 3.33D-02 5.74D-02.
     30 vectors produced by pass  2 Test12= 6.64D-15 2.78D-09 XBig12= 7.13D-04 5.02D-03.
     30 vectors produced by pass  3 Test12= 6.64D-15 2.78D-09 XBig12= 5.65D-06 4.13D-04.
     30 vectors produced by pass  4 Test12= 6.64D-15 2.78D-09 XBig12= 1.97D-08 1.87D-05.
     29 vectors produced by pass  5 Test12= 6.64D-15 2.78D-09 XBig12= 6.15D-11 1.00D-06.
     11 vectors produced by pass  6 Test12= 6.64D-15 2.78D-09 XBig12= 1.64D-13 7.41D-08.
 InvSVY:  IOpt=1 It=  1 EMax= 2.66D-15
 Solved reduced A of dimension   190 with    30 vectors.
 End of Minotr F.D. properties file   721 does not exist.
 End of Minotr F.D. properties file   722 does not exist.
 End of Minotr F.D. properties file   788 does not exist.
 Leave Link 1002 at Wed Sep 15 11:30:26 2021, MaxMem=   805306368 cpu:       165.3
 (Enter /Local/ce_dana/g09/l601.exe)
 Copying SCF densities to generalized density rwf, IOpCl= 1 IROHF=0.

 **********************************************************************

            Population analysis using the SCF density.

 **********************************************************************

 Orbital symmetries:
 Alpha Orbitals:
       Occupied  (A) (A) (A) (A) (A) (A) (A) (A) (A) (A) (A) (A)
                 (A) (A)
       Virtual   (A) (A) (A) (A) (A) (A) (A) (A) (A) (A) (A) (A)
                 (A) (A) (A) (A) (A) (A) (A) (A) (A) (A) (A) (A)
                 (A) (A) (A) (A) (A) (A) (A) (A) (A) (A) (A) (A)
                 (A) (A) (A) (A) (A) (A) (A) (A) (A) (A) (A) (A)
                 (A) (A) (A) (A) (A) (A) (A) (A) (A) (A) (A) (A)
                 (A) (A) (A) (A) (A) (A) (A) (A) (A) (A) (A) (A)
                 (A) (A) (A) (A) (A) (A) (A) (A) (A) (A) (A) (A)
                 (A) (A) (A) (A)
 Beta  Orbitals:
       Occupied  (A) (A) (A) (A) (A) (A) (A) (A) (A) (A) (A) (A)
                 (A)
       Virtual   (A) (A) (A) (A) (A) (A) (A) (A) (A) (A) (A) (A)
                 (A) (A) (A) (A) (A) (A) (A) (A) (A) (A) (A) (A)
                 (A) (A) (A) (A) (A) (A) (A) (A) (A) (A) (A) (A)
                 (A) (A) (A) (A) (A) (A) (A) (A) (A) (A) (A) (A)
                 (A) (A) (A) (A) (A) (A) (A) (A) (A) (A) (A) (A)
                 (A) (A) (A) (A) (A) (A) (A) (A) (A) (A) (A) (A)
                 (A) (A) (A) (A) (A) (A) (A) (A) (A) (A) (A) (A)
                 (A) (A) (A) (A) (A)
 The electronic state is 2-A.
 Alpha  occ. eigenvalues --  -14.30334 -10.20941 -10.17026  -0.90212  -0.74232
 Alpha  occ. eigenvalues --   -0.62181  -0.51859  -0.47063  -0.44624  -0.40824
 Alpha  occ. eigenvalues --   -0.38566  -0.36420  -0.27609  -0.19540
 Alpha virt. eigenvalues --    0.03286   0.06833   0.07142   0.10923   0.12068
 Alpha virt. eigenvalues --    0.12640   0.17309   0.20997   0.23910   0.27390
 Alpha virt. eigenvalues --    0.30247   0.32124   0.32978   0.36660   0.38309
 Alpha virt. eigenvalues --    0.47057   0.48476   0.51816   0.55796   0.56477
 Alpha virt. eigenvalues --    0.57621   0.58901   0.61457   0.66512   0.72531
 Alpha virt. eigenvalues --    0.73364   0.80062   0.90187   0.96934   1.01767
 Alpha virt. eigenvalues --    1.05263   1.18257   1.22402   1.26299   1.33379
 Alpha virt. eigenvalues --    1.38952   1.41742   1.44666   1.46114   1.49795
 Alpha virt. eigenvalues --    1.52107   1.55026   1.59667   1.60196   1.66287
 Alpha virt. eigenvalues --    1.71128   1.72314   1.72793   1.80348   1.83683
 Alpha virt. eigenvalues --    1.87846   1.91938   2.00538   2.03398   2.07566
 Alpha virt. eigenvalues --    2.09699   2.22615   2.26269   2.32399   2.36387
 Alpha virt. eigenvalues --    2.39957   2.43210   2.44342   2.48434   2.49987
 Alpha virt. eigenvalues --    2.52820   2.56655   2.59275   2.63355   2.69083
 Alpha virt. eigenvalues --    2.73673   2.77221   2.83539   2.85015   2.94105
 Alpha virt. eigenvalues --    3.12829   3.20839   3.46740   3.76781   3.77362
 Alpha virt. eigenvalues --    3.78321   3.95482   4.15567   4.74364   4.90086
 Alpha virt. eigenvalues --   23.78242  23.89589  35.57147
  Beta  occ. eigenvalues --  -14.30186 -10.20244 -10.17018  -0.89685  -0.73695
  Beta  occ. eigenvalues --   -0.61117  -0.51342  -0.46030  -0.43669  -0.40461
  Beta  occ. eigenvalues --   -0.37483  -0.35443  -0.25064
  Beta virt. eigenvalues --   -0.07480   0.03418   0.06936   0.07253   0.11076
  Beta virt. eigenvalues --    0.12180   0.12747   0.19267   0.21507   0.24502
  Beta virt. eigenvalues --    0.28228   0.30409   0.33026   0.34206   0.37095
  Beta virt. eigenvalues --    0.39136   0.47483   0.48880   0.52863   0.56789
  Beta virt. eigenvalues --    0.57290   0.58114   0.59169   0.62014   0.66916
  Beta virt. eigenvalues --    0.72755   0.73473   0.80452   0.90953   0.97589
  Beta virt. eigenvalues --    1.02444   1.05670   1.20433   1.24947   1.27398
  Beta virt. eigenvalues --    1.36378   1.41257   1.44252   1.45317   1.46707
  Beta virt. eigenvalues --    1.51080   1.53580   1.55655   1.60002   1.60525
  Beta virt. eigenvalues --    1.67377   1.71904   1.73239   1.73492   1.80558
  Beta virt. eigenvalues --    1.84252   1.88952   1.94045   2.01632   2.03745
  Beta virt. eigenvalues --    2.08175   2.10330   2.22927   2.27797   2.34284
  Beta virt. eigenvalues --    2.37840   2.42195   2.43466   2.44536   2.48932
  Beta virt. eigenvalues --    2.50133   2.54116   2.57314   2.59339   2.64208
  Beta virt. eigenvalues --    2.69745   2.74171   2.77887   2.84379   2.87509
  Beta virt. eigenvalues --    2.94692   3.13092   3.21174   3.47319   3.77109
  Beta virt. eigenvalues --    3.77466   3.79356   3.96328   4.16222   4.74543
  Beta virt. eigenvalues --    4.90485  23.79028  23.89608  35.57303
          Condensed to atoms (all electrons):
               1          2          3          4          5          6
     1  N    6.448389   0.335360  -0.063579   0.376260   0.383000  -0.031590
     2  C    0.335360   5.031095   0.381205  -0.041518  -0.054583   0.282588
     3  C   -0.063579   0.381205   4.892290   0.002117  -0.004619  -0.049653
     4  H    0.376260  -0.041518   0.002117   0.508037  -0.040062   0.007931
     5  H    0.383000  -0.054583  -0.004619  -0.040062   0.504377  -0.002879
     6  H   -0.031590   0.282588  -0.049653   0.007931  -0.002879   0.602168
     7  H   -0.030489   0.403028  -0.034991  -0.017744   0.009362  -0.039354
     8  H    0.007942  -0.042829   0.389175   0.003509  -0.000068   0.010700
     9  H    0.006995  -0.031624   0.386201  -0.000395   0.000279  -0.002096
    10  H   -0.005215  -0.035589   0.401632  -0.001016   0.006271  -0.011258
    11  H    0.004064  -0.139837   0.005721  -0.001485   0.000462   0.123237
               7          8          9         10         11
     1  N   -0.030489   0.007942   0.006995  -0.005215   0.004064
     2  C    0.403028  -0.042829  -0.031624  -0.035589  -0.139837
     3  C   -0.034991   0.389175   0.386201   0.401632   0.005721
     4  H   -0.017744   0.003509  -0.000395  -0.001016  -0.001485
     5  H    0.009362  -0.000068   0.000279   0.006271   0.000462
     6  H   -0.039354   0.010700  -0.002096  -0.011258   0.123237
     7  H    0.593231  -0.009718  -0.003802   0.008959   0.006994
     8  H   -0.009718   0.601285  -0.024134  -0.036672  -0.001391
     9  H   -0.003802  -0.024134   0.579044  -0.025863   0.003587
    10  H    0.008959  -0.036672  -0.025863   0.588243   0.003567
    11  H    0.006994  -0.001391   0.003587   0.003567   1.119649
          Atomic-Atomic Spin Densities.
               1          2          3          4          5          6
     1  N    0.104209  -0.058188  -0.000528  -0.001665   0.000648  -0.001140
     2  C   -0.058188   0.511366  -0.031076  -0.004807   0.000048   0.088571
     3  C   -0.000528  -0.031076   0.007950  -0.001629   0.000124   0.001218
     4  H   -0.001665  -0.004807  -0.001629   0.022453   0.000212   0.000451
     5  H    0.000648   0.000048   0.000124   0.000212  -0.002826  -0.000010
     6  H   -0.001140   0.088571   0.001218   0.000451  -0.000010  -0.111587
     7  H    0.002220  -0.017333   0.005962  -0.003523  -0.000205   0.000357
     8  H    0.002734  -0.005897  -0.000927   0.001855   0.000026   0.000108
     9  H   -0.000263  -0.000165   0.002726  -0.000048  -0.000015  -0.001406
    10  H   -0.000598  -0.005260   0.003145  -0.000463  -0.000060  -0.000832
    11  H    0.013507  -0.154370   0.015495  -0.002311   0.000063  -0.080043
               7          8          9         10         11
     1  N    0.002220   0.002734  -0.000263  -0.000598   0.013507
     2  C   -0.017333  -0.005897  -0.000165  -0.005260  -0.154370
     3  C    0.005962  -0.000927   0.002726   0.003145   0.015495
     4  H   -0.003523   0.001855  -0.000048  -0.000463  -0.002311
     5  H   -0.000205   0.000026  -0.000015  -0.000060   0.000063
     6  H    0.000357   0.000108  -0.001406  -0.000832  -0.080043
     7  H   -0.002676  -0.003307   0.000468   0.000734   0.012748
     8  H   -0.003307   0.030609  -0.001298  -0.005273  -0.002576
     9  H    0.000468  -0.001298  -0.002142   0.000344   0.000893
    10  H    0.000734  -0.005273   0.000344   0.007122   0.004587
    11  H    0.012748  -0.002576   0.000893   0.004587   0.887469
 Mulliken charges and spin densities:
               1          2
     1  N   -0.431138   0.060935
     2  C   -0.087298   0.322889
     3  C   -0.305500   0.002460
     4  H    0.204366   0.010523
     5  H    0.198459  -0.001995
     6  H    0.110205  -0.104313
     7  H    0.114523  -0.004556
     8  H    0.102200   0.016053
     9  H    0.111809  -0.000906
    10  H    0.106940   0.003446
    11  H   -0.124568   0.695462
 Sum of Mulliken charges =  -0.00000   1.00000
 Mulliken charges and spin densities with hydrogens summed into heavy atoms:
               1          2
     1  N   -0.028312   0.069463
     2  C    0.012863   0.909482
     3  C    0.015449   0.021054
 APT charges:
               1
     1  N   -0.832267
     2  C   -0.399305
     3  C   -0.966270
     4  H    0.495115
     5  H    0.388076
     6  H    0.062352
     7  H    0.340236
     8  H    0.305112
     9  H    0.382638
    10  H    0.299396
    11  H   -0.075083
 Sum of APT charges =  -0.00000
 APT charges with hydrogens summed into heavy atoms:
               1
     1  N    0.050924
     2  C   -0.071801
     3  C    0.020876
 Electronic spatial extent (au):  <R**2>=            240.0732
 Charge=             -0.0000 electrons
 Dipole moment (field-independent basis, Debye):
    X=             -0.0720    Y=             -2.4953    Z=              0.8153  Tot=              2.6261
 Quadrupole moment (field-independent basis, Debye-Ang):
   XX=            -23.0040   YY=            -25.9406   ZZ=            -21.0368
   XY=             -2.1670   XZ=              0.6792   YZ=              1.9326
 Traceless Quadrupole moment (field-independent basis, Debye-Ang):
   XX=              0.3232   YY=             -2.6135   ZZ=              2.2903
   XY=             -2.1670   XZ=              0.6792   YZ=              1.9326
 Octapole moment (field-independent basis, Debye-Ang**2):
  XXX=              2.4736  YYY=            -18.2656  ZZZ=              1.4975  XYY=              3.6779
  XXY=             -6.0330  XXZ=              3.0531  XZZ=              3.3537  YZZ=             -4.5376
  YYZ=              4.0391  XYZ=             -0.1324
 Hexadecapole moment (field-independent basis, Debye-Ang**3):
 XXXX=           -182.7673 YYYY=           -147.7815 ZZZZ=            -49.6717 XXXY=            -10.9052
 XXXZ=              3.2451 YYYX=              0.3593 YYYZ=             12.7437 ZZZX=             -0.1175
 ZZZY=              7.8645 XXYY=            -48.5708 XXZZ=            -36.6084 YYZZ=            -30.2987
 XXYZ=              1.8528 YYXZ=             -1.5351 ZZXY=             -1.7680
 N-N= 8.770378131798D+01 E-N=-4.901215408320D+02  KE= 1.350722263215D+02
  Exact polarizability:   0.000   0.000   0.000   0.000   0.000   0.000
 Approx polarizability:  48.550 -10.115  70.052   2.542  -9.486  48.092
                          Isotropic Fermi Contact Couplings
        Atom                 a.u.       MegaHertz       Gauss      10(-4) cm-1
     1  N(14)              0.04916      15.88486       5.66811       5.29862
     2  C(13)              0.15352     172.58111      61.58123      57.56686
     3  C(13)             -0.00073      -0.82534      -0.29450      -0.27530
     4  H(1)               0.00698      31.19555      11.13135      10.40572
     5  H(1)              -0.00074      -3.32527      -1.18654      -1.10919
     6  H(1)              -0.01720     -76.88957     -27.43611     -25.64760
     7  H(1)              -0.00300     -13.39227      -4.77869      -4.46718
     8  H(1)               0.00662      29.60857      10.56507       9.87636
     9  H(1)              -0.00010      -0.43315      -0.15456      -0.14448
    10  H(1)               0.00134       5.99947       2.14076       2.00121
    11  H(1)               0.20365     910.30493     324.81942     303.64504
 --------------------------------------------------------
       Center         ----  Spin Dipole Couplings  ----
                      3XX-RR        3YY-RR        3ZZ-RR
 --------------------------------------------------------
     1   Atom       -0.049989      0.121141     -0.071153
     2   Atom       -0.249281      0.307836     -0.058555
     3   Atom        0.017232     -0.000116     -0.017115
     4   Atom        0.000965     -0.000043     -0.000923
     5   Atom       -0.007360      0.005602      0.001759
     6   Atom       -0.094850      0.136007     -0.041157
     7   Atom       -0.028040     -0.006480      0.034520
     8   Atom       -0.000043      0.004317     -0.004273
     9   Atom        0.007469     -0.001023     -0.006446
    10   Atom       -0.001408      0.002586     -0.001178
    11   Atom        0.005111     -0.006525      0.001415
 --------------------------------------------------------
                        XY            XZ            YZ
 --------------------------------------------------------
     1   Atom        0.075641     -0.022637     -0.050640
     2   Atom        0.006880     -0.003942     -0.317735
     3   Atom        0.024003      0.004254      0.002294
     4   Atom       -0.006915      0.008740     -0.004934
     5   Atom       -0.002820     -0.001859      0.008348
     6   Atom       -0.033691      0.016546     -0.115940
     7   Atom        0.000546      0.003221     -0.000360
     8   Atom        0.004724      0.000777     -0.002449
     9   Atom        0.004156     -0.001571     -0.002317
    10   Atom        0.005716      0.005212      0.003573
    11   Atom        0.001559     -0.000868      0.006313
 --------------------------------------------------------


 ---------------------------------------------------------------------------------
              Anisotropic Spin Dipole Couplings in Principal Axis System
 ---------------------------------------------------------------------------------

       Atom             a.u.   MegaHertz   Gauss  10(-4) cm-1        Axes

              Baa    -0.0857    -3.304    -1.179    -1.102  0.4563  0.0506  0.8884
     1 N(14)  Bbb    -0.0772    -2.978    -1.063    -0.993  0.8192 -0.4138 -0.3972
              Bcc     0.1629     6.282     2.242     2.096  0.3475  0.9090 -0.2303
 
              Baa    -0.2494   -33.462   -11.940   -11.162  0.9999 -0.0112  0.0020
     2 C(13)  Bbb    -0.2421   -32.491   -11.593   -10.838  0.0039  0.5002  0.8659
              Bcc     0.4915    65.953    23.534    22.000  0.0107  0.8658 -0.5002
 
              Baa    -0.0179    -2.402    -0.857    -0.801 -0.3607  0.3768  0.8532
     3 C(13)  Bbb    -0.0166    -2.231    -0.796    -0.744 -0.4525  0.7292 -0.5133
              Bcc     0.0345     4.633     1.653     1.545  0.8156  0.5712  0.0926
 
              Baa    -0.0090    -4.777    -1.704    -1.593  0.7202  0.1893 -0.6675
     4 H(1)   Bbb    -0.0050    -2.654    -0.947    -0.885  0.2408  0.8341  0.4963
              Bcc     0.0139     7.431     2.652     2.479  0.6507 -0.5182  0.5551
 
              Baa    -0.0080    -4.242    -1.514    -1.415  0.9818  0.1882  0.0262
     5 H(1)   Bbb    -0.0049    -2.591    -0.925    -0.864  0.0950 -0.6052  0.7904
              Bcc     0.0128     6.833     2.438     2.279 -0.1646  0.7735  0.6121
 
              Baa    -0.0997   -53.178   -18.975   -17.738  0.9884  0.1507  0.0191
     6 H(1)   Bbb    -0.0985   -52.541   -18.748   -17.526 -0.0832  0.4321  0.8980
              Bcc     0.1981   105.718    37.723    35.264 -0.1271  0.8892 -0.4396
 
              Baa    -0.0282   -15.057    -5.373    -5.022  0.9983 -0.0259 -0.0514
     7 H(1)   Bbb    -0.0065    -3.451    -1.231    -1.151  0.0263  0.9996  0.0067
              Bcc     0.0347    18.508     6.604     6.174  0.0512 -0.0080  0.9987
 
              Baa    -0.0059    -3.132    -1.117    -1.045 -0.4281  0.3941  0.8133
     8 H(1)   Bbb    -0.0017    -0.910    -0.325    -0.304  0.7453 -0.3551  0.5644
              Bcc     0.0076     4.042     1.442     1.348  0.5112  0.8477 -0.1417
 
              Baa    -0.0073    -3.895    -1.390    -1.299  0.0029  0.3446  0.9388
     9 H(1)   Bbb    -0.0022    -1.178    -0.420    -0.393 -0.4172  0.8536 -0.3120
              Bcc     0.0095     5.074     1.810     1.692  0.9088  0.3908 -0.1462
 
              Baa    -0.0070    -3.712    -1.324    -1.238  0.7920 -0.2693 -0.5479
    10 H(1)   Bbb    -0.0030    -1.574    -0.562    -0.525 -0.2393  0.6887 -0.6844
              Bcc     0.0099     5.286     1.886     1.763  0.5616  0.6732  0.4810
 
              Baa    -0.0102    -5.453    -1.946    -1.819 -0.1156  0.8694 -0.4803
    11 H(1)   Bbb     0.0049     2.615     0.933     0.872  0.0149  0.4851  0.8744
              Bcc     0.0053     2.838     1.013     0.947  0.9932  0.0939 -0.0691
 

 ---------------------------------------------------------------------------------

 No NMR shielding tensors so no spin-rotation constants.
 Leave Link  601 at Wed Sep 15 11:30:26 2021, MaxMem=   805306368 cpu:         1.9
 (Enter /Local/ce_dana/g09/l701.exe)
 Compute integral second derivatives.
 ... and contract with generalized density number  0.
 Leave Link  701 at Wed Sep 15 11:30:26 2021, MaxMem=   805306368 cpu:         3.4
 (Enter /Local/ce_dana/g09/l702.exe)
 L702 exits ... SP integral derivatives will be done elsewhere.
 Leave Link  702 at Wed Sep 15 11:30:26 2021, MaxMem=   805306368 cpu:         0.0
 (Enter /Local/ce_dana/g09/l703.exe)
 Compute integral second derivatives, UseDBF=F ICtDFT=           0.
 Integral derivatives from FoFJK, PRISM(SPDF).
 Calling FoFJK, ICntrl=    100147 FMM=F ISym2X=0 I1Cent= 0 IOpClX= 1 NMat=1 NMatS=1 NMatT=0.
 FoFJK:  IHMeth= 1 ICntrl=  100147 DoSepK=F KAlg= 0 I1Cent=   0 FoldK=F
 IRaf=         0 NMat=   1 IRICut=       1 DoRegI=T DoRafI=F ISym2E= 0.
 FoFCou: FMM=F IPFlag=           0 FMFlag=      100000 FMFlg1=         800
         NFxFlg=           0 DoJE=F BraDBF=F KetDBF=F FulRan=T
         wScrn=  0.000000 ICntrl=  100147 IOpCl=  1 I1Cent=           0 NGrid=           0
         NMat0=    1 NMatS0=      1 NMatT0=    0 NMatD0=    1 NMtDS0=    0 NMtDT0=    0
 Symmetry not used in FoFCou.
 Leave Link  703 at Wed Sep 15 11:30:44 2021, MaxMem=   805306368 cpu:       138.1
 (Enter /Local/ce_dana/g09/l716.exe)
 Dipole        =-2.83133951D-02-9.81738231D-01 3.20773836D-01
 Polarizability= 0.00000000D+00 0.00000000D+00 0.00000000D+00
                 0.00000000D+00 0.00000000D+00 0.00000000D+00
 ***** Axes restored to original set *****
 -------------------------------------------------------------------
 Center     Atomic                   Forces (Hartrees/Bohr)
 Number     Number              X              Y              Z
 -------------------------------------------------------------------
      1        7          -0.000439534    0.001800082   -0.007269072
      2        6          -0.004415003   -0.004170319    0.005947739
      3        6           0.000827782    0.005591112    0.003403048
      4        1           0.002156293   -0.000225253    0.001226434
      5        1          -0.001281873   -0.001920786    0.001119593
      6        1           0.000752736   -0.000211616   -0.000355568
      7        1           0.003732363    0.002345192   -0.001663866
      8        1           0.003293682   -0.002402712    0.000972112
      9        1           0.000051882    0.000700456   -0.004158618
     10        1          -0.003762689   -0.001910404    0.001013075
     11        1          -0.000915639    0.000404247   -0.000234877
 -------------------------------------------------------------------
 Cartesian Forces:  Max     0.007269072 RMS     0.002823230
 Force constants in Cartesian coordinates: 
                1             2             3             4             5 
      1  0.571062D+00
      2  0.233782D+00  0.331483D+00
      3  0.101249D+00 -0.132587D+00  0.554881D+00
      4 -0.876970D-01 -0.263881D-01  0.324348D-01  0.424399D+00
      5 -0.283060D-01 -0.685105D-01 -0.193822D-01  0.135594D+00  0.435492D+00
      6 -0.111673D-01  0.359268D-01 -0.259847D+00 -0.639511D-01  0.622633D-02
      7  0.306367D-02 -0.562978D-03 -0.109083D-02 -0.700839D-01 -0.129972D-01
      8  0.335034D-02  0.518895D-02 -0.149445D-02 -0.197681D-01 -0.170734D+00
      9 -0.172365D-02 -0.320899D-01 -0.323381D-01 -0.450139D-03 -0.385281D-01
     10 -0.348710D+00 -0.468102D-01 -0.163026D+00  0.428128D-02  0.608955D-02
     11 -0.121357D-01 -0.154284D-01  0.259521D-01 -0.860818D-03 -0.338381D-02
     12 -0.146665D+00  0.737176D-02 -0.124635D+00 -0.340741D-01 -0.531186D-03
     13 -0.145743D+00 -0.154167D+00  0.467287D-01 -0.125461D-02 -0.174656D-02
     14 -0.193774D+00 -0.257162D+00  0.116647D+00  0.341735D-02 -0.182385D-02
     15  0.496569D-01  0.956351D-01 -0.979261D-01  0.242075D-01  0.314392D-01
     16  0.230498D-02 -0.412873D-02 -0.205807D-01 -0.198004D-01 -0.184030D-01
     17  0.134883D-02  0.458087D-02  0.140867D-01 -0.161460D-01 -0.254524D-01
     18 -0.205137D-01  0.755466D-02 -0.302518D-01  0.212827D-01 -0.135329D-01
     19 -0.232460D-03  0.333490D-03 -0.997160D-03 -0.204492D+00 -0.115491D+00
     20 -0.936267D-03 -0.438734D-03  0.165902D-02 -0.105641D+00 -0.113842D+00
     21  0.294641D-01  0.215850D-01 -0.159751D-01  0.476270D-01  0.285810D-01
     22  0.745798D-03 -0.901624D-03  0.141238D-02  0.179212D-02 -0.275011D-03
     23 -0.190418D-02  0.292053D-02  0.662091D-03  0.228443D-01 -0.210395D-01
     24 -0.231422D-03  0.142453D-02  0.201361D-02  0.120389D-01 -0.990868D-02
     25  0.209209D-02 -0.140570D-02 -0.737674D-03 -0.174686D-02  0.624809D-03
     26 -0.138122D-02 -0.458677D-02 -0.387810D-02  0.954883D-03  0.783859D-02
     27 -0.630021D-03 -0.383104D-02 -0.113863D-02 -0.621695D-04  0.552301D-02
     28  0.108182D-02  0.404249D-03 -0.989682D-03 -0.932677D-03 -0.101873D-02
     29  0.152701D-02  0.145224D-02  0.177166D-02 -0.264521D-01 -0.179910D-01
     30 -0.749535D-03 -0.224766D-03  0.186303D-02 -0.137240D-01 -0.804593D-02
     31  0.203201D-02 -0.155766D-03  0.559802D-02 -0.444646D-01  0.359297D-01
     32 -0.157076D-02  0.501135D-03 -0.343665D-02  0.324461D-01 -0.205529D-01
     33  0.131128D-02 -0.764769D-03  0.335438D-02 -0.253293D-01  0.181595D-01
                6             7             8             9            10 
      6  0.500358D+00
      7  0.400445D-02  0.533905D+00
      8 -0.496363D-01 -0.556241D-03  0.478621D+00
      9 -0.968628D-01 -0.230583D-02 -0.362908D-01  0.534332D+00
     10  0.652917D-02  0.549335D-04 -0.616285D-03  0.172790D-02  0.358118D+00
     11 -0.754495D-02 -0.784915D-03  0.225197D-03 -0.259237D-02  0.355531D-01
     12 -0.223882D-01  0.363434D-04  0.162337D-02 -0.211173D-02  0.163280D+00
     13  0.580134D-02  0.882218D-03  0.403000D-03 -0.242695D-02 -0.169334D-01
     14 -0.499324D-02  0.229321D-02  0.236759D-02 -0.633376D-03  0.581343D-02
     15 -0.150172D-01  0.128332D-02  0.907254D-03  0.303745D-02 -0.919000D-02
     16  0.259135D-01 -0.883278D-02  0.798237D-02 -0.326816D-03  0.164305D-02
     17 -0.159625D-01  0.241138D-01 -0.225988D-01  0.374584D-02 -0.465083D-03
     18 -0.177558D-01  0.285200D-02 -0.279204D-02  0.317846D-02 -0.628994D-03
     19  0.604848D-01  0.674137D-03  0.195196D-02  0.660217D-05  0.194890D-02
     20  0.329606D-01 -0.241543D-01 -0.143059D-01  0.626246D-02 -0.251708D-04
     21 -0.688962D-01 -0.130089D-01 -0.745178D-02  0.512738D-02  0.717319D-03
     22 -0.410972D-03 -0.192954D+00  0.107065D+00 -0.455615D-01 -0.203233D-03
     23  0.722092D-02  0.109065D+00 -0.126598D+00  0.346656D-01 -0.427987D-04
     24  0.226377D-02 -0.447226D-01  0.340220D-01 -0.622768D-01 -0.149564D-03
     25 -0.159782D-02 -0.478757D-01  0.242667D-03  0.176569D-03 -0.385567D-04
     26 -0.289686D-01  0.328884D-03 -0.547625D-01  0.374796D-01  0.480375D-03
     27 -0.152650D-01  0.916697D-03  0.349703D-01 -0.288986D+00  0.520065D-03
     28  0.870980D-03 -0.221861D+00 -0.966077D-01  0.508157D-01 -0.249146D-04
     29  0.831737D-02 -0.952001D-01 -0.100192D+00  0.275051D-01  0.216309D-04
     30  0.354021D-02  0.501624D-01  0.280690D-01 -0.633405D-01  0.300020D-04
     31 -0.264770D-01  0.302696D-02 -0.344750D-02  0.681865D-04 -0.136383D-03
     32  0.164535D-01 -0.154473D-02  0.278914D-02  0.475933D-03  0.150679D-05
     33 -0.101303D-01  0.187292D-02 -0.192658D-02  0.241221D-03  0.190329D-03
               11            12            13            14            15 
     11  0.246199D-01
     12 -0.515402D-02  0.142391D+00
     13 -0.270325D-01  0.134394D-01  0.162969D+00
     14 -0.317661D-02 -0.814641D-05  0.182107D+00  0.258308D+00
     15 -0.162276D-01  0.719887D-02 -0.640887D-01 -0.110858D+00  0.109562D+00
     16  0.506282D-02  0.330806D-02 -0.107516D-02 -0.525315D-03  0.196469D-03
     17 -0.326939D-02 -0.215336D-02  0.731721D-03 -0.295270D-03  0.140092D-03
     18  0.549638D-02 -0.226095D-02 -0.699739D-03  0.693479D-03 -0.455069D-03
     19  0.309352D-03  0.954563D-03  0.200575D-02  0.903766D-03 -0.737290D-03
     20  0.246458D-03 -0.220224D-03 -0.534104D-03  0.145571D-02  0.400477D-03
     21  0.101027D-02  0.181539D-02  0.127722D-02 -0.138600D-02 -0.667714D-02
     22  0.278970D-03  0.212420D-03 -0.376035D-03  0.194756D-03  0.945558D-04
     23 -0.106016D-03 -0.692893D-03  0.298394D-03 -0.693805D-05 -0.482427D-03
     24 -0.185446D-03 -0.566497D-04  0.445902D-03 -0.108114D-03 -0.275573D-03
     25  0.642150D-03  0.466763D-03 -0.150589D-03 -0.415217D-04 -0.406035D-03
     26 -0.758920D-03 -0.859026D-03 -0.178677D-03 -0.309574D-03  0.172119D-03
     27 -0.657963D-03 -0.255400D-03 -0.764425D-03  0.539434D-04  0.841316D-03
     28  0.284782D-03  0.487245D-05 -0.298712D-03 -0.506915D-03 -0.953655D-03
     29  0.133425D-03  0.105328D-03  0.938549D-04  0.766823D-03 -0.110177D-02
     30  0.230588D-03  0.121402D-03  0.382214D-03  0.568250D-03 -0.328398D-03
     31 -0.131720D-02 -0.963240D-03 -0.252850D-04  0.119114D-03 -0.630220D-04
     32  0.898189D-03  0.518390D-03  0.252906D-04 -0.123152D-03 -0.242985D-04
     33 -0.327003D-03  0.181795D-03 -0.948938D-04  0.240775D-04  0.398466D-04
               16            17            18            19            20 
     16  0.270928D-01
     17  0.153736D-01  0.437182D-01
     18 -0.167759D-01  0.139472D-01  0.488560D-01
     19 -0.205767D-01 -0.519010D-02  0.138790D-02  0.215932D+00
     20  0.135802D-01  0.276640D-02 -0.499981D-03  0.118957D+00  0.125217D+00
     21 -0.663605D-02 -0.214665D-02  0.149737D-02 -0.608372D-01 -0.367646D-01
     22  0.219805D-02 -0.645483D-03  0.299175D-03  0.775357D-03  0.418491D-03
     23 -0.308398D-03 -0.384948D-02 -0.244933D-02 -0.642416D-03  0.100595D-02
     24  0.545244D-03 -0.247151D-02  0.166136D-04 -0.251202D-03  0.829433D-03
     25 -0.504573D-04  0.246426D-04  0.863041D-04  0.341049D-04  0.278084D-03
     26  0.232776D-03  0.796171D-03  0.175868D-03 -0.459677D-03  0.794106D-03
     27  0.431728D-03 -0.130825D-03  0.421564D-03 -0.511494D-03 -0.283417D-03
     28  0.370158D-03  0.236997D-03 -0.528444D-03  0.140824D-02  0.188350D-03
     29 -0.102846D-02  0.132701D-02 -0.129889D-03  0.874273D-04 -0.440452D-02
     30 -0.189198D-03  0.848212D-03 -0.100198D-03 -0.270085D-03 -0.312701D-02
     31  0.167264D-01 -0.193829D-01  0.132388D-01  0.252280D-02 -0.213089D-02
     32 -0.178378D-01  0.227667D-02 -0.846352D-02 -0.759400D-03  0.150560D-02
     33  0.141137D-01 -0.990327D-02 -0.314616D-02  0.770594D-03 -0.121677D-02
               21            22            23            24            25 
     21  0.828547D-01
     22  0.447193D-03  0.208356D+00
     23  0.358509D-03 -0.120352D+00  0.140905D+00
     24  0.266361D-03  0.506325D-01 -0.361398D-01  0.629140D-01
     25 -0.719287D-04  0.442628D-03  0.270222D-02 -0.248801D-01  0.468392D-01
     26  0.619695D-03 -0.133588D-02 -0.295065D-02  0.178544D-01  0.396728D-03
     27  0.472119D-03 -0.134526D-05  0.106700D-02 -0.615005D-02 -0.235610D-03
     28 -0.734309D-04 -0.206771D-01 -0.114780D-01  0.651944D-02  0.392099D-03
     29 -0.370276D-02  0.157479D-01  0.923820D-02 -0.537460D-02 -0.325554D-02
     30 -0.944103D-03 -0.704842D-02 -0.432101D-02  0.128203D-02  0.273832D-01
     31  0.109475D-02 -0.991915D-04 -0.181280D-03  0.530009D-04  0.620410D-04
     32 -0.702683D-03 -0.195131D-03  0.480898D-03  0.577754D-04 -0.208540D-03
     33  0.459216D-03 -0.759112D-04  0.111345D-03  0.274675D-05 -0.183602D-03
               26            27            28            29            30 
     26  0.565642D-01
     27 -0.377664D-01  0.316502D+00
     28  0.951892D-03  0.115155D-03  0.240233D+00
     29 -0.269278D-02  0.114987D-02  0.107976D+00  0.112289D+00
     30  0.148138D-01 -0.674211D-02 -0.559560D-01 -0.287278D-01  0.646841D-01
     31  0.991741D-05  0.221420D-03  0.308332D-03  0.482741D-03 -0.206737D-04
     32  0.681669D-04 -0.945345D-04 -0.430587D-03  0.738420D-04 -0.833584D-04
     33  0.356523D-03  0.300732D-03  0.175068D-03  0.187518D-03 -0.354796D-04
               31            32            33 
     31  0.200469D-01
     32 -0.992595D-02  0.120824D-01
     33  0.724982D-02 -0.470057D-02  0.873197D-02
 FormGI is forming the generalized inverse of G from B-inverse, IUseBI=4.
 Leave Link  716 at Wed Sep 15 11:30:44 2021, MaxMem=   805306368 cpu:         0.0
 (Enter /Local/ce_dana/g09/l103.exe)

 GradGradGradGradGradGradGradGradGradGradGradGradGradGradGradGradGradGrad
 Berny optimization.
 Red2BG is reusing G-inverse.
 Internal  Forces:  Max     0.004932253 RMS     0.001697897
 Search for a saddle point.
 Step number   1 out of a maximum of  100
 All quantities printed in internal units (Hartrees-Bohrs-Radians)
 Swapping is turned off.
 Second derivative matrix not updated -- analytic derivatives used.
 ITU=  0
     Eigenvalues ---   -0.01402   0.00152   0.00256   0.01515   0.01675
     Eigenvalues ---    0.02139   0.03585   0.03819   0.04402   0.04519
     Eigenvalues ---    0.08255   0.11085   0.12037   0.12828   0.13252
     Eigenvalues ---    0.14410   0.15503   0.16231   0.21947   0.28866
     Eigenvalues ---    0.31355   0.31870   0.32005   0.32725   0.39741
     Eigenvalues ---    0.44796   0.44853
 Eigenvectors required to have negative eigenvalues:
                          R10       R5        D1        D2        D4
   1                   -0.79172   0.48429  -0.21794  -0.13244  -0.09546
                          D15       A7        D14       D13       D3
   1                   -0.07647  -0.07583  -0.07526  -0.07493  -0.06995
 RFO step:  Lambda0=7.307683805D-06 Lambda=-4.04498022D-04.
 Linear search not attempted -- option 19 set.
 Maximum step size (   0.050) exceeded in Quadratic search.
    -- Step size scaled by   0.942
 Iteration  1 RMS(Cart)=  0.00910466 RMS(Int)=  0.00007987
 Iteration  2 RMS(Cart)=  0.00008434 RMS(Int)=  0.00000819
 Iteration  3 RMS(Cart)=  0.00000001 RMS(Int)=  0.00000819
 ITry= 1 IFail=0 DXMaxC= 2.10D-02 DCOld= 1.00D+10 DXMaxT= 5.00D-02 DXLimC= 3.00D+00 Rises=F
 Variable       Old X    -DE/DX   Delta X   Delta X   Delta X     New X
                                 (Linear)    (Quad)   (Total)
    R1        2.68857   0.00493   0.00000   0.01673   0.01673   2.70530
    R2        1.91644  -0.00247   0.00000  -0.00522  -0.00522   1.91121
    R3        1.91806  -0.00255   0.00000  -0.00550  -0.00550   1.91256
    R4        2.86788   0.00234   0.00000   0.00864   0.00864   2.87652
    R5        2.33487  -0.00044   0.00000  -0.01747  -0.01747   2.31740
    R6        2.07911  -0.00470   0.00000  -0.01420  -0.01420   2.06491
    R7        2.08380  -0.00419   0.00000  -0.01271  -0.01271   2.07110
    R8        2.07928  -0.00421   0.00000  -0.01224  -0.01224   2.06704
    R9        2.08270  -0.00433   0.00000  -0.01306  -0.01306   2.06964
   R10        2.07537  -0.00100   0.00000   0.01391   0.01391   2.08928
    A1        1.99725   0.00001   0.00000  -0.00533  -0.00535   1.99190
    A2        1.98278  -0.00029   0.00000  -0.00464  -0.00466   1.97812
    A3        1.91756   0.00025   0.00000   0.00209   0.00206   1.91962
    A4        2.04951   0.00042   0.00000  -0.00254  -0.00254   2.04698
    A5        1.90055  -0.00040   0.00000  -0.00513  -0.00512   1.89543
    A6        1.92233  -0.00039   0.00000  -0.00393  -0.00393   1.91840
    A7        1.83097   0.00005   0.00000   0.00469   0.00468   1.83565
    A8        1.95832   0.00022   0.00000   0.00277   0.00276   1.96108
    A9        1.77879   0.00004   0.00000   0.00544   0.00542   1.78421
   A10        1.93902   0.00003   0.00000  -0.00155  -0.00155   1.93748
   A11        1.93862   0.00016   0.00000  -0.00065  -0.00065   1.93797
   A12        1.93348   0.00016   0.00000  -0.00085  -0.00085   1.93263
   A13        1.89081  -0.00007   0.00000   0.00133   0.00133   1.89215
   A14        1.88307  -0.00018   0.00000   0.00030   0.00030   1.88337
   A15        1.87656  -0.00012   0.00000   0.00159   0.00159   1.87815
   A16        3.08923  -0.00015   0.00000  -0.00857  -0.00857   3.08066
   A17        3.16483  -0.00042   0.00000  -0.02551  -0.02551   3.13932
    D1       -1.72012  -0.00022   0.00000  -0.00354  -0.00355  -1.72367
    D2        2.48710  -0.00025   0.00000  -0.00398  -0.00399   2.48311
    D3        0.55017   0.00010   0.00000  -0.00572  -0.00572   0.54445
    D4        0.50158  -0.00011   0.00000  -0.00955  -0.00954   0.49204
    D5       -1.57438  -0.00015   0.00000  -0.00999  -0.00998  -1.58437
    D6        2.77188   0.00021   0.00000  -0.01173  -0.01172   2.76016
    D7        1.11487   0.00007   0.00000   0.00755   0.00755   1.12241
    D8       -3.06229   0.00010   0.00000   0.00775   0.00775  -3.05454
    D9       -0.97794   0.00017   0.00000   0.00875   0.00875  -0.96918
   D10       -3.05572  -0.00015   0.00000   0.00296   0.00295  -3.05277
   D11       -0.94969  -0.00012   0.00000   0.00316   0.00315  -0.94654
   D12        1.13466  -0.00005   0.00000   0.00417   0.00416   1.13882
   D13       -1.13858   0.00002   0.00000   0.01296   0.01297  -1.12560
   D14        0.96745   0.00006   0.00000   0.01317   0.01317   0.98062
   D15        3.05181   0.00012   0.00000   0.01417   0.01418   3.06599
         Item               Value     Threshold  Converged?
 Maximum Force            0.004932     0.000015     NO 
 RMS     Force            0.001698     0.000010     NO 
 Maximum Displacement     0.020994     0.000060     NO 
 RMS     Displacement     0.009137     0.000040     NO 
 Predicted change in Energy=-1.985838D-04
 Lowest energy point so far.  Saving SCF results.
 GradGradGradGradGradGradGradGradGradGradGradGradGradGradGradGradGradGrad

 Leave Link  103 at Wed Sep 15 11:30:44 2021, MaxMem=   805306368 cpu:         0.0
 (Enter /Local/ce_dana/g09/l202.exe)
                          Input orientation:                          
 ---------------------------------------------------------------------
 Center     Atomic      Atomic             Coordinates (Angstroms)
 Number     Number       Type             X           Y           Z
 ---------------------------------------------------------------------
      1          7           0        0.026043   -0.366659   -1.211017
      2          6           0       -0.063420   -0.398005    0.217424
      3          6           0        0.022506    0.932826    0.951295
      4          1           0       -0.867846   -0.408726   -1.682253
      5          1           0        0.565652    0.414375   -1.561904
      6          1           0        0.868410   -1.065606    0.653137
      7          1           0       -0.932211   -0.985996    0.523152
      8          1           0       -0.827150    1.576971    0.697667
      9          1           0        0.031722    0.783820    2.034887
     10          1           0        0.940944    1.465327    0.682239
     11          1           0        1.706659   -1.629843    1.101830
 ---------------------------------------------------------------------
                    Distance matrix (angstroms):
                    1          2          3          4          5
     1  N    0.000000
     2  C    1.431583   0.000000
     3  C    2.522749   1.522189   0.000000
     4  H    1.011371   2.063005   3.086756   0.000000
     5  H    1.012083   2.054677   2.622968   1.657376   0.000000
     6  H    2.161754   1.226314   2.190475   2.983308   2.681121
     7  H    2.075855   1.092704   2.185559   2.280613   2.924395
     8  H    2.854594   2.171277   1.095977   3.099785   2.897790
     9  H    3.443766   2.170007   1.093828   4.006060   3.654924
    10  H    2.788841   2.167211   1.095206   3.517758   2.506296
    11  H    3.125598   2.330832   3.070228   3.983757   3.546293
                    6          7          8          9         10
     6  H    0.000000
     7  H    1.807061   0.000000
     8  H    3.140083   2.571049   0.000000
     9  H    2.455536   2.519277   1.776206   0.000000
    10  H    2.532140   3.089175   1.771682   1.766576   0.000000
    11  H    1.105599   2.777236   4.106968   3.082495   3.215968
                   11
    11  H    0.000000
 Stoichiometry    C2H8N(2)
 Framework group  C1[X(C2H8N)]
 Deg. of freedom    27
 Full point group                 C1      NOp   1
 RotChk:  IX=0 Diff= 8.95D-03
 Largest Abelian subgroup         C1      NOp   1
 Largest concise Abelian subgroup C1      NOp   1
                         Standard orientation:                         
 ---------------------------------------------------------------------
 Center     Atomic      Atomic             Coordinates (Angstroms)
 Number     Number       Type             X           Y           Z
 ---------------------------------------------------------------------
      1          7           0        1.284651   -0.216816   -0.127896
      2          6           0        0.051079    0.381385    0.284277
      3          6           0       -1.232933   -0.361631   -0.056747
      4          1           0        1.759990   -0.729512    0.602903
      5          1           0        1.193592   -0.795382   -0.953294
      6          1           0       -0.055541    1.474057   -0.262116
      7          1           0        0.104880    0.655187    1.340752
      8          1           0       -1.278644   -1.325834    0.462281
      9          1           0       -2.112437    0.224466    0.225073
     10          1           0       -1.294693   -0.555204   -1.132940
     11          1           0       -0.218579    2.451413   -0.752567
 ---------------------------------------------------------------------
 Rotational constants (GHZ):     22.5472345      8.3944859      7.2416240
 Leave Link  202 at Wed Sep 15 11:30:44 2021, MaxMem=   805306368 cpu:         0.0
 (Enter /Local/ce_dana/g09/l301.exe)
 Standard basis: 6-311G(2d,d,p) (5D, 7F)
 Ernie: Thresh=  0.10000D-02 Tol=  0.10000D-05 Strict=F.
 There are   105 symmetry adapted cartesian basis functions of A   symmetry.
 There are   102 symmetry adapted basis functions of A   symmetry.
   102 basis functions,   160 primitive gaussians,   105 cartesian basis functions
    14 alpha electrons       13 beta electrons
       nuclear repulsion energy        87.6478205267 Hartrees.
 IExCor=  402 DFT=T Ex+Corr=B3LYP ExCW=0 ScaHFX=  0.200000
 ScaDFX=  0.800000  0.720000  1.000000  0.810000 ScalE2=  1.000000  1.000000
 IRadAn=      5 IRanWt=     -1 IRanGd=            0 ICorTp=0 IEmpDi=  4
 NAtoms=   11 NActive=   11 NUniq=   11 SFac= 1.00D+00 NAtFMM=   60 NAOKFM=F Big=F
 Integral buffers will be    131072 words long.
 Raffenetti 2 integral format.
 Two-electron integral symmetry is turned on.
 Leave Link  301 at Wed Sep 15 11:30:44 2021, MaxMem=   805306368 cpu:         0.1
 (Enter /Local/ce_dana/g09/l302.exe)
 NPDir=0 NMtPBC=     1 NCelOv=     1 NCel=       1 NClECP=     1 NCelD=      1
         NCelK=      1 NCelE2=     1 NClLst=     1 CellRange=     0.0.
 One-electron integrals computed using PRISM.
 NBasis=   102 RedAO= T EigKep=  2.80D-03  NBF=   102
 NBsUse=   102 1.00D-06 EigRej= -1.00D+00 NBFU=   102
 Precomputing XC quadrature grid using
 IXCGrd= 4 IRadAn=           5 IRanWt=          -1 IRanGd=           0 AccXCQ= 0.00D+00.
 Generated NRdTot=       0 NPtTot=           0 NUsed=           0 NTot=          32
 NSgBfM=   105   105   105   105   105 MxSgAt=    11 MxSgA2=    11.
 Leave Link  302 at Wed Sep 15 11:30:44 2021, MaxMem=   805306368 cpu:         1.0
 (Enter /Local/ce_dana/g09/l303.exe)
 DipDrv:  MaxL=1.
 Leave Link  303 at Wed Sep 15 11:30:44 2021, MaxMem=   805306368 cpu:         0.1
 (Enter /Local/ce_dana/g09/l401.exe)
 Initial guess from the checkpoint file:  "check.chk"
 B after Tr=     0.000000   -0.000000    0.000000
         Rot=    0.999995    0.003120    0.000212    0.000282 Ang=   0.36 deg.
 Guess basis will be translated and rotated to current coordinates.
 JPrj=2 DoOrth=T DoCkMO=T.
 Initial guess <Sx>= 0.0000 <Sy>= 0.0000 <Sz>= 0.5000 <S**2>= 0.7566 S= 0.5033
 Generating alternative initial guess.
 ExpMin= 1.03D-01 ExpMax= 6.29D+03 ExpMxC= 9.49D+02 IAcc=2 IRadAn=         4 AccDes= 0.00D+00
 Harris functional with IExCor=  402 and IRadAn=       4 diagonalized for initial guess.
 HarFok:  IExCor=  402 AccDes= 0.00D+00 IRadAn=         4 IDoV= 1 UseB2=F ITyADJ=14
 ICtDFT=  3500011 ScaDFX=  1.000000  1.000000  1.000000  1.000000
 FoFCou: FMM=F IPFlag=           0 FMFlag=      100000 FMFlg1=           0
         NFxFlg=           0 DoJE=T BraDBF=F KetDBF=T FulRan=T
         wScrn=  0.000000 ICntrl=     500 IOpCl=  0 I1Cent=   200000004 NGrid=           0
         NMat0=    1 NMatS0=      1 NMatT0=    0 NMatD0=    1 NMtDS0=    0 NMtDT0=    0
 Petite list used in FoFCou.
 Harris En= -135.727678548254    
 Leave Link  401 at Wed Sep 15 11:30:45 2021, MaxMem=   805306368 cpu:         2.7
 (Enter /Local/ce_dana/g09/l502.exe)
 UHF open shell SCF:
 Using DIIS extrapolation, IDIIS=  1040.
 Integral symmetry usage will be decided dynamically.
 Keep R1 and R2 ints in memory in canonical form, NReq=28569832.
 IVT=       40658 IEndB=       40658 NGot=   805306368 MDV=   777666449
 LenX=   777666449 LenY=   777654983
 Requested convergence on RMS density matrix=1.00D-08 within  64 cycles.
 Requested convergence on MAX density matrix=1.00D-06.
 Requested convergence on             energy=1.00D-06.
 No special actions if energy rises.
 FoFCou: FMM=F IPFlag=           0 FMFlag=           0 FMFlg1=           0
         NFxFlg=           0 DoJE=F BraDBF=F KetDBF=F FulRan=T
         wScrn=  0.000000 ICntrl=     600 IOpCl=  0 I1Cent=           0 NGrid=           0
         NMat0=    1 NMatS0=   5253 NMatT0=    0 NMatD0=    1 NMtDS0=    0 NMtDT0=    0
 Symmetry not used in FoFCou.
 Integral accuracy reduced to 1.0D-05 until final iterations.

 Cycle   1  Pass 0  IDiag  1:
 E= -135.714244083619    
 DIIS: error= 5.58D-04 at cycle   1 NSaved=   1.
 NSaved= 1 IEnMin= 1 EnMin= -135.714244083619     IErMin= 1 ErrMin= 5.58D-04
 ErrMax= 5.58D-04  0.00D+00 EMaxC= 1.00D-01 BMatC= 4.01D-04 BMatP= 4.01D-04
 IDIUse=3 WtCom= 9.94D-01 WtEn= 5.58D-03
 Coeff-Com:  0.100D+01
 Coeff-En:   0.100D+01
 Coeff:      0.100D+01
 Gap=     0.521 Goal=   None    Shift=    0.000
 Gap=     0.551 Goal=   None    Shift=    0.000
 RMSDP=1.36D-04 MaxDP=1.81D-03              OVMax= 7.35D-03

 Cycle   2  Pass 0  IDiag  1:
 E= -135.714375058609     Delta-E=       -0.000130974989 Rises=F Damp=F
 DIIS: error= 4.12D-04 at cycle   2 NSaved=   2.
 NSaved= 2 IEnMin= 2 EnMin= -135.714375058609     IErMin= 2 ErrMin= 4.12D-04
 ErrMax= 4.12D-04  0.00D+00 EMaxC= 1.00D-01 BMatC= 4.69D-05 BMatP= 4.01D-04
 IDIUse=3 WtCom= 9.96D-01 WtEn= 4.12D-03
 Coeff-Com:  0.122D+00 0.878D+00
 Coeff-En:   0.000D+00 0.100D+01
 Coeff:      0.121D+00 0.879D+00
 Gap=     0.231 Goal=   None    Shift=    0.000
 Gap=     0.174 Goal=   None    Shift=    0.000
 RMSDP=6.39D-05 MaxDP=1.90D-03 DE=-1.31D-04 OVMax= 2.51D-03

 Cycle   3  Pass 0  IDiag  1:
 E= -135.714378675071     Delta-E=       -0.000003616462 Rises=F Damp=F
 DIIS: error= 4.17D-04 at cycle   3 NSaved=   3.
 NSaved= 3 IEnMin= 3 EnMin= -135.714378675071     IErMin= 2 ErrMin= 4.12D-04
 ErrMax= 4.17D-04  0.00D+00 EMaxC= 1.00D-01 BMatC= 3.98D-05 BMatP= 4.69D-05
 IDIUse=3 WtCom= 9.96D-01 WtEn= 4.17D-03
 Coeff-Com: -0.116D-01 0.481D+00 0.531D+00
 Coeff-En:   0.000D+00 0.423D+00 0.577D+00
 Coeff:     -0.115D-01 0.481D+00 0.531D+00
 Gap=     0.231 Goal=   None    Shift=    0.000
 Gap=     0.174 Goal=   None    Shift=    0.000
 RMSDP=2.50D-05 MaxDP=6.29D-04 DE=-3.62D-06 OVMax= 1.34D-03

 Cycle   4  Pass 0  IDiag  1:
[...]
 Alpha virt. eigenvalues --    4.71516   4.78781   4.84888   4.89472   4.91614
 Alpha virt. eigenvalues --    4.93219   4.96829   5.02645   5.12087   5.23809
 Alpha virt. eigenvalues --    5.35116   5.53310   5.60326   5.66453   5.70929
 Alpha virt. eigenvalues --    5.72830   5.81721   5.87936   5.96117   6.06058
 Alpha virt. eigenvalues --    6.09315   6.12174   6.27603   6.72841   6.95455
 Alpha virt. eigenvalues --   25.39183  25.53769  37.19800
  Beta  occ. eigenvalues --  -15.54451 -11.25528 -11.22067  -1.18537  -0.99014
  Beta  occ. eigenvalues --   -0.82017  -0.67959  -0.61186  -0.59003  -0.55364
  Beta  occ. eigenvalues --   -0.51496  -0.48988  -0.38755
  Beta virt. eigenvalues --    0.03891   0.04904   0.05666   0.05979   0.08646
  Beta virt. eigenvalues --    0.08898   0.09435   0.12581   0.13611   0.14275
  Beta virt. eigenvalues --    0.15390   0.16712   0.17762   0.18997   0.19667
  Beta virt. eigenvalues --    0.19997   0.23159   0.24108   0.25936   0.27559
  Beta virt. eigenvalues --    0.30045   0.30288   0.32007   0.34485   0.35848
  Beta virt. eigenvalues --    0.38217   0.39200   0.41567   0.45258   0.46075
  Beta virt. eigenvalues --    0.55548   0.56077   0.59898   0.61529   0.64836
  Beta virt. eigenvalues --    0.69168   0.69946   0.72013   0.72976   0.73769
  Beta virt. eigenvalues --    0.74948   0.77608   0.77949   0.81126   0.82610
  Beta virt. eigenvalues --    0.82958   0.84953   0.88051   0.90105   0.91648
  Beta virt. eigenvalues --    0.94517   0.96275   1.00834   1.01773   1.04967
  Beta virt. eigenvalues --    1.08591   1.13659   1.16457   1.19438   1.21779
  Beta virt. eigenvalues --    1.26337   1.30889   1.34536   1.36164   1.38135
  Beta virt. eigenvalues --    1.39770   1.41634   1.44141   1.45705   1.49824
  Beta virt. eigenvalues --    1.53688   1.56779   1.57471   1.61391   1.64007
  Beta virt. eigenvalues --    1.67278   1.68776   1.69688   1.72846   1.76773
  Beta virt. eigenvalues --    1.78876   1.82691   1.83804   1.95448   1.97848
  Beta virt. eigenvalues --    2.08474   2.12743   2.17107   2.20573   2.75644
  Beta virt. eigenvalues --    2.78971   2.83589   2.85877   2.92892   2.96077
  Beta virt. eigenvalues --    3.01557   3.11724   3.15543   3.18372   3.22993
  Beta virt. eigenvalues --    3.25075   3.34480   3.39649   3.44724   3.45782
  Beta virt. eigenvalues --    3.48394   3.52020   3.53834   3.63461   3.64508
  Beta virt. eigenvalues --    3.71273   3.77882   3.79132   3.82436   3.84079
  Beta virt. eigenvalues --    3.88924   3.90537   3.94668   3.96764   4.01535
  Beta virt. eigenvalues --    4.06781   4.12268   4.17167   4.18513   4.19896
  Beta virt. eigenvalues --    4.20717   4.22101   4.25934   4.29449   4.30475
  Beta virt. eigenvalues --    4.32853   4.34971   4.40309   4.44843   4.46931
  Beta virt. eigenvalues --    4.48935   4.55581   4.58535   4.60876   4.62946
  Beta virt. eigenvalues --    4.65231   4.71794   4.78910   4.85157   4.89748
  Beta virt. eigenvalues --    4.91864   4.93418   4.97107   5.02966   5.12317
  Beta virt. eigenvalues --    5.23910   5.35553   5.53513   5.60540   5.66620
  Beta virt. eigenvalues --    5.71076   5.73088   5.82391   5.88070   5.96497
  Beta virt. eigenvalues --    6.06179   6.09473   6.12200   6.27781   6.72944
  Beta virt. eigenvalues --    6.95509  25.39536  25.54301  37.19838
          Condensed to atoms (all electrons):
               1          2          3          4          5          6
     1  N    6.409884   0.232928  -0.059878   0.414704   0.414550  -0.063551
     2  C    0.232928   5.164978   0.304709  -0.057190  -0.058277   0.275121
     3  C   -0.059878   0.304709   4.703408   0.006919   0.004831  -0.039810
     4  H    0.414704  -0.057190   0.006919   0.503197  -0.040241   0.008973
     5  H    0.414550  -0.058277   0.004831  -0.040241   0.512898   0.000038
     6  H   -0.063551   0.275121  -0.039810   0.008973   0.000038   0.770566
     7  H   -0.044120   0.414940  -0.017414  -0.008676   0.008236  -0.054131
     8  H   -0.006093  -0.023474   0.419088   0.001397  -0.002556   0.004901
     9  H    0.012114  -0.031158   0.428446  -0.001450  -0.001341  -0.003296
    10  H   -0.014065  -0.029425   0.424018   0.001213   0.001595  -0.012683
    11  H    0.022016  -0.146240   0.018311  -0.003306   0.001464   0.042193
               7          8          9         10         11
     1  N   -0.044120  -0.006093   0.012114  -0.014065   0.022016
     2  C    0.414940  -0.023474  -0.031158  -0.029425  -0.146240
     3  C   -0.017414   0.419088   0.428446   0.424018   0.018311
     4  H   -0.008676   0.001397  -0.001450   0.001213  -0.003306
     5  H    0.008236  -0.002556  -0.001341   0.001595   0.001464
     6  H   -0.054131   0.004901  -0.003296  -0.012683   0.042193
     7  H    0.633731  -0.006735  -0.004277   0.004783   0.013175
     8  H   -0.006735   0.633173  -0.029960  -0.043637  -0.002329
     9  H   -0.004277  -0.029960   0.602438  -0.025564   0.000229
    10  H    0.004783  -0.043637  -0.025564   0.628562   0.001506
    11  H    0.013175  -0.002329   0.000229   0.001506   1.134123
          Atomic-Atomic Spin Densities.
               1          2          3          4          5          6
     1  N    0.042588  -0.074270   0.003826   0.002303   0.001033   0.011847
     2  C   -0.074270   0.590279  -0.048981  -0.000874  -0.003718   0.136651
     3  C    0.003826  -0.048981  -0.008700  -0.000868   0.001866   0.010975
     4  H    0.002303  -0.000874  -0.000868   0.014540  -0.001159   0.000304
     5  H    0.001033  -0.003718   0.001866  -0.001159  -0.000300  -0.001308
     6  H    0.011847   0.136651   0.010975   0.000304  -0.001308  -0.373351
     7  H    0.002359  -0.030234   0.006297  -0.002605   0.000765   0.010235
     8  H    0.005417  -0.004852  -0.000790   0.001495  -0.000767  -0.002095
     9  H   -0.000382  -0.003139   0.002463  -0.000080   0.000084   0.000505
    10  H   -0.001167  -0.004710   0.002021  -0.000241   0.000263   0.003726
    11  H    0.022292  -0.169816   0.023699  -0.002478   0.002074  -0.081798
               7          8          9         10         11
     1  N    0.002359   0.005417  -0.000382  -0.001167   0.022292
     2  C   -0.030234  -0.004852  -0.003139  -0.004710  -0.169816
     3  C    0.006297  -0.000790   0.002463   0.002021   0.023699
     4  H   -0.002605   0.001495  -0.000080  -0.000241  -0.002478
     5  H    0.000765  -0.000767   0.000084   0.000263   0.002074
     6  H    0.010235  -0.002095   0.000505   0.003726  -0.081798
     7  H   -0.011451  -0.002795   0.000529   0.000276   0.013503
     8  H   -0.002795   0.023012  -0.000242  -0.001274  -0.002910
     9  H    0.000529  -0.000242   0.000522  -0.000734   0.001096
    10  H    0.000276  -0.001274  -0.000734   0.003045   0.001721
    11  H    0.013503  -0.002910   0.001096   0.001721   1.069138
 Mulliken charges and spin densities:
               1          2
     1  N   -0.318487   0.015847
     2  C   -0.046912   0.386337
     3  C   -0.192629  -0.008192
     4  H    0.174459   0.010337
     5  H    0.158804  -0.001165
     6  H    0.071680  -0.284309
     7  H    0.060488  -0.013122
     8  H    0.056224   0.014199
     9  H    0.053820   0.000620
    10  H    0.063696   0.002926
    11  H   -0.081142   0.876522
 Sum of Mulliken charges =  -0.00000   1.00000
 Mulliken charges and spin densities with hydrogens summed into heavy atoms:
               1          2
     1  N    0.014775   0.025019
     2  C    0.004114   0.965428
     3  C   -0.018889   0.009554
 Electronic spatial extent (au):  <R**2>=            240.3288
 Charge=             -0.0000 electrons
 Dipole moment (field-independent basis, Debye):
    X=             -0.5187    Y=             -1.9314    Z=              0.7412  Tot=              2.1328
 Quadrupole moment (field-independent basis, Debye-Ang):
   XX=            -23.8579   YY=            -24.7735   ZZ=            -20.9209
   XY=             -2.2428   XZ=              0.9350   YZ=              1.5909
 Traceless Quadrupole moment (field-independent basis, Debye-Ang):
   XX=             -0.6738   YY=             -1.5894   ZZ=              2.2632
   XY=             -2.2428   XZ=              0.9350   YZ=              1.5909
 Octapole moment (field-independent basis, Debye-Ang**2):
  XXX=             -0.2880  YYY=            -14.1481  ZZZ=              1.4173  XYY=              2.8785
  XXY=             -6.0512  XXZ=              3.5234  XZZ=              2.9404  YZZ=             -4.1873
  YYZ=              3.0873  XYZ=              0.0254
 Hexadecapole moment (field-independent basis, Debye-Ang**3):
 XXXX=           -189.3081 YYYY=           -138.0117 ZZZZ=            -48.2884 XXXY=            -11.9818
 XXXZ=              4.8551 YYYX=              0.3048 YYYZ=             10.5332 ZZZX=              0.4793
 ZZZY=              7.4991 XXYY=            -48.6021 XXZZ=            -37.0629 YYZZ=            -28.8656
 XXYZ=              1.7945 YYXZ=             -1.3825 ZZXY=             -1.9820
 N-N= 8.763494663316D+01 E-N=-4.892244115291D+02  KE= 1.346364554485D+02
 Leave Link  601 at Wed Sep 15 11:34:55 2021, MaxMem=   805306368 cpu:         0.2
 (Enter /Local/ce_dana/g09/l9999.exe)

 Test job not archived.
 1\1\GINC-TECH-WN077\SP\UMP2-FC\CBSB3\C2H8N1(2)\ALONGD\15-Sep-2021\0\\#
 P Geom=AllCheck Guess=TCheck SCRF=Check Test MP2/CBSB3 CBSExtrap=(NMin
 =10,MinPop)\\TS1\\0,2\N,0,0.0266967128,-0.3666451662,-1.2117090348\C,0
 ,-0.0629891763,-0.3981907565,0.2176495167\C,0,0.0225694567,0.933133469
 1,0.9513729809\H,0,-0.867342394,-0.4090116237,-1.682364095\H,0,0.56503
 14811,0.4154347659,-1.5618426277\H,0,0.868020287,-1.0653734107,0.65255
 62506\H,0,-0.9319806529,-0.9857495198,0.5226410959\H,0,-0.8279604664,1
 .5761003146,0.6989083135\H,0,0.0335554235,0.7843085041,2.0346963152\H,
 0,0.9397786071,1.4664297697,0.6808488056\H,0,1.7059307214,-1.631953346
 5,1.1036984792\\Version=ES64L-G09RevD.01\State=2-A\HF=-134.7728035\MP2
 =-135.3484712\E2(CBS)=-0.633306\CBS-Int=-0.6134156\OIii=5.2552725\PUHF
 =-134.7780548\PMP2-0=-135.3520313\S2=0.7774\S2-1=0.75971\S2A=0.750108\
 RMSD=5.487e-09\PG=C01 [X(C2H8N1)]\\@


 WHEN ALL ELSE FAILS, TRY THE BOSS'S SUGGESTION.
 Diagonal vibrational polarizability:
        0.0000000       0.0000000       0.0000000
    1 imaginary frequencies ignored.

 Complete Basis Set (CBS) Extrapolation:
 M. R. Nyden and G. A. Petersson, JCP 75, 1843 (1981)
 G. A. Petersson and M. A. Al-Laham, JCP 94, 6081 (1991)
 G. A. Petersson, T. Tensfeldt, and J. A. Montgomery, JCP 94, 6091 (1991)
 J. A. Montgomery, J. W. Ochterski, and G. A. Petersson, JCP 101, 5900 (1994)

 Temperature=               298.150000 Pressure=                       1.000000
 E(ZPE)=                      0.088857 E(Thermal)=                     0.094208
 E(SCF)=                   -134.772804 DE(MP2)=                       -0.575668
 DE(CBS)=                    -0.057638 DE(MP34)=                      -0.042888
 DE(CCSD)=                   -0.015183 DE(Int)=                        0.019890
 DE(Empirical)=              -0.030689
 CBS-QB3 (0 K)=            -135.386123 CBS-QB3 Energy=              -135.380772
 CBS-QB3 Enthalpy=         -135.379828 CBS-QB3 Free Energy=         -135.413154

 Test job not archived.
 1\1\GINC-TECH-WN077\Mixed\CBS-QB3\CBS-QB3\C2H8N1(2)\ALONGD\15-Sep-2021
 \0\\#P opt=(ts, calcfc, noeigentest, maxcycles=100, tight, maxstep=5) 
 guess=read cbs-qb3 scf=(tight, direct) integral=(grid=ultrafine, Acc2E
 =12) IOp(2/9=2000) scf=xqc\\TS1\\0,2\N,0,0.0266967128,-0.3666451662,-1
 .2117090348\C,0,-0.0629891763,-0.3981907565,0.2176495167\C,0,0.0225694
 567,0.9331334691,0.9513729809\H,0,-0.867342394,-0.4090116237,-1.682364
 095\H,0,0.5650314811,0.4154347659,-1.5618426277\H,0,0.868020287,-1.065
 3734107,0.6525562506\H,0,-0.9319806529,-0.9857495198,0.5226410959\H,0,
 -0.8279604664,1.5761003146,0.6989083135\H,0,0.0335554235,0.7843085041,
 2.0346963152\H,0,0.9397786071,1.4664297697,0.6808488056\H,0,1.70593072
 14,-1.6319533465,1.1036984792\\Version=ES64L-G09RevD.01\State=2-A\HF/C
 bsB3=-134.7728035\E2(CBS)/CbsB3=-0.633306\CBS-Int/CbsB3=0.0198904\OIii
 /CbsB3=5.2552725\MP2/CbsB4=-135.2267882\MP4(SDQ)/CbsB4=-135.2696765\MP
 4(SDQ)/6-31+G(d')=-135.2009237\QCISD(T)/6-31+G(d')=-135.2161065\CBSQB3
 =-135.3861231\FreqCoord=0.0504494758,-0.692858952,-2.2897982285,-0.119
 0322926,-0.7524714783,0.4112979794,0.0426500921,1.7633667021,1.7978343
 841,-1.6390395881,-0.7729199539,-3.1792073953,1.0677547558,0.785057933
 6,-2.951454829,1.6403206203,-2.0132639755,1.2331525999,-1.7611881951,-
 1.8627966281,0.987648537,-1.5646185304,2.9783979525,1.3207453046,0.063
 4105608,1.4821282765,3.8450187993,1.7759241929,2.7711506578,1.28661778
 04,3.2237418651,-3.0839448866,2.0856878589\PG=C01 [X(C2H8N1)]\NImag=1\
 \0.57739546,0.23882144,0.34295358,0.10610502,-0.13489515,0.53479764,-0
 .08848813,-0.02626638,0.03136739,0.44243235,-0.02765736,-0.07004391,-0
 .01882646,0.13789637,0.43976955,-0.01258831,0.03583545,-0.24276623,-0.
 06339298,-0.00057250,0.48162985,0.00293980,-0.00061185,-0.00107870,-0.
 07121996,-0.01229737,0.00411326,0.55039396,0.00315629,0.00532477,-0.00
 132325,-0.01863345,-0.16694896,-0.04622042,-0.00156988,0.47839625,-0.0
 0167302,-0.03155771,-0.03167142,-0.00006832,-0.03571250,-0.09551317,-0
 .00283059,-0.04574642,0.54454582,-0.35677401,-0.04910717,-0.16636875,0
 .00431075,0.00597693,0.00690863,0.00004192,-0.00061937,0.00172725,0.36
 606947,-0.01379200,-0.01507209,0.02519746,-0.00074097,-0.00326993,-0.0
 0743633,-0.00075760,0.00019120,-0.00253343,0.03767835,0.02427845,-0.14
 952093,0.00667362,-0.12395492,-0.03402596,-0.00070449,-0.02189987,0.00
 002817,0.00156331,-0.00213970,0.16612719,-0.00437190,0.14152187,-0.143
 45726,-0.15714628,0.04600207,-0.00127565,-0.00175155,0.00574653,0.0008
 5354,0.00040296,-0.00241127,-0.01676486,-0.02755904,0.01352355,0.16065
 308,-0.19757285,-0.26766147,0.11918027,0.00358578,-0.00166942,-0.00529
 258,0.00220542,0.00237231,-0.00068615,0.00600677,-0.00327086,-0.000005
 42,0.18558440,0.26885477,0.04920835,0.09790013,-0.09614776,0.02374917,
 0.03162942,-0.01496694,0.00127508,0.00087065,0.00309364,-0.00897535,-0
 .01643932,0.00708830,-0.06339728,-0.11306269,0.10793729,0.00271153,-0.
 00431652,-0.01995393,-0.02792653,-0.01366220,0.02257334,-0.00843729,0.
 00727661,-0.00034343,0.00153225,0.00503567,0.00313333,-0.00113570,-0.0
 0045864,0.00019203,0.03537141,0.00124138,0.00471268,0.01395837,-0.0123
 1678,-0.02871328,-0.01423525,0.02441018,-0.02240527,0.00382186,-0.0004
 0035,-0.00332196,-0.00202037,0.00079749,-0.00036047,0.00014467,0.01088
 883,0.04578517,-0.02062487,0.00756532,-0.03044228,0.01901734,-0.011953
 09,-0.01896798,0.00313725,-0.00322574,0.00312210,-0.00066065,0.0055185
 1,-0.00244605,-0.00077242,0.00078976,-0.00049635,-0.01394327,0.0125544
 1,0.04959972,0.00002803,0.00043736,-0.00119429,-0.21456773,-0.12261170
 ,0.06333162,0.00098169,0.00217278,-0.00010920,0.00192859,0.00029663,0.
 00092137,0.00191236,0.00092675,-0.00075042,-0.02094011,-0.00550049,0.0
 0152366,0.22597960,-0.00096791,-0.00037092,0.00163251,-0.11327864,-0.1
 1730503,0.03496747,-0.02404780,-0.01422995,0.00632696,0.00001059,0.000
 23599,-0.00018942,-0.00051734,0.00138561,0.00039710,0.01397050,0.00299
 196,-0.00056866,0.12601704,0.12834702,0.02946042,0.02159912,-0.0160064
 3,0.05067737,0.03066320,-0.06782688,-0.01319574,-0.00756465,0.00516205
 ,0.00066172,0.00106181,0.00187144,0.00132283,-0.00143975,-0.00676204,-
 0.00683314,-0.00228265,0.00158220,-0.06354993,-0.03869129,0.08178070,0
 .00070786,-0.00085192,0.00138387,0.00194823,-0.00046715,-0.00036963,-0
 .20285535,0.11327949,-0.04765659,-0.00019364,0.00027143,0.00020791,-0.
 00036892,0.00019512,0.00009536,0.00217598,-0.00071890,0.00026244,0.000
 77497,0.00042251,0.00045706,0.21854951,-0.00187950,0.00287585,0.000706
 14,0.02306866,-0.02078542,0.00707620,0.11541629,-0.12851462,0.03578225
 ,-0.00003462,-0.00012115,-0.00068123,0.00028924,0.00000872,-0.00048557
 ,-0.00022470,-0.00399177,-0.00241506,-0.00063393,0.00103221,0.00039987
 ,-0.12651573,0.14249605,-0.00028352,0.00146838,0.00197868,0.01226655,-
 0.00993381,0.00220226,-0.04670923,0.03509354,-0.06131692,-0.00014097,-
 0.00020451,-0.00007152,0.00045909,-0.00009952,-0.00028727,0.00053557,-
 0.00254498,-0.00000824,-0.00026606,0.00085478,0.00028820,0.05270154,-0
 .03706877,0.06186506,0.00205266,-0.00134715,-0.00070674,-0.00174231,0.
 00060893,-0.00150319,-0.04671453,0.00058254,-0.00224370,-0.00004267,0.
 00063272,0.00046859,-0.00015733,-0.00003639,-0.00039983,-0.00005722,0.
 00003958,0.00007403,0.00001633,0.00025915,-0.00005740,0.00029376,0.002
 72182,-0.02551080,0.04556837,-0.00136054,-0.00462883,-0.00388283,0.000
 67810,0.00781265,-0.02920691,0.00066726,-0.05353193,0.03907450,0.00049
 033,-0.00075509,-0.00086859,-0.00018719,-0.00031973,0.00019098,0.00029
 005,0.00081913,0.00022563,-0.00048621,0.00079685,0.00065921,-0.0012412
 7,-0.00293403,0.01796455,-0.00001069,0.05536857,-0.00059460,-0.0037188
 6,-0.00109608,-0.00020051,0.00532362,-0.01506055,-0.00143778,0.0370649
 2,-0.30155623,0.00051235,-0.00064324,-0.00025355,-0.00075464,0.0000369
 1,0.00084684,0.00044478,-0.00013067,0.00044089,-0.00049083,-0.00028661
 ,0.00045314,0.00002878,0.00099640,-0.00599690,0.00234277,-0.03970272,0
 .32899065,0.00102079,0.00041149,-0.00096652,-0.00072697,-0.00076174,0.
 00076003,-0.22897647,-0.10288998,0.05545682,-0.00001948,0.00027562,0.0
 0000737,-0.00027421,-0.00051264,-0.00094542,0.00042568,0.00016750,-0.0
 0050476,0.00140244,0.00021098,-0.00001097,-0.02092771,-0.01196306,0.00
 691542,0.00071902,0.00116528,-0.00005585,0.24710523,0.00151569,0.00150
 769,0.00177907,-0.02640865,-0.01809605,0.00851749,-0.10176710,-0.10338
 056,0.03081828,0.00001515,0.00014521,0.00011363,0.00008518,0.00075750,
 -0.00112365,-0.00093507,0.00132270,-0.00009578,0.00019593,-0.00443121,
 -0.00369256,0.01579811,0.00943783,-0.00560165,-0.00323743,-0.00270547,
 0.00114791,0.11428828,0.11538985,-0.00075915,-0.00017950,0.00188772,-0
 .01384039,-0.00833493,0.00359685,0.05474960,0.03133914,-0.06401174,0.0
 0002584,0.00022009,0.00011335,0.00037006,0.00055986,-0.00034675,-0.000
 16756,0.00087544,-0.00008292,-0.00023063,-0.00318246,-0.00101083,-0.00
 702431,-0.00436949,0.00135452,0.02770413,0.01519873,-0.00705359,-0.060
 80539,-0.03204694,0.06558101,0.00186327,-0.00002302,0.00541057,-0.0427
 4405,0.03472684,-0.02557932,0.00299268,-0.00315800,0.00015207,-0.00008
 832,-0.00134082,-0.00087060,0.00001494,0.00007629,-0.00005170,0.016280
 01,-0.01860845,0.01249124,0.00248382,-0.00207908,0.00106780,-0.0001046
 8,-0.00024448,0.00003240,0.00006393,-0.00000511,0.00020552,0.00025168,
 0.00044991,-0.00002221,0.01898674,-0.00150464,0.00040265,-0.00352613,0
 .03241595,-0.02075020,0.01656738,-0.00164756,0.00272676,0.00041236,-0.
 00001661,0.00096022,0.00049085,0.00000213,-0.00009697,-0.00002172,-0.0
 1786452,0.00316111,-0.00839531,-0.00081417,0.00154747,-0.00071230,-0.0
 0017169,0.00049634,0.00007197,-0.00021309,0.00007790,-0.00008766,-0.00
 039173,0.00005252,-0.00007994,-0.00979408,0.01142220,0.00127060,-0.000
 69082,0.00342109,-0.02554967,0.01842154,-0.01042734,0.00194868,-0.0018
 5108,0.00028559,0.00018274,-0.00036915,0.00017063,-0.00008853,0.000019
 30,0.00004106,0.01436228,-0.01014083,-0.00230109,0.00081471,-0.0012603
 6,0.00046844,-0.00008645,0.00005924,-0.00000787,-0.00016787,0.00034745
 ,0.00028538,0.00014925,0.00018420,-0.00002761,0.00716423,-0.00471950,0
 .00809170\\0.00000007,-0.00000003,0.00000009,0.00000015,-0.00000005,-0
 .00000013,-0.00000014,-0.00000008,0.,0.00000009,-0.00000007,-0.0000000
 4,0.00000003,0.00000015,0.,0.00000013,0.00000008,0.,0.00000003,-0.0000
 0017,-0.00000004,-0.00000027,-0.00000008,-0.00000001,-0.00000014,-0.00
 000008,0.00000010,-0.00000010,0.00000014,0.00000003,0.00000013,0.00000
 019,-0.00000002\\\@
 Job cpu time:       0 days  0 hours  1 minutes 46.4 seconds.
 File lengths (MBytes):  RWF=    793 Int=      0 D2E=      0 Chk=      4 Scr=      1
 Normal termination of Gaussian 09 at Wed Sep 15 11:34:55 2021.
