 Entering Gaussian System, Link 0=/Local/ce_dana/g09/g09
 Initial command:
 /Local/ce_dana/g09/l1.exe "/storage/ce_dana/alongd/scratch/g09/Gau-25364.inp" -scrdir="/storage/ce_dana/alongd/scratch/g09/"
 Entering Link 1 = /Local/ce_dana/g09/l1.exe PID=     25365.
  
 Copyright (c) 1988,1990,1992,1993,1995,1998,2003,2009,2013,
            Gaussian, Inc.  All Rights Reserved.
  
 This is part of the Gaussian(R) 09 program.  It is based on
 the Gaussian(R) 03 system (copyright 2003, Gaussian, Inc.),
 the Gaussian(R) 98 system (copyright 1998, Gaussian, Inc.),
 the Gaussian(R) 94 system (copyright 1995, Gaussian, Inc.),
 the Gaussian 92(TM) system (copyright 1992, Gaussian, Inc.),
 the Gaussian 90(TM) system (copyright 1990, Gaussian, Inc.),
 the Gaussian 88(TM) system (copyright 1988, Gaussian, Inc.),
 the Gaussian 86(TM) system (copyright 1986, Carnegie Mellon
 University), and the Gaussian 82(TM) system (copyright 1983,
 Carnegie Mellon University). Gaussian is a federally registered
 trademark of Gaussian, Inc.
  
 This software contains proprietary and confidential information,
 including trade secrets, belonging to Gaussian, Inc.
  
 This software is provided under written license and may be
 used, copied, transmitted, or stored only in accord with that
 written license.
  
 The following legend is applicable only to US Government
 contracts under FAR:
  
                    RESTRICTED RIGHTS LEGEND
  
 Use, reproduction and disclosure by the US Government is
 subject to restrictions as set forth in subparagraphs (a)
 and (c) of the Commercial Computer Software - Restricted
 Rights clause in FAR 52.227-19.
  
 Gaussian, Inc.
 340 Quinnipiac St., Bldg. 40, Wallingford CT 06492
  
  
 ---------------------------------------------------------------
 Warning -- This program may not be used in any manner that
 competes with the business of Gaussian, Inc. or will provide
 assistance to any competitor of Gaussian, Inc.  The licensee
 of this program is prohibited from giving any competitor of
 Gaussian, Inc. access to this program.  By using this program,
 the user acknowledges that Gaussian, Inc. is engaged in the
 business of creating and licensing software in the field of
 computational chemistry and represents and warrants to the
 licensee that it is not a competitor of Gaussian, Inc. and that
 it will not use this program in any manner prohibited above.
 ---------------------------------------------------------------
  

 Cite this work as:
 Gaussian 09, Revision D.01,
 M. J. Frisch, G. W. Trucks, H. B. Schlegel, G. E. Scuseria, 
 M. A. Robb, J. R. Cheeseman, G. Scalmani, V. Barone, B. Mennucci, 
 G. A. Petersson, H. Nakatsuji, M. Caricato, X. Li, H. P. Hratchian, 
 A. F. Izmaylov, J. Bloino, G. Zheng, J. L. Sonnenberg, M. Hada, 
 M. Ehara, K. Toyota, R. Fukuda, J. Hasegawa, M. Ishida, T. Nakajima, 
 Y. Honda, O. Kitao, H. Nakai, T. Vreven, J. A. Montgomery, Jr., 
 J. E. Peralta, F. Ogliaro, M. Bearpark, J. J. Heyd, E. Brothers, 
 K. N. Kudin, V. N. Staroverov, T. Keith, R. Kobayashi, J. Normand, 
 K. Raghavachari, A. Rendell, J. C. Burant, S. S. Iyengar, J. Tomasi, 
 M. Cossi, N. Rega, J. M. Millam, M. Klene, J. E. Knox, J. B. Cross, 
 V. Bakken, C. Adamo, J. Jaramillo, R. Gomperts, R. E. Stratmann, 
 O. Yazyev, A. J. Austin, R. Cammi, C. Pomelli, J. W. Ochterski, 
 R. L. Martin, K. Morokuma, V. G. Zakrzewski, G. A. Voth, 
 P. Salvador, J. J. Dannenberg, S. Dapprich, A. D. Daniels, 
 O. Farkas, J. B. Foresman, J. V. Ortiz, J. Cioslowski, 
 and D. J. Fox, Gaussian, Inc., Wallingford CT, 2013.
 
 ******************************************
 Gaussian 09:  ES64L-G09RevD.01 24-Apr-2013
                15-Sep-2021 
 ******************************************
 %chk=check.chk
 %mem=6144mb
 %NProcShared=8
 Will use up to    8 processors via shared memory.
 ----------------------------------------------------------------------
 #P opt=(ts, calcfc, noeigentest, maxcycles=100, tight, maxstep=5) gues
 s=mix cbs-qb3 scf=(tight, direct) integral=(grid=ultrafine, Acc2E=12) 
 IOp(2/9=2000) scf=xqc
 ----------------------------------------------------------------------
 1/5=1,6=100,7=10,8=5,10=4,11=1,14=-1,18=20,26=4,38=1/1,3;
 2/9=2000,12=2,17=6,18=5,40=1/2;
 3/5=4,6=6,7=700,11=2,16=1,25=1,30=1,71=2,74=-5,75=-5,140=1/1,2,3;
 4/13=-1/1;
 5/5=2,8=3,13=1,32=2,38=5,87=12/2,8;
 8/6=4,10=90,11=11,87=12/1;
 11/6=1,8=1,9=11,15=111,16=1,87=12/1,2,10;
 10/6=1,13=1,87=12/2;
 6/7=2,8=2,9=2,10=2,28=1/1;
 7/10=1,18=20,25=1,87=12/1,2,3,16;
 1/5=1,6=100,7=10,8=5,10=4,11=1,14=-1,18=20,26=4/3(2);
 2/9=2000/2;
 99//99;
 2/9=2000/2;
 3/5=4,6=6,7=700,11=2,16=1,25=1,30=1,71=1,74=-5,75=-5/1,2,3;
 4/5=5,16=3,69=1/1;
 5/5=2,8=3,13=1,32=2,38=5,87=12/2,8;
 7/87=12/1,2,3,16;
 1/5=1,6=100,7=10,8=5,11=1,14=-1,18=20,26=4/3(-5);
 2/9=2000/2;
 6/7=2,8=2,9=2,10=2,19=2,28=1/1;
 99/9=1/99;
 Leave Link    1 at Wed Sep 15 11:29:30 2021, MaxMem=   805306368 cpu:         0.1
 (Enter /Local/ce_dana/g09/l101.exe)
 ---
 TS0
 ---
 Symbolic Z-matrix:
 Charge =  0 Multiplicity = 2
 C                    -1.02102   1.38548  -0.33282 
 C                    -0.86266   1.32784   1.17547 
 O                    -0.13935   0.20564   1.62822 
 O                     1.20335   0.34831   1.19953 
 H                    -1.52461   0.4832   -0.71194 
 H                    -0.03824   1.46962  -0.81773 
 H                    -1.61946   2.2616   -0.62306 
 H                    -1.83783   1.21693   1.67465 
 H                    -0.38914   2.24967   1.55697 
 C                     0.52875  -1.53731  -2.10585 
 C                     0.63066  -2.00178  -0.69718 
 H                    -0.51807  -1.50293  -2.44907 
 H                     0.92274  -0.5094   -2.23035 
 H                     1.09807  -2.17942  -2.79386 
 H                     1.27573  -0.39004   0.56682 
 H                     1.4329   -2.6735   -0.38012 
 H                    -0.14656  -1.75695   0.03353 
 
 Add virtual bond connecting atoms C11        and H15        Dist= 4.06D+00.
 Add virtual bond connecting atoms H17        and H15        Dist= 3.86D+00.
 NAtoms=     17 NQM=       17 NQMF=       0 NMMI=      0 NMMIF=      0
                NMic=       0 NMicF=      0.
                    Isotopes and Nuclear Properties:
 (Nuclear quadrupole moments (NQMom) in fm**2, nuclear magnetic moments (NMagM)
  in nuclear magnetons)

  Atom         1           2           3           4           5           6           7           8           9          10
 IAtWgt=          12          12          16          16           1           1           1           1           1          12
 AtmWgt=  12.0000000  12.0000000  15.9949146  15.9949146   1.0078250   1.0078250   1.0078250   1.0078250   1.0078250  12.0000000
 NucSpn=           0           0           0           0           1           1           1           1           1           0
 AtZEff=   0.0000000   0.0000000   0.0000000   0.0000000   0.0000000   0.0000000   0.0000000   0.0000000   0.0000000   0.0000000
 NQMom=    0.0000000   0.0000000   0.0000000   0.0000000   0.0000000   0.0000000   0.0000000   0.0000000   0.0000000   0.0000000
 NMagM=    0.0000000   0.0000000   0.0000000   0.0000000   2.7928460   2.7928460   2.7928460   2.7928460   2.7928460   0.0000000
 AtZNuc=   6.0000000   6.0000000   8.0000000   8.0000000   1.0000000   1.0000000   1.0000000   1.0000000   1.0000000   6.0000000

  Atom        11          12          13          14          15          16          17
 IAtWgt=          12           1           1           1           1           1           1
 AtmWgt=  12.0000000   1.0078250   1.0078250   1.0078250   1.0078250   1.0078250   1.0078250
 NucSpn=           0           1           1           1           1           1           1
 AtZEff=   0.0000000   0.0000000   0.0000000   0.0000000   0.0000000   0.0000000   0.0000000
 NQMom=    0.0000000   0.0000000   0.0000000   0.0000000   0.0000000   0.0000000   0.0000000
 NMagM=    0.0000000   2.7928460   2.7928460   2.7928460   2.7928460   2.7928460   2.7928460
 AtZNuc=   6.0000000   1.0000000   1.0000000   1.0000000   1.0000000   1.0000000   1.0000000
 Leave Link  101 at Wed Sep 15 11:29:30 2021, MaxMem=   805306368 cpu:         0.3
 (Enter /Local/ce_dana/g09/l103.exe)

 GradGradGradGradGradGradGradGradGradGradGradGradGradGradGradGradGradGrad
 Berny optimization.
 Initialization pass.
                           ----------------------------
                           !    Initial Parameters    !
                           ! (Angstroms and Degrees)  !
 --------------------------                            --------------------------
 ! Name  Definition              Value          Derivative Info.                !
 --------------------------------------------------------------------------------
 ! R1    R(1,2)                  1.5177         calculate D2E/DX2 analytically  !
 ! R2    R(1,5)                  1.1007         calculate D2E/DX2 analytically  !
 ! R3    R(1,6)                  1.0991         calculate D2E/DX2 analytically  !
 ! R4    R(1,7)                  1.1            calculate D2E/DX2 analytically  !
 ! R5    R(2,3)                  1.4098         calculate D2E/DX2 analytically  !
 ! R6    R(2,8)                  1.1011         calculate D2E/DX2 analytically  !
 ! R7    R(2,9)                  1.1043         calculate D2E/DX2 analytically  !
 ! R8    R(3,4)                  1.4167         calculate D2E/DX2 analytically  !
 ! R9    R(4,15)                 0.975          calculate D2E/DX2 analytically  !
 ! R10   R(10,11)                1.4868         calculate D2E/DX2 analytically  !
 ! R11   R(10,12)                1.1022         calculate D2E/DX2 analytically  !
 ! R12   R(10,13)                1.1078         calculate D2E/DX2 analytically  !
 ! R13   R(10,14)                1.0999         calculate D2E/DX2 analytically  !
 ! R14   R(11,15)                2.1474         calculate D2E/DX2 analytically  !
 ! R15   R(11,16)                1.0933         calculate D2E/DX2 analytically  !
 ! R16   R(11,17)                1.0945         calculate D2E/DX2 analytically  !
 ! R17   R(15,17)                2.0435         calculate D2E/DX2 analytically  !
 ! A1    A(2,1,5)              111.0345         calculate D2E/DX2 analytically  !
 ! A2    A(2,1,6)              110.3685         calculate D2E/DX2 analytically  !
 ! A3    A(2,1,7)              110.4414         calculate D2E/DX2 analytically  !
 ! A4    A(5,1,6)              108.6565         calculate D2E/DX2 analytically  !
 ! A5    A(5,1,7)              108.2481         calculate D2E/DX2 analytically  !
 ! A6    A(6,1,7)              108.0029         calculate D2E/DX2 analytically  !
 ! A7    A(1,2,3)              113.7617         calculate D2E/DX2 analytically  !
 ! A8    A(1,2,8)              111.2206         calculate D2E/DX2 analytically  !
 ! A9    A(1,2,9)              110.8771         calculate D2E/DX2 analytically  !
 ! A10   A(3,2,8)              103.2153         calculate D2E/DX2 analytically  !
 ! A11   A(3,2,9)              109.4826         calculate D2E/DX2 analytically  !
 ! A12   A(8,2,9)              107.891          calculate D2E/DX2 analytically  !
 ! A13   A(2,3,4)              107.9948         calculate D2E/DX2 analytically  !
 ! A14   A(3,4,15)             100.9796         calculate D2E/DX2 analytically  !
 ! A15   A(11,10,12)           111.7086         calculate D2E/DX2 analytically  !
 ! A16   A(11,10,13)           111.8365         calculate D2E/DX2 analytically  !
 ! A17   A(11,10,14)           112.0125         calculate D2E/DX2 analytically  !
 ! A18   A(12,10,13)           105.8926         calculate D2E/DX2 analytically  !
 ! A19   A(12,10,14)           108.3629         calculate D2E/DX2 analytically  !
 ! A20   A(13,10,14)           106.6956         calculate D2E/DX2 analytically  !
 ! A21   A(10,11,15)           110.1091         calculate D2E/DX2 analytically  !
 ! A22   A(10,11,16)           121.1312         calculate D2E/DX2 analytically  !
 ! A23   A(10,11,17)           120.9304         calculate D2E/DX2 analytically  !
 ! A24   A(15,11,16)            94.0145         calculate D2E/DX2 analytically  !
 ! A25   A(16,11,17)           117.7025         calculate D2E/DX2 analytically  !
 ! A26   A(4,15,11)            158.1232         calculate D2E/DX2 analytically  !
 ! A27   A(4,15,17)            128.6242         calculate D2E/DX2 analytically  !
 ! D1    D(5,1,2,3)             58.0695         calculate D2E/DX2 analytically  !
 ! D2    D(5,1,2,8)            -57.9642         calculate D2E/DX2 analytically  !
 ! D3    D(5,1,2,9)           -178.0174         calculate D2E/DX2 analytically  !
 ! D4    D(6,1,2,3)            -62.4854         calculate D2E/DX2 analytically  !
 ! D5    D(6,1,2,8)           -178.5192         calculate D2E/DX2 analytically  !
 ! D6    D(6,1,2,9)             61.4276         calculate D2E/DX2 analytically  !
 ! D7    D(7,1,2,3)            178.1598         calculate D2E/DX2 analytically  !
 ! D8    D(7,1,2,8)             62.1261         calculate D2E/DX2 analytically  !
 ! D9    D(7,1,2,9)            -57.9271         calculate D2E/DX2 analytically  !
 ! D10   D(1,2,3,4)             67.7117         calculate D2E/DX2 analytically  !
 ! D11   D(8,2,3,4)           -171.6492         calculate D2E/DX2 analytically  !
 ! D12   D(9,2,3,4)            -56.9529         calculate D2E/DX2 analytically  !
 ! D13   D(2,3,4,15)          -113.5879         calculate D2E/DX2 analytically  !
 ! D14   D(3,4,15,11)           11.1223         calculate D2E/DX2 analytically  !
 ! D15   D(3,4,15,17)           -0.1609         calculate D2E/DX2 analytically  !
 ! D16   D(12,10,11,15)       -111.3773         calculate D2E/DX2 analytically  !
 ! D17   D(12,10,11,16)        140.67           calculate D2E/DX2 analytically  !
 ! D18   D(12,10,11,17)        -33.6211         calculate D2E/DX2 analytically  !
 ! D19   D(13,10,11,15)          7.1157         calculate D2E/DX2 analytically  !
 ! D20   D(13,10,11,16)       -100.837          calculate D2E/DX2 analytically  !
 ! D21   D(13,10,11,17)         84.8719         calculate D2E/DX2 analytically  !
 ! D22   D(14,10,11,15)        126.8401         calculate D2E/DX2 analytically  !
 ! D23   D(14,10,11,16)         18.8874         calculate D2E/DX2 analytically  !
 ! D24   D(14,10,11,17)       -155.4037         calculate D2E/DX2 analytically  !
 ! D25   D(10,11,15,4)          98.8985         calculate D2E/DX2 analytically  !
 ! D26   D(16,11,15,4)        -135.8187         calculate D2E/DX2 analytically  !
 --------------------------------------------------------------------------------
 Trust Radius=5.00D-02 FncErr=1.00D-07 GrdErr=1.00D-06
 Number of steps in this run=    100 maximum allowed number of steps=    102.
 Search for a saddle point of order  1.
 GradGradGradGradGradGradGradGradGradGradGradGradGradGradGradGradGradGrad

 Leave Link  103 at Wed Sep 15 11:29:30 2021, MaxMem=   805306368 cpu:         0.0
 (Enter /Local/ce_dana/g09/l202.exe)
                          Input orientation:                          
 ---------------------------------------------------------------------
 Center     Atomic      Atomic             Coordinates (Angstroms)
 Number     Number       Type             X           Y           Z
 ---------------------------------------------------------------------
      1          6           0       -1.021024    1.385477   -0.332819
      2          6           0       -0.862660    1.327835    1.175468
      3          8           0       -0.139347    0.205638    1.628222
      4          8           0        1.203351    0.348306    1.199534
      5          1           0       -1.524605    0.483199   -0.711942
      6          1           0       -0.038239    1.469624   -0.817733
      7          1           0       -1.619462    2.261603   -0.623063
      8          1           0       -1.837827    1.216925    1.674654
      9          1           0       -0.389138    2.249673    1.556974
     10          6           0        0.528752   -1.537313   -2.105851
     11          6           0        0.630658   -2.001780   -0.697181
     12          1           0       -0.518069   -1.502933   -2.449071
     13          1           0        0.922742   -0.509402   -2.230349
     14          1           0        1.098074   -2.179421   -2.793860
     15          1           0        1.275733   -0.390037    0.566817
     16          1           0        1.432897   -2.673498   -0.380121
     17          1           0       -0.146555   -1.756951    0.033526
 ---------------------------------------------------------------------
                    Distance matrix (angstroms):
                    1          2          3          4          5
     1  C    0.000000
     2  C    1.517673   0.000000
     3  O    2.452561   1.409785   0.000000
     4  O    2.893384   2.286582   1.416674   0.000000
     5  H    1.100651   2.171151   2.733559   3.333719   0.000000
     6  H    1.099131   2.161625   2.755101   2.620738   1.787039
     7  H    1.099985   2.163189   3.389103   3.866631   1.783148
     8  H    2.173827   1.101108   1.977294   3.198281   2.516407
     9  H    2.171965   1.104335   2.060473   2.505790   3.091552
    10  C    3.753418   4.572981   4.174630   3.864740   3.200270
    11  C    3.786070   4.101603   3.297439   3.073826   3.289452
    12  H    3.615854   4.611862   4.436999   4.438771   2.824084
    13  H    3.312010   4.261771   4.065450   3.546618   3.046362
    14  H    4.822426   5.648087   5.174411   4.727334   4.278127
    15  H    3.039225   2.809673   1.866510   0.975049   3.199947
    16  H    4.743337   4.868275   3.846403   3.417499   4.338394
    17  H    3.282340   3.366414   2.528807   2.759335   2.733682
                    6          7          8          9         10
     6  H    0.000000
     7  H    1.779155   0.000000
     8  H    3.084537   2.533484   0.000000
     9  H    2.524052   2.503278   1.783008   0.000000
    10  C    3.320000   4.609257   5.242017   5.347904   0.000000
    11  C    3.537316   4.821304   4.698838   4.918948   1.486763
    12  H    3.424558   4.326558   5.113169   5.490635   1.102187
    13  H    2.614481   4.089577   5.084289   4.865937   1.107849
    14  H    4.302536   5.640927   6.334216   6.384233   1.099903
    15  H    2.664928   4.102336   3.674763   3.274183   3.002895
    16  H    4.418281   5.807851   5.482256   5.595513   2.255336
    17  H    3.338736   4.330051   3.794422   4.293341   2.254155
                   11         12         13         14         15
    11  C    0.000000
    12  H    2.153495   0.000000
    13  H    2.159423   1.763769   0.000000
    14  H    2.155481   1.785619   1.771228   0.000000
    15  H    2.147447   3.681283   2.821877   3.811510   0.000000
    16  H    1.093307   3.075231   2.892562   2.486434   2.477012
    17  H    1.094502   2.523061   2.797303   3.117963   2.043467
                   16         17
    16  H    0.000000
    17  H    1.872386   0.000000
 Stoichiometry    C4H11O2(2)
 Framework group  C1[X(C4H11O2)]
 Deg. of freedom    45
 Full point group                 C1      NOp   1
 Largest Abelian subgroup         C1      NOp   1
 Largest concise Abelian subgroup C1      NOp   1
                         Standard orientation:                         
 ---------------------------------------------------------------------
 Center     Atomic      Atomic             Coordinates (Angstroms)
 Number     Number       Type             X           Y           Z
 ---------------------------------------------------------------------
      1          6           0       -1.019656    1.516238    0.147813
      2          6           0       -1.923251    0.356295   -0.228191
      3          8           0       -1.230504   -0.846307   -0.475869
      4          8           0       -0.677446   -1.293136    0.749462
      5          1           0       -0.276899    1.710202   -0.640935
      6          1           0       -0.488487    1.299122    1.085261
      7          1           0       -1.611280    2.431586    0.296429
      8          1           0       -2.442847    0.548079   -1.179861
      9          1           0       -2.689655    0.186609    0.548590
     10          6           0        2.625865    0.622777    0.154797
     11          6           0        2.057776   -0.600781   -0.470218
     12          1           0        2.536121    1.498570   -0.508340
     13          1           0        2.094320    0.893405    1.088365
     14          1           0        3.685774    0.496127    0.420013
     15          1           0        0.276011   -1.200742    0.567514
     16          1           0        2.544717   -1.572800   -0.354511
     17          1           0        1.191425   -0.541794   -1.136469
 ---------------------------------------------------------------------
 Rotational constants (GHZ):      4.2986907      1.7197162      1.3843261
 Leave Link  202 at Wed Sep 15 11:29:30 2021, MaxMem=   805306368 cpu:         0.0
 (Enter /Local/ce_dana/g09/l301.exe)
 Standard basis: 6-311G(2d,d,p) (5D, 7F)
 Ernie: Thresh=  0.10000D-02 Tol=  0.10000D-05 Strict=F.
 There are   180 symmetry adapted cartesian basis functions of A   symmetry.
 There are   174 symmetry adapted basis functions of A   symmetry.
   174 basis functions,   280 primitive gaussians,   180 cartesian basis functions
    26 alpha electrons       25 beta electrons
       nuclear repulsion energy       251.7123749956 Hartrees.
 IExCor=  402 DFT=T Ex+Corr=B3LYP ExCW=0 ScaHFX=  0.200000
 ScaDFX=  0.800000  0.720000  1.000000  0.810000 ScalE2=  1.000000  1.000000
 IRadAn=      5 IRanWt=     -1 IRanGd=            0 ICorTp=0 IEmpDi=  4
 NAtoms=   17 NActive=   17 NUniq=   17 SFac= 1.00D+00 NAtFMM=   60 NAOKFM=F Big=F
 Integral buffers will be    131072 words long.
 Raffenetti 2 integral format.
 Two-electron integral symmetry is turned on.
 Leave Link  301 at Wed Sep 15 11:29:30 2021, MaxMem=   805306368 cpu:         0.1
 (Enter /Local/ce_dana/g09/l302.exe)
 NPDir=0 NMtPBC=     1 NCelOv=     1 NCel=       1 NClECP=     1 NCelD=      1
         NCelK=      1 NCelE2=     1 NClLst=     1 CellRange=     0.0.
 One-electron integrals computed using PRISM.
 NBasis=   174 RedAO= T EigKep=  2.99D-03  NBF=   174
 NBsUse=   174 1.00D-06 EigRej= -1.00D+00 NBFU=   174
 Precomputing XC quadrature grid using
 IXCGrd= 4 IRadAn=           5 IRanWt=          -1 IRanGd=           0 AccXCQ= 0.00D+00.
 Generated NRdTot=       0 NPtTot=           0 NUsed=           0 NTot=          32
 NSgBfM=   180   180   180   180   180 MxSgAt=    17 MxSgA2=    17.
 Leave Link  302 at Wed Sep 15 11:29:30 2021, MaxMem=   805306368 cpu:         1.5
 (Enter /Local/ce_dana/g09/l303.exe)
 DipDrv:  MaxL=1.
 Leave Link  303 at Wed Sep 15 11:29:30 2021, MaxMem=   805306368 cpu:         0.1
 (Enter /Local/ce_dana/g09/l401.exe)
 ExpMin= 1.03D-01 ExpMax= 8.59D+03 ExpMxC= 1.30D+03 IAcc=3 IRadAn=         5 AccDes= 0.00D+00
 Harris functional with IExCor=  402 and IRadAn=       5 diagonalized for initial guess.
 HarFok:  IExCor=  402 AccDes= 0.00D+00 IRadAn=         5 IDoV= 1 UseB2=F ITyADJ=14
 ICtDFT=  3500011 ScaDFX=  1.000000  1.000000  1.000000  1.000000
 FoFCou: FMM=F IPFlag=           0 FMFlag=      100000 FMFlg1=           0
         NFxFlg=           0 DoJE=T BraDBF=F KetDBF=T FulRan=T
         wScrn=  0.000000 ICntrl=     500 IOpCl=  0 I1Cent=   200000004 NGrid=           0
         NMat0=    1 NMatS0=      1 NMatT0=    0 NMatD0=    1 NMtDS0=    0 NMtDT0=    0
 Petite list used in FoFCou.
 Harris En= -309.471927373697    
 JPrj=0 DoOrth=F DoCkMO=T.
 Mixing orbitals, IMix= 1 IMixAn=  0 NRI=1 NE=   26 Coef=  7.07106781D-01  7.07106781D-01
 Mixing orbitals, IMix= 1 IMixAn=  0 NRI=1 NE=   25 Coef= -7.07106781D-01  7.07106781D-01
 Initial guess <Sx>= 0.0000 <Sy>= 0.0000 <Sz>= 0.5000 <S**2>= 1.0000 S= 0.6180
 Leave Link  401 at Wed Sep 15 11:29:32 2021, MaxMem=   805306368 cpu:        11.3
 (Enter /Local/ce_dana/g09/l502.exe)
 UHF open shell SCF:
 Using DIIS extrapolation, IDIIS=  1040.
 Integral symmetry usage will be decided dynamically.
 Keep R1 and R2 ints in memory in canonical form, NReq=234886574.
 IVT=      105944 IEndB=      105944 NGot=   805306368 MDV=   573384575
 LenX=   573384575 LenY=   573351734
 Requested convergence on RMS density matrix=1.00D-08 within  64 cycles.
 Requested convergence on MAX density matrix=1.00D-06.
 Requested convergence on             energy=1.00D-06.
 No special actions if energy rises.
 FoFCou: FMM=F IPFlag=           0 FMFlag=           0 FMFlg1=           0
         NFxFlg=           0 DoJE=F BraDBF=F KetDBF=F FulRan=T
         wScrn=  0.000000 ICntrl=     600 IOpCl=  0 I1Cent=           0 NGrid=           0
         NMat0=    1 NMatS0=  15225 NMatT0=    0 NMatD0=    1 NMtDS0=    0 NMtDT0=    0
 Symmetry not used in FoFCou.
 Integral accuracy reduced to 1.0D-05 until final iterations.

 Cycle   1  Pass 0  IDiag  1:
 E= -309.077196354597    
 DIIS: error= 3.75D-02 at cycle   1 NSaved=   1.
 NSaved= 1 IEnMin= 1 EnMin= -309.077196354597     IErMin= 1 ErrMin= 3.75D-02
 ErrMax= 3.75D-02  0.00D+00 EMaxC= 1.00D-01 BMatC= 9.39D-01 BMatP= 9.39D-01
 IDIUse=3 WtCom= 6.25D-01 WtEn= 3.75D-01
 Coeff-Com:  0.100D+01
 Coeff-En:   0.100D+01
 Coeff:      0.100D+01
 Gap=     0.047 Goal=   None    Shift=    0.000
 Gap=     0.037 Goal=   None    Shift=    0.000
 GapD=    0.037 DampG=0.250 DampE=0.500 DampFc=0.2500 IDamp=-1.
 Damping current iteration by 2.50D-01
 RMSDP=5.92D-03 MaxDP=1.42D-01              OVMax= 5.61D-01

 Cycle   2  Pass 0  IDiag  1:
 E= -309.173181243678     Delta-E=       -0.095984889081 Rises=F Damp=T
 DIIS: error= 1.81D-02 at cycle   2 NSaved=   2.
 NSaved= 2 IEnMin= 2 EnMin= -309.173181243678     IErMin= 2 ErrMin= 1.81D-02
 ErrMax= 1.81D-02  0.00D+00 EMaxC= 1.00D-01 BMatC= 2.41D-01 BMatP= 9.39D-01
 IDIUse=3 WtCom= 8.19D-01 WtEn= 1.81D-01
 Coeff-Com: -0.801D+00 0.180D+01
 Coeff-En:   0.000D+00 0.100D+01
 Coeff:     -0.656D+00 0.166D+01
 Gap=     0.164 Goal=   None    Shift=    0.000
 Gap=     0.104 Goal=   None    Shift=    0.000
 RMSDP=4.08D-03 MaxDP=1.13D-01 DE=-9.60D-02 OVMax= 1.70D-01

 Cycle   3  Pass 0  IDiag  1:
 E= -309.410352251391     Delta-E=       -0.237171007713 Rises=F Damp=F
 DIIS: error= 6.31D-03 at cycle   3 NSaved=   3.
 NSaved= 3 IEnMin= 3 EnMin= -309.410352251391     IErMin= 3 ErrMin= 6.31D-03
 ErrMax= 6.31D-03  0.00D+00 EMaxC= 1.00D-01 BMatC= 4.29D-02 BMatP= 2.41D-01
 IDIUse=3 WtCom= 9.37D-01 WtEn= 6.31D-02
 Coeff-Com: -0.297D+00 0.707D+00 0.590D+00
 Coeff-En:   0.000D+00 0.000D+00 0.100D+01
 Coeff:     -0.279D+00 0.663D+00 0.616D+00
 Gap=     0.213 Goal=   None    Shift=    0.000
 Gap=     0.146 Goal=   None    Shift=    0.000
 RMSDP=8.20D-04 MaxDP=2.04D-02 DE=-2.37D-01 OVMax= 1.15D-01

 Cycle   4  Pass 0  IDiag  1:
 E= -309.420704073542     Delta-E=       -0.010351822151 Rises=F Damp=F
 DIIS: error= 5.37D-03 at cycle   4 NSaved=   4.
 NSaved= 4 IEnMin= 4 EnMin= -309.420704073542     IErMin= 4 ErrMin= 5.37D-03
 ErrMax= 5.37D-03  0.00D+00 EMaxC= 1.00D-01 BMatC= 2.29D-02 BMatP= 4.29D-02
 IDIUse=3 WtCom= 9.46D-01 WtEn= 5.37D-02
 Coeff-Com:  0.104D-01 0.176D-01 0.410D+00 0.562D+00
 Coeff-En:   0.000D+00 0.000D+00 0.524D-01 0.948D+00
 Coeff:      0.981D-02 0.167D-01 0.391D+00 0.583D+00
 Gap=     0.249 Goal=   None    Shift=    0.000
 Gap=     0.167 Goal=   None    Shift=    0.000
 RMSDP=4.09D-04 MaxDP=1.09D-02 DE=-1.04D-02 OVMax= 4.20D-02

 Cycle   5  Pass 0  IDiag  1:
 E= -309.426042314732     Delta-E=       -0.005338241190 Rises=F Damp=F
 DIIS: error= 1.14D-03 at cycle   5 NSaved=   5.
 NSaved= 5 IEnMin= 5 EnMin= -309.426042314732     IErMin= 5 ErrMin= 1.14D-03
 ErrMax= 1.14D-03  0.00D+00 EMaxC= 1.00D-01 BMatC= 1.34D-03 BMatP= 2.29D-02
 IDIUse=3 WtCom= 9.89D-01 WtEn= 1.14D-02
 Coeff-Com:  0.628D-02-0.298D-01-0.113D+00 0.822D-01 0.105D+01
 Coeff-En:   0.000D+00 0.000D+00 0.000D+00 0.000D+00 0.100D+01
 Coeff:      0.621D-02-0.295D-01-0.112D+00 0.813D-01 0.105D+01
 Gap=     0.256 Goal=   None    Shift=    0.000
 Gap=     0.178 Goal=   None    Shift=    0.000
 RMSDP=2.05D-04 MaxDP=7.10D-03 DE=-5.34D-03 OVMax= 2.69D-02

 Cycle   6  Pass 0  IDiag  1:
 E= -309.426571616156     Delta-E=       -0.000529301424 Rises=F Damp=F
 DIIS: error= 5.29D-04 at cycle   6 NSaved=   6.
 NSaved= 6 IEnMin= 6 EnMin= -309.426571616156     IErMin= 6 ErrMin= 5.29D-04
 ErrMax= 5.29D-04  0.00D+00 EMaxC= 1.00D-01 BMatC= 1.97D-04 BMatP= 1.34D-03
 IDIUse=3 WtCom= 9.95D-01 WtEn= 5.29D-03
 Coeff-Com: -0.748D-02 0.773D-02-0.624D-01-0.468D-02 0.389D+00 0.677D+00
 Coeff-En:   0.000D+00 0.000D+00 0.000D+00 0.000D+00 0.000D+00 0.100D+01
 Coeff:     -0.744D-02 0.769D-02-0.620D-01-0.466D-02 0.387D+00 0.679D+00
 Gap=     0.253 Goal=   None    Shift=    0.000
 Gap=     0.181 Goal=   None    Shift=    0.000
 RMSDP=4.64D-05 MaxDP=1.64D-03 DE=-5.29D-04 OVMax= 3.29D-03

 Cycle   7  Pass 0  IDiag  1:
 E= -309.426612037943     Delta-E=       -0.000040421787 Rises=F Damp=F
 DIIS: error= 2.24D-04 at cycle   7 NSaved=   7.
 NSaved= 7 IEnMin= 7 EnMin= -309.426612037943     IErMin= 7 ErrMin= 2.24D-04
 ErrMax= 2.24D-04  0.00D+00 EMaxC= 1.00D-01 BMatC= 5.18D-05 BMatP= 1.97D-04
 IDIUse=3 WtCom= 9.98D-01 WtEn= 2.24D-03
 Coeff-Com: -0.697D-02 0.128D-01-0.145D-01-0.159D-01 0.304D-01 0.337D+00
 Coeff-Com:  0.657D+00
 Coeff-En:   0.000D+00 0.000D+00 0.000D+00 0.000D+00 0.000D+00 0.948D-02
 Coeff-En:   0.991D+00
 Coeff:     -0.695D-02 0.128D-01-0.144D-01-0.159D-01 0.304D-01 0.336D+00
 Coeff:      0.658D+00
 Gap=     0.254 Goal=   None    Shift=    0.000
 Gap=     0.179 Goal=   None    Shift=    0.000
 RMSDP=1.88D-05 MaxDP=6.95D-04 DE=-4.04D-05 OVMax= 1.11D-03

 Cycle   8  Pass 0  IDiag  1:
 E= -309.426623423569     Delta-E=       -0.000011385627 Rises=F Damp=F
 DIIS: error= 5.64D-05 at cycle   8 NSaved=   8.
 NSaved= 8 IEnMin= 8 EnMin= -309.426623423569     IErMin= 8 ErrMin= 5.64D-05
 ErrMax= 5.64D-05  0.00D+00 EMaxC= 1.00D-01 BMatC= 3.51D-06 BMatP= 5.18D-05
 IDIUse=1 WtCom= 1.00D+00 WtEn= 0.00D+00
 Coeff-Com:  0.249D-03 0.183D-03 0.381D-02-0.506D-02-0.418D-01-0.598D-02
 Coeff-Com:  0.170D+00 0.879D+00
 Coeff:      0.249D-03 0.183D-03 0.381D-02-0.506D-02-0.418D-01-0.598D-02
 Coeff:      0.170D+00 0.879D+00
 Gap=     0.254 Goal=   None    Shift=    0.000
 Gap=     0.180 Goal=   None    Shift=    0.000
 RMSDP=8.20D-06 MaxDP=2.24D-04 DE=-1.14D-05 OVMax= 6.94D-04

 Initial convergence to 1.0D-05 achieved.  Increase integral accuracy.
 Cycle   9  Pass 1  IDiag  1:
 E= -309.426607013001     Delta-E=        0.000016410568 Rises=F Damp=F
 DIIS: error= 3.25D-05 at cycle   1 NSaved=   1.
 NSaved= 1 IEnMin= 1 EnMin= -309.426607013001     IErMin= 1 ErrMin= 3.25D-05
 ErrMax= 3.25D-05  0.00D+00 EMaxC= 1.00D-01 BMatC= 7.45D-07 BMatP= 7.45D-07
 IDIUse=1 WtCom= 1.00D+00 WtEn= 0.00D+00
 Coeff-Com:  0.100D+01
 Coeff:      0.100D+01
 Gap=     0.254 Goal=   None    Shift=    0.000
 Gap=     0.180 Goal=   None    Shift=    0.000
 RMSDP=8.20D-06 MaxDP=2.24D-04 DE= 1.64D-05 OVMax= 2.33D-04

 Cycle  10  Pass 1  IDiag  1:
 E= -309.426607001586     Delta-E=        0.000000011415 Rises=F Damp=F
 DIIS: error= 4.29D-05 at cycle   2 NSaved=   2.
 NSaved= 2 IEnMin= 1 EnMin= -309.426607013001     IErMin= 1 ErrMin= 3.25D-05
 ErrMax= 4.29D-05  0.00D+00 EMaxC= 1.00D-01 BMatC= 1.14D-06 BMatP= 7.45D-07
 IDIUse=1 WtCom= 1.00D+00 WtEn= 0.00D+00
 Coeff-Com:  0.557D+00 0.443D+00
 Coeff:      0.557D+00 0.443D+00
 Gap=     0.254 Goal=   None    Shift=    0.000
 Gap=     0.180 Goal=   None    Shift=    0.000
 RMSDP=2.22D-06 MaxDP=8.18D-05 DE= 1.14D-08 OVMax= 9.75D-05

 Cycle  11  Pass 1  IDiag  1:
 E= -309.426607252901     Delta-E=       -0.000000251315 Rises=F Damp=F
 DIIS: error= 4.65D-06 at cycle   3 NSaved=   3.
 NSaved= 3 IEnMin= 3 EnMin= -309.426607252901     IErMin= 3 ErrMin= 4.65D-06
 ErrMax= 4.65D-06  0.00D+00 EMaxC= 1.00D-01 BMatC= 2.06D-08 BMatP= 7.45D-07
 IDIUse=1 WtCom= 1.00D+00 WtEn= 0.00D+00
 Coeff-Com: -0.981D-02 0.503D-01 0.960D+00
 Coeff:     -0.981D-02 0.503D-01 0.960D+00
 Gap=     0.254 Goal=   None    Shift=    0.000
 Gap=     0.180 Goal=   None    Shift=    0.000
 RMSDP=7.60D-07 MaxDP=2.00D-05 DE=-2.51D-07 OVMax= 7.23D-05

 Cycle  12  Pass 1  IDiag  1:
 E= -309.426607262942     Delta-E=       -0.000000010041 Rises=F Damp=F
 DIIS: error= 3.48D-06 at cycle   4 NSaved=   4.
 NSaved= 4 IEnMin= 4 EnMin= -309.426607262942     IErMin= 4 ErrMin= 3.48D-06
 ErrMax= 3.48D-06  0.00D+00 EMaxC= 1.00D-01 BMatC= 1.05D-08 BMatP= 2.06D-08
 IDIUse=1 WtCom= 1.00D+00 WtEn= 0.00D+00
 Coeff-Com: -0.169D+00-0.102D+00 0.499D+00 0.772D+00
 Coeff:     -0.169D+00-0.102D+00 0.499D+00 0.772D+00
 Gap=     0.254 Goal=   None    Shift=    0.000
 Gap=     0.180 Goal=   None    Shift=    0.000
 RMSDP=4.94D-07 MaxDP=1.46D-05 DE=-1.00D-08 OVMax= 4.95D-05

 Cycle  13  Pass 1  IDiag  1:
 E= -309.426607266757     Delta-E=       -0.000000003814 Rises=F Damp=F
 DIIS: error= 1.48D-06 at cycle   5 NSaved=   5.
 NSaved= 5 IEnMin= 5 EnMin= -309.426607266757     IErMin= 5 ErrMin= 1.48D-06
 ErrMax= 1.48D-06  0.00D+00 EMaxC= 1.00D-01 BMatC= 2.38D-09 BMatP= 1.05D-08
 IDIUse=1 WtCom= 1.00D+00 WtEn= 0.00D+00
 Coeff-Com: -0.956D-01-0.641D-01 0.173D+00 0.456D+00 0.531D+00
 Coeff:     -0.956D-01-0.641D-01 0.173D+00 0.456D+00 0.531D+00
 Gap=     0.254 Goal=   None    Shift=    0.000
 Gap=     0.180 Goal=   None    Shift=    0.000
 RMSDP=1.39D-07 MaxDP=3.02D-06 DE=-3.81D-09 OVMax= 1.23D-05

 Cycle  14  Pass 1  IDiag  1:
 E= -309.426607267277     Delta-E=       -0.000000000521 Rises=F Damp=F
 DIIS: error= 6.56D-07 at cycle   6 NSaved=   6.
 NSaved= 6 IEnMin= 6 EnMin= -309.426607267277     IErMin= 6 ErrMin= 6.56D-07
 ErrMax= 6.56D-07  0.00D+00 EMaxC= 1.00D-01 BMatC= 3.34D-10 BMatP= 2.38D-09
 IDIUse=1 WtCom= 1.00D+00 WtEn= 0.00D+00
 Coeff-Com: -0.291D-01-0.214D-01 0.224D-01 0.149D+00 0.306D+00 0.573D+00
 Coeff:     -0.291D-01-0.214D-01 0.224D-01 0.149D+00 0.306D+00 0.573D+00
 Gap=     0.254 Goal=   None    Shift=    0.000
 Gap=     0.180 Goal=   None    Shift=    0.000
 RMSDP=5.77D-08 MaxDP=1.37D-06 DE=-5.21D-10 OVMax= 5.32D-06

 Cycle  15  Pass 1  IDiag  1:
 E= -309.426607267366     Delta-E=       -0.000000000089 Rises=F Damp=F
 DIIS: error= 1.66D-07 at cycle   7 NSaved=   7.
 NSaved= 7 IEnMin= 7 EnMin= -309.426607267366     IErMin= 7 ErrMin= 1.66D-07
 ErrMax= 1.66D-07  0.00D+00 EMaxC= 1.00D-01 BMatC= 4.31D-11 BMatP= 3.34D-10
 IDIUse=1 WtCom= 1.00D+00 WtEn= 0.00D+00
 Coeff-Com:  0.154D-01 0.935D-02-0.418D-01-0.693D-01-0.242D-01 0.247D+00
 Coeff-Com:  0.864D+00
 Coeff:      0.154D-01 0.935D-02-0.418D-01-0.693D-01-0.242D-01 0.247D+00
 Coeff:      0.864D+00
 Gap=     0.254 Goal=   None    Shift=    0.000
 Gap=     0.180 Goal=   None    Shift=    0.000
 RMSDP=3.96D-08 MaxDP=7.38D-07 DE=-8.87D-11 OVMax= 4.71D-06

 Cycle  16  Pass 1  IDiag  1:
 E= -309.426607267387     Delta-E=       -0.000000000021 Rises=F Damp=F
 DIIS: error= 4.37D-08 at cycle   8 NSaved=   8.
 NSaved= 8 IEnMin= 8 EnMin= -309.426607267387     IErMin= 8 ErrMin= 4.37D-08
 ErrMax= 4.37D-08  0.00D+00 EMaxC= 1.00D-01 BMatC= 3.20D-12 BMatP= 4.31D-11
 IDIUse=1 WtCom= 1.00D+00 WtEn= 0.00D+00
 Coeff-Com:  0.754D-02 0.531D-02-0.106D-01-0.381D-01-0.550D-01-0.463D-01
 Coeff-Com:  0.137D+00 0.100D+01
 Coeff:      0.754D-02 0.531D-02-0.106D-01-0.381D-01-0.550D-01-0.463D-01
 Coeff:      0.137D+00 0.100D+01
 Gap=     0.254 Goal=   None    Shift=    0.000
 Gap=     0.180 Goal=   None    Shift=    0.000
 RMSDP=1.64D-08 MaxDP=3.21D-07 DE=-2.15D-11 OVMax= 1.92D-06

 Cycle  17  Pass 1  IDiag  1:
 E= -309.426607267389     Delta-E=       -0.000000000002 Rises=F Damp=F
 DIIS: error= 1.99D-08 at cycle   9 NSaved=   9.
 NSaved= 9 IEnMin= 9 EnMin= -309.426607267389     IErMin= 9 ErrMin= 1.99D-08
 ErrMax= 1.99D-08  0.00D+00 EMaxC= 1.00D-01 BMatC= 2.56D-13 BMatP= 3.20D-12
 IDIUse=1 WtCom= 1.00D+00 WtEn= 0.00D+00
 Coeff-Com: -0.588D-03-0.257D-03 0.321D-02 0.161D-02-0.533D-02-0.322D-01
 Coeff-Com: -0.717D-01 0.159D+00 0.947D+00
 Coeff:     -0.588D-03-0.257D-03 0.321D-02 0.161D-02-0.533D-02-0.322D-01
 Coeff:     -0.717D-01 0.159D+00 0.947D+00
 Gap=     0.254 Goal=   None    Shift=    0.000
 Gap=     0.180 Goal=   None    Shift=    0.000
 RMSDP=3.73D-09 MaxDP=8.62D-08 DE=-1.71D-12 OVMax= 4.19D-07

 SCF Done:  E(UB3LYP) =  -309.426607267     A.U. after   17 cycles
            NFock= 17  Conv=0.37D-08     -V/T= 2.0037
 <Sx>= 0.0000 <Sy>= 0.0000 <Sz>= 0.5000 <S**2>= 0.7538 S= 0.5019
 <L.S>=  0.00000000000    
 KE= 3.082993766302D+02 PE=-1.227174525192D+03 EE= 3.577361662986D+02
 Annihilation of the first spin contaminant:
 S**2 before annihilation     0.7538,   after     0.7500
 Leave Link  502 at Wed Sep 15 11:30:11 2021, MaxMem=   805306368 cpu:       244.9
 (Enter /Local/ce_dana/g09/l508.exe)
 QCSCF skips out because SCF is already converged.
 Leave Link  508 at Wed Sep 15 11:30:11 2021, MaxMem=   805306368 cpu:         0.0
 (Enter /Local/ce_dana/g09/l801.exe)
 DoSCS=F DFT=T ScalE2(SS,OS)=  1.000000  1.000000
 Range of M.O.s used for correlation:     1   174
 NBasis=   174 NAE=    26 NBE=    25 NFC=     0 NFV=     0
 NROrb=    174 NOA=    26 NOB=    25 NVA=   148 NVB=   149
 Leave Link  801 at Wed Sep 15 11:30:11 2021, MaxMem=   805306368 cpu:         0.0
 (Enter /Local/ce_dana/g09/l1101.exe)
 Using compressed storage, NAtomX=    17.
 Will process     18 centers per pass.
 Leave Link 1101 at Wed Sep 15 11:30:12 2021, MaxMem=   805306368 cpu:         2.9
 (Enter /Local/ce_dana/g09/l1102.exe)
 Symmetrizing basis deriv contribution to polar:
 IMax=3 JMax=2 DiffMx= 0.00D+00
 Leave Link 1102 at Wed Sep 15 11:30:12 2021, MaxMem=   805306368 cpu:         0.1
 (Enter /Local/ce_dana/g09/l1110.exe)
 Forming Gx(P) for the SCF density, NAtomX=    17.
 Integral derivatives from FoFJK, PRISM(SPDF).
 Do as many integral derivatives as possible in FoFJK.
 G2DrvN: MDV=     805306128.
 G2DrvN: will do    18 centers at a time, making    1 passes.
 Calling FoFCou, ICntrl=  3107 FMM=F I1Cent=   0 AccDes= 1.00D-12.
 FoFJK:  IHMeth= 1 ICntrl=    3107 DoSepK=F KAlg= 0 I1Cent=   0 FoldK=F
 IRaf=         0 NMat=   1 IRICut=       1 DoRegI=T DoRafI=F ISym2E= 0.
 FoFCou: FMM=F IPFlag=           0 FMFlag=      100000 FMFlg1=           0
         NFxFlg=           0 DoJE=F BraDBF=F KetDBF=F FulRan=T
         wScrn=  0.000000 ICntrl=    3107 IOpCl=  1 I1Cent=           0 NGrid=           0
         NMat0=    1 NMatS0=      1 NMatT0=    0 NMatD0=    1 NMtDS0=    0 NMtDT0=    0
 Symmetry not used in FoFCou.
 End of G2Drv F.D. properties file   721 does not exist.
 End of G2Drv F.D. properties file   722 does not exist.
 End of G2Drv F.D. properties file   788 does not exist.
 Leave Link 1110 at Wed Sep 15 11:31:31 2021, MaxMem=   805306368 cpu:       636.7
 (Enter /Local/ce_dana/g09/l1002.exe)
 Minotr:  UHF open shell wavefunction.
          IDoAtm=11111111111111111
          Direct CPHF calculation.
          Differentiating once with respect to nuclear coordinates.
          Requested convergence is 1.0D-08 RMS, and 1.0D-07 maximum.
          Secondary convergence is 1.0D-12 RMS, and 1.0D-12 maximum.
          NewPWx=T KeepS1=F KeepF1=F KeepIn=T MapXYZ=F SortEE=F KeepMc=T.
          MDV=     805305846 using IRadAn=       1.
 Generate precomputed XC quadrature information.
 Keep R1 and R2 ints in memory in canonical form, NReq=234788009.
 FoFCou: FMM=F IPFlag=           0 FMFlag=           0 FMFlg1=           0
         NFxFlg=           0 DoJE=F BraDBF=F KetDBF=F FulRan=T
         wScrn=  0.000000 ICntrl=     600 IOpCl=  0 I1Cent=           0 NGrid=           0
         NMat0=    1 NMatS0=  15225 NMatT0=    0 NMatD0=    1 NMtDS0=    0 NMtDT0=    0
 Symmetry not used in FoFCou.
          Solving linear equations simultaneously, MaxMat=       0.
          There are    54 degrees of freedom in the 1st order CPHF.  IDoFFX=6 NUNeed=     0.
     48 vectors produced by pass  0 Test12= 1.40D-14 1.85D-09 XBig12= 1.62D-01 1.40D-01.
 AX will form    48 AO Fock derivatives at one time.
     48 vectors produced by pass  1 Test12= 1.40D-14 1.85D-09 XBig12= 1.38D-02 1.65D-02.
     48 vectors produced by pass  2 Test12= 1.40D-14 1.85D-09 XBig12= 1.35D-04 1.94D-03.
     48 vectors produced by pass  3 Test12= 1.40D-14 1.85D-09 XBig12= 7.29D-07 1.11D-04.
     48 vectors produced by pass  4 Test12= 1.40D-14 1.85D-09 XBig12= 2.68D-09 7.13D-06.
     48 vectors produced by pass  5 Test12= 1.40D-14 1.85D-09 XBig12= 1.55D-11 3.51D-07.
     19 vectors produced by pass  6 Test12= 1.40D-14 1.85D-09 XBig12= 5.53D-14 3.28D-08.
 InvSVY:  IOpt=1 It=  1 EMax= 5.00D-16
 Solved reduced A of dimension   307 with    54 vectors.
 End of Minotr F.D. properties file   721 does not exist.
 End of Minotr F.D. properties file   722 does not exist.
 End of Minotr F.D. properties file   788 does not exist.
 Leave Link 1002 at Wed Sep 15 11:32:57 2021, MaxMem=   805306368 cpu:       671.9
 (Enter /Local/ce_dana/g09/l601.exe)
 Copying SCF densities to generalized density rwf, IOpCl= 1 IROHF=0.

 **********************************************************************

            Population analysis using the SCF density.

 **********************************************************************

 Orbital symmetries:
 Alpha Orbitals:
       Occupied  (A) (A) (A) (A) (A) (A) (A) (A) (A) (A) (A) (A)
                 (A) (A) (A) (A) (A) (A) (A) (A) (A) (A) (A) (A)
                 (A) (A)
       Virtual   (A) (A) (A) (A) (A) (A) (A) (A) (A) (A) (A) (A)
                 (A) (A) (A) (A) (A) (A) (A) (A) (A) (A) (A) (A)
                 (A) (A) (A) (A) (A) (A) (A) (A) (A) (A) (A) (A)
                 (A) (A) (A) (A) (A) (A) (A) (A) (A) (A) (A) (A)
                 (A) (A) (A) (A) (A) (A) (A) (A) (A) (A) (A) (A)
                 (A) (A) (A) (A) (A) (A) (A) (A) (A) (A) (A) (A)
                 (A) (A) (A) (A) (A) (A) (A) (A) (A) (A) (A) (A)
                 (A) (A) (A) (A) (A) (A) (A) (A) (A) (A) (A) (A)
                 (A) (A) (A) (A) (A) (A) (A) (A) (A) (A) (A) (A)
                 (A) (A) (A) (A) (A) (A) (A) (A) (A) (A) (A) (A)
                 (A) (A) (A) (A) (A) (A) (A) (A) (A) (A) (A) (A)
                 (A) (A) (A) (A) (A) (A) (A) (A) (A) (A) (A) (A)
                 (A) (A) (A) (A)
 Beta  Orbitals:
       Occupied  (A) (A) (A) (A) (A) (A) (A) (A) (A) (A) (A) (A)
                 (A) (A) (A) (A) (A) (A) (A) (A) (A) (A) (A) (A)
                 (A)
       Virtual   (A) (A) (A) (A) (A) (A) (A) (A) (A) (A) (A) (A)
                 (A) (A) (A) (A) (A) (A) (A) (A) (A) (A) (A) (A)
                 (A) (A) (A) (A) (A) (A) (A) (A) (A) (A) (A) (A)
                 (A) (A) (A) (A) (A) (A) (A) (A) (A) (A) (A) (A)
                 (A) (A) (A) (A) (A) (A) (A) (A) (A) (A) (A) (A)
                 (A) (A) (A) (A) (A) (A) (A) (A) (A) (A) (A) (A)
                 (A) (A) (A) (A) (A) (A) (A) (A) (A) (A) (A) (A)
                 (A) (A) (A) (A) (A) (A) (A) (A) (A) (A) (A) (A)
                 (A) (A) (A) (A) (A) (A) (A) (A) (A) (A) (A) (A)
                 (A) (A) (A) (A) (A) (A) (A) (A) (A) (A) (A) (A)
                 (A) (A) (A) (A) (A) (A) (A) (A) (A) (A) (A) (A)
                 (A) (A) (A) (A) (A) (A) (A) (A) (A) (A) (A) (A)
                 (A) (A) (A) (A) (A)
 The electronic state is 2-A.
 Alpha  occ. eigenvalues --  -19.16820 -19.15847 -10.21996 -10.19114 -10.18061
 Alpha  occ. eigenvalues --  -10.16710  -1.12944  -0.90803  -0.77251  -0.74573
 Alpha  occ. eigenvalues --   -0.62466  -0.61717  -0.53593  -0.48196  -0.46722
 Alpha  occ. eigenvalues --   -0.45504  -0.44075  -0.42643  -0.40882  -0.38654
 Alpha  occ. eigenvalues --   -0.37877  -0.37110  -0.35319  -0.29928  -0.25931
 Alpha  occ. eigenvalues --   -0.22266
 Alpha virt. eigenvalues --    0.03116   0.04418   0.06110   0.06726   0.07331
 Alpha virt. eigenvalues --    0.09307   0.10212   0.11408   0.12588   0.15317
 Alpha virt. eigenvalues --    0.16259   0.17490   0.19186   0.21849   0.23535
 Alpha virt. eigenvalues --    0.26052   0.28708   0.30428   0.32066   0.34538
 Alpha virt. eigenvalues --    0.36056   0.38456   0.39928   0.41805   0.45442
 Alpha virt. eigenvalues --    0.46459   0.52039   0.53373   0.54575   0.55286
 Alpha virt. eigenvalues --    0.55696   0.57530   0.57726   0.58543   0.61045
 Alpha virt. eigenvalues --    0.62738   0.63287   0.65086   0.70297   0.71940
 Alpha virt. eigenvalues --    0.77248   0.79338   0.83132   0.86176   0.88307
 Alpha virt. eigenvalues --    0.91222   0.94721   0.96313   1.00882   1.06581
 Alpha virt. eigenvalues --    1.09621   1.15506   1.18472   1.25173   1.31436
 Alpha virt. eigenvalues --    1.33587   1.33936   1.38105   1.40202   1.42525
 Alpha virt. eigenvalues --    1.44235   1.45200   1.45862   1.46735   1.48092
 Alpha virt. eigenvalues --    1.48925   1.50121   1.51372   1.54011   1.58474
 Alpha virt. eigenvalues --    1.58826   1.59556   1.63523   1.68507   1.69776
 Alpha virt. eigenvalues --    1.71521   1.76644   1.77062   1.81605   1.83106
 Alpha virt. eigenvalues --    1.87271   1.92611   1.94525   1.95493   2.01745
 Alpha virt. eigenvalues --    2.02798   2.05615   2.11721   2.13934   2.20004
 Alpha virt. eigenvalues --    2.20607   2.26452   2.27159   2.31217   2.36049
 Alpha virt. eigenvalues --    2.38123   2.39272   2.40702   2.41977   2.44255
 Alpha virt. eigenvalues --    2.45535   2.47636   2.48661   2.51475   2.53372
 Alpha virt. eigenvalues --    2.54883   2.56399   2.59153   2.59992   2.64814
 Alpha virt. eigenvalues --    2.67482   2.70341   2.71035   2.74961   2.77789
 Alpha virt. eigenvalues --    2.78830   2.79859   2.87720   2.90087   3.10098
 Alpha virt. eigenvalues --    3.12302   3.17990   3.21120   3.28734   3.35944
 Alpha virt. eigenvalues --    3.60967   3.68774   3.73738   3.75000   3.78857
 Alpha virt. eigenvalues --    3.79624   3.80434   3.85574   3.93445   4.12625
 Alpha virt. eigenvalues --    4.18617   4.69635   4.84229   4.92443   5.24006
 Alpha virt. eigenvalues --    5.43671   5.77905  23.79000  23.81172  23.89794
 Alpha virt. eigenvalues --   23.90917  49.78960  49.83236
  Beta  occ. eigenvalues --  -19.16824 -19.15743 -10.21996 -10.18139 -10.17750
  Beta  occ. eigenvalues --  -10.16709  -1.12837  -0.90656  -0.75604  -0.74527
  Beta  occ. eigenvalues --   -0.61748  -0.60134  -0.53366  -0.48181  -0.46182
  Beta  occ. eigenvalues --   -0.45265  -0.43904  -0.41311  -0.40083  -0.38602
  Beta  occ. eigenvalues --   -0.37774  -0.36667  -0.35292  -0.29846  -0.25804
  Beta virt. eigenvalues --   -0.07841   0.03317   0.04573   0.06163   0.07180
  Beta virt. eigenvalues --    0.07510   0.09587   0.10323   0.11469   0.12731
  Beta virt. eigenvalues --    0.15526   0.17276   0.17594   0.19604   0.21986
  Beta virt. eigenvalues --    0.24233   0.26167   0.28998   0.30797   0.32572
  Beta virt. eigenvalues --    0.34632   0.36887   0.39945   0.40948   0.42251
  Beta virt. eigenvalues --    0.45675   0.46639   0.52244   0.54349   0.54905
  Beta virt. eigenvalues --    0.55747   0.56486   0.57767   0.58144   0.59393
  Beta virt. eigenvalues --    0.61309   0.62912   0.63794   0.65835   0.71360
  Beta virt. eigenvalues --    0.72078   0.77366   0.79484   0.83266   0.87090
  Beta virt. eigenvalues --    0.88954   0.91288   0.95284   0.97468   1.01593
  Beta virt. eigenvalues --    1.06772   1.11528   1.15774   1.18528   1.25188
  Beta virt. eigenvalues --    1.31528   1.33878   1.34016   1.39521   1.41079
  Beta virt. eigenvalues --    1.42796   1.44624   1.45872   1.46354   1.47004
  Beta virt. eigenvalues --    1.48336   1.49604   1.50387   1.51452   1.55718
  Beta virt. eigenvalues --    1.58534   1.59121   1.59577   1.63922   1.68634
  Beta virt. eigenvalues --    1.70338   1.71567   1.76678   1.79229   1.81643
  Beta virt. eigenvalues --    1.83739   1.88949   1.93834   1.94539   1.96692
  Beta virt. eigenvalues --    2.01863   2.03346   2.05788   2.11757   2.14637
  Beta virt. eigenvalues --    2.20081   2.20884   2.26487   2.28477   2.31580
  Beta virt. eigenvalues --    2.36082   2.38341   2.39373   2.40932   2.42561
  Beta virt. eigenvalues --    2.44434   2.45614   2.48088   2.48854   2.51876
  Beta virt. eigenvalues --    2.53530   2.55019   2.56846   2.59511   2.60048
  Beta virt. eigenvalues --    2.65452   2.67721   2.70403   2.71269   2.75032
  Beta virt. eigenvalues --    2.78772   2.79384   2.82258   2.90039   2.90580
  Beta virt. eigenvalues --    3.10295   3.12404   3.18540   3.21154   3.28861
  Beta virt. eigenvalues --    3.36024   3.61080   3.70423   3.74215   3.75208
  Beta virt. eigenvalues --    3.78887   3.79937   3.80570   3.85626   3.93491
  Beta virt. eigenvalues --    4.14070   4.18623   4.69678   4.84312   4.92457
  Beta virt. eigenvalues --    5.24133   5.43834   5.77967  23.79004  23.82661
  Beta virt. eigenvalues --   23.89771  23.90917  49.79012  49.83284
          Condensed to atoms (all electrons):
               1          2          3          4          5          6
     1  C    4.977325   0.330184  -0.050383  -0.000395   0.388943   0.402158
     2  C    0.330184   4.792136   0.243854  -0.074687  -0.031691  -0.041793
     3  O   -0.050383   0.243854   8.053781   0.068099   0.004047  -0.005720
     4  O   -0.000395  -0.074687   0.068099   7.966406  -0.001059   0.018977
     5  H    0.388943  -0.031691   0.004047  -0.001059   0.586686  -0.033558
     6  H    0.402158  -0.041793  -0.005720   0.018977  -0.033558   0.569405
     7  H    0.379861  -0.023501   0.004509  -0.000041  -0.024151  -0.025717
     8  H   -0.031291   0.383022  -0.020272   0.007025  -0.008472   0.009311
     9  H   -0.065683   0.409156  -0.034285   0.002459   0.009522  -0.008282
    10  C   -0.001506   0.000503  -0.000228  -0.000492   0.000192  -0.000831
    11  C   -0.000358  -0.000665  -0.007030  -0.009608  -0.001773   0.000062
    12  H   -0.000028   0.000031  -0.000108  -0.000046   0.000922  -0.000183
    13  H    0.000062  -0.000239  -0.000127   0.001390  -0.000937   0.002393
    14  H    0.000108  -0.000009  -0.000009  -0.000040   0.000059   0.000031
    15  H    0.003762   0.004317  -0.041249   0.292478  -0.000166  -0.002458
    16  H    0.000017  -0.000007  -0.000005   0.000383   0.000028  -0.000027
    17  H   -0.002489  -0.001285   0.023594  -0.004801   0.003067  -0.000067
               7          8          9         10         11         12
     1  C    0.379861  -0.031291  -0.065683  -0.001506  -0.000358  -0.000028
     2  C   -0.023501   0.383022   0.409156   0.000503  -0.000665   0.000031
     3  O    0.004509  -0.020272  -0.034285  -0.000228  -0.007030  -0.000108
     4  O   -0.000041   0.007025   0.002459  -0.000492  -0.009608  -0.000046
     5  H   -0.024151  -0.008472   0.009522   0.000192  -0.001773   0.000922
     6  H   -0.025717   0.009311  -0.008282  -0.000831   0.000062  -0.000183
     7  H    0.585559  -0.002569  -0.000095  -0.000035   0.000114  -0.000015
     8  H   -0.002569   0.588536  -0.034399  -0.000033   0.000132   0.000006
     9  H   -0.000095  -0.034399   0.614313   0.000001  -0.000197  -0.000007
    10  C   -0.000035  -0.000033   0.000001   4.835276   0.334250   0.403256
    11  C    0.000114   0.000132  -0.000197   0.334250   5.321632  -0.037402
    12  H   -0.000015   0.000006  -0.000007   0.403256  -0.037402   0.574470
    13  H   -0.000036   0.000005  -0.000054   0.396398  -0.048901  -0.034001
    14  H   -0.000005   0.000001   0.000000   0.405556  -0.034245  -0.026310
    15  H   -0.000163  -0.001285  -0.000740  -0.001974   0.040443   0.000591
    16  H    0.000001  -0.000001  -0.000006  -0.037127   0.403544   0.005419
    17  H    0.000078  -0.000183   0.000892  -0.035764   0.388477  -0.009367
              13         14         15         16         17
     1  C    0.000062   0.000108   0.003762   0.000017  -0.002489
     2  C   -0.000239  -0.000009   0.004317  -0.000007  -0.001285
     3  O   -0.000127  -0.000009  -0.041249  -0.000005   0.023594
     4  O    0.001390  -0.000040   0.292478   0.000383  -0.004801
     5  H   -0.000937   0.000059  -0.000166   0.000028   0.003067
     6  H    0.002393   0.000031  -0.002458  -0.000027  -0.000067
     7  H   -0.000036  -0.000005  -0.000163   0.000001   0.000078
     8  H    0.000005   0.000001  -0.001285  -0.000001  -0.000183
     9  H   -0.000054   0.000000  -0.000740  -0.000006   0.000892
    10  C    0.396398   0.405556  -0.001974  -0.037127  -0.035764
    11  C   -0.048901  -0.034245   0.040443   0.403544   0.388477
    12  H   -0.034001  -0.026310   0.000591   0.005419  -0.009367
    13  H    0.591238  -0.031502  -0.002233   0.002854   0.001838
    14  H   -0.031502   0.569344   0.000253  -0.009607   0.005136
    15  H   -0.002233   0.000253   0.442486  -0.000251  -0.007834
    16  H    0.002854  -0.009607  -0.000251   0.531054  -0.030916
    17  H    0.001838   0.005136  -0.007834  -0.030916   0.522818
          Atomic-Atomic Spin Densities.
               1          2          3          4          5          6
     1  C   -0.000784   0.000866   0.000048   0.000081  -0.000015   0.000130
     2  C    0.000866  -0.000382   0.000087  -0.000221  -0.000039   0.000075
     3  O    0.000048   0.000087  -0.000991  -0.001544   0.000025  -0.000016
     4  O    0.000081  -0.000221  -0.001544   0.045178  -0.000042  -0.000010
     5  H   -0.000015  -0.000039   0.000025  -0.000042   0.000018   0.000049
     6  H    0.000130   0.000075  -0.000016  -0.000010   0.000049  -0.000288
     7  H   -0.000199  -0.000036   0.000008  -0.000008   0.000019  -0.000048
     8  H   -0.000093  -0.000039  -0.000044  -0.000018   0.000023  -0.000026
     9  H    0.000066  -0.000280  -0.000007  -0.000017   0.000008  -0.000022
    10  C    0.000006   0.000014   0.000009   0.000449  -0.000010   0.000046
    11  C   -0.000188   0.000080   0.000765  -0.014697   0.000082  -0.000346
    12  H   -0.000042   0.000002   0.000018  -0.000105   0.000148  -0.000061
    13  H   -0.000012   0.000009  -0.000073   0.001023  -0.000150   0.000281
    14  H    0.000001   0.000000   0.000002  -0.000035   0.000010  -0.000008
    15  H   -0.000363   0.000102   0.000728  -0.005490   0.000077  -0.000059
    16  H    0.000006  -0.000004  -0.000005   0.000106   0.000007  -0.000002
    17  H    0.000125  -0.000059   0.000249   0.001119  -0.000025   0.000049
               7          8          9         10         11         12
     1  C   -0.000199  -0.000093   0.000066   0.000006  -0.000188  -0.000042
     2  C   -0.000036  -0.000039  -0.000280   0.000014   0.000080   0.000002
     3  O    0.000008  -0.000044  -0.000007   0.000009   0.000765   0.000018
     4  O   -0.000008  -0.000018  -0.000017   0.000449  -0.014697  -0.000105
     5  H    0.000019   0.000023   0.000008  -0.000010   0.000082   0.000148
     6  H   -0.000048  -0.000026  -0.000022   0.000046  -0.000346  -0.000061
     7  H    0.000381   0.000028   0.000059  -0.000010   0.000028   0.000022
     8  H    0.000028   0.000163   0.000108  -0.000002   0.000038   0.000005
     9  H    0.000059   0.000108  -0.000077  -0.000003   0.000073   0.000004
    10  C   -0.000010  -0.000002  -0.000003  -0.053015  -0.056987   0.007537
    11  C    0.000028   0.000038   0.000073  -0.056987   1.131106  -0.010146
    12  H    0.000022   0.000005   0.000004   0.007537  -0.010146   0.039821
    13  H   -0.000055  -0.000008  -0.000025   0.020479  -0.036454  -0.016555
    14  H    0.000001   0.000000   0.000000   0.004245  -0.004256   0.005390
    15  H    0.000025   0.000065   0.000206  -0.002272   0.028406   0.000630
    16  H    0.000000  -0.000000  -0.000000  -0.000639   0.000504  -0.000531
    17  H   -0.000013  -0.000032  -0.000015   0.000285  -0.004302  -0.001505
              13         14         15         16         17
     1  C   -0.000012   0.000001  -0.000363   0.000006   0.000125
     2  C    0.000009   0.000000   0.000102  -0.000004  -0.000059
     3  O   -0.000073   0.000002   0.000728  -0.000005   0.000249
     4  O    0.001023  -0.000035  -0.005490   0.000106   0.001119
     5  H   -0.000150   0.000010   0.000077   0.000007  -0.000025
     6  H    0.000281  -0.000008  -0.000059  -0.000002   0.000049
     7  H   -0.000055   0.000001   0.000025   0.000000  -0.000013
     8  H   -0.000008   0.000000   0.000065  -0.000000  -0.000032
     9  H   -0.000025   0.000000   0.000206  -0.000000  -0.000015
    10  C    0.020479   0.004245  -0.002272  -0.000639   0.000285
    11  C   -0.036454  -0.004256   0.028406   0.000504  -0.004302
    12  H   -0.016555   0.005390   0.000630  -0.000531  -0.001505
    13  H    0.103034  -0.010005  -0.003595   0.000519   0.002263
    14  H   -0.010005   0.015066   0.000313   0.000284  -0.000804
    15  H   -0.003595   0.000313  -0.003031  -0.000286  -0.001249
    16  H    0.000519   0.000284  -0.000286  -0.049178   0.003215
    17  H    0.002263  -0.000804  -0.001249   0.003215  -0.042071
 Mulliken charges and spin densities:
               1          2
     1  C   -0.330286  -0.000368
     2  C    0.010673   0.000176
     3  O   -0.238470  -0.000742
     4  O   -0.266046   0.025770
     5  H    0.108338   0.000186
     6  H    0.116298  -0.000255
     7  H    0.106208   0.000203
     8  H    0.110465   0.000166
     9  H    0.107406   0.000078
    10  C   -0.297443  -0.079869
    11  C   -0.348475   1.033709
    12  H    0.122773   0.024633
    13  H    0.121851   0.060673
    14  H    0.121238   0.010206
    15  H    0.274021   0.014210
    16  H    0.134644  -0.046005
    17  H    0.146805  -0.042771
 Sum of Mulliken charges =  -0.00000   1.00000
 Mulliken charges and spin densities with hydrogens summed into heavy atoms:
               1          2
     1  C    0.000558  -0.000233
     2  C    0.228543   0.000419
     3  O   -0.238470  -0.000742
     4  O    0.007975   0.039980
    10  C    0.068420   0.015644
    11  C   -0.067026   0.944933
 APT charges:
               1
     1  C   -0.857488
     2  C   -0.809575
     3  O   -0.160146
     4  O   -0.239167
     5  H    0.193514
     6  H    0.180154
     7  H    0.531578
     8  H    0.470976
     9  H    0.433597
    10  C   -1.076689
    11  C   -0.604899
    12  H    0.310957
    13  H    0.142754
    14  H    0.659104
    15  H    0.247595
    16  H    0.521447
    17  H    0.056289
 Sum of APT charges =  -0.00000
 APT charges with hydrogens summed into heavy atoms:
               1
     1  C    0.047757
     2  C    0.094998
     3  O   -0.160146
     4  O    0.008428
    10  C    0.036125
    11  C   -0.027162
 Electronic spatial extent (au):  <R**2>=            912.6998
 Charge=             -0.0000 electrons
 Dipole moment (field-independent basis, Debye):
    X=              1.2328    Y=              1.9618    Z=             -0.0780  Tot=              2.3183
 Quadrupole moment (field-independent basis, Debye-Ang):
   XX=            -36.1747   YY=            -41.4022   ZZ=            -40.7656
   XY=             -4.1419   XZ=              1.5667   YZ=             -0.1510
 Traceless Quadrupole moment (field-independent basis, Debye-Ang):
   XX=              3.2728   YY=             -1.9547   ZZ=             -1.3181
   XY=             -4.1419   XZ=              1.5667   YZ=             -0.1510
 Octapole moment (field-independent basis, Debye-Ang**2):
  XXX=             -9.8606  YYY=             -6.0261  ZZZ=              0.9214  XYY=              2.2039
  XXY=              0.6282  XXZ=              2.1151  XZZ=             -3.8489  YZZ=             -0.4405
  YYZ=             -0.6718  XYZ=             -0.7593
 Hexadecapole moment (field-independent basis, Debye-Ang**3):
 XXXX=           -782.2526 YYYY=           -304.3265 ZZZZ=           -106.1598 XXXY=             -2.6624
 XXXZ=             11.8998 YYYX=             -5.5992 YYYZ=             -1.6622 ZZZX=              7.2707
 ZZZY=             -3.5232 XXYY=           -183.6155 XXZZ=           -157.2909 YYZZ=            -70.3064
 XXYZ=             -3.5412 YYXZ=             -0.1500 ZZXY=              1.5029
 N-N= 2.517123749956D+02 E-N=-1.227174527237D+03  KE= 3.082993766302D+02
  Exact polarizability:   0.000   0.000   0.000   0.000   0.000   0.000
 Approx polarizability:  80.055  -3.240  75.714   3.815  -2.574  75.788
                          Isotropic Fermi Contact Couplings
        Atom                 a.u.       MegaHertz       Gauss      10(-4) cm-1
     1  C(13)              0.00027       0.30528       0.10893       0.10183
     2  C(13)              0.00016       0.18371       0.06555       0.06128
     3  O(17)              0.00035      -0.21519      -0.07678      -0.07178
     4  O(17)              0.00748      -4.53370      -1.61774      -1.51228
     5  H(1)               0.00003       0.13057       0.04659       0.04355
     6  H(1)               0.00000       0.00051       0.00018       0.00017
     7  H(1)               0.00005       0.22519       0.08035       0.07512
     8  H(1)               0.00007       0.31830       0.11358       0.10617
     9  H(1)              -0.00003      -0.13994      -0.04994      -0.04668
    10  C(13)             -0.03009     -33.82267     -12.06877     -11.28203
    11  C(13)              0.06382      71.74913      25.60187      23.93293
    12  H(1)               0.01281      57.26267      20.43274      19.10077
    13  H(1)               0.03228     144.29207      51.48700      48.13065
    14  H(1)               0.00530      23.67459       8.44768       7.89699
    15  H(1)              -0.00332     -14.83753      -5.29440      -4.94927
    16  H(1)              -0.01352     -60.43560     -21.56492     -20.15914
    17  H(1)              -0.01352     -60.44688     -21.56895     -20.16291
 --------------------------------------------------------
       Center         ----  Spin Dipole Couplings  ----
                      3XX-RR        3YY-RR        3ZZ-RR
 --------------------------------------------------------
     1   Atom        0.002165      0.000178     -0.002343
     2   Atom        0.003489     -0.001553     -0.001936
     3   Atom        0.013152     -0.003075     -0.010077
     4   Atom        0.128449     -0.071901     -0.056548
     5   Atom        0.001647      0.001689     -0.003336
     6   Atom        0.002193      0.000111     -0.002304
     7   Atom        0.000942      0.000342     -0.001284
     8   Atom        0.002206     -0.001093     -0.001112
     9   Atom        0.002467     -0.001072     -0.001395
    10   Atom       -0.004850      0.003017      0.001833
    11   Atom        0.009728     -0.514223      0.504495
    12   Atom       -0.006646      0.014863     -0.008217
    13   Atom       -0.007753      0.004465      0.003289
    14   Atom        0.004659     -0.001673     -0.002986
    15   Atom        0.043885     -0.024543     -0.019342
    16   Atom       -0.019841      0.044341     -0.024500
    17   Atom        0.046618     -0.068088      0.021470
 --------------------------------------------------------
                        XY            XZ            YZ
 --------------------------------------------------------
     1   Atom       -0.003588     -0.000514      0.000472
     2   Atom       -0.001692      0.000270     -0.000369
     3   Atom        0.001477      0.005403      0.004199
     4   Atom        0.048131     -0.069112     -0.017188
     5   Atom       -0.005035      0.000783     -0.001035
     6   Atom       -0.003905     -0.002523      0.002210
     7   Atom       -0.001872     -0.000288      0.000225
     8   Atom       -0.000998      0.000842     -0.000320
     9   Atom       -0.000958     -0.000515      0.000024
    10   Atom        0.016196     -0.009383      0.005950
    11   Atom        0.154389     -0.774282     -0.216698
    12   Atom        0.003880      0.001126      0.000126
    13   Atom        0.002173     -0.000737      0.012994
    14   Atom        0.008691      0.008080      0.004508
    15   Atom        0.016617     -0.025404     -0.006951
    16   Atom       -0.049461     -0.023253     -0.025901
    17   Atom       -0.000750      0.035610     -0.013819
 --------------------------------------------------------


 ---------------------------------------------------------------------------------
              Anisotropic Spin Dipole Couplings in Principal Axis System
 ---------------------------------------------------------------------------------

       Atom             a.u.   MegaHertz   Gauss  10(-4) cm-1        Axes

              Baa    -0.0026    -0.346    -0.123    -0.115  0.5385  0.7629 -0.3578
     1 C(13)  Bbb    -0.0024    -0.320    -0.114    -0.107  0.2882  0.2323  0.9290
              Bcc     0.0050     0.666     0.238     0.222  0.7918 -0.6034 -0.0948
 
              Baa    -0.0023    -0.308    -0.110    -0.103  0.1900  0.7503  0.6332
     2 C(13)  Bbb    -0.0017    -0.233    -0.083    -0.078 -0.2318 -0.5924  0.7715
              Bcc     0.0040     0.540     0.193     0.180  0.9540 -0.2934  0.0614
 
              Baa    -0.0128     0.925     0.330     0.308 -0.1693 -0.3696  0.9136
     3 O(17)  Bbb    -0.0019     0.137     0.049     0.046 -0.2099  0.9193  0.3330
              Bcc     0.0147    -1.061    -0.379    -0.354  0.9630  0.1353  0.2332
 
              Baa    -0.0834     6.031     2.152     2.012 -0.1066  0.9389  0.3271
     4 O(17)  Bbb    -0.0792     5.731     2.045     1.912  0.3599 -0.2703  0.8930
              Bcc     0.1626   -11.762    -4.197    -3.923  0.9269  0.2129 -0.3091
 
              Baa    -0.0036    -1.931    -0.689    -0.644  0.3323  0.4742  0.8153
     5 H(1)   Bbb    -0.0032    -1.732    -0.618    -0.578  0.6337  0.5279 -0.5654
              Bcc     0.0069     3.663     1.307     1.222 -0.6986  0.7045 -0.1251
 
              Baa    -0.0036    -1.939    -0.692    -0.647  0.1128 -0.4150  0.9028
     6 H(1)   Bbb    -0.0028    -1.513    -0.540    -0.505  0.6677  0.7045  0.2405
              Bcc     0.0065     3.452     1.232     1.152  0.7358 -0.5757 -0.3565
 
              Baa    -0.0013    -0.706    -0.252    -0.235  0.2119  0.1067  0.9714
     7 H(1)   Bbb    -0.0013    -0.667    -0.238    -0.222  0.6171  0.7562 -0.2177
              Bcc     0.0026     1.373     0.490     0.458  0.7578 -0.6456 -0.0944
 
              Baa    -0.0014    -0.764    -0.273    -0.255  0.0874  0.8088  0.5815
     8 H(1)   Bbb    -0.0013    -0.675    -0.241    -0.225 -0.3402 -0.5244  0.7806
              Bcc     0.0027     1.438     0.513     0.480  0.9363 -0.2661  0.2294
 
              Baa    -0.0015    -0.806    -0.288    -0.269  0.2162  0.4249  0.8791
     9 H(1)   Bbb    -0.0013    -0.673    -0.240    -0.224  0.1604  0.8726 -0.4612
              Bcc     0.0028     1.479     0.528     0.493  0.9631 -0.2407 -0.1205
 
              Baa    -0.0226    -3.032    -1.082    -1.011  0.7235 -0.5534  0.4127
    10 C(13)  Bbb     0.0067     0.902     0.322     0.301 -0.2540  0.3426  0.9045
              Bcc     0.0159     2.130     0.760     0.710  0.6420  0.7592 -0.1073
 
              Baa    -0.5600   -75.141   -26.812   -25.064  0.3989  0.7976  0.4525
    11 C(13)  Bbb    -0.5535   -74.272   -26.502   -24.775  0.7088 -0.5813  0.3997
              Bcc     1.1134   149.413    53.314    49.839 -0.5818 -0.1613  0.7972
 
              Baa    -0.0089    -4.775    -1.704    -1.593 -0.5498  0.0852  0.8309
    12 H(1)   Bbb    -0.0066    -3.520    -1.256    -1.174  0.8172 -0.1510  0.5562
              Bcc     0.0155     8.294     2.960     2.767  0.1729  0.9849  0.0134
 
              Baa    -0.0106    -5.657    -2.019    -1.887  0.5863 -0.5759  0.5697
    13 H(1)   Bbb    -0.0063    -3.376    -1.205    -1.126  0.8089  0.3787 -0.4497
              Bcc     0.0169     9.033     3.223     3.013  0.0433  0.7246  0.6879
 
              Baa    -0.0085    -4.550    -1.624    -1.518  0.6618 -0.4398 -0.6071
    14 H(1)   Bbb    -0.0068    -3.650    -1.302    -1.217 -0.1045  0.7478 -0.6557
              Bcc     0.0154     8.200     2.926     2.735  0.7424  0.4974  0.4489
 
              Baa    -0.0294   -15.698    -5.602    -5.236  0.0706  0.7291  0.6807
    15 H(1)   Bbb    -0.0274   -14.609    -5.213    -4.873  0.3851 -0.6495  0.6556
              Bcc     0.0568    30.307    10.814    10.109  0.9201  0.2159 -0.3267
 
              Baa    -0.0706   -37.647   -13.433   -12.558  0.6868  0.4281  0.5874
    16 H(1)   Bbb    -0.0022    -1.169    -0.417    -0.390 -0.5775 -0.1694  0.7986
              Bcc     0.0727    38.816    13.850    12.948 -0.4413  0.8877 -0.1309
 
              Baa    -0.0704   -37.548   -13.398   -12.525 -0.0440  0.9853  0.1653
    17 H(1)   Bbb    -0.0020    -1.049    -0.374    -0.350 -0.5852 -0.1595  0.7951
              Bcc     0.0723    38.597    13.772    12.875  0.8097 -0.0618  0.5836
 

 ---------------------------------------------------------------------------------

 No NMR shielding tensors so no spin-rotation constants.
 Leave Link  601 at Wed Sep 15 11:32:57 2021, MaxMem=   805306368 cpu:         1.4
 (Enter /Local/ce_dana/g09/l701.exe)
 Compute integral second derivatives.
 ... and contract with generalized density number  0.
 Leave Link  701 at Wed Sep 15 11:32:58 2021, MaxMem=   805306368 cpu:         3.2
 (Enter /Local/ce_dana/g09/l702.exe)
 L702 exits ... SP integral derivatives will be done elsewhere.
 Leave Link  702 at Wed Sep 15 11:32:58 2021, MaxMem=   805306368 cpu:         0.0
 (Enter /Local/ce_dana/g09/l703.exe)
 Compute integral second derivatives, UseDBF=F ICtDFT=           0.
 Integral derivatives from FoFJK, PRISM(SPDF).
 Calling FoFJK, ICntrl=    100147 FMM=F ISym2X=0 I1Cent= 0 IOpClX= 1 NMat=1 NMatS=1 NMatT=0.
 FoFJK:  IHMeth= 1 ICntrl=  100147 DoSepK=F KAlg= 0 I1Cent=   0 FoldK=F
 IRaf=         0 NMat=   1 IRICut=       1 DoRegI=T DoRafI=F ISym2E= 0.
 FoFCou: FMM=F IPFlag=           0 FMFlag=      100000 FMFlg1=         800
         NFxFlg=           0 DoJE=F BraDBF=F KetDBF=F FulRan=T
         wScrn=  0.000000 ICntrl=  100147 IOpCl=  1 I1Cent=           0 NGrid=           0
         NMat0=    1 NMatS0=      1 NMatT0=    0 NMatD0=    1 NMtDS0=    0 NMtDT0=    0
 Symmetry not used in FoFCou.
 Leave Link  703 at Wed Sep 15 11:33:59 2021, MaxMem=   805306368 cpu:       487.6
 (Enter /Local/ce_dana/g09/l716.exe)
 Dipole        = 4.85003241D-01 7.71836373D-01-3.07028017D-02
 Polarizability= 0.00000000D+00 0.00000000D+00 0.00000000D+00
                 0.00000000D+00 0.00000000D+00 0.00000000D+00
 ***** Axes restored to original set *****
 -------------------------------------------------------------------
 Center     Atomic                   Forces (Hartrees/Bohr)
 Number     Number              X              Y              Z
 -------------------------------------------------------------------
      1        6          -0.000689395    0.000665993   -0.007258059
      2        6          -0.006961679    0.011840757    0.002365453
      3        8          -0.014076614   -0.008856245    0.010094460
      4        8           0.018841785    0.001881301   -0.004914762
      5        1           0.001878092    0.004214628    0.001608686
      6        1          -0.004821403   -0.000040327    0.001995695
      7        1           0.002172071   -0.003196801    0.001077304
      8        1           0.003806132    0.000062671   -0.001610554
      9        1          -0.001653149   -0.003927447   -0.001465950
     10        6          -0.000146148    0.000811193   -0.005124286
     11        6           0.000379815   -0.003510633    0.006498081
     12        1           0.004299162   -0.000161300    0.001122770
     13        1          -0.001452764   -0.003857803   -0.000152138
     14        1          -0.002300343    0.002699643    0.002661967
     15        1           0.000739512    0.000021430   -0.000306725
     16        1          -0.004978715    0.003731257   -0.001931336
     17        1           0.004963641   -0.002378317   -0.004660605
 -------------------------------------------------------------------
 Cartesian Forces:  Max     0.018841785 RMS     0.005138911
 FormGI is forming the generalized inverse of G from B-inverse, IUseBI=4.
 Leave Link  716 at Wed Sep 15 11:33:59 2021, MaxMem=   805306368 cpu:         0.1
 (Enter /Local/ce_dana/g09/l103.exe)

 GradGradGradGradGradGradGradGradGradGradGradGradGradGradGradGradGradGrad
 Berny optimization.
 Red2BG is reusing G-inverse.
 Internal  Forces:  Max     0.021262418 RMS     0.003910812
 Search for a saddle point.
 Step number   1 out of a maximum of  100
 All quantities printed in internal units (Hartrees-Bohrs-Radians)
 Swapping is turned off.
 Second derivative matrix not updated -- analytic derivatives used.
 ITU=  0
     Eigenvalues ---   -0.00082  -0.00024   0.00269   0.00296   0.00346
     Eigenvalues ---    0.00453   0.00673   0.01016   0.01300   0.01476
     Eigenvalues ---    0.04247   0.04292   0.04362   0.04437   0.04708
     Eigenvalues ---    0.05550   0.05736   0.08257   0.09353   0.09858
     Eigenvalues ---    0.11829   0.11893   0.12175   0.13353   0.13501
     Eigenvalues ---    0.15418   0.16200   0.23081   0.26659   0.28379
     Eigenvalues ---    0.29632   0.30026   0.31351   0.31571   0.31879
     Eigenvalues ---    0.31952   0.32255   0.32372   0.32507   0.33229
     Eigenvalues ---    0.33692   0.34079   0.36224   0.46600   0.49550
 Eigenvectors required to have negative eigenvalues:
                          D14       D26       D25       D15       R14
   1                    0.67931  -0.39307  -0.38991   0.38331  -0.14013
                          A27       A21       A26       D13       A24
   1                    0.13177  -0.11858   0.11655  -0.08431   0.06892
 Eigenvalue     2 is  -2.38D-04 should be greater than     0.000000 Eigenvector:
                          D20       D17       D23       D21       D19
   1                   -0.37760  -0.35823  -0.35261  -0.33046  -0.32808
                          D18       D16       D24       D22       D14
   1                   -0.31109  -0.30871  -0.30547  -0.30309   0.06189
 RFO step:  Lambda0=3.282288673D-06 Lambda=-3.66656284D-03.
 Linear search not attempted -- option 19 set.
 Maximum step size (   0.050) exceeded in Quadratic search.
    -- Step size scaled by   0.282
 Iteration  1 RMS(Cart)=  0.04222926 RMS(Int)=  0.00062983
 Iteration  2 RMS(Cart)=  0.00066964 RMS(Int)=  0.00000803
 Iteration  3 RMS(Cart)=  0.00000032 RMS(Int)=  0.00000802
 ITry= 1 IFail=0 DXMaxC= 1.82D-01 DCOld= 1.00D+10 DXMaxT= 5.00D-02 DXLimC= 3.00D+00 Rises=F
 Variable       Old X    -DE/DX   Delta X   Delta X   Delta X     New X
                                 (Linear)    (Quad)   (Total)
    R1        2.86799   0.00278   0.00000   0.00231   0.00231   2.87030
    R2        2.07993  -0.00487   0.00000  -0.00393  -0.00393   2.07600
    R3        2.07706  -0.00519   0.00000  -0.00423  -0.00423   2.07283
    R4        2.07867  -0.00401   0.00000  -0.00331  -0.00331   2.07536
    R5        2.66411   0.01193   0.00000   0.00839   0.00839   2.67250
    R6        2.08079  -0.00411   0.00000  -0.00356  -0.00356   2.07724
    R7        2.08689  -0.00449   0.00000  -0.00471  -0.00471   2.08218
    R8        2.67713   0.02126   0.00000   0.01805   0.01805   2.69517
    R9        1.84258   0.00334   0.00000  -0.00014  -0.00014   1.84244
   R10        2.80958   0.00123   0.00000   0.00130   0.00130   2.81087
   R11        2.08283  -0.00444   0.00000  -0.00281  -0.00281   2.08002
   R12        2.09353  -0.00408   0.00000  -0.00396  -0.00396   2.08958
   R13        2.07852  -0.00443   0.00000  -0.00434  -0.00434   2.07417
   R14        4.05809   0.00223   0.00000   0.02722   0.02720   4.08529
   R15        2.06605  -0.00651   0.00000  -0.00555  -0.00555   2.06050
   R16        2.06831  -0.00599   0.00000  -0.00552  -0.00553   2.06278
   R17        3.86159  -0.00013   0.00000   0.01820   0.01822   3.87981
    A1        1.93792   0.00015   0.00000  -0.00060  -0.00060   1.93732
    A2        1.92629   0.00056   0.00000   0.00007   0.00007   1.92636
    A3        1.92757  -0.00026   0.00000  -0.00085  -0.00085   1.92672
    A4        1.89641  -0.00005   0.00000   0.00091   0.00091   1.89732
    A5        1.88929  -0.00016   0.00000   0.00019   0.00019   1.88948
    A6        1.88501  -0.00027   0.00000   0.00033   0.00033   1.88534
    A7        1.98552   0.00500   0.00000   0.00039   0.00039   1.98591
    A8        1.94116  -0.00095   0.00000   0.00073   0.00073   1.94189
    A9        1.93517  -0.00089   0.00000   0.00181   0.00181   1.93698
   A10        1.80145  -0.00192   0.00000  -0.00310  -0.00310   1.79835
   A11        1.91083  -0.00197   0.00000  -0.00193  -0.00193   1.90890
   A12        1.88305   0.00049   0.00000   0.00185   0.00185   1.88490
   A13        1.88487   0.00413   0.00000  -0.00362  -0.00362   1.88125
   A14        1.76243   0.00841   0.00000  -0.00308  -0.00308   1.75935
   A15        1.94968   0.00020   0.00000  -0.00098  -0.00098   1.94870
   A16        1.95192   0.00081   0.00000   0.00060   0.00060   1.95251
   A17        1.95499  -0.00004   0.00000   0.00055   0.00054   1.95553
   A18        1.84817  -0.00038   0.00000  -0.00146  -0.00146   1.84671
   A19        1.89129  -0.00021   0.00000  -0.00063  -0.00063   1.89065
   A20        1.86219  -0.00045   0.00000   0.00191   0.00191   1.86410
   A21        1.92177   0.00168   0.00000   0.00629   0.00630   1.92807
   A22        2.11414  -0.00072   0.00000   0.00112   0.00109   2.11523
   A23        2.11063   0.00063   0.00000  -0.00184  -0.00185   2.10879
   A24        1.64086  -0.00053   0.00000   0.00274   0.00272   1.64359
   A25        2.05430   0.00003   0.00000  -0.00005  -0.00005   2.05425
   A26        2.75977   0.00294   0.00000   0.01455   0.01456   2.77433
   A27        2.24492   0.00456   0.00000   0.01886   0.01885   2.26376
    D1        1.01350   0.00013   0.00000  -0.00185  -0.00185   1.01165
    D2       -1.01167  -0.00002   0.00000   0.00134   0.00134  -1.01033
    D3       -3.10699   0.00059   0.00000  -0.00270  -0.00270  -3.10969
    D4       -1.09058  -0.00027   0.00000  -0.00264  -0.00264  -1.09322
    D5       -3.11575  -0.00043   0.00000   0.00055   0.00055  -3.11520
    D6        1.07211   0.00018   0.00000  -0.00349  -0.00349   1.06862
    D7        3.10948  -0.00014   0.00000  -0.00256  -0.00256   3.10692
    D8        1.08430  -0.00029   0.00000   0.00063   0.00063   1.08494
    D9       -1.01102   0.00032   0.00000  -0.00340  -0.00340  -1.01442
   D10        1.18179   0.00066   0.00000   0.00646   0.00646   1.18825
   D11       -2.99584   0.00093   0.00000   0.00553   0.00553  -2.99031
   D12       -0.99402  -0.00030   0.00000   0.00529   0.00530  -0.98872
   D13       -1.98248  -0.00712   0.00000  -0.02368  -0.02368  -2.00616
   D14        0.19412  -0.00036   0.00000  -0.00824  -0.00822   0.18590
   D15       -0.00281   0.00011   0.00000  -0.00863  -0.00866  -0.01146
   D16       -1.94390  -0.00021   0.00000  -0.03885  -0.03883  -1.98273
   D17        2.45515  -0.00037   0.00000  -0.04782  -0.04782   2.40734
   D18       -0.58680   0.00023   0.00000  -0.03851  -0.03852  -0.62532
   D19        0.12419  -0.00002   0.00000  -0.04096  -0.04094   0.08325
   D20       -1.75994  -0.00018   0.00000  -0.04992  -0.04993  -1.80986
   D21        1.48129   0.00042   0.00000  -0.04062  -0.04063   1.44066
   D22        2.21378  -0.00006   0.00000  -0.03771  -0.03769   2.17608
   D23        0.32965  -0.00022   0.00000  -0.04668  -0.04668   0.28297
   D24       -2.71231   0.00038   0.00000  -0.03737  -0.03738  -2.74969
   D25        1.72611   0.00113   0.00000  -0.00237  -0.00237   1.72373
   D26       -2.37048   0.00064   0.00000   0.00242   0.00243  -2.36805
         Item               Value     Threshold  Converged?
 Maximum Force            0.021262     0.000015     NO 
 RMS     Force            0.003911     0.000010     NO 
 Maximum Displacement     0.181780     0.000060     NO 
 RMS     Displacement     0.042276     0.000040     NO 
 Predicted change in Energy=-9.071132D-04
 Lowest energy point so far.  Saving SCF results.
 GradGradGradGradGradGradGradGradGradGradGradGradGradGradGradGradGradGrad

 Leave Link  103 at Wed Sep 15 11:33:59 2021, MaxMem=   805306368 cpu:         0.1
 (Enter /Local/ce_dana/g09/l202.exe)
                          Input orientation:                          
 ---------------------------------------------------------------------
 Center     Atomic      Atomic             Coordinates (Angstroms)
[...]
 703193217\\Version=ES64L-G09RevD.01\State=2-A\HF=-307.5462812\MP2=-308
 .7030869\E2(CBS)=-1.2729502\CBS-Int=-1.2347021\OIii=10.2943693\PUHF=-3
 07.5497908\PMP2-0=-308.7053125\S2=0.763516\S2-1=0.753573\S2A=0.750122\
 RMSD=7.368e-09\PG=C01 [X(C4H11O2)]\\@


 If fifty million people say a stupid thing,
 it is still a stupid thing.
                   -- Anatole France
 Diagonal vibrational polarizability:
        0.0000000       0.0000000       0.0000000
    1 imaginary frequencies ignored.

 Complete Basis Set (CBS) Extrapolation:
 M. R. Nyden and G. A. Petersson, JCP 75, 1843 (1981)
 G. A. Petersson and M. A. Al-Laham, JCP 94, 6081 (1991)
 G. A. Petersson, T. Tensfeldt, and J. A. Montgomery, JCP 94, 6091 (1991)
 J. A. Montgomery, J. W. Ochterski, and G. A. Petersson, JCP 101, 5900 (1994)

 Temperature=               298.150000 Pressure=                       1.000000
 E(ZPE)=                      0.141774 E(Thermal)=                     0.152055
 E(SCF)=                   -307.546281 DE(MP2)=                       -1.156806
 DE(CBS)=                    -0.116145 DE(MP34)=                      -0.072514
 DE(CCSD)=                   -0.028707 DE(Int)=                        0.038248
 DE(Empirical)=              -0.059733
 CBS-QB3 (0 K)=            -308.800164 CBS-QB3 Energy=              -308.789883
 CBS-QB3 Enthalpy=         -308.788939 CBS-QB3 Free Energy=         -308.839018

 Test job not archived.
 1\1\GINC-TECH-WN083\Mixed\CBS-QB3\CBS-QB3\C4H11O2(2)\ALONGD\15-Sep-202
 1\0\\#P opt=(ts, calcfc, noeigentest, maxcycles=100, tight, maxstep=5)
  guess=mix cbs-qb3 scf=(tight, direct) integral=(grid=ultrafine, Acc2E
 =12) IOp(2/9=2000) scf=xqc\\TS0\\0,2\C,0,-1.2231336267,1.8636003788,-0
 .0922523488\C,0,-0.8935115678,1.5187926564,1.3528837325\O,0,-0.2642676
 719,0.2498958479,1.5117684596\O,0,1.0800473618,0.3715440269,0.96296109
 71\H,0,-1.8702272893,1.1016416547,-0.5346485209\H,0,-0.309181653,1.935
 7324549,-0.683860446\H,0,-1.7403154975,2.8261471869,-0.1442394548\H,0,
 -1.8012332394,1.4113910356,1.9549793353\H,0,-0.2655613825,2.2896259707
 ,1.8134594272\C,0,0.7766181946,-2.0141739053,-2.2972183636\C,0,0.70755
 92646,-2.2325826123,-0.8257676375\H,0,-0.2063889982,-2.1081752129,-2.7
 680786193\H,0,1.1425595859,-1.0057287485,-2.5472508684\H,0,1.459977171
 ,-2.7175973574,-2.7814825764\H,0,1.0728920043,-0.3705077034,0.33260647
 97\H,0,1.5307222286,-2.6904732036,-0.2903353739\H,0,-0.2012738844,-2.0
 321874694,-0.2703193217\\Version=ES64L-G09RevD.01\State=2-A\HF/CbsB3=-
 307.5462812\E2(CBS)/CbsB3=-1.2729502\CBS-Int/CbsB3=0.0382481\OIii/CbsB
 3=10.2943693\MP2/CbsB4=-308.4263199\MP4(SDQ)/CbsB4=-308.498834\MP4(SDQ
 )/6-31+G(d')=-308.4011174\QCISD(T)/6-31+G(d')=-308.4298242\CBSQB3=-308
 .800164\FreqCoord=-2.3113875784,3.521694337,-0.1743316744,-1.688492159
 8,2.8701021733,2.556579744,-0.4993935257,0.4722347143,2.856828365,2.04
 09937243,0.7021164571,1.8197327502,-3.534217383,2.081801024,-1.0103392
 818,-0.5842686495,3.6580042063,-1.2923089561,-3.288719675,5.3406441944
 ,-0.2725730671,-3.403837524,2.6671425237,3.6943755392,-0.5018382844,4.
 3267660313,3.4269416705,1.4675956975,-3.806237065,-4.3411135746,1.3370
 932328,-4.2189697062,-1.5604746842,-0.3900186835,-3.9838737926,-5.2309
 105048,2.1591247079,-1.9005518986,-4.8136065331,2.7589570134,-5.135514
 745,-5.2562403128,2.0274720583,-0.7001580896,0.6285351566,2.8926457976
 ,-5.0842575227,-0.5486543434,-0.3803525193,-3.8402777678,-0.5108294865
 \PG=C01 [X(C4H11O2)]\NImag=1\\0.56467260,0.00641000,0.56450612,-0.0223
 4590,0.02447966,0.47951379,-0.08623424,-0.00127284,-0.01884500,0.57643
 569,-0.00317730,-0.07722886,0.01423387,0.08671619,0.48471720,-0.016472
 38,0.00739096,-0.19151861,-0.04228433,0.02233372,0.51641876,-0.0059482
 6,0.01640544,-0.00480135,-0.07963149,0.04837476,-0.00647288,0.29853137
 ,0.01668587,-0.02364934,0.00887572,0.00748525,-0.19768677,0.03936192,-
 0.05729530,0.32594562,-0.01702347,0.03773563,0.00091723,0.00218502,0.0
 1593069,-0.06779218,-0.08868773,-0.04319757,0.12517422,0.00162261,-0.0
 0012033,-0.00118369,-0.03705158,0.00133242,0.01203375,-0.18447829,-0.0
 2388723,0.05639010,0.25197387,-0.00142799,0.00018116,0.00188611,0.0376
 2771,0.01073002,-0.02087221,-0.01943960,-0.06981452,0.00158323,0.02605
 343,0.35268801,-0.00228188,0.00101145,-0.00043082,0.00887299,-0.000362
 53,-0.00508492,0.08787445,-0.00007226,-0.05286597,-0.06832151,0.245895
 16,0.25069475,-0.14004924,-0.10892882,-0.05957034,-0.00464711,-0.00451
 063,-0.00301067,0.00061244,0.00016343,0.00089408,-0.00054287,0.0005380
 7,-0.00001969,0.14757830,-0.10897817,-0.17581491,-0.07273759,0.0057410
 9,0.00463040,0.00394780,-0.00051320,0.00226506,-0.00056503,-0.00007887
 ,-0.00005415,-0.00009244,0.12024029,0.18794336,-0.05920847,-0.07005285
 ,-0.08693892,-0.02049299,-0.02670319,-0.01525857,0.00173128,0.00060108
 ,0.00365350,0.00014137,-0.00005768,0.00003719,0.06751637,0.07902759,0.
 09601213,-0.23633398,-0.01611517,0.12061973,0.00797733,-0.00005033,-0.
 00418322,-0.00002081,-0.00060105,0.00136482,-0.00098139,0.00110253,-0.
 00147524,-0.01472037,-0.00005547,0.00912027,0.25497140,-0.01577770,-0.
 04898793,0.00737430,-0.00645816,-0.00113809,0.00484716,-0.00068197,0.0
 0026936,-0.00029148,0.00025759,0.00012318,-0.00077659,-0.01943047,-0.0
 0109438,0.01342336,0.01625684,0.04812659,0.11799829,0.00842806,-0.1220
 0516,0.03003661,0.00171380,-0.01952881,0.00088093,-0.00102523,0.001466
 58,-0.00079424,-0.00082374,0.00193364,-0.01154732,0.00021448,0.0073723
 7,-0.13120741,-0.00968604,0.13451375,-0.10385917,0.10842893,-0.0061350
 4,-0.00434335,0.00478234,0.00224642,-0.00039043,0.00056889,-0.00132063
 ,0.00054415,0.00057079,-0.00075462,0.01014720,-0.01745636,0.00197943,-
 0.01215043,0.02426504,-0.00233529,0.10971458,0.10882432,-0.24766430,0.
 00971063,0.00217725,-0.00683117,-0.00238738,0.00082592,0.00041909,0.00
 281542,-0.00043730,0.00027581,-0.00017259,0.01082377,-0.01865661,0.001
 36575,-0.00149452,0.00287107,-0.00076181,-0.12035521,0.26890160,-0.005
 54966,0.00824591,-0.04794153,-0.01416342,0.02730839,0.00410689,-0.0025
 1865,0.00482336,-0.00827134,0.00075370,-0.00074720,0.00082104,0.007244
 84,-0.01075161,-0.00006703,0.00698516,-0.01634270,0.00063076,0.0065679
 5,-0.01123371,0.04911425,0.00832825,0.00014875,-0.00542506,-0.22304079
 ,-0.02413469,0.11442957,-0.02113135,0.00208621,0.00893983,0.00133614,0
 .00532516,0.00050426,0.00068018,0.00007261,0.00051180,0.00058628,0.000
 51105,-0.00242909,0.00028362,-0.00034140,0.00095198,0.24799396,-0.0065
 9287,0.00026365,0.00344710,-0.03364521,-0.05453445,0.01839573,0.030576
 16,0.00026064,-0.01478081,0.00493026,-0.00686549,-0.00284937,0.0008044
 6,0.00035548,-0.00020523,0.00108000,0.00061049,0.00181175,-0.00002172,
 0.00010667,-0.00017750,0.01877319,0.05924551,0.02563663,0.00386557,-0.
 01771546,0.11642730,0.01578990,-0.12457852,0.00094626,-0.00279859,0.00
 075302,-0.00306765,0.00066550,0.00223168,0.00000273,-0.00077662,0.0011
 5831,-0.00206293,0.00157847,-0.00547701,-0.00025260,0.00025856,0.00095
 686,-0.12636487,-0.01820025,0.13476952,-0.00291056,-0.00485801,-0.0022
 1692,-0.14313688,-0.10824454,-0.06257435,0.00765478,0.02063380,0.00743
 816,0.00446786,-0.00010730,-0.00058427,0.00118709,0.00097014,-0.001174
 90,0.00071175,0.00059656,-0.00007915,-0.00004224,0.00017603,-0.0001660
 7,-0.01374074,-0.01787025,-0.01075934,0.14602344,0.00350053,0.00757706
 ,0.00353692,-0.10000978,-0.15867292,-0.07251770,-0.00799412,-0.0444820
 2,-0.00912453,-0.00114815,0.00319209,0.00143129,0.00032649,0.00059151,
 0.00249378,-0.00009679,-0.00005362,-0.00026452,-0.00043405,0.00044925,
 -0.00117900,-0.00240118,-0.00008673,-0.00050279,0.10850312,0.19054581,
 -0.02019692,-0.02126797,-0.01428742,-0.06298004,-0.06993909,-0.0966993
 5,0.00578820,0.00163425,0.00595440,-0.00140760,-0.00062157,-0.00022822
 ,-0.00127356,0.00184447,-0.00588360,0.00069092,-0.00045193,0.00109397,
 -0.00008127,0.00045230,0.00098955,0.00924302,0.01248395,0.00780829,0.0
 7015351,0.07563441,0.10160664,0.00006292,0.00009617,-0.00002348,0.0001
 3736,-0.00019680,0.00000438,-0.00001779,0.00031804,0.00013910,0.000075
 38,-0.00015426,0.00011762,0.00002662,-0.00001204,0.00001680,-0.0000398
 0,-0.00009273,-0.00001116,-0.00003496,0.00003348,0.00001814,-0.0000108
 2,-0.00000428,0.00001493,-0.00000474,0.00007194,-0.00001025,0.54770815
 ,0.00012032,0.00010651,-0.00003055,-0.00005008,-0.00014816,0.00002278,
 -0.00002715,-0.00006970,-0.00009646,-0.00005544,-0.00018563,0.00023620
 ,-0.00003722,-0.00001930,0.00000815,-0.00000684,-0.00008364,0.00001136
 ,-0.00003888,0.00000317,0.00000652,-0.00003579,0.00003809,0.00001311,0
 .00001874,-0.00001292,-0.00002606,-0.02754855,0.48524812,-0.00001374,0
 .00005019,-0.00000820,0.00006449,-0.00020966,0.00006137,0.00006266,0.0
 0015481,-0.00004040,-0.00016553,0.00057132,0.00061253,-0.00001427,-0.0
 0001435,0.00001700,0.00001459,0.00000082,0.00003200,-0.00000746,0.0000
 0636,-0.00001763,-0.00002662,0.00004178,-0.00001707,0.00000044,0.00002
 243,-0.00001718,0.00514264,0.01826336,0.48017837,0.00009555,-0.0001325
 8,0.00005280,-0.00036242,0.00059981,-0.00013531,-0.00059991,-0.0007514
 4,0.00010297,0.00074623,-0.00190331,-0.00214946,-0.00005641,0.00006414
 ,-0.00004486,-0.00002380,0.00004784,-0.00002892,0.00003875,-0.00007745
 ,0.00002213,0.00009665,-0.00007185,0.00004069,0.00003152,-0.00016781,0
 .00004306,-0.08138962,0.01400608,0.01094351,0.55162115,0.00005402,-0.0
 0027099,0.00008449,-0.00033604,0.00104507,-0.00035620,-0.00070974,-0.0
 0120665,-0.00001621,0.00101555,-0.00715137,-0.00707850,-0.00003745,0.0
 0004654,0.00000222,-0.00001460,0.00016754,-0.00010858,0.00009897,-0.00
 010201,0.00002626,0.00024666,-0.00024717,0.00004401,0.00000856,-0.0001
 4249,0.00008712,0.01411526,-0.05026388,0.03249044,-0.18270929,0.144688
 92,-0.00017745,-0.00008603,-0.00008036,-0.00006670,-0.00006898,-0.0001
 2788,-0.00016382,-0.00021572,0.00026791,0.00040024,-0.00396844,-0.0030
 3038,0.00009057,-0.00001561,0.00009030,0.00005108,0.00003740,0.0000171
 8,0.00006074,0.00003387,0.00001851,0.00005194,-0.00003893,-0.00002345,
 0.00004518,-0.00002102,0.00003862,0.00578827,0.01684636,-0.22964080,-0
 .03458976,-0.08626363,0.52493051,-0.00001784,-0.00003119,0.00002461,-0
 .00005061,0.00010568,-0.00004947,0.00004260,-0.00006952,0.00000737,0.0
 0005715,-0.00004371,0.00000445,0.00003445,0.00001880,-0.00001534,-0.00
 002386,-0.00000046,-0.00001325,0.00000811,-0.00000266,0.00000839,0.000
 00895,-0.00001303,0.00000721,0.00000023,-0.00001605,0.00001759,-0.2584
 7420,-0.01841150,-0.09554873,0.00429259,0.00092829,-0.00008634,0.27971
 359,-0.00005623,-0.00006647,0.00003524,-0.00005676,0.00014876,-0.00010
 417,0.00005343,-0.00004594,0.00005107,0.00002519,-0.00009440,-0.000081
 18,0.00008881,0.00003225,-0.00003806,-0.00005399,-0.00001529,-0.000027
 13,0.00001418,0.00001879,0.00002759,0.00000895,-0.00002444,0.00001755,
 0.00000966,-0.00001264,0.00003801,-0.01914910,-0.04538054,-0.01447280,
 0.00594813,-0.00097994,0.00536161,0.02305320,0.04704119,-0.00006834,-0
 .00007392,-0.00001210,-0.00006305,0.00016294,-0.00009838,0.00004231,-0
 .00007703,0.00007520,0.00010453,-0.00037204,-0.00014324,0.00006634,0.0
 0001126,-0.00000241,-0.00001527,0.00000371,-0.00001101,0.00001788,0.00
 001730,0.00003377,0.00002049,-0.00003474,0.00000722,0.00000686,-0.0000
 1586,0.00003273,-0.09689434,-0.01372245,-0.09084604,-0.02967465,0.0014
 7868,-0.01661061,0.10691499,0.00923493,0.10148646,-0.00004575,-0.00000
 913,-0.00001854,0.00008832,-0.00012516,0.00015215,-0.00006460,0.000088
 71,-0.00001361,-0.00015649,0.00024535,0.00000210,-0.00010792,-0.000028
 72,0.00003996,0.00010893,0.00012235,0.00004326,0.00001894,-0.00002903,
 -0.00005478,-0.00000701,0.00002804,-0.00004041,-0.00001740,0.00001088,
 -0.00003789,-0.06738595,-0.07359331,0.01423438,0.00016935,0.00064207,0
 .00323979,-0.01110994,-0.02843857,0.00548771,0.07209068,-0.00000555,0.
 00002333,-0.00002677,0.00004042,-0.00011499,0.00003441,0.00002795,0.00
 012454,0.00000746,-0.00002297,0.00044612,0.00047557,-0.00000499,-0.000
 01285,0.00000801,0.00002969,-0.00004000,0.00000057,-0.00000938,0.00000
 865,-0.00000576,-0.00001155,0.00001329,-0.00001294,0.00000069,0.000018
 96,-0.00000772,-0.07360033,-0.24354347,0.03869332,0.00043640,0.0008647
 1,0.00945971,-0.00162361,-0.00376858,-0.00013084,0.08260733,0.26979980
 ,0.00009121,0.00007394,-0.00005512,-0.00002944,-0.00002430,-0.00008629
 ,-0.00007274,-0.00010318,0.00009089,0.00001380,-0.00066882,0.00015791,
 0.00002755,-0.00000413,-0.00000657,-0.00001628,-0.00015953,0.00000596,
 -0.00004317,0.00002531,0.00004808,-0.00001108,0.00000053,0.00002838,0.
 00001987,-0.00000717,-0.00000090,0.01881091,0.05141977,-0.04833841,0.0
 0879835,0.02457815,-0.01517262,-0.00417310,-0.01201170,0.00313372,-0.0
 1892316,-0.05235844,0.06025068,-0.00004965,-0.00003526,0.00000281,0.00
 000746,0.00001852,-0.00004229,0.00003971,0.00002178,0.00003610,-0.0000
 1288,-0.00000258,-0.00002562,0.00004620,0.00000502,-0.00000958,-0.0000
 1174,0.00000231,-0.00000357,0.00000704,0.00001816,0.00001155,-0.000001
 62,-0.00000818,0.00000187,0.00000659,0.00000577,0.00001505,-0.14971897
 ,0.10667800,0.06549755,-0.00090580,-0.00089946,0.00301623,-0.01620342,
 0.01897180,0.01276609,0.00665997,-0.00720104,-0.00468376,0.15820920,-0
 .00002526,-0.00003100,0.00000733,0.00001213,0.00003785,0.00005746,-0.0
 0000744,0.00000087,-0.00002212,-0.00003490,0.00001302,-0.00009736,-0.0
 0005297,-0.00000602,0.00001176,0.00004036,0.00007454,0.00000573,0.0000
 2433,-0.00002751,-0.00003060,0.00001076,0.00000030,-0.00001732,-0.0000
 1448,-0.00000877,-0.00001435,0.10740039,-0.15236150,-0.07478034,-0.005
 73245,0.00462468,0.00432156,-0.00308225,0.00244346,0.00318148,0.019413
 55,-0.02147401,-0.01227071,-0.11730550,0.16617140,0.00002908,-0.000039
 89,0.00002361,-0.00015206,0.00022884,-0.00005137,-0.00000854,-0.000242
 01,-0.00006284,0.00001259,-0.00035568,-0.00016828,0.00000271,0.0000189
 0,-0.00002438,-0.00002435,0.00000473,-0.00001731,0.00000821,-0.0000199
 0,0.00001644,0.00001941,-0.00001492,0.00001527,0.00000557,-0.00005893,
 0.00001509,0.06670902,-0.07477791,-0.09378402,0.02348045,-0.01813907,-
 0.01696873,-0.00740650,0.01038408,0.00590425,-0.00429904,0.00344534,0.
 00317855,-0.07724346,0.07816425,0.10473730,0.00076623,-0.00010504,-0.0
 0007937,-0.00660282,-0.00111835,0.00630389,-0.01487784,0.03378974,0.02
 929366,-0.03733823,-0.04915944,-0.02287985,-0.00028061,-0.00000736,-0.
 00010307,-0.00002816,0.00047534,-0.00053734,0.00008597,-0.00021352,-0.
 00012631,-0.00132709,0.00200531,-0.00053795,-0.00017469,-0.00031729,0.
 00004488,-0.00052987,0.00032342,0.00005164,0.00048908,-0.00040263,-0.0
 0053746,-0.00009200,-0.00006628,-0.00015123,0.00028408,-0.00008970,0.0
 0013870,-0.00008779,0.00006405,0.00034411,0.06198040,0.00058083,0.0009
 4601,-0.00079650,0.00135309,-0.00404103,-0.00042426,-0.00903760,0.0067
 8600,0.00960073,-0.00710418,-0.28466158,-0.23824461,-0.00010611,-0.000
 08565,0.00007014,-0.00004561,-0.00072879,0.00045191,-0.00039062,0.0001
 3347,0.00005768,-0.00014444,0.00075310,0.00007622,0.00019094,0.0008401
 2,0.00018896,0.00001836,0.00005128,-0.00099019,0.00237016,0.00646047,0
 .00265457,0.00011598,0.00004243,0.00056480,-0.00035410,-0.00053502,0.0
 0129876,-0.00008241,-0.00004466,0.00057285,0.01477184,0.27824494,-0.00
 058071,0.00012660,0.00044459,0.00109273,-0.00029226,-0.00000097,0.0060
 7333,-0.00775005,-0.00897962,0.00519447,-0.22226419,-0.19418820,-0.000
 25645,-0.00010453,-0.00011461,0.00012795,0.00042727,-0.00001019,0.0000
 8250,-0.00005350,-0.00035353,-0.00042480,0.00014039,0.00007761,-0.0000
 5177,0.00044305,-0.00038562,-0.00034396,-0.00101476,-0.00133876,0.0020
 0488,0.00654754,0.00162664,0.00001910,0.00017799,0.00008827,-0.0000540
 3,-0.00048575,-0.00059206,0.00006409,0.00021095,0.00013135,-0.01155472
 ,0.22573876,0.20309784,-0.00008026,-0.00003362,-0.00003620,0.00004176,
 -0.00001963,-0.00010115,0.00006698,0.00019103,0.00025057,0.00012481,0.
 00004474,0.00049617,0.00007564,0.00000276,0.00002389,-0.00001128,-0.00
 001672,-0.00000068,0.00001097,0.00003763,0.00003124,0.00000303,-0.0000
 2381,0.00000264,0.00000025,0.00003053,0.00002462,0.00647499,-0.0019158
 9,0.00341100,-0.21738302,0.10781926,-0.10226661,0.00051438,0.00013434,
 0.00086691,-0.00084918,-0.00059090,0.00001321,0.00066972,-0.00001808,-
 0.00024835,-0.00056360,-0.00014265,-0.00086118,0.22279580,0.00004800,0
 .00008970,0.00000531,0.00009096,-0.00029686,0.00014781,-0.00003718,0.0
 0011381,-0.00021607,-0.00048491,0.00093308,0.00039748,-0.00005608,-0.0
 0001825,-0.00000671,0.00002832,-0.00002112,0.00003121,-0.00002533,0.00
 000357,-0.00003640,-0.00005790,0.00007665,-0.00001819,0.00000714,0.000
 02806,-0.00004006,0.00540889,0.00143086,-0.00127139,0.11149590,-0.0709
 5669,0.06877058,-0.00170793,0.00053856,-0.00050858,-0.00130251,-0.0003
 6911,0.00012499,-0.00125280,0.00074735,0.00053996,0.00111455,-0.002281
 38,-0.00042831,-0.11542713,0.06824257,0.00006763,0.00001431,0.00003310
 ,-0.00003213,0.00010225,-0.00000942,0.00008850,-0.00023820,-0.00020520
 ,-0.00006806,0.00036479,0.00012022,-0.00003106,0.00001189,-0.00003041,
 -0.00001529,-0.00001460,-0.00000570,-0.00000998,-0.00002260,-0.0000112
 9,0.00000262,-0.00000099,0.00001040,-0.00000818,-0.00002599,-0.0000029
 2,-0.02115301,0.00960573,-0.00834368,-0.10166708,0.06547607,-0.1198127
 2,0.00045779,0.00181028,-0.00473413,-0.00050620,0.00068336,-0.00139263
 ,-0.00011252,-0.00042951,0.00171897,0.00011552,-0.00046708,0.00006911,
 0.11118960,-0.07069867,0.12314019,-0.00001920,0.00015271,-0.00001906,0
 .00041338,-0.00035229,0.00015588,0.00021289,0.00057177,0.00000365,-0.0
 0038647,0.00073041,0.00062011,0.00001641,0.00001536,-0.00003197,-0.000
 01007,-0.00007671,0.00002835,-0.00003876,0.00003454,-0.00001620,-0.000
 05766,0.00005378,0.00000550,-0.00005627,0.00013595,-0.00003331,0.00312
 132,0.00057409,-0.00364655,-0.25685989,0.06018056,0.12514409,0.0012998
 2,-0.00048676,0.00057277,0.00032397,0.00001754,0.00003910,0.00134601,-
 0.00069224,-0.00122885,-0.00170306,-0.00199349,-0.00053146,-0.01189099
 ,0.00215802,0.01168187,0.26428859,-0.00018282,0.00002025,-0.00008527,0
 .00058478,-0.00061601,0.00012217,-0.00052036,0.00076994,0.00058605,-0.
 00024017,0.00024462,0.00038027,0.00017942,-0.00010248,0.00005188,-0.00
 000337,-0.00007991,0.00002816,-0.00002191,0.00009045,0.00000877,-0.000
 05637,0.00003438,0.00001781,-0.00002081,0.00022925,0.00000528,-0.00670
 445,0.00519070,0.00144391,0.05657771,-0.02657674,-0.01680730,0.0007799
 7,0.00012280,0.00028036,0.00072224,-0.00144137,0.00008655,0.00106586,-
 0.00016001,0.00028937,-0.00106463,-0.00187972,-0.00141921,0.00992814,0
 .00173918,-0.00617102,-0.06102323,0.02241467,0.00009607,0.00009838,0.0
 0006140,0.00043003,-0.00020437,0.00024824,-0.00076222,0.00026869,-0.00
 013542,-0.00003627,-0.00021452,-0.00046893,-0.00012183,-0.00001448,-0.
 00001429,0.00002545,0.00002564,-0.00001102,-0.00002307,-0.00003399,-0.
 00007379,0.00000660,-0.00001849,-0.00000506,-0.00005464,0.00015563,-0.
 00003408,0.02167439,-0.00676517,-0.00850910,0.12280120,-0.01885278,-0.
 12552213,-0.00016877,-0.00040332,0.00169631,0.00074830,0.00022048,-0.0
 0124956,0.00070946,0.00170178,-0.00466390,0.00021489,-0.00035273,0.000
 42815,-0.01279567,0.00320703,0.00945612,-0.13274393,0.02118221,0.12879
 706\\0.00000025,0.00000016,-0.00000017,0.00000011,0.00000019,-0.000000
 13,-0.00000014,0.00000003,-0.00000003,0.00000006,0.00000005,0.00000001
 ,0.00000014,0.00000021,-0.00000017,0.00000026,0.,-0.00000010,0.0000003
 3,0.00000021,-0.00000024,0.00000006,0.00000031,-0.00000017,0.00000014,
 0.00000013,-0.00000013,-0.00000007,-0.00000031,0.00000007,-0.00000011,
 -0.00000021,-0.00000018,-0.00000008,-0.00000006,0.00000012,0.00000005,
 -0.00000020,0.00000007,-0.00000016,-0.00000025,0.00000022,-0.00000009,
 -0.00000017,0.00000011,-0.00000036,-0.00000013,0.00000031,-0.00000041,
 0.00000005,0.00000040\\\@
 Job cpu time:       0 days  0 hours 23 minutes 44.9 seconds.
 File lengths (MBytes):  RWF=   6878 Int=      0 D2E=      0 Chk=     10 Scr=      1
 Normal termination of Gaussian 09 at Wed Sep 15 12:57:28 2021.
