 Entering Gaussian System, Link 0=/Local/ce_dana/g09/g09
 Initial command:
 /Local/ce_dana/g09/l1.exe "/storage/ce_dana/alongd/scratch/g09/Gau-694.inp" -scrdir="/storage/ce_dana/alongd/scratch/g09/"
 Entering Link 1 = /Local/ce_dana/g09/l1.exe PID=       695.
  
 Copyright (c) 1988,1990,1992,1993,1995,1998,2003,2009,2013,
            Gaussian, Inc.  All Rights Reserved.
  
 This is part of the Gaussian(R) 09 program.  It is based on
 the Gaussian(R) 03 system (copyright 2003, Gaussian, Inc.),
 the Gaussian(R) 98 system (copyright 1998, Gaussian, Inc.),
 the Gaussian(R) 94 system (copyright 1995, Gaussian, Inc.),
 the Gaussian 92(TM) system (copyright 1992, Gaussian, Inc.),
 the Gaussian 90(TM) system (copyright 1990, Gaussian, Inc.),
 the Gaussian 88(TM) system (copyright 1988, Gaussian, Inc.),
 the Gaussian 86(TM) system (copyright 1986, Carnegie Mellon
 University), and the Gaussian 82(TM) system (copyright 1983,
 Carnegie Mellon University). Gaussian is a federally registered
 trademark of Gaussian, Inc.
  
 This software contains proprietary and confidential information,
 including trade secrets, belonging to Gaussian, Inc.
  
 This software is provided under written license and may be
 used, copied, transmitted, or stored only in accord with that
 written license.
  
 The following legend is applicable only to US Government
 contracts under FAR:
  
                    RESTRICTED RIGHTS LEGEND
  
 Use, reproduction and disclosure by the US Government is
 subject to restrictions as set forth in subparagraphs (a)
 and (c) of the Commercial Computer Software - Restricted
 Rights clause in FAR 52.227-19.
  
 Gaussian, Inc.
 340 Quinnipiac St., Bldg. 40, Wallingford CT 06492
  
  
 ---------------------------------------------------------------
 Warning -- This program may not be used in any manner that
 competes with the business of Gaussian, Inc. or will provide
 assistance to any competitor of Gaussian, Inc.  The licensee
 of this program is prohibited from giving any competitor of
 Gaussian, Inc. access to this program.  By using this program,
 the user acknowledges that Gaussian, Inc. is engaged in the
 business of creating and licensing software in the field of
 computational chemistry and represents and warrants to the
 licensee that it is not a competitor of Gaussian, Inc. and that
 it will not use this program in any manner prohibited above.
 ---------------------------------------------------------------
  

 Cite this work as:
 Gaussian 09, Revision D.01,
 M. J. Frisch, G. W. Trucks, H. B. Schlegel, G. E. Scuseria, 
 M. A. Robb, J. R. Cheeseman, G. Scalmani, V. Barone, B. Mennucci, 
 G. A. Petersson, H. Nakatsuji, M. Caricato, X. Li, H. P. Hratchian, 
 A. F. Izmaylov, J. Bloino, G. Zheng, J. L. Sonnenberg, M. Hada, 
 M. Ehara, K. Toyota, R. Fukuda, J. Hasegawa, M. Ishida, T. Nakajima, 
 Y. Honda, O. Kitao, H. Nakai, T. Vreven, J. A. Montgomery, Jr., 
 J. E. Peralta, F. Ogliaro, M. Bearpark, J. J. Heyd, E. Brothers, 
 K. N. Kudin, V. N. Staroverov, T. Keith, R. Kobayashi, J. Normand, 
 K. Raghavachari, A. Rendell, J. C. Burant, S. S. Iyengar, J. Tomasi, 
 M. Cossi, N. Rega, J. M. Millam, M. Klene, J. E. Knox, J. B. Cross, 
 V. Bakken, C. Adamo, J. Jaramillo, R. Gomperts, R. E. Stratmann, 
 O. Yazyev, A. J. Austin, R. Cammi, C. Pomelli, J. W. Ochterski, 
 R. L. Martin, K. Morokuma, V. G. Zakrzewski, G. A. Voth, 
 P. Salvador, J. J. Dannenberg, S. Dapprich, A. D. Daniels, 
 O. Farkas, J. B. Foresman, J. V. Ortiz, J. Cioslowski, 
 and D. J. Fox, Gaussian, Inc., Wallingford CT, 2013.
 
 ******************************************
 Gaussian 09:  ES64L-G09RevD.01 24-Apr-2013
                15-Sep-2021 
 ******************************************
 %chk=check.chk
 %mem=6144mb
 %NProcShared=8
 Will use up to    8 processors via shared memory.
 ----------------------------------------------------------------------
 #P opt=(ts, calcfc, noeigentest, maxcycles=100, tight, maxstep=5) gues
 s=read cbs-qb3 scf=(tight, direct) integral=(grid=ultrafine, Acc2E=12)
  IOp(2/9=2000) scf=xqc
 ----------------------------------------------------------------------
 1/5=1,6=100,7=10,8=5,10=4,11=1,14=-1,18=20,26=4,38=1/1,3;
 2/9=2000,12=2,17=6,18=5,40=1/2;
 3/5=4,6=6,7=700,11=2,16=1,25=1,30=1,71=2,74=-5,75=-5,116=-2,140=1/1,2,3;
 4/5=1/1;
 5/5=2,8=3,13=1,32=2,38=6,87=12/2,8;
 8/6=4,10=90,11=11,87=12/1;
 11/6=1,8=1,9=11,15=111,16=1,87=12/1,2,10;
 10/6=1,13=1,87=12/2;
 6/7=2,8=2,9=2,10=2,28=1/1;
 7/10=1,18=20,25=1,87=12/1,2,3,16;
 1/5=1,6=100,7=10,8=5,10=4,11=1,14=-1,18=20,26=4/3(2);
 2/9=2000/2;
 99//99;
 2/9=2000/2;
 3/5=4,6=6,7=700,11=2,16=1,25=1,30=1,71=1,74=-5,75=-5/1,2,3;
 4/5=5,16=3,69=1/1;
 5/5=2,8=3,13=1,32=2,38=5,87=12/2,8;
 7/87=12/1,2,3,16;
 1/5=1,6=100,7=10,8=5,11=1,14=-1,18=20,26=4/3(-5);
 2/9=2000/2;
 6/7=2,8=2,9=2,10=2,19=2,28=1/1;
 99/9=1/99;
 Leave Link    1 at Wed Sep 15 12:58:03 2021, MaxMem=   805306368 cpu:         0.1
 (Enter /Local/ce_dana/g09/l101.exe)
 ---
 TS0
 ---
 Symbolic Z-matrix:
 Charge =  0 Multiplicity = 2
 C                     1.83661   0.79778  -0.03163 
 C                     0.65044   1.74089  -0.10037 
 O                    -0.59323   1.08267  -0.25972 
 O                    -0.89501   0.37888   0.88613 
 H                     1.88788   0.16053  -0.92738 
 H                     1.76783   0.15459   0.8566 
 H                     2.77151   1.3733    0.03629 
 H                     0.71062   2.39087  -0.9865 
 H                     0.60549   2.38365   0.79525 
 C                    -0.77997  -1.98234  -1.23551 
 C                    -0.35332  -1.98729   0.20155 
 H                    -0.4943   -2.92478  -1.73673 
 H                    -1.86905  -1.86769  -1.33258 
 H                    -0.30601  -1.15665  -1.78809 
 H                    -0.63696  -0.71425   0.64245 
 H                     0.7253   -2.07206   0.38796 
 H                    -0.9537   -2.59401   0.89191 
 
 Add virtual bond connecting atoms H15        and O4         Dist= 2.17D+00.
 Add virtual bond connecting atoms H15        and C11        Dist= 2.60D+00.
 NAtoms=     17 NQM=       17 NQMF=       0 NMMI=      0 NMMIF=      0
                NMic=       0 NMicF=      0.
                    Isotopes and Nuclear Properties:
 (Nuclear quadrupole moments (NQMom) in fm**2, nuclear magnetic moments (NMagM)
  in nuclear magnetons)

  Atom         1           2           3           4           5           6           7           8           9          10
 IAtWgt=          12          12          16          16           1           1           1           1           1          12
 AtmWgt=  12.0000000  12.0000000  15.9949146  15.9949146   1.0078250   1.0078250   1.0078250   1.0078250   1.0078250  12.0000000
 NucSpn=           0           0           0           0           1           1           1           1           1           0
 AtZEff=   0.0000000   0.0000000   0.0000000   0.0000000   0.0000000   0.0000000   0.0000000   0.0000000   0.0000000   0.0000000
 NQMom=    0.0000000   0.0000000   0.0000000   0.0000000   0.0000000   0.0000000   0.0000000   0.0000000   0.0000000   0.0000000
 NMagM=    0.0000000   0.0000000   0.0000000   0.0000000   2.7928460   2.7928460   2.7928460   2.7928460   2.7928460   0.0000000
 AtZNuc=   6.0000000   6.0000000   8.0000000   8.0000000   1.0000000   1.0000000   1.0000000   1.0000000   1.0000000   6.0000000

  Atom        11          12          13          14          15          16          17
 IAtWgt=          12           1           1           1           1           1           1
 AtmWgt=  12.0000000   1.0078250   1.0078250   1.0078250   1.0078250   1.0078250   1.0078250
 NucSpn=           0           1           1           1           1           1           1
 AtZEff=   0.0000000   0.0000000   0.0000000   0.0000000   0.0000000   0.0000000   0.0000000
 NQMom=    0.0000000   0.0000000   0.0000000   0.0000000   0.0000000   0.0000000   0.0000000
 NMagM=    0.0000000   2.7928460   2.7928460   2.7928460   2.7928460   2.7928460   2.7928460
 AtZNuc=   6.0000000   1.0000000   1.0000000   1.0000000   1.0000000   1.0000000   1.0000000
 Leave Link  101 at Wed Sep 15 12:58:04 2021, MaxMem=   805306368 cpu:         0.3
 (Enter /Local/ce_dana/g09/l103.exe)

 GradGradGradGradGradGradGradGradGradGradGradGradGradGradGradGradGradGrad
 Berny optimization.
 Initialization pass.
                           ----------------------------
                           !    Initial Parameters    !
                           ! (Angstroms and Degrees)  !
 --------------------------                            --------------------------
 ! Name  Definition              Value          Derivative Info.                !
 --------------------------------------------------------------------------------
 ! R1    R(1,2)                  1.517          calculate D2E/DX2 analytically  !
 ! R2    R(1,5)                  1.1005         calculate D2E/DX2 analytically  !
 ! R3    R(1,6)                  1.0988         calculate D2E/DX2 analytically  !
 ! R4    R(1,7)                  1.0999         calculate D2E/DX2 analytically  !
 ! R5    R(2,3)                  1.4161         calculate D2E/DX2 analytically  !
 ! R6    R(2,8)                  1.1006         calculate D2E/DX2 analytically  !
 ! R7    R(2,9)                  1.1033         calculate D2E/DX2 analytically  !
 ! R8    R(3,4)                  1.3782         calculate D2E/DX2 analytically  !
 ! R9    R(4,15)                 1.1493         calculate D2E/DX2 analytically  !
 ! R10   R(10,11)                1.4991         calculate D2E/DX2 analytically  !
 ! R11   R(10,12)                1.105          calculate D2E/DX2 analytically  !
 ! R12   R(10,13)                1.0994         calculate D2E/DX2 analytically  !
 ! R13   R(10,14)                1.1008         calculate D2E/DX2 analytically  !
 ! R14   R(11,15)                1.3768         calculate D2E/DX2 analytically  !
 ! R15   R(11,16)                1.0979         calculate D2E/DX2 analytically  !
 ! R16   R(11,17)                1.0978         calculate D2E/DX2 analytically  !
 ! A1    A(2,1,5)              111.0729         calculate D2E/DX2 analytically  !
 ! A2    A(2,1,6)              110.5854         calculate D2E/DX2 analytically  !
 ! A3    A(2,1,7)              110.0055         calculate D2E/DX2 analytically  !
 ! A4    A(5,1,6)              108.7798         calculate D2E/DX2 analytically  !
 ! A5    A(5,1,7)              108.2785         calculate D2E/DX2 analytically  !
 ! A6    A(6,1,7)              108.0327         calculate D2E/DX2 analytically  !
 ! A7    A(1,2,3)              113.756          calculate D2E/DX2 analytically  !
 ! A8    A(1,2,8)              111.1551         calculate D2E/DX2 analytically  !
 ! A9    A(1,2,9)              110.9327         calculate D2E/DX2 analytically  !
 ! A10   A(3,2,8)              103.4098         calculate D2E/DX2 analytically  !
 ! A11   A(3,2,9)              109.0469         calculate D2E/DX2 analytically  !
 ! A12   A(8,2,9)              108.165          calculate D2E/DX2 analytically  !
 ! A13   A(2,3,4)              109.6398         calculate D2E/DX2 analytically  !
 ! A14   A(3,4,15)             105.0856         calculate D2E/DX2 analytically  !
 ! A15   A(11,10,12)           111.0046         calculate D2E/DX2 analytically  !
 ! A16   A(11,10,13)           111.5266         calculate D2E/DX2 analytically  !
 ! A17   A(11,10,14)           111.171          calculate D2E/DX2 analytically  !
 ! A18   A(12,10,13)           107.7578         calculate D2E/DX2 analytically  !
 ! A19   A(12,10,14)           107.5015         calculate D2E/DX2 analytically  !
 ! A20   A(13,10,14)           107.6961         calculate D2E/DX2 analytically  !
 ! A21   A(10,11,15)           104.2003         calculate D2E/DX2 analytically  !
 ! A22   A(10,11,16)           116.2727         calculate D2E/DX2 analytically  !
 ! A23   A(10,11,17)           116.6804         calculate D2E/DX2 analytically  !
 ! A24   A(15,11,16)           102.6754         calculate D2E/DX2 analytically  !
 ! A25   A(15,11,17)           101.3598         calculate D2E/DX2 analytically  !
 ! A26   A(16,11,17)           112.8208         calculate D2E/DX2 analytically  !
 ! A27   L(4,15,11,1,-1)       178.6683         calculate D2E/DX2 analytically  !
 ! A28   L(4,15,11,1,-2)       186.5221         calculate D2E/DX2 analytically  !
 ! D1    D(5,1,2,3)             57.0388         calculate D2E/DX2 analytically  !
 ! D2    D(5,1,2,8)            -59.1937         calculate D2E/DX2 analytically  !
 ! D3    D(5,1,2,9)           -179.5868         calculate D2E/DX2 analytically  !
 ! D4    D(6,1,2,3)            -63.8423         calculate D2E/DX2 analytically  !
 ! D5    D(6,1,2,8)            179.9252         calculate D2E/DX2 analytically  !
 ! D6    D(6,1,2,9)             59.5321         calculate D2E/DX2 analytically  !
 ! D7    D(7,1,2,3)            176.9057         calculate D2E/DX2 analytically  !
 ! D8    D(7,1,2,8)             60.6732         calculate D2E/DX2 analytically  !
 ! D9    D(7,1,2,9)            -59.7199         calculate D2E/DX2 analytically  !
 ! D10   D(1,2,3,4)             68.256          calculate D2E/DX2 analytically  !
 ! D11   D(8,2,3,4)           -171.0608         calculate D2E/DX2 analytically  !
 ! D12   D(9,2,3,4)            -56.1399         calculate D2E/DX2 analytically  !
 ! D13   D(2,3,4,15)          -101.4995         calculate D2E/DX2 analytically  !
 ! D14   D(3,4,11,10)          -35.9384         calculate D2E/DX2 analytically  !
 ! D15   D(3,4,11,16)           84.9598         calculate D2E/DX2 analytically  !
 ! D16   D(3,4,11,17)         -157.127          calculate D2E/DX2 analytically  !
 ! D17   D(12,10,11,15)        173.5088         calculate D2E/DX2 analytically  !
 ! D18   D(12,10,11,16)         61.3403         calculate D2E/DX2 analytically  !
 ! D19   D(12,10,11,17)        -75.7255         calculate D2E/DX2 analytically  !
 ! D20   D(13,10,11,15)        -66.3157         calculate D2E/DX2 analytically  !
 ! D21   D(13,10,11,16)       -178.4842         calculate D2E/DX2 analytically  !
 ! D22   D(13,10,11,17)         44.45           calculate D2E/DX2 analytically  !
 ! D23   D(14,10,11,15)         53.8947         calculate D2E/DX2 analytically  !
 ! D24   D(14,10,11,16)        -58.2738         calculate D2E/DX2 analytically  !
 ! D25   D(14,10,11,17)        164.6604         calculate D2E/DX2 analytically  !
 --------------------------------------------------------------------------------
 Trust Radius=5.00D-02 FncErr=1.00D-07 GrdErr=1.00D-06
 Number of steps in this run=    100 maximum allowed number of steps=    102.
 Search for a saddle point of order  1.
 GradGradGradGradGradGradGradGradGradGradGradGradGradGradGradGradGradGrad

 Leave Link  103 at Wed Sep 15 12:58:04 2021, MaxMem=   805306368 cpu:         0.0
 (Enter /Local/ce_dana/g09/l202.exe)
                          Input orientation:                          
 ---------------------------------------------------------------------
 Center     Atomic      Atomic             Coordinates (Angstroms)
 Number     Number       Type             X           Y           Z
 ---------------------------------------------------------------------
      1          6           0        1.836608    0.797778   -0.031633
      2          6           0        0.650444    1.740891   -0.100367
      3          8           0       -0.593234    1.082670   -0.259719
      4          8           0       -0.895005    0.378876    0.886133
      5          1           0        1.887880    0.160534   -0.927380
      6          1           0        1.767829    0.154586    0.856599
      7          1           0        2.771513    1.373298    0.036285
      8          1           0        0.710615    2.390868   -0.986496
      9          1           0        0.605487    2.383647    0.795254
     10          6           0       -0.779965   -1.982343   -1.235505
     11          6           0       -0.353316   -1.987288    0.201546
     12          1           0       -0.494295   -2.924783   -1.736731
     13          1           0       -1.869052   -1.867688   -1.332581
     14          1           0       -0.306010   -1.156651   -1.788085
     15          1           0       -0.636963   -0.714247    0.642449
     16          1           0        0.725301   -2.072059    0.387963
     17          1           0       -0.953704   -2.594010    0.891905
 ---------------------------------------------------------------------
                    Distance matrix (angstroms):
                    1          2          3          4          5
     1  C    0.000000
     2  C    1.516961   0.000000
     3  O    2.457096   1.416115   0.000000
     4  O    2.911955   2.284005   1.378176   0.000000
     5  H    1.100487   2.170882   2.729841   3.328806   0.000000
     6  H    1.098810   2.163492   2.771665   2.672426   1.788024
     7  H    1.099947   2.157019   3.390222   3.892874   1.783327
     8  H    2.171994   1.100598   1.984845   3.183216   2.522665
     9  H    2.171263   1.103310   2.059719   2.505762   3.090992
    10  C    4.003103   4.146936   3.222007   3.176466   3.435733
    11  C    3.550596   3.872726   3.113674   2.522066   3.303116
    12  H    4.711468   5.075099   4.272123   4.237233   3.981079
    13  H    4.746482   4.570345   3.388710   3.304317   4.288637
    14  H    3.390535   3.486968   2.726345   3.139459   2.699804
    15  H    2.976434   2.869999   2.011151   1.149298   3.099103
    16  H    3.105967   3.844822   3.479992   2.980041   2.840104
    17  H    4.488094   4.727501   3.869645   2.973471   4.355676
                    6          7          8          9         10
     6  H    0.000000
     7  H    1.779201   0.000000
     8  H    3.084746   2.515717   0.000000
     9  H    2.514660   2.507690   1.784863   0.000000
    10  C    3.928692   5.048839   4.626965   5.010522   0.000000
    11  C    3.084797   4.591885   4.659575   4.514074   1.499056
    12  H    4.617909   5.681777   5.501891   5.983302   1.105001
    13  H    4.702021   5.823455   4.990967   5.359559   1.099400
    14  H    3.607562   4.381794   3.776369   4.476402   1.100793
    15  H    2.565883   4.042646   3.756483   3.341254   2.270513
    16  H    2.502885   4.022579   4.669804   4.475886   2.215744
    17  H    3.868174   5.508980   5.580982   5.217038   2.220404
                   11         12         13         14         15
    11  C    0.000000
    12  H    2.157705   0.000000
    13  H    2.159932   1.780658   0.000000
    14  H    2.156578   1.778870   1.776558   0.000000
    15  H    1.376766   3.250742   2.597925   2.492538   0.000000
    16  H    1.097885   2.594008   3.119729   2.576191   1.940149
    17  H    1.097804   2.688902   2.512716   3.109317   1.922515
                   16         17
    16  H    0.000000
    17  H    1.829057   0.000000
 Stoichiometry    C4H11O2(2)
 Framework group  C1[X(C4H11O2)]
 Deg. of freedom    45
 Full point group                 C1      NOp   1
 Largest Abelian subgroup         C1      NOp   1
 Largest concise Abelian subgroup C1      NOp   1
                         Standard orientation:                         
 ---------------------------------------------------------------------
 Center     Atomic      Atomic             Coordinates (Angstroms)
 Number     Number       Type             X           Y           Z
 ---------------------------------------------------------------------
      1          6           0        1.503568    1.312417   -0.238552
      2          6           0        1.861484   -0.055851    0.309999
      3          8           0        0.738968   -0.883587    0.555342
      4          8           0        0.152648   -1.235598   -0.641189
      5          1           0        0.816456    1.842633    0.438073
      6          1           0        1.028169    1.220930   -1.224964
      7          1           0        2.412427    1.921179   -0.353736
      8          1           0        2.339814    0.024973    1.297917
      9          1           0        2.556111   -0.582359   -0.366444
     10          6           0       -2.245353    0.315353    0.749524
     11          6           0       -1.862271    0.280165   -0.699331
     12          1           0       -3.053541    1.047511    0.927859
     13          1           0       -2.599041   -0.665816    1.097220
     14          1           0       -1.390761    0.605556    1.379762
     15          1           0       -0.764223   -0.549447   -0.738295
     16          1           0       -1.472584    1.215576   -1.121826
     17          1           0       -2.550315   -0.239757   -1.378632
 ---------------------------------------------------------------------
 Rotational constants (GHZ):      4.6180499      1.9112007      1.6890348
 Leave Link  202 at Wed Sep 15 12:58:04 2021, MaxMem=   805306368 cpu:         0.0
 (Enter /Local/ce_dana/g09/l301.exe)
 Standard basis: 6-311G(2d,d,p) (5D, 7F)
 Ernie: Thresh=  0.10000D-02 Tol=  0.10000D-05 Strict=F.
 There are   180 symmetry adapted cartesian basis functions of A   symmetry.
 There are   174 symmetry adapted basis functions of A   symmetry.
   174 basis functions,   280 primitive gaussians,   180 cartesian basis functions
    26 alpha electrons       25 beta electrons
       nuclear repulsion energy       260.1004920659 Hartrees.
 IExCor=  402 DFT=T Ex+Corr=B3LYP ExCW=0 ScaHFX=  0.200000
 ScaDFX=  0.800000  0.720000  1.000000  0.810000 ScalE2=  1.000000  1.000000
 IRadAn=      5 IRanWt=     -1 IRanGd=            0 ICorTp=0 IEmpDi=  4
 NAtoms=   17 NActive=   17 NUniq=   17 SFac= 1.00D+00 NAtFMM=   60 NAOKFM=F Big=F
 Integral buffers will be    131072 words long.
 Raffenetti 2 integral format.
 Two-electron integral symmetry is turned on.
 Leave Link  301 at Wed Sep 15 12:58:04 2021, MaxMem=   805306368 cpu:         0.0
 (Enter /Local/ce_dana/g09/l302.exe)
 NPDir=0 NMtPBC=     1 NCelOv=     1 NCel=       1 NClECP=     1 NCelD=      1
         NCelK=      1 NCelE2=     1 NClLst=     1 CellRange=     0.0.
 One-electron integrals computed using PRISM.
 NBasis=   174 RedAO= T EigKep=  2.64D-03  NBF=   174
 NBsUse=   174 1.00D-06 EigRej= -1.00D+00 NBFU=   174
 Precomputing XC quadrature grid using
 IXCGrd= 4 IRadAn=           5 IRanWt=          -1 IRanGd=           0 AccXCQ= 0.00D+00.
 Generated NRdTot=       0 NPtTot=           0 NUsed=           0 NTot=          32
 NSgBfM=   180   180   180   180   180 MxSgAt=    17 MxSgA2=    17.
 Leave Link  302 at Wed Sep 15 12:58:04 2021, MaxMem=   805306368 cpu:         1.4
 (Enter /Local/ce_dana/g09/l303.exe)
 DipDrv:  MaxL=1.
 Leave Link  303 at Wed Sep 15 12:58:04 2021, MaxMem=   805306368 cpu:         0.1
 (Enter /Local/ce_dana/g09/l401.exe)
 Initial guess from the checkpoint file:  "check.chk"
 B after Tr=     0.000000   -0.000000   -0.000000
         Rot=    0.008114    0.033444    0.998280    0.047463 Ang= 179.07 deg.
 Guess basis will be translated and rotated to current coordinates.
 JPrj=2 DoOrth=T DoCkMO=T.
 Initial guess <Sx>= 0.0000 <Sy>= 0.0000 <Sz>= 0.5000 <S**2>= 0.8512 S= 0.5494
 Leave Link  401 at Wed Sep 15 12:58:04 2021, MaxMem=   805306368 cpu:         0.6
 (Enter /Local/ce_dana/g09/l502.exe)
 UHF open shell SCF:
 Using DIIS extrapolation, IDIIS=  1040.
 Integral symmetry usage will be decided dynamically.
 Keep R1 and R2 ints in memory in canonical form, NReq=234886574.
 IVT=      105944 IEndB=      105944 NGot=   805306368 MDV=   573384575
 LenX=   573384575 LenY=   573351734
 Requested convergence on RMS density matrix=1.00D-08 within  64 cycles.
 Requested convergence on MAX density matrix=1.00D-06.
 Requested convergence on             energy=1.00D-06.
 No special actions if energy rises.
 FoFCou: FMM=F IPFlag=           0 FMFlag=           0 FMFlg1=           0
         NFxFlg=           0 DoJE=F BraDBF=F KetDBF=F FulRan=T
         wScrn=  0.000000 ICntrl=     600 IOpCl=  0 I1Cent=           0 NGrid=           0
         NMat0=    1 NMatS0=  15225 NMatT0=    0 NMatD0=    1 NMtDS0=    0 NMtDT0=    0
 Symmetry not used in FoFCou.

 Cycle   1  Pass 1  IDiag  1:
 E= -304.952895426850    
 DIIS: error= 5.99D-02 at cycle   1 NSaved=   1.
 NSaved= 1 IEnMin= 1 EnMin= -304.952895426850     IErMin= 1 ErrMin= 5.99D-02
 ErrMax= 5.99D-02  0.00D+00 EMaxC= 1.00D-01 BMatC= 4.58D+00 BMatP= 4.58D+00
 IDIUse=3 WtCom= 4.01D-01 WtEn= 5.99D-01
 Coeff-Com:  0.100D+01
 Coeff-En:   0.100D+01
 Coeff:      0.100D+01
 Gap=     2.472 Goal=   None    Shift=    0.000
 Gap=     2.526 Goal=   None    Shift=    0.000
 GapD=    2.472 DampG=2.000 DampE=0.500 DampFc=1.0000 IDamp=-1.
 RMSDP=1.45D-02 MaxDP=3.41D-01              OVMax= 8.68D-01

 Cycle   2  Pass 1  IDiag  1:
 E= -309.248037110139     Delta-E=       -4.295141683289 Rises=F Damp=F
 DIIS: error= 3.96D-02 at cycle   2 NSaved=   2.
 NSaved= 2 IEnMin= 2 EnMin= -309.248037110139     IErMin= 2 ErrMin= 3.96D-02
 ErrMax= 3.96D-02  0.00D+00 EMaxC= 1.00D-01 BMatC= 6.76D-01 BMatP= 4.58D+00
 IDIUse=3 WtCom= 6.04D-01 WtEn= 3.96D-01
 Coeff-Com:  0.128D+00 0.872D+00
 Coeff-En:   0.000D+00 0.100D+01
 Coeff:      0.773D-01 0.923D+00
 Gap=     0.318 Goal=   None    Shift=    0.000
 Gap=     0.109 Goal=   None    Shift=    0.000
 RMSDP=3.37D-03 MaxDP=1.38D-01 DE=-4.30D+00 OVMax= 3.72D-01

 Cycle   3  Pass 1  IDiag  1:
 E= -309.185932308924     Delta-E=        0.062104801215 Rises=F Damp=F
 DIIS: error= 4.54D-02 at cycle   3 NSaved=   3.
 NSaved= 3 IEnMin= 2 EnMin= -309.248037110139     IErMin= 2 ErrMin= 3.96D-02
 ErrMax= 4.54D-02  0.00D+00 EMaxC= 1.00D-01 BMatC= 9.79D-01 BMatP= 6.76D-01
 IDIUse=2 WtCom= 0.00D+00 WtEn= 1.00D+00
 Coeff-En:   0.000D+00 0.575D+00 0.425D+00
 Coeff:      0.000D+00 0.575D+00 0.425D+00
 Gap=     0.342 Goal=   None    Shift=    0.000
 Gap=     0.140 Goal=   None    Shift=    0.000
 RMSDP=2.10D-03 MaxDP=7.06D-02 DE= 6.21D-02 OVMax= 2.64D-01

 Cycle   4  Pass 1  IDiag  1:
 E= -309.403696856535     Delta-E=       -0.217764547611 Rises=F Damp=F
 DIIS: error= 9.58D-03 at cycle   4 NSaved=   4.
 NSaved= 4 IEnMin= 4 EnMin= -309.403696856535     IErMin= 4 ErrMin= 9.58D-03
 ErrMax= 9.58D-03  0.00D+00 EMaxC= 1.00D-01 BMatC= 8.02D-02 BMatP= 6.76D-01
 IDIUse=3 WtCom= 9.04D-01 WtEn= 9.58D-02
 Coeff-Com: -0.902D-02 0.300D+00 0.268D+00 0.440D+00
 Coeff-En:   0.000D+00 0.000D+00 0.000D+00 0.100D+01
 Coeff:     -0.816D-02 0.272D+00 0.243D+00 0.494D+00
 Gap=     0.266 Goal=   None    Shift=    0.000
 Gap=     0.148 Goal=   None    Shift=    0.000
 RMSDP=7.12D-04 MaxDP=2.27D-02 DE=-2.18D-01 OVMax= 7.86D-02

 Cycle   5  Pass 1  IDiag  1:
 E= -309.417420919160     Delta-E=       -0.013724062625 Rises=F Damp=F
 DIIS: error= 3.48D-03 at cycle   5 NSaved=   5.
 NSaved= 5 IEnMin= 5 EnMin= -309.417420919160     IErMin= 5 ErrMin= 3.48D-03
 ErrMax= 3.48D-03  0.00D+00 EMaxC= 1.00D-01 BMatC= 1.27D-02 BMatP= 8.02D-02
 IDIUse=3 WtCom= 9.65D-01 WtEn= 3.48D-02
 Coeff-Com: -0.280D-02 0.324D-02 0.122D-01 0.279D+00 0.708D+00
 Coeff-En:   0.000D+00 0.000D+00 0.000D+00 0.120D+00 0.880D+00
 Coeff:     -0.271D-02 0.313D-02 0.118D-01 0.273D+00 0.714D+00
 Gap=     0.266 Goal=   None    Shift=    0.000
 Gap=     0.150 Goal=   None    Shift=    0.000
 RMSDP=2.29D-04 MaxDP=7.33D-03 DE=-1.37D-02 OVMax= 1.30D-02

 Cycle   6  Pass 1  IDiag  1:
 E= -309.419700231148     Delta-E=       -0.002279311988 Rises=F Damp=F
 DIIS: error= 1.51D-03 at cycle   6 NSaved=   6.
 NSaved= 6 IEnMin= 6 EnMin= -309.419700231148     IErMin= 6 ErrMin= 1.51D-03
 ErrMax= 1.51D-03  0.00D+00 EMaxC= 1.00D-01 BMatC= 1.30D-03 BMatP= 1.27D-02
 IDIUse=3 WtCom= 9.85D-01 WtEn= 1.51D-02
 Coeff-Com: -0.124D-02-0.139D-01-0.911D-02 0.119D+00 0.379D+00 0.526D+00
 Coeff-En:   0.000D+00 0.000D+00 0.000D+00 0.000D+00 0.000D+00 0.100D+01
 Coeff:     -0.122D-02-0.136D-01-0.897D-02 0.117D+00 0.373D+00 0.533D+00
 Gap=     0.267 Goal=   None    Shift=    0.000
 Gap=     0.153 Goal=   None    Shift=    0.000
 RMSDP=9.83D-05 MaxDP=3.11D-03 DE=-2.28D-03 OVMax= 7.58D-03

 Cycle   7  Pass 1  IDiag  1:
 E= -309.419956911383     Delta-E=       -0.000256680235 Rises=F Damp=F
 DIIS: error= 5.03D-04 at cycle   7 NSaved=   7.
 NSaved= 7 IEnMin= 7 EnMin= -309.419956911383     IErMin= 7 ErrMin= 5.03D-04
 ErrMax= 5.03D-04  0.00D+00 EMaxC= 1.00D-01 BMatC= 2.86D-04 BMatP= 1.30D-03
 IDIUse=3 WtCom= 9.95D-01 WtEn= 5.03D-03
 Coeff-Com: -0.187D-04-0.118D-01-0.127D-01-0.536D-02 0.323D-01 0.309D+00
 Coeff-Com:  0.688D+00
 Coeff-En:   0.000D+00 0.000D+00 0.000D+00 0.000D+00 0.000D+00 0.624D-01
 Coeff-En:   0.938D+00
 Coeff:     -0.186D-04-0.117D-01-0.126D-01-0.534D-02 0.321D-01 0.308D+00
 Coeff:      0.689D+00
 Gap=     0.266 Goal=   None    Shift=    0.000
 Gap=     0.152 Goal=   None    Shift=    0.000
 RMSDP=4.77D-05 MaxDP=1.55D-03 DE=-2.57D-04 OVMax= 4.67D-03

 Cycle   8  Pass 1  IDiag  1:
 E= -309.420023298363     Delta-E=       -0.000066386980 Rises=F Damp=F
 DIIS: error= 2.57D-04 at cycle   8 NSaved=   8.
 NSaved= 8 IEnMin= 8 EnMin= -309.420023298363     IErMin= 8 ErrMin= 2.57D-04
 ErrMax= 2.57D-04  0.00D+00 EMaxC= 1.00D-01 BMatC= 5.46D-05 BMatP= 2.86D-04
 IDIUse=3 WtCom= 9.97D-01 WtEn= 2.57D-03
 Coeff-Com:  0.139D-03-0.242D-02-0.372D-02-0.231D-01-0.569D-01 0.297D-01
 Coeff-Com:  0.358D+00 0.698D+00
 Coeff-En:   0.000D+00 0.000D+00 0.000D+00 0.000D+00 0.000D+00 0.000D+00
 Coeff-En:   0.000D+00 0.100D+01
 Coeff:      0.139D-03-0.241D-02-0.371D-02-0.231D-01-0.567D-01 0.296D-01
 Coeff:      0.357D+00 0.699D+00
 Gap=     0.266 Goal=   None    Shift=    0.000
 Gap=     0.153 Goal=   None    Shift=    0.000
 RMSDP=2.32D-05 MaxDP=6.66D-04 DE=-6.64D-05 OVMax= 1.44D-03

 Cycle   9  Pass 1  IDiag  1:
 E= -309.420037041345     Delta-E=       -0.000013742982 Rises=F Damp=F
 DIIS: error= 9.26D-05 at cycle   9 NSaved=   9.
 NSaved= 9 IEnMin= 9 EnMin= -309.420037041345     IErMin= 9 ErrMin= 9.26D-05
 ErrMax= 9.26D-05  0.00D+00 EMaxC= 1.00D-01 BMatC= 6.63D-06 BMatP= 5.46D-05
 IDIUse=1 WtCom= 1.00D+00 WtEn= 0.00D+00
 Coeff-Com:  0.105D-04 0.648D-03 0.380D-03-0.895D-02-0.296D-01-0.367D-01
 Coeff-Com:  0.490D-01 0.331D+00 0.694D+00
 Coeff:      0.105D-04 0.648D-03 0.380D-03-0.895D-02-0.296D-01-0.367D-01
 Coeff:      0.490D-01 0.331D+00 0.694D+00
 Gap=     0.266 Goal=   None    Shift=    0.000
 Gap=     0.153 Goal=   None    Shift=    0.000
 RMSDP=6.92D-06 MaxDP=2.70D-04 DE=-1.37D-05 OVMax= 5.31D-04

 Cycle  10  Pass 1  IDiag  1:
 E= -309.420038982101     Delta-E=       -0.000001940756 Rises=F Damp=F
 DIIS: error= 2.16D-05 at cycle  10 NSaved=  10.
 NSaved=10 IEnMin=10 EnMin= -309.420038982101     IErMin=10 ErrMin= 2.16D-05
 ErrMax= 2.16D-05  0.00D+00 EMaxC= 1.00D-01 BMatC= 4.12D-07 BMatP= 6.63D-06
 IDIUse=1 WtCom= 1.00D+00 WtEn= 0.00D+00
 Coeff-Com: -0.142D-04 0.378D-03 0.522D-03 0.354D-03-0.132D-02-0.141D-01
 Coeff-Com: -0.333D-01 0.149D-01 0.203D+00 0.830D+00
 Coeff:     -0.142D-04 0.378D-03 0.522D-03 0.354D-03-0.132D-02-0.141D-01
 Coeff:     -0.333D-01 0.149D-01 0.203D+00 0.830D+00
 Gap=     0.266 Goal=   None    Shift=    0.000
 Gap=     0.153 Goal=   None    Shift=    0.000
 RMSDP=2.48D-06 MaxDP=9.73D-05 DE=-1.94D-06 OVMax= 3.62D-04

 Cycle  11  Pass 1  IDiag  1:
 E= -309.420039145061     Delta-E=       -0.000000162960 Rises=F Damp=F
 DIIS: error= 1.02D-05 at cycle  11 NSaved=  11.
 NSaved=11 IEnMin=11 EnMin= -309.420039145061     IErMin=11 ErrMin= 1.02D-05
 ErrMax= 1.02D-05  0.00D+00 EMaxC= 1.00D-01 BMatC= 5.16D-08 BMatP= 4.12D-07
 IDIUse=1 WtCom= 1.00D+00 WtEn= 0.00D+00
 Coeff-Com: -0.577D-05 0.255D-04 0.518D-04 0.124D-02 0.265D-02-0.625D-03
 Coeff-Com: -0.102D-01-0.322D-01-0.232D-01 0.171D+00 0.892D+00
 Coeff:     -0.577D-05 0.255D-04 0.518D-04 0.124D-02 0.265D-02-0.625D-03
 Coeff:     -0.102D-01-0.322D-01-0.232D-01 0.171D+00 0.892D+00
 Gap=     0.266 Goal=   None    Shift=    0.000
 Gap=     0.153 Goal=   None    Shift=    0.000
 RMSDP=1.01D-06 MaxDP=3.65D-05 DE=-1.63D-07 OVMax= 1.10D-04

 Cycle  12  Pass 1  IDiag  1:
 E= -309.420039168226     Delta-E=       -0.000000023166 Rises=F Damp=F
 DIIS: error= 2.86D-06 at cycle  12 NSaved=  12.
 NSaved=12 IEnMin=12 EnMin= -309.420039168226     IErMin=12 ErrMin= 2.86D-06
 ErrMax= 2.86D-06  0.00D+00 EMaxC= 1.00D-01 BMatC= 1.01D-08 BMatP= 5.16D-08
 IDIUse=1 WtCom= 1.00D+00 WtEn= 0.00D+00
 Coeff-Com: -0.993D-06-0.363D-04-0.594D-04 0.484D-03 0.111D-02 0.103D-02
 Coeff-Com:  0.108D-02-0.136D-01-0.335D-01-0.553D-01 0.313D+00 0.786D+00
 Coeff:     -0.993D-06-0.363D-04-0.594D-04 0.484D-03 0.111D-02 0.103D-02
 Coeff:      0.108D-02-0.136D-01-0.335D-01-0.553D-01 0.313D+00 0.786D+00
 Gap=     0.266 Goal=   None    Shift=    0.000
 Gap=     0.153 Goal=   None    Shift=    0.000
 RMSDP=4.29D-07 MaxDP=1.03D-05 DE=-2.32D-08 OVMax= 5.56D-05

 Cycle  13  Pass 1  IDiag  1:
 E= -309.420039172106     Delta-E=       -0.000000003879 Rises=F Damp=F
 DIIS: error= 1.51D-06 at cycle  13 NSaved=  13.
 NSaved=13 IEnMin=13 EnMin= -309.420039172106     IErMin=13 ErrMin= 1.51D-06
 ErrMax= 1.51D-06  0.00D+00 EMaxC= 1.00D-01 BMatC= 1.52D-09 BMatP= 1.01D-08
 IDIUse=1 WtCom= 1.00D+00 WtEn= 0.00D+00
 Coeff-Com:  0.422D-06-0.181D-04-0.339D-04 0.443D-04 0.791D-04 0.445D-03
 Coeff-Com:  0.192D-02-0.893D-03-0.986D-02-0.487D-01-0.191D-01 0.305D+00
 Coeff-Com:  0.771D+00
 Coeff:      0.422D-06-0.181D-04-0.339D-04 0.443D-04 0.791D-04 0.445D-03
 Coeff:      0.192D-02-0.893D-03-0.986D-02-0.487D-01-0.191D-01 0.305D+00
 Coeff:      0.771D+00
 Gap=     0.266 Goal=   None    Shift=    0.000
 Gap=     0.153 Goal=   None    Shift=    0.000
 RMSDP=1.71D-07 MaxDP=4.54D-06 DE=-3.88D-09 OVMax= 2.44D-05

 Cycle  14  Pass 1  IDiag  1:
 E= -309.420039172780     Delta-E=       -0.000000000674 Rises=F Damp=F
 DIIS: error= 3.28D-07 at cycle  14 NSaved=  14.
 NSaved=14 IEnMin=14 EnMin= -309.420039172780     IErMin=14 ErrMin= 3.28D-07
 ErrMax= 3.28D-07  0.00D+00 EMaxC= 1.00D-01 BMatC= 8.66D-11 BMatP= 1.52D-09
 IDIUse=1 WtCom= 1.00D+00 WtEn= 0.00D+00
 Coeff-Com:  0.248D-06 0.100D-05 0.245D-05-0.540D-04-0.139D-03-0.843D-04
 Coeff-Com:  0.862D-04 0.168D-02 0.326D-02 0.123D-02-0.431D-01-0.606D-01
 Coeff-Com:  0.861D-01 0.101D+01
 Coeff:      0.248D-06 0.100D-05 0.245D-05-0.540D-04-0.139D-03-0.843D-04
 Coeff:      0.862D-04 0.168D-02 0.326D-02 0.123D-02-0.431D-01-0.606D-01
 Coeff:      0.861D-01 0.101D+01
 Gap=     0.266 Goal=   None    Shift=    0.000
 Gap=     0.153 Goal=   None    Shift=    0.000
 RMSDP=7.24D-08 MaxDP=2.27D-06 DE=-6.74D-10 OVMax= 1.16D-05

 Cycle  15  Pass 1  IDiag  1:
 E= -309.420039172856     Delta-E=       -0.000000000076 Rises=F Damp=F
 DIIS: error= 1.12D-07 at cycle  15 NSaved=  15.
 NSaved=15 IEnMin=15 EnMin= -309.420039172856     IErMin=15 ErrMin= 1.12D-07
 ErrMax= 1.12D-07  0.00D+00 EMaxC= 1.00D-01 BMatC= 1.01D-11 BMatP= 8.66D-11
 IDIUse=1 WtCom= 1.00D+00 WtEn= 0.00D+00
 Coeff-Com:  0.510D-08 0.157D-05 0.385D-05-0.858D-05-0.115D-04-0.515D-04
 Coeff-Com: -0.217D-03 0.207D-03 0.128D-02 0.539D-02-0.125D-02-0.354D-01
 Coeff-Com: -0.784D-01 0.730D-01 0.104D+01
 Coeff:      0.510D-08 0.157D-05 0.385D-05-0.858D-05-0.115D-04-0.515D-04
 Coeff:     -0.217D-03 0.207D-03 0.128D-02 0.539D-02-0.125D-02-0.354D-01
 Coeff:     -0.784D-01 0.730D-01 0.104D+01
 Gap=     0.266 Goal=   None    Shift=    0.000
 Gap=     0.153 Goal=   None    Shift=    0.000
 RMSDP=2.66D-08 MaxDP=9.09D-07 DE=-7.59D-11 OVMax= 4.39D-06

 Cycle  16  Pass 1  IDiag  1:
 E= -309.420039172871     Delta-E=       -0.000000000015 Rises=F Damp=F
 DIIS: error= 4.89D-08 at cycle  16 NSaved=  16.
 NSaved=16 IEnMin=16 EnMin= -309.420039172871     IErMin=16 ErrMin= 4.89D-08
 ErrMax= 4.89D-08  0.00D+00 EMaxC= 1.00D-01 BMatC= 1.16D-12 BMatP= 1.01D-11
 IDIUse=1 WtCom= 1.00D+00 WtEn= 0.00D+00
 Coeff-Com: -0.787D-08 0.181D-06 0.134D-06 0.472D-05 0.137D-04 0.319D-05
 Coeff-Com: -0.245D-04-0.158D-03-0.235D-03 0.318D-03 0.466D-02 0.304D-02
 Coeff-Com: -0.160D-01-0.119D+00 0.134D+00 0.993D+00
 Coeff:     -0.787D-08 0.181D-06 0.134D-06 0.472D-05 0.137D-04 0.319D-05
 Coeff:     -0.245D-04-0.158D-03-0.235D-03 0.318D-03 0.466D-02 0.304D-02
 Coeff:     -0.160D-01-0.119D+00 0.134D+00 0.993D+00
 Gap=     0.266 Goal=   None    Shift=    0.000
 Gap=     0.153 Goal=   None    Shift=    0.000
 RMSDP=9.28D-09 MaxDP=2.98D-07 DE=-1.52D-11 OVMax= 1.63D-06

 SCF Done:  E(UB3LYP) =  -309.420039173     A.U. after   16 cycles
            NFock= 16  Conv=0.93D-08     -V/T= 2.0037
 <Sx>= 0.0000 <Sy>= 0.0000 <Sz>= 0.5000 <S**2>= 0.7564 S= 0.5032
 <L.S>=  0.00000000000    
 KE= 3.082914198848D+02 PE=-1.243942690973D+03 EE= 3.661307398498D+02
 Annihilation of the first spin contaminant:
 S**2 before annihilation     0.7564,   after     0.7500
 Leave Link  502 at Wed Sep 15 12:58:54 2021, MaxMem=   805306368 cpu:       333.3
 (Enter /Local/ce_dana/g09/l508.exe)
 QCSCF skips out because SCF is already converged.
 Leave Link  508 at Wed Sep 15 12:58:54 2021, MaxMem=   805306368 cpu:         0.0
 (Enter /Local/ce_dana/g09/l801.exe)
 DoSCS=F DFT=T ScalE2(SS,OS)=  1.000000  1.000000
 Range of M.O.s used for correlation:     1   174
 NBasis=   174 NAE=    26 NBE=    25 NFC=     0 NFV=     0
 NROrb=    174 NOA=    26 NOB=    25 NVA=   148 NVB=   149
 Leave Link  801 at Wed Sep 15 12:58:54 2021, MaxMem=   805306368 cpu:         0.0
 (Enter /Local/ce_dana/g09/l1101.exe)
 Using compressed storage, NAtomX=    17.
 Will process     18 centers per pass.
 Leave Link 1101 at Wed Sep 15 12:58:54 2021, MaxMem=   805306368 cpu:         2.5
 (Enter /Local/ce_dana/g09/l1102.exe)
 Symmetrizing basis deriv contribution to polar:
 IMax=3 JMax=2 DiffMx= 0.00D+00
 Leave Link 1102 at Wed Sep 15 12:58:54 2021, MaxMem=   805306368 cpu:         0.1
 (Enter /Local/ce_dana/g09/l1110.exe)
 Forming Gx(P) for the SCF density, NAtomX=    17.
 Integral derivatives from FoFJK, PRISM(SPDF).
 Do as many integral derivatives as possible in FoFJK.
 G2DrvN: MDV=     805306128.
 G2DrvN: will do    18 centers at a time, making    1 passes.
 Calling FoFCou, ICntrl=  3107 FMM=F I1Cent=   0 AccDes= 1.00D-12.
 FoFJK:  IHMeth= 1 ICntrl=    3107 DoSepK=F KAlg= 0 I1Cent=   0 FoldK=F
 IRaf=         0 NMat=   1 IRICut=       1 DoRegI=T DoRafI=F ISym2E= 0.
 FoFCou: FMM=F IPFlag=           0 FMFlag=      100000 FMFlg1=           0
         NFxFlg=           0 DoJE=F BraDBF=F KetDBF=F FulRan=T
         wScrn=  0.000000 ICntrl=    3107 IOpCl=  1 I1Cent=           0 NGrid=           0
         NMat0=    1 NMatS0=      1 NMatT0=    0 NMatD0=    1 NMtDS0=    0 NMtDT0=    0
 Symmetry not used in FoFCou.
 End of G2Drv F.D. properties file   721 does not exist.
 End of G2Drv F.D. properties file   722 does not exist.
 End of G2Drv F.D. properties file   788 does not exist.
 Leave Link 1110 at Wed Sep 15 13:00:19 2021, MaxMem=   805306368 cpu:       678.2
 (Enter /Local/ce_dana/g09/l1002.exe)
 Minotr:  UHF open shell wavefunction.
          IDoAtm=11111111111111111
          Direct CPHF calculation.
          Differentiating once with respect to nuclear coordinates.
          Requested convergence is 1.0D-08 RMS, and 1.0D-07 maximum.
          Secondary convergence is 1.0D-12 RMS, and 1.0D-12 maximum.
          NewPWx=T KeepS1=F KeepF1=F KeepIn=T MapXYZ=F SortEE=F KeepMc=T.
          MDV=     805305846 using IRadAn=       1.
 Generate precomputed XC quadrature information.
 Keep R1 and R2 ints in memory in canonical form, NReq=234788009.
 FoFCou: FMM=F IPFlag=           0 FMFlag=           0 FMFlg1=           0
         NFxFlg=           0 DoJE=F BraDBF=F KetDBF=F FulRan=T
         wScrn=  0.000000 ICntrl=     600 IOpCl=  0 I1Cent=           0 NGrid=           0
         NMat0=    1 NMatS0=  15225 NMatT0=    0 NMatD0=    1 NMtDS0=    0 NMtDT0=    0
 Symmetry not used in FoFCou.
          Solving linear equations simultaneously, MaxMat=       0.
          There are    54 degrees of freedom in the 1st order CPHF.  IDoFFX=6 NUNeed=     0.
     48 vectors produced by pass  0 Test12= 1.40D-14 1.85D-09 XBig12= 2.02D-01 1.65D-01.
 AX will form    48 AO Fock derivatives at one time.
     48 vectors produced by pass  1 Test12= 1.40D-14 1.85D-09 XBig12= 2.05D-02 3.54D-02.
     48 vectors produced by pass  2 Test12= 1.40D-14 1.85D-09 XBig12= 3.64D-04 3.31D-03.
     48 vectors produced by pass  3 Test12= 1.40D-14 1.85D-09 XBig12= 2.73D-06 2.74D-04.
     48 vectors produced by pass  4 Test12= 1.40D-14 1.85D-09 XBig12= 1.62D-08 1.38D-05.
     48 vectors produced by pass  5 Test12= 1.40D-14 1.85D-09 XBig12= 5.64D-11 6.71D-07.
     21 vectors produced by pass  6 Test12= 1.40D-14 1.85D-09 XBig12= 1.52D-13 3.11D-08.
      1 vectors produced by pass  7 Test12= 1.40D-14 1.85D-09 XBig12= 6.52D-16 2.09D-09.
 InvSVY:  IOpt=1 It=  1 EMax= 5.00D-16
 Solved reduced A of dimension   310 with    54 vectors.
 End of Minotr F.D. properties file   721 does not exist.
 End of Minotr F.D. properties file   722 does not exist.
 End of Minotr F.D. properties file   788 does not exist.
 Leave Link 1002 at Wed Sep 15 13:01:52 2021, MaxMem=   805306368 cpu:       724.7
 (Enter /Local/ce_dana/g09/l601.exe)
 Copying SCF densities to generalized density rwf, IOpCl= 1 IROHF=0.

 **********************************************************************

            Population analysis using the SCF density.

 **********************************************************************

 Orbital symmetries:
 Alpha Orbitals:
       Occupied  (A) (A) (A) (A) (A) (A) (A) (A) (A) (A) (A) (A)
                 (A) (A) (A) (A) (A) (A) (A) (A) (A) (A) (A) (A)
                 (A) (A)
       Virtual   (A) (A) (A) (A) (A) (A) (A) (A) (A) (A) (A) (A)
                 (A) (A) (A) (A) (A) (A) (A) (A) (A) (A) (A) (A)
                 (A) (A) (A) (A) (A) (A) (A) (A) (A) (A) (A) (A)
                 (A) (A) (A) (A) (A) (A) (A) (A) (A) (A) (A) (A)
                 (A) (A) (A) (A) (A) (A) (A) (A) (A) (A) (A) (A)
                 (A) (A) (A) (A) (A) (A) (A) (A) (A) (A) (A) (A)
                 (A) (A) (A) (A) (A) (A) (A) (A) (A) (A) (A) (A)
                 (A) (A) (A) (A) (A) (A) (A) (A) (A) (A) (A) (A)
                 (A) (A) (A) (A) (A) (A) (A) (A) (A) (A) (A) (A)
                 (A) (A) (A) (A) (A) (A) (A) (A) (A) (A) (A) (A)
                 (A) (A) (A) (A) (A) (A) (A) (A) (A) (A) (A) (A)
                 (A) (A) (A) (A) (A) (A) (A) (A) (A) (A) (A) (A)
                 (A) (A) (A) (A)
 Beta  Orbitals:
       Occupied  (A) (A) (A) (A) (A) (A) (A) (A) (A) (A) (A) (A)
                 (A) (A) (A) (A) (A) (A) (A) (A) (A) (A) (A) (A)
                 (A)
       Virtual   (A) (A) (A) (A) (A) (A) (A) (A) (A) (A) (A) (A)
                 (A) (A) (A) (A) (A) (A) (A) (A) (A) (A) (A) (A)
                 (A) (A) (A) (A) (A) (A) (A) (A) (A) (A) (A) (A)
                 (A) (A) (A) (A) (A) (A) (A) (A) (A) (A) (A) (A)
                 (A) (A) (A) (A) (A) (A) (A) (A) (A) (A) (A) (A)
                 (A) (A) (A) (A) (A) (A) (A) (A) (A) (A) (A) (A)
                 (A) (A) (A) (A) (A) (A) (A) (A) (A) (A) (A) (A)
                 (A) (A) (A) (A) (A) (A) (A) (A) (A) (A) (A) (A)
                 (A) (A) (A) (A) (A) (A) (A) (A) (A) (A) (A) (A)
                 (A) (A) (A) (A) (A) (A) (A) (A) (A) (A) (A) (A)
                 (A) (A) (A) (A) (A) (A) (A) (A) (A) (A) (A) (A)
                 (A) (A) (A) (A) (A) (A) (A) (A) (A) (A) (A) (A)
                 (A) (A) (A) (A) (A)
 The electronic state is 2-A.
 Alpha  occ. eigenvalues --  -19.18266 -19.16797 -10.22383 -10.18545 -10.17083
 Alpha  occ. eigenvalues --  -10.17071  -1.14551  -0.89404  -0.77140  -0.74724
 Alpha  occ. eigenvalues --   -0.63044  -0.61512  -0.53709  -0.48990  -0.47208
 Alpha  occ. eigenvalues --   -0.45677  -0.44584  -0.41713  -0.39543  -0.39162
 Alpha  occ. eigenvalues --   -0.38404  -0.36360  -0.35380  -0.30261  -0.27922
 Alpha  occ. eigenvalues --   -0.22714
 Alpha virt. eigenvalues --    0.03899   0.05692   0.06154   0.07611   0.08265
 Alpha virt. eigenvalues --    0.10217   0.10483   0.10987   0.13184   0.14690
 Alpha virt. eigenvalues --    0.14910   0.17276   0.20728   0.23066   0.24957
 Alpha virt. eigenvalues --    0.28745   0.29208   0.29787   0.30648   0.32038
 Alpha virt. eigenvalues --    0.34090   0.34433   0.39792   0.45035   0.46515
 Alpha virt. eigenvalues --    0.49286   0.51211   0.53379   0.54998   0.55457
 Alpha virt. eigenvalues --    0.57199   0.57507   0.58526   0.58981   0.59876
 Alpha virt. eigenvalues --    0.61126   0.62555   0.66731   0.72161   0.72314
 Alpha virt. eigenvalues --    0.78401   0.79587   0.83916   0.89284   0.91343
 Alpha virt. eigenvalues --    0.94925   0.95510   0.99024   0.99773   1.05199
 Alpha virt. eigenvalues --    1.10149   1.19478   1.23067   1.24888   1.28806
 Alpha virt. eigenvalues --    1.33760   1.38985   1.40639   1.43582   1.44878
 Alpha virt. eigenvalues --    1.45586   1.46013   1.46418   1.48464   1.49647
 Alpha virt. eigenvalues --    1.50183   1.51337   1.53860   1.57342   1.58019
 Alpha virt. eigenvalues --    1.59040   1.64467   1.65192   1.68281   1.69692
 Alpha virt. eigenvalues --    1.71598   1.73538   1.79486   1.80289   1.82267
 Alpha virt. eigenvalues --    1.93631   1.94445   1.99234   2.00694   2.02306
 Alpha virt. eigenvalues --    2.04917   2.08665   2.11111   2.15674   2.20017
 Alpha virt. eigenvalues --    2.21464   2.26967   2.30046   2.35875   2.38130
 Alpha virt. eigenvalues --    2.38688   2.40607   2.41537   2.44798   2.45250
 Alpha virt. eigenvalues --    2.47576   2.50326   2.52352   2.53314   2.55745
 Alpha virt. eigenvalues --    2.56169   2.57806   2.59280   2.61103   2.67079
 Alpha virt. eigenvalues --    2.68178   2.69972   2.71814   2.74384   2.75875
 Alpha virt. eigenvalues --    2.78874   2.79377   2.88339   2.99849   3.11067
 Alpha virt. eigenvalues --    3.17701   3.19987   3.27634   3.33293   3.37051
 Alpha virt. eigenvalues --    3.66849   3.72817   3.77460   3.77691   3.78859
 Alpha virt. eigenvalues --    3.80798   3.82442   3.88161   3.95181   4.17965
 Alpha virt. eigenvalues --    4.19091   4.71841   4.84717   4.91098   5.23846
 Alpha virt. eigenvalues --    5.40189   5.89691  23.78556  23.82363  23.90416
 Alpha virt. eigenvalues --   23.90668  49.76943  49.83392
  Beta  occ. eigenvalues --  -19.18022 -19.15638 -10.22392 -10.17617 -10.17092
  Beta  occ. eigenvalues --  -10.17072  -1.13271  -0.87678  -0.75990  -0.74353
  Beta  occ. eigenvalues --   -0.62213  -0.60561  -0.52234  -0.48795  -0.45657
  Beta  occ. eigenvalues --   -0.45121  -0.43897  -0.40706  -0.39283  -0.38635
  Beta  occ. eigenvalues --   -0.37108  -0.36098  -0.35137  -0.28290  -0.26366
  Beta virt. eigenvalues --   -0.11113   0.04011   0.06054   0.06415   0.08013
  Beta virt. eigenvalues --    0.08425   0.10434   0.10700   0.11073   0.13276
  Beta virt. eigenvalues --    0.14853   0.15164   0.17449   0.21050   0.23310
  Beta virt. eigenvalues --    0.26125   0.28945   0.29545   0.30231   0.31161
  Beta virt. eigenvalues --    0.32469   0.34275   0.34621   0.39971   0.45248
  Beta virt. eigenvalues --    0.46737   0.51159   0.51702   0.54172   0.55315
  Beta virt. eigenvalues --    0.55519   0.57442   0.57610   0.58874   0.59587
  Beta virt. eigenvalues --    0.60038   0.61346   0.62887   0.67178   0.72379
  Beta virt. eigenvalues --    0.73036   0.78520   0.80194   0.84361   0.89764
  Beta virt. eigenvalues --    0.91939   0.95593   0.96424   1.00144   1.00443
  Beta virt. eigenvalues --    1.05535   1.10898   1.19560   1.23361   1.24976
  Beta virt. eigenvalues --    1.29466   1.34002   1.39333   1.41081   1.43716
  Beta virt. eigenvalues --    1.45162   1.46040   1.46406   1.46715   1.48943
  Beta virt. eigenvalues --    1.50282   1.50887   1.51576   1.54814   1.57524
  Beta virt. eigenvalues --    1.58275   1.59279   1.64693   1.65289   1.68477
  Beta virt. eigenvalues --    1.70040   1.71670   1.73787   1.80142   1.80636
  Beta virt. eigenvalues --    1.82445   1.93805   1.94492   2.00127   2.01274
  Beta virt. eigenvalues --    2.02590   2.06044   2.09026   2.11235   2.17768
  Beta virt. eigenvalues --    2.20235   2.21792   2.27039   2.30370   2.35960
  Beta virt. eigenvalues --    2.38245   2.39227   2.40702   2.41601   2.45135
  Beta virt. eigenvalues --    2.45311   2.48050   2.50619   2.52989   2.53704
  Beta virt. eigenvalues --    2.56004   2.56880   2.58138   2.59460   2.61747
  Beta virt. eigenvalues --    2.67522   2.68526   2.70421   2.72051   2.74752
  Beta virt. eigenvalues --    2.76020   2.79006   2.79650   2.88607   3.02322
  Beta virt. eigenvalues --    3.11451   3.18497   3.20513   3.29773   3.34790
  Beta virt. eigenvalues --    3.38449   3.67431   3.73657   3.77540   3.77950
  Beta virt. eigenvalues --    3.79081   3.81231   3.83339   3.89227   3.96620
  Beta virt. eigenvalues --    4.18513   4.19572   4.72356   4.85707   4.92158
  Beta virt. eigenvalues --    5.25768   5.42032   5.90550  23.78559  23.83393
  Beta virt. eigenvalues --   23.90421  23.90660  49.77541  49.84189
          Condensed to atoms (all electrons):
               1          2          3          4          5          6
     1  C    4.964709   0.338167  -0.046998  -0.002644   0.393333   0.400400
     2  C    0.338167   4.799057   0.236916  -0.071032  -0.031715  -0.040302
     3  O   -0.046998   0.236916   8.027473   0.062135   0.002212  -0.004436
     4  O   -0.002644  -0.071032   0.062135   8.138905  -0.000769   0.014959
     5  H    0.393333  -0.031715   0.002212  -0.000769   0.579548  -0.032942
     6  H    0.400400  -0.040302  -0.004436   0.014959  -0.032942   0.567371
     7  H    0.382977  -0.022857   0.004358  -0.000144  -0.024307  -0.026096
     8  H   -0.032589   0.380829  -0.019778   0.006951  -0.008078   0.009561
     9  H   -0.061059   0.405199  -0.033120   0.003418   0.008823  -0.008429
    10  C   -0.000707   0.000660  -0.000372   0.001475   0.000006  -0.000285
    11  C   -0.002495  -0.002637   0.001268  -0.076599  -0.001606   0.003357
    12  H    0.000099  -0.000073   0.000094  -0.000140  -0.000001   0.000010
    13  H    0.000026   0.000160  -0.000452   0.002597  -0.000024  -0.000072
    14  H   -0.001834  -0.001154   0.012258  -0.001467   0.003079   0.000096
    15  H    0.000385   0.004468  -0.036879   0.159522  -0.000181  -0.001235
    16  H    0.000640   0.000466  -0.000142   0.000197   0.000188  -0.001652
    17  H    0.000103  -0.000061   0.000456   0.001382   0.000106   0.000086
               7          8          9         10         11         12
     1  C    0.382977  -0.032589  -0.061059  -0.000707  -0.002495   0.000099
     2  C   -0.022857   0.380829   0.405199   0.000660  -0.002637  -0.000073
     3  O    0.004358  -0.019778  -0.033120  -0.000372   0.001268   0.000094
     4  O   -0.000144   0.006951   0.003418   0.001475  -0.076599  -0.000140
     5  H   -0.024307  -0.008078   0.008823   0.000006  -0.001606  -0.000001
     6  H   -0.026096   0.009561  -0.008429  -0.000285   0.003357   0.000010
     7  H    0.579274  -0.003225  -0.000467  -0.000023   0.000186   0.000001
     8  H   -0.003225   0.589985  -0.033421  -0.000051   0.000243  -0.000003
     9  H   -0.000467  -0.033421   0.607584   0.000006  -0.000261   0.000000
    10  C   -0.000023  -0.000051   0.000006   4.841958   0.345965   0.395581
    11  C    0.000186   0.000243  -0.000261   0.345965   5.202241  -0.037744
    12  H    0.000001  -0.000003   0.000000   0.395581  -0.037744   0.591609
    13  H   -0.000000  -0.000047  -0.000008   0.402604  -0.033156  -0.029941
    14  H    0.000027   0.000112   0.000431   0.401219  -0.039205  -0.031257
    15  H   -0.000132  -0.001086   0.000931  -0.015986   0.220784   0.003765
    16  H    0.000093  -0.000099  -0.000061  -0.037105   0.385410  -0.005909
    17  H    0.000001   0.000007   0.000014  -0.031167   0.392232  -0.002720
              13         14         15         16         17
     1  C    0.000026  -0.001834   0.000385   0.000640   0.000103
     2  C    0.000160  -0.001154   0.004468   0.000466  -0.000061
     3  O   -0.000452   0.012258  -0.036879  -0.000142   0.000456
     4  O    0.002597  -0.001467   0.159522   0.000197   0.001382
     5  H   -0.000024   0.003079  -0.000181   0.000188   0.000106
     6  H   -0.000072   0.000096  -0.001235  -0.001652   0.000086
     7  H   -0.000000   0.000027  -0.000132   0.000093   0.000001
     8  H   -0.000047   0.000112  -0.001086  -0.000099   0.000007
     9  H   -0.000008   0.000431   0.000931  -0.000061   0.000014
    10  C    0.402604   0.401219  -0.015986  -0.037105  -0.031167
    11  C   -0.033156  -0.039205   0.220784   0.385410   0.392232
    12  H   -0.029941  -0.031257   0.003765  -0.005909  -0.002720
    13  H    0.568494  -0.028102  -0.003207   0.008157  -0.007648
    14  H   -0.028102   0.570314  -0.006022  -0.005496   0.007839
    15  H   -0.003207  -0.006022   0.437633  -0.010964  -0.012797
    16  H    0.008157  -0.005496  -0.010964   0.572349  -0.030731
    17  H   -0.007648   0.007839  -0.012797  -0.030731   0.554247
          Atomic-Atomic Spin Densities.
               1          2          3          4          5          6
     1  C    0.013801   0.001916  -0.004218   0.004061   0.000357  -0.001221
     2  C    0.001916  -0.008689   0.004057  -0.003121  -0.000297   0.000570
     3  O   -0.004218   0.004057   0.110074  -0.049470  -0.000011   0.000522
     4  O    0.004061  -0.003121  -0.049470   0.503894  -0.000118  -0.001244
     5  H    0.000357  -0.000297  -0.000011  -0.000118  -0.000592   0.000202
     6  H   -0.001221   0.000570   0.000522  -0.001244   0.000202  -0.000574
     7  H   -0.002077   0.000555   0.000067  -0.000099   0.000012   0.000515
     8  H   -0.001612   0.001262  -0.000194  -0.000128   0.000068  -0.000080
     9  H   -0.004323  -0.002177  -0.001207   0.000735  -0.000011   0.000536
    10  C    0.000451  -0.000236  -0.002735   0.006268  -0.000065  -0.000090
    11  C   -0.003882   0.001323   0.013638  -0.084884   0.000238   0.001053
    12  H   -0.000089   0.000046   0.000289  -0.000643   0.000041   0.000034
    13  H    0.000039  -0.000022  -0.000370   0.000896  -0.000009  -0.000004
    14  H    0.000604  -0.000325  -0.002003   0.001230  -0.000171  -0.000052
    15  H   -0.002780   0.001167   0.008017  -0.031412   0.000240   0.000231
    16  H    0.000760  -0.000274  -0.000942   0.004034  -0.000156  -0.000246
    17  H    0.000086  -0.000030  -0.000302   0.002771  -0.000010  -0.000043
               7          8          9         10         11         12
     1  C   -0.002077  -0.001612  -0.004323   0.000451  -0.003882  -0.000089
     2  C    0.000555   0.001262  -0.002177  -0.000236   0.001323   0.000046
     3  O    0.000067  -0.000194  -0.001207  -0.002735   0.013638   0.000289
     4  O   -0.000099  -0.000128   0.000735   0.006268  -0.084884  -0.000643
     5  H    0.000012   0.000068  -0.000011  -0.000065   0.000238   0.000041
     6  H    0.000515  -0.000080   0.000536  -0.000090   0.001053   0.000034
     7  H    0.001014   0.000160   0.000608  -0.000014   0.000139   0.000005
     8  H    0.000160  -0.000927   0.001193  -0.000023   0.000090   0.000005
     9  H    0.000608   0.001193   0.007879  -0.000080   0.000894   0.000010
    10  C   -0.000014  -0.000023  -0.000080  -0.016450  -0.036748   0.008032
    11  C    0.000139   0.000090   0.000894  -0.036748   0.669084  -0.014119
    12  H    0.000005   0.000005   0.000010   0.008032  -0.014119   0.062895
    13  H   -0.000001  -0.000001  -0.000011   0.003748  -0.003574  -0.004670
    14  H   -0.000025  -0.000042  -0.000083   0.007598  -0.005175  -0.005142
    15  H    0.000104   0.000085   0.001148  -0.003363   0.062965   0.000981
    16  H   -0.000092  -0.000008  -0.000130   0.001982  -0.007263  -0.003103
    17  H   -0.000004  -0.000002  -0.000027   0.001013  -0.004904  -0.002259
              13         14         15         16         17
     1  C    0.000039   0.000604  -0.002780   0.000760   0.000086
     2  C   -0.000022  -0.000325   0.001167  -0.000274  -0.000030
     3  O   -0.000370  -0.002003   0.008017  -0.000942  -0.000302
     4  O    0.000896   0.001230  -0.031412   0.004034   0.002771
     5  H   -0.000009  -0.000171   0.000240  -0.000156  -0.000010
     6  H   -0.000004  -0.000052   0.000231  -0.000246  -0.000043
     7  H   -0.000001  -0.000025   0.000104  -0.000092  -0.000004
     8  H   -0.000001  -0.000042   0.000085  -0.000008  -0.000002
     9  H   -0.000011  -0.000083   0.001148  -0.000130  -0.000027
    10  C    0.003748   0.007598  -0.003363   0.001982   0.001013
    11  C   -0.003574  -0.005175   0.062965  -0.007263  -0.004904
    12  H   -0.004670  -0.005142   0.000981  -0.003103  -0.002259
    13  H    0.005153   0.001502  -0.000815   0.000284   0.001124
    14  H    0.001502   0.010237  -0.000112   0.001152   0.000125
    15  H   -0.000815  -0.000112  -0.045580  -0.001883  -0.001071
    16  H    0.000284   0.001152  -0.001883  -0.014609   0.004259
    17  H    0.001124   0.000125  -0.001071   0.004259  -0.016543
 Mulliken charges and spin densities:
               1          2
     1  C   -0.332513   0.001874
     2  C    0.003911  -0.004274
     3  O   -0.204993   0.075213
     4  O   -0.238746   0.352769
     5  H    0.112329  -0.000281
     6  H    0.119610   0.000107
     7  H    0.110336   0.000864
     8  H    0.110691  -0.000155
     9  H    0.110420   0.004953
    10  C   -0.303778  -0.030713
    11  C   -0.357985   0.588876
    12  H    0.116628   0.042312
    13  H    0.120619   0.003266
    14  H    0.119162   0.009318
    15  H    0.261000  -0.012078
    16  H    0.124657  -0.016237
    17  H    0.128651  -0.015815
 Sum of Mulliken charges =  -0.00000   1.00000
 Mulliken charges and spin densities with hydrogens summed into heavy atoms:
               1          2
     1  C    0.009762   0.002564
     2  C    0.225022   0.000524
     3  O   -0.204993   0.075213
     4  O    0.022254   0.340691
    10  C    0.052631   0.024184
    11  C   -0.104676   0.556823
 APT charges:
               1
     1  C   -0.915394
     2  C   -0.773952
     3  O   -0.134186
     4  O   -0.184675
     5  H    0.206388
     6  H    0.203783
     7  H    0.561372
     8  H    0.459855
     9  H    0.423655
    10  C   -1.021615
    11  C   -0.754091
    12  H    0.559456
    13  H    0.385963
    14  H    0.099164
    15  H    0.123064
    16  H    0.248846
    17  H    0.512366
 Sum of APT charges =  -0.00000
 APT charges with hydrogens summed into heavy atoms:
               1
     1  C    0.056149
     2  C    0.109558
     3  O   -0.134186
     4  O   -0.061610
    10  C    0.022968
    11  C    0.007121
 Electronic spatial extent (au):  <R**2>=            813.6305
 Charge=             -0.0000 electrons
 Dipole moment (field-independent basis, Debye):
    X=              0.0699    Y=              2.1174    Z=              0.0621  Tot=              2.1195
 Quadrupole moment (field-independent basis, Debye-Ang):
   XX=            -34.0989   YY=            -42.3178   ZZ=            -39.9162
   XY=              1.1666   XZ=              0.9158   YZ=             -0.0065
 Traceless Quadrupole moment (field-independent basis, Debye-Ang):
   XX=              4.6787   YY=             -3.5402   ZZ=             -1.1385
   XY=              1.1666   XZ=              0.9158   YZ=             -0.0065
 Octapole moment (field-independent basis, Debye-Ang**2):
  XXX=              9.0154  YYY=             -4.7306  ZZZ=              0.0927  XYY=              0.2950
  XXY=             -3.3528  XXZ=              0.8318  XZZ=              1.2361  YZZ=             -1.6089
  YYZ=              0.6169  XYZ=             -0.2965
 Hexadecapole moment (field-independent basis, Debye-Ang**3):
 XXXX=           -686.7695 YYYY=           -240.4495 ZZZZ=           -152.1856 XXXY=              0.5567
 XXXZ=              4.0463 YYYX=             -2.0095 YYYZ=             -0.2042 ZZZX=              7.3368
 ZZZY=              1.7018 XXYY=           -152.5091 XXZZ=           -140.2173 YYZZ=            -65.6150
 XXYZ=              3.1325 YYXZ=             -1.2573 ZZXY=              1.0885
 N-N= 2.601004920659D+02 E-N=-1.243942693148D+03  KE= 3.082914198848D+02
  Exact polarizability:   0.000   0.000   0.000   0.000   0.000   0.000
 Approx polarizability: 111.593 -14.263  82.648  10.313   0.964  81.831
                          Isotropic Fermi Contact Couplings
        Atom                 a.u.       MegaHertz       Gauss      10(-4) cm-1
     1  C(13)              0.00566       6.35963       2.26927       2.12134
     2  C(13)             -0.00277      -3.10879      -1.10929      -1.03698
     3  O(17)              0.01378      -8.35545      -2.98143      -2.78708
     4  O(17)              0.03915     -23.73086      -8.46776      -7.91576
     5  H(1)              -0.00005      -0.22846      -0.08152      -0.07620
     6  H(1)              -0.00010      -0.44629      -0.15925      -0.14887
     7  H(1)               0.00017       0.77718       0.27732       0.25924
     8  H(1)               0.00007       0.29641       0.10577       0.09887
     9  H(1)               0.00071       3.15501       1.12579       1.05240
    10  C(13)             -0.01164     -13.08706      -4.66979      -4.36537
    11  C(13)              0.10503     118.07297      42.13137      39.38490
    12  H(1)               0.02202      98.43118      35.12269      32.83311
    13  H(1)               0.00195       8.73628       3.11732       2.91411
    14  H(1)               0.00654      29.21766      10.42559       9.74596
    15  H(1)              -0.02417    -108.05511     -38.55675     -36.04331
    16  H(1)              -0.00403     -18.00730      -6.42545      -6.00659
    17  H(1)              -0.00354     -15.83796      -5.65138      -5.28297
 --------------------------------------------------------
       Center         ----  Spin Dipole Couplings  ----
                      3XX-RR        3YY-RR        3ZZ-RR
 --------------------------------------------------------
     1   Atom       -0.000940      0.007326     -0.006386
     2   Atom        0.006311     -0.001824     -0.004487
     3   Atom        0.098461      0.165216     -0.263677
     4   Atom        0.328454      0.533643     -0.862098
     5   Atom        0.000136      0.003092     -0.003227
     6   Atom        0.002062      0.002268     -0.004329
     7   Atom        0.001409      0.000737     -0.002146
     8   Atom        0.003234     -0.001938     -0.001296
     9   Atom        0.008406     -0.004032     -0.004374
    10   Atom        0.011804     -0.013503      0.001698
    11   Atom        0.342605      0.021190     -0.363795
    12   Atom       -0.000342     -0.001700      0.002042
    13   Atom       -0.000503     -0.003699      0.004202
    14   Atom       -0.004897     -0.005365      0.010262
    15   Atom        0.111393      0.001456     -0.112849
    16   Atom       -0.001725      0.032034     -0.030309
    17   Atom        0.012992     -0.003868     -0.009124
 --------------------------------------------------------
                        XY            XZ            YZ
 --------------------------------------------------------
     1   Atom        0.004595      0.000226     -0.001917
     2   Atom        0.006857      0.004114      0.000568
     3   Atom       -0.341181      0.043754     -0.071958
     4   Atom       -1.318535     -0.145164      0.167230
     5   Atom        0.003302      0.001742      0.002511
     6   Atom        0.005228     -0.001930     -0.003190
     7   Atom        0.002632      0.000107     -0.000013
     8   Atom        0.002633      0.003941      0.001876
     9   Atom        0.002942      0.000175      0.000101
    10   Atom       -0.015807     -0.017269      0.007031
    11   Atom       -0.518703     -0.002778      0.002653
    12   Atom       -0.006193     -0.005462      0.002728
    13   Atom        0.002239     -0.007508     -0.005389
    14   Atom       -0.000709      0.002084      0.006191
    15   Atom       -0.163525      0.016516     -0.009423
    16   Atom        0.011234     -0.013108     -0.028587
    17   Atom        0.008164      0.032848      0.028842
 --------------------------------------------------------


 ---------------------------------------------------------------------------------
              Anisotropic Spin Dipole Couplings in Principal Axis System
 ---------------------------------------------------------------------------------

       Atom             a.u.   MegaHertz   Gauss  10(-4) cm-1        Axes

              Baa    -0.0068    -0.914    -0.326    -0.305 -0.1870  0.1914  0.9635
     1 C(13)  Bbb    -0.0027    -0.367    -0.131    -0.122  0.8984 -0.3633  0.2465
              Bcc     0.0095     1.281     0.457     0.427  0.3973  0.9118 -0.1040
 
              Baa    -0.0071    -0.952    -0.340    -0.317 -0.4937  0.5720  0.6550
     2 C(13)  Bbb    -0.0041    -0.548    -0.195    -0.183  0.1641 -0.6784  0.7162
              Bcc     0.0112     1.500     0.535     0.500  0.8540  0.4611  0.2410
 
              Baa    -0.2766    20.018     7.143     6.677  0.1022  0.2363  0.9663
     3 O(17)  Bbb    -0.2072    14.990     5.349     5.000  0.7391  0.6322 -0.2327
              Bcc     0.4838   -35.008   -12.492   -11.677 -0.6659  0.7379 -0.1100
 
              Baa    -0.8949    64.755    23.106    21.600  0.6337  0.6364 -0.4398
     4 O(17)  Bbb    -0.8773    63.478    22.650    21.174  0.3750  0.2445  0.8942
              Bcc     1.7722  -128.233   -45.757   -42.774 -0.6766  0.7316  0.0837
 
              Baa    -0.0042    -2.251    -0.803    -0.751 -0.2018 -0.2354  0.9507
     5 H(1)   Bbb    -0.0020    -1.067    -0.381    -0.356  0.8297 -0.5569  0.0383
              Bcc     0.0062     3.318     1.184     1.107  0.5204  0.7965  0.3077
 
              Baa    -0.0056    -3.002    -1.071    -1.001 -0.0397  0.3969  0.9170
     6 H(1)   Bbb    -0.0028    -1.496    -0.534    -0.499  0.7516 -0.5928  0.2891
              Bcc     0.0084     4.498     1.605     1.500  0.6584  0.7007 -0.2748
 
              Baa    -0.0022    -1.152    -0.411    -0.384 -0.1000  0.0952  0.9904
     7 H(1)   Bbb    -0.0016    -0.837    -0.299    -0.279 -0.6531  0.7447 -0.1375
              Bcc     0.0037     1.989     0.710     0.663  0.7506  0.6606  0.0123
 
              Baa    -0.0037    -1.983    -0.708    -0.662 -0.3241 -0.4161  0.8496
     8 H(1)   Bbb    -0.0030    -1.598    -0.570    -0.533 -0.4955  0.8397  0.2223
              Bcc     0.0067     3.582     1.278     1.195  0.8059  0.3490  0.4783
 
              Baa    -0.0047    -2.510    -0.896    -0.837 -0.2131  0.9602 -0.1808
     9 H(1)   Bbb    -0.0044    -2.329    -0.831    -0.777 -0.0534  0.1733  0.9834
              Bcc     0.0091     4.839     1.727     1.614  0.9756  0.2192  0.0143
 
              Baa    -0.0212    -2.843    -1.015    -0.948  0.4641  0.8822  0.0792
    10 C(13)  Bbb    -0.0100    -1.339    -0.478    -0.447  0.4432 -0.3087  0.8416
              Bcc     0.0312     4.182     1.492     1.395  0.7669 -0.3555 -0.5343
 
              Baa    -0.3639   -48.831   -17.424   -16.288 -0.1002 -0.1418  0.9848
    11 C(13)  Bbb    -0.3610   -48.449   -17.288   -16.161  0.5848  0.7924  0.1736
              Bcc     0.7249    97.280    34.712    32.449  0.8050 -0.5933 -0.0035
 
              Baa    -0.0076    -4.068    -1.452    -1.357  0.7235  0.6528  0.2246
    12 H(1)   Bbb    -0.0022    -1.150    -0.410    -0.383  0.2911 -0.5835  0.7581
              Bcc     0.0098     5.218     1.862     1.741  0.6260 -0.4831 -0.6122
 
              Baa    -0.0072    -3.847    -1.373    -1.283  0.4709  0.6367  0.6105
    13 H(1)   Bbb    -0.0046    -2.452    -0.875    -0.818  0.7024 -0.6894  0.1772
              Bcc     0.0118     6.298     2.247     2.101 -0.5337 -0.3454  0.7719
 
              Baa    -0.0081    -4.331    -1.545    -1.445  0.4031  0.8525 -0.3328
    14 H(1)   Bbb    -0.0045    -2.386    -0.851    -0.796  0.9098 -0.4127  0.0447
              Bcc     0.0126     6.717     2.397     2.241  0.0992  0.3208  0.9419
 
              Baa    -0.1173   -62.565   -22.325   -20.870  0.5254  0.6834 -0.5069
    15 H(1)   Bbb    -0.1127   -60.143   -21.461   -20.062  0.2576  0.4400  0.8602
              Bcc     0.2300   122.709    43.785    40.931  0.8109 -0.5825  0.0551
 
              Baa    -0.0431   -23.020    -8.214    -7.679  0.2056  0.3209  0.9246
    16 H(1)   Bbb    -0.0048    -2.537    -0.905    -0.846  0.9324 -0.3511 -0.0855
              Bcc     0.0479    25.556     9.119     8.525  0.2972  0.8796 -0.3714
 
              Baa    -0.0434   -23.151    -8.261    -7.722 -0.3843 -0.4911  0.7817
    17 H(1)   Bbb    -0.0047    -2.530    -0.903    -0.844 -0.6395  0.7523  0.1582
              Bcc     0.0481    25.681     9.164     8.566  0.6659  0.4391  0.6032
 

 ---------------------------------------------------------------------------------

 No NMR shielding tensors so no spin-rotation constants.
 Leave Link  601 at Wed Sep 15 13:01:52 2021, MaxMem=   805306368 cpu:         1.8
 (Enter /Local/ce_dana/g09/l701.exe)
 Compute integral second derivatives.
 ... and contract with generalized density number  0.
 Leave Link  701 at Wed Sep 15 13:01:53 2021, MaxMem=   805306368 cpu:         3.5
 (Enter /Local/ce_dana/g09/l702.exe)
 L702 exits ... SP integral derivatives will be done elsewhere.
 Leave Link  702 at Wed Sep 15 13:01:53 2021, MaxMem=   805306368 cpu:         0.1
 (Enter /Local/ce_dana/g09/l703.exe)
 Compute integral second derivatives, UseDBF=F ICtDFT=           0.
 Integral derivatives from FoFJK, PRISM(SPDF).
 Calling FoFJK, ICntrl=    100147 FMM=F ISym2X=0 I1Cent= 0 IOpClX= 1 NMat=1 NMatS=1 NMatT=0.
 FoFJK:  IHMeth= 1 ICntrl=  100147 DoSepK=F KAlg= 0 I1Cent=   0 FoldK=F
 IRaf=         0 NMat=   1 IRICut=       1 DoRegI=T DoRafI=F ISym2E= 0.
 FoFCou: FMM=F IPFlag=           0 FMFlag=      100000 FMFlg1=         800
         NFxFlg=           0 DoJE=F BraDBF=F KetDBF=F FulRan=T
         wScrn=  0.000000 ICntrl=  100147 IOpCl=  1 I1Cent=           0 NGrid=           0
         NMat0=    1 NMatS0=      1 NMatT0=    0 NMatD0=    1 NMtDS0=    0 NMtDT0=    0
 Symmetry not used in FoFCou.
 Leave Link  703 at Wed Sep 15 13:02:49 2021, MaxMem=   805306368 cpu:       446.2
 (Enter /Local/ce_dana/g09/l716.exe)
 Dipole        = 2.74935122D-02 8.33065229D-01 2.44491453D-02
 Polarizability= 0.00000000D+00 0.00000000D+00 0.00000000D+00
                 0.00000000D+00 0.00000000D+00 0.00000000D+00
 ***** Axes restored to original set *****
 -------------------------------------------------------------------
 Center     Atomic                   Forces (Hartrees/Bohr)
 Number     Number              X              Y              Z
 -------------------------------------------------------------------
      1        6           0.005760339   -0.004343977    0.000695251
      2        6           0.008702071    0.012479052    0.001159442
      3        8          -0.005590734    0.006176474   -0.014684253
      4        8          -0.005666258   -0.002919261    0.014811685
      5        1           0.000223341    0.002910772    0.003809267
      6        1           0.000833909    0.003105042   -0.004116843
      7        1          -0.003452855   -0.002166173   -0.000276409
      8        1          -0.000732466   -0.002657306    0.003210301
      9        1          -0.000188614   -0.002917068   -0.003643139
     10        6          -0.001845997    0.000152505   -0.005472126
     11        6           0.002316635   -0.002929508    0.007016041
     12        1          -0.001170325    0.003214040    0.001202463
     13        1           0.004435536   -0.000687971    0.000167885
     14        1          -0.002224173   -0.004015634    0.001731837
     15        1           0.001227171   -0.007518800   -0.001162804
     16        1          -0.005556951   -0.000275242   -0.000971791
     17        1           0.002929371    0.002393055   -0.003476807
 -------------------------------------------------------------------
 Cartesian Forces:  Max     0.014811685 RMS     0.004868339
 FormGI is forming the generalized inverse of G from B-inverse, IUseBI=4.
 Leave Link  716 at Wed Sep 15 13:02:49 2021, MaxMem=   805306368 cpu:         0.1
 (Enter /Local/ce_dana/g09/l103.exe)

 GradGradGradGradGradGradGradGradGradGradGradGradGradGradGradGradGradGrad
 Berny optimization.
 Red2BG is reusing G-inverse.
 Internal  Forces:  Max     0.019233911 RMS     0.004011097
 Search for a saddle point.
 Step number   1 out of a maximum of  100
 All quantities printed in internal units (Hartrees-Bohrs-Radians)
 Swapping is turned off.
 Second derivative matrix not updated -- analytic derivatives used.
 ITU=  0
     Eigenvalues ---   -0.05686   0.00107   0.00204   0.00307   0.00829
     Eigenvalues ---    0.02000   0.02577   0.03158   0.04337   0.04361
     Eigenvalues ---    0.04371   0.04453   0.04702   0.04840   0.05673
     Eigenvalues ---    0.07090   0.07556   0.09169   0.09785   0.10356
     Eigenvalues ---    0.11930   0.11990   0.12237   0.13515   0.14304
     Eigenvalues ---    0.15927   0.16302   0.19074   0.20855   0.27154
     Eigenvalues ---    0.28249   0.29846   0.30327   0.31300   0.31428
     Eigenvalues ---    0.31939   0.32009   0.32261   0.32485   0.32696
     Eigenvalues ---    0.32875   0.33281   0.33652   0.34874   0.48673
 Eigenvectors required to have negative eigenvalues:
                          R14       R9        R8        D22       D24
   1                    0.70328  -0.64673   0.13192  -0.08821   0.08582
                          D19       D18       D25       A14       D21
   1                   -0.08122   0.07855  -0.07395  -0.07313   0.07156
 RFO step:  Lambda0=2.118534680D-04 Lambda=-3.21916384D-03.
 Linear search not attempted -- option 19 set.
 Maximum step size (   0.050) exceeded in Quadratic search.
    -- Step size scaled by   0.436
 Iteration  1 RMS(Cart)=  0.04615983 RMS(Int)=  0.00031895
 Iteration  2 RMS(Cart)=  0.00058554 RMS(Int)=  0.00001472
 Iteration  3 RMS(Cart)=  0.00000016 RMS(Int)=  0.00001472
 ITry= 1 IFail=0 DXMaxC= 1.25D-01 DCOld= 1.00D+10 DXMaxT= 5.00D-02 DXLimC= 3.00D+00 Rises=F
 Variable       Old X    -DE/DX   Delta X   Delta X   Delta X     New X
                                 (Linear)    (Quad)   (Total)
    R1        2.86664   0.00289   0.00000   0.00325   0.00325   2.86989
    R2        2.07962  -0.00478   0.00000  -0.00616  -0.00616   2.07346
    R3        2.07645  -0.00520   0.00000  -0.00639  -0.00639   2.07006
    R4        2.07860  -0.00409   0.00000  -0.00516  -0.00516   2.07344
    R5        2.67607   0.01283   0.00000   0.01433   0.01433   2.69040
    R6        2.07983  -0.00419   0.00000  -0.00570  -0.00570   2.07413
    R7        2.08495  -0.00465   0.00000  -0.00739  -0.00739   2.07756
    R8        2.60437   0.01923   0.00000   0.02525   0.02525   2.62962
    R9        2.17186   0.00945   0.00000  -0.00591  -0.00591   2.16595
   R10        2.83281   0.00250   0.00000   0.00269   0.00269   2.83549
   R11        2.08815  -0.00359   0.00000  -0.00466  -0.00466   2.08349
   R12        2.07756  -0.00448   0.00000  -0.00600  -0.00600   2.07156
   R13        2.08020  -0.00484   0.00000  -0.00618  -0.00618   2.07402
   R14        2.60171   0.00169   0.00000   0.02170   0.02170   2.62342
   R15        2.07470  -0.00560   0.00000  -0.00738  -0.00738   2.06732
   R16        2.07455  -0.00511   0.00000  -0.00708  -0.00708   2.06746
    A1        1.93859   0.00035   0.00000  -0.00070  -0.00070   1.93789
    A2        1.93008   0.00057   0.00000   0.00027   0.00027   1.93035
    A3        1.91996  -0.00022   0.00000  -0.00030  -0.00030   1.91966
    A4        1.89856  -0.00016   0.00000   0.00100   0.00100   1.89956
    A5        1.88982  -0.00026   0.00000  -0.00024  -0.00024   1.88957
    A6        1.88553  -0.00030   0.00000  -0.00000  -0.00000   1.88553
    A7        1.98542   0.00466   0.00000   0.00016   0.00016   1.98557
    A8        1.94002  -0.00087   0.00000   0.00134   0.00133   1.94136
    A9        1.93614  -0.00074   0.00000   0.00297   0.00296   1.93910
   A10        1.80484  -0.00187   0.00000  -0.00492  -0.00492   1.79992
   A11        1.90323  -0.00190   0.00000  -0.00333  -0.00333   1.89990
   A12        1.88784   0.00049   0.00000   0.00342   0.00341   1.89124
   A13        1.91358   0.00537   0.00000  -0.00436  -0.00436   1.90922
   A14        1.83409   0.00994   0.00000   0.00293   0.00293   1.83702
   A15        1.93740   0.00044   0.00000  -0.00068  -0.00068   1.93671
   A16        1.94651   0.00005   0.00000   0.00003   0.00003   1.94654
   A17        1.94030   0.00098   0.00000   0.00172   0.00172   1.94202
   A18        1.88073  -0.00044   0.00000  -0.00134  -0.00134   1.87939
   A19        1.87626  -0.00074   0.00000  -0.00143  -0.00143   1.87482
   A20        1.87965  -0.00039   0.00000   0.00163   0.00163   1.88128
   A21        1.81864   0.00212   0.00000   0.00003   0.00005   1.81868
   A22        2.02934  -0.00024   0.00000   0.00183   0.00183   2.03117
   A23        2.03646  -0.00093   0.00000   0.00032   0.00036   2.03682
   A24        1.79202  -0.00038   0.00000  -0.00273  -0.00274   1.78928
   A25        1.76906  -0.00055   0.00000  -0.00397  -0.00399   1.76507
   A26        1.96909   0.00028   0.00000   0.00256   0.00251   1.97161
   A27        3.11835   0.00564   0.00000   0.01562   0.01561   3.13396
   A28        3.25542  -0.00306   0.00000  -0.01845  -0.01846   3.23697
    D1        0.99551   0.00011   0.00000   0.00140   0.00140   0.99691
    D2       -1.03313   0.00005   0.00000   0.00664   0.00664  -1.02649
    D3       -3.13438   0.00051   0.00000  -0.00059  -0.00059  -3.13497
    D4       -1.11426  -0.00030   0.00000   0.00043   0.00043  -1.11383
    D5        3.14029  -0.00036   0.00000   0.00566   0.00567  -3.13723
    D6        1.03903   0.00010   0.00000  -0.00156  -0.00156   1.03747
    D7        3.08759  -0.00014   0.00000   0.00045   0.00045   3.08804
    D8        1.05895  -0.00020   0.00000   0.00569   0.00569   1.06464
    D9       -1.04231   0.00025   0.00000  -0.00153  -0.00154  -1.04385
   D10        1.19129   0.00065   0.00000   0.01394   0.01394   1.20523
   D11       -2.98557   0.00089   0.00000   0.01245   0.01244  -2.97313
   D12       -0.97983  -0.00028   0.00000   0.01252   0.01252  -0.96731
   D13       -1.77150  -0.00596   0.00000  -0.02357  -0.02357  -1.79507
   D14       -0.62724  -0.00140   0.00000  -0.02233  -0.02238  -0.64962
   D15        1.48283   0.00023   0.00000  -0.01756  -0.01760   1.46523
   D16       -2.74238  -0.00045   0.00000  -0.02121  -0.02113  -2.76351
   D17        3.02830   0.00028   0.00000   0.00387   0.00387   3.03217
   D18        1.07059  -0.00049   0.00000   0.00630   0.00630   1.07689
   D19       -1.32166   0.00053   0.00000  -0.00077  -0.00076  -1.32242
   D20       -1.15743   0.00005   0.00000   0.00173   0.00173  -1.15570
   D21       -3.11514  -0.00072   0.00000   0.00415   0.00416  -3.11098
   D22        0.77580   0.00030   0.00000  -0.00291  -0.00290   0.77289
   D23        0.94064   0.00027   0.00000   0.00499   0.00499   0.94563
   D24       -1.01707  -0.00051   0.00000   0.00742   0.00742  -1.00965
   D25        2.87387   0.00051   0.00000   0.00036   0.00036   2.87423
         Item               Value     Threshold  Converged?
 Maximum Force            0.019234     0.000015     NO 
 RMS     Force            0.004011     0.000010     NO 
 Maximum Displacement     0.124891     0.000060     NO 
 RMS     Displacement     0.046109     0.000040     NO 
 Predicted change in Energy=-1.032715D-03
 Lowest energy point so far.  Saving SCF results.
 GradGradGradGradGradGradGradGradGradGradGradGradGradGradGradGradGradGrad

 Leave Link  103 at Wed Sep 15 13:02:50 2021, MaxMem=   805306368 cpu:         0.1
 (Enter /Local/ce_dana/g09/l202.exe)
                          Input orientation:                          
 ---------------------------------------------------------------------
 Center     Atomic      Atomic             Coordinates (Angstroms)
 Number     Number       Type             X           Y           Z
 ---------------------------------------------------------------------
      1          6           0        1.867159    0.838190   -0.021855
      2          6           0        0.668605    1.768513   -0.087835
      3          8           0       -0.570905    1.094656   -0.278746
[...]
 E2(CBS)=-1.2897826\CBS-Int=-1.2511635\OIii=10.2589046\PUHF=-307.522946
 5\PMP2-0=-308.691097\S2=0.790285\S2-1=0.765361\S2A=0.750838\RMSD=5.239
 e-09\PG=C01 [X(C4H11O2)]\\@


 We're simply so accustomed to the marvels of everyday thought
 that we never wonder about it.
 -- Marvin Minsky in "Why people think computers are smart"
 Diagonal vibrational polarizability:
        0.0000000       0.0000000       0.0000000
    1 imaginary frequencies ignored.

 Complete Basis Set (CBS) Extrapolation:
 M. R. Nyden and G. A. Petersson, JCP 75, 1843 (1981)
 G. A. Petersson and M. A. Al-Laham, JCP 94, 6081 (1991)
 G. A. Petersson, T. Tensfeldt, and J. A. Montgomery, JCP 94, 6091 (1991)
 J. A. Montgomery, J. W. Ochterski, and G. A. Petersson, JCP 101, 5900 (1994)

 Temperature=               298.150000 Pressure=                       1.000000
 E(ZPE)=                      0.139221 E(Thermal)=                     0.148338
 E(SCF)=                   -307.514477 DE(MP2)=                       -1.170738
 DE(CBS)=                    -0.119044 DE(MP34)=                      -0.071953
 DE(CCSD)=                   -0.031951 DE(Int)=                        0.038619
 DE(Empirical)=              -0.059783
 CBS-QB3 (0 K)=            -308.790107 CBS-QB3 Energy=              -308.780990
 CBS-QB3 Enthalpy=         -308.780046 CBS-QB3 Free Energy=         -308.825642

 Test job not archived.
 1\1\GINC-TECH-WN083\Mixed\CBS-QB3\CBS-QB3\C4H11O2(2)\ALONGD\15-Sep-202
 1\0\\#P opt=(ts, calcfc, noeigentest, maxcycles=100, tight, maxstep=5)
  guess=read cbs-qb3 scf=(tight, direct) integral=(grid=ultrafine, Acc2
 E=12) IOp(2/9=2000) scf=xqc\\TS0\\0,2\C,0,1.9805426337,0.9861042196,0.
 125245115\C,0,0.7479547291,1.858697846,-0.0537178229\O,0,-0.4283426008
 ,1.128211454,-0.4287979149\O,0,-0.8688430245,0.3668761758,0.6757089545
 \H,0,2.1975933108,0.4251920638,-0.7873137148\H,0,1.8375286338,0.282779
 973,0.9472500174\H,0,2.8484305502,1.6091399616,0.3597076518\H,0,0.8722
 474456,2.5577164766,-0.8857517733\H,0,0.5286135288,2.4301162993,0.8535
 12042\C,0,-1.0341092409,-2.225163406,-1.2417760264\C,0,-0.3426545809,-
 2.0495146666,0.080667414\H,0,-0.8612162521,-3.2339223611,-1.6433386199
 \H,0,-2.1141723715,-2.0894239165,-1.1503865179\H,0,-0.6640570453,-1.51
 21457339,-1.9830567615\H,0,-0.5949064055,-0.7169821921,0.4309174945\H,
 0,0.7458364431,-2.0814747709,0.0681272795\H,0,-0.7763127537,-2.5721284
 224,0.932640183\\Version=ES64L-G09RevD.01\State=2-A\HF/CbsB3=-307.5144
 774\E2(CBS)/CbsB3=-1.2897826\CBS-Int/CbsB3=0.0386191\OIii/CbsB3=10.258
 9046\MP2/CbsB4=-308.4083041\MP4(SDQ)/CbsB4=-308.4802569\MP4(SDQ)/6-31+
 G(d')=-308.3817988\QCISD(T)/6-31+G(d')=-308.4137502\CBSQB3=-308.790107
 1\FreqCoord=3.7426831722,1.8634669135,0.2366789669,1.4134295979,3.5124
 298927,-0.1015119738,-0.8094502065,2.132010668,-0.8103106256,-1.641875
 3689,0.6932954969,1.2769048696,4.1528495088,0.8034965545,-1.4878073015
 ,3.4724258793,0.5343767048,1.7900431123,5.3827536484,3.0408338369,0.67
 97489498,1.6483087922,4.8333836664,-1.6738282733,0.9989347996,4.592254
 2767,1.6129040104,-1.9541832567,-4.2049494382,-2.3466166084,-0.6475233
 161,-3.8730214252,0.1524393204,-1.6274628576,-6.1112275976,-3.10545993
 52,-3.9952067799,-3.9484389777,-2.1739154658,-1.2548859521,-2.85754131
 02,-3.7474341853,-1.124210181,-1.3548999852,0.8143160505,1.4094266173,
 -3.9334172695,0.1287419003,-1.4670184979,-4.860618297,1.7624345264\PG=
 C01 [X(C4H11O2)]\NImag=1\\0.49831050,0.04551972,0.54042108,-0.01049370
 ,0.00741482,0.57022011,-0.13764512,0.06262795,-0.00477991,0.41632900,0
 .05753458,-0.13237925,0.00646179,-0.03178688,0.52180562,-0.00380265,0.
 00963818,-0.08478366,-0.03531844,-0.02545975,0.62847642,-0.04213147,-0
 .02431842,-0.01254223,-0.13445147,-0.03362224,-0.06568946,0.24353405,0
 .00450327,0.01247015,0.00431877,-0.04502124,-0.08499854,-0.03565045,0.
 12330892,0.21104860,-0.00959602,-0.00302635,0.00081716,-0.04428104,-0.
 01513107,-0.10559098,0.04147206,-0.06251291,0.27186648,-0.00035996,0.0
 0088808,-0.00013323,-0.01529114,-0.02171615,0.03535260,-0.05224952,-0.
 03085659,0.03025222,0.09208926,0.00280724,0.00489964,-0.00084528,-0.02
 269097,-0.03125629,0.03106318,-0.03216067,-0.07949460,0.04275340,0.029
 11614,0.15673620,-0.00180671,-0.00157660,0.00009258,0.01755618,0.01149
 309,-0.00071257,0.04996674,0.07712467,-0.16880486,-0.09034587,-0.03222
 579,0.20473400,-0.05592352,0.02372726,0.04083800,-0.00660870,0.0159506
 6,0.02516581,0.00311126,-0.00126789,-0.00023394,-0.00032164,-0.0004386
 2,-0.00000047,0.05885329,0.02547251,-0.11433896,-0.10923267,0.00263346
 ,-0.01272574,-0.01870203,-0.00091434,0.00222217,0.00128424,-0.00029542
 ,-0.00013371,0.00005234,-0.03058197,0.12315510,0.04190747,-0.11074892,
 -0.23343823,-0.00120160,0.00280825,0.00438971,0.00113165,0.00068256,0.
 00036911,0.00052031,-0.00047367,0.00025630,-0.04559237,0.12227186,0.25
 042794,-0.05124205,-0.02488338,0.02946437,0.00449319,0.02010730,-0.023
 09214,0.00210280,-0.00060585,0.00026122,0.00017597,-0.00055484,0.00090
 743,-0.00182579,-0.00363168,0.00337274,0.05429974,-0.02266529,-0.15584
 530,0.12677234,-0.00320029,-0.01443943,0.01575063,-0.00079854,0.000287
 47,-0.00021127,-0.00105174,0.00055973,-0.00108928,0.00244596,0.0123139
 8,-0.01302444,0.02413329,0.16969679,0.02819403,0.12714006,-0.20009603,
 -0.00082927,0.00235714,-0.00279291,-0.00018352,0.00029672,-0.00012821,
 0.00123997,0.00028119,0.00028864,0.00380867,0.01758453,-0.01895064,-0.
 03097500,-0.14129492,0.21355704,-0.20943049,-0.11725763,-0.04362920,-0
 .01738282,-0.01919226,-0.00477961,-0.00703896,0.00316558,-0.00027330,0
 .00089744,0.00179017,-0.00130761,0.00613613,0.00426163,0.00087081,-0.0
 0321433,-0.00176643,-0.00031003,0.22807396,-0.11861345,-0.13288142,-0.
 03268087,0.01400559,0.01235633,0.00393819,0.00577532,-0.00114480,0.001
 41342,-0.00055428,-0.00085162,0.00004629,-0.01234833,-0.00944870,-0.00
 211747,-0.01576876,-0.01176540,-0.00565896,0.12934052,0.14191569,-0.04
 396604,-0.03250238,-0.05716762,-0.00262059,-0.00277331,-0.00283902,-0.
 00137110,0.00120670,0.00056614,0.00056757,0.00042238,0.00031048,-0.022
 40805,-0.01465215,-0.00522823,0.02046249,0.01341692,0.00622876,0.04909
 056,0.03529410,0.05819840,0.00346904,0.01860745,-0.02155741,-0.0491075
 4,-0.01401587,0.01544873,-0.00903425,-0.02090183,0.02365955,-0.0046844
 4,-0.00663161,-0.00038466,0.00093886,-0.00056811,0.00060217,-0.0047025
 6,0.00361713,-0.00021948,0.00084974,-0.00089035,0.00022595,0.06309176,
 -0.00055779,-0.01131298,0.01450508,-0.01634475,-0.14844433,0.11901415,
 -0.00879062,-0.01590863,0.01686609,-0.00280553,-0.00194247,-0.00239783
 ,-0.00078761,0.00022560,-0.00019904,0.00311519,-0.00100482,0.00035826,
 0.00012838,0.00063698,-0.00004564,0.02392350,0.16530788,0.00036739,0.0
 0086860,-0.00140314,0.02347164,0.12587311,-0.20722225,-0.00023718,-0.0
 0396575,0.00522190,-0.00157402,-0.00240213,0.00310033,-0.00044794,-0.0
 0003032,0.00097999,-0.00054597,-0.00005100,0.00144021,-0.00053459,0.00
 018348,-0.00002162,-0.02321770,-0.13688270,0.21559687,-0.00534046,0.01
 472367,0.02274705,-0.06058601,0.03238406,0.05497414,-0.00769894,-0.026
 77484,-0.02981674,0.00255920,0.00463190,-0.00265252,-0.00410273,0.0035
 7968,-0.00149369,0.00094619,-0.00042508,-0.00064689,0.00067459,-0.0008
 6530,-0.00006703,0.00014500,0.00243555,0.00276532,0.07336185,0.0067330
 1,-0.00917482,-0.01631699,0.03242889,-0.11356035,-0.09998518,-0.012601
 69,-0.01585501,-0.01766480,0.00252733,0.00402386,-0.00264411,0.0033650
 1,-0.00123424,0.00050731,-0.00093156,0.00027414,-0.00031355,0.00024785
 ,0.00056915,0.00010724,-0.00320566,0.01236073,0.01644870,-0.02895292,0
 .12359197,-0.00104674,0.00346200,0.00495007,0.04850726,-0.10615623,-0.
 22765603,-0.00690471,-0.00815431,-0.00813786,0.00037939,0.00299111,0.0
 0287853,-0.00127612,0.00133862,0.00125237,0.00031237,-0.00015493,0.000
 65781,0.00091551,-0.00051933,0.00014754,0.00502341,-0.01149766,-0.0179
 9963,-0.04608516,0.11960156,0.24414779,0.00008034,0.00010754,-0.000067
 61,-0.00094450,-0.00037950,-0.00015661,0.00106068,0.00084368,-0.001155
 12,-0.00046625,-0.00081839,0.00150543,-0.00002614,0.00003458,-0.000100
 28,-0.00004730,0.00002819,0.00019308,0.00008202,-0.00010099,0.00005972
 ,0.00013773,0.00001833,0.00000225,0.00013656,0.00006601,0.00012352,0.5
 4764020,-0.00008428,-0.00044715,-0.00035080,0.00230950,0.00072197,0.00
 067552,-0.00369843,-0.00199733,0.00522788,-0.00007515,0.01057058,-0.00
 523115,-0.00011063,0.00003732,0.00019137,0.00012801,0.00001480,-0.0000
 3497,-0.00025821,0.00012064,0.00001307,-0.00038941,-0.00023148,0.00001
 458,-0.00014302,-0.00002506,-0.00032277,0.00174045,0.51662612,-0.00010
 298,-0.00004836,0.00009829,0.00062596,0.00017878,0.00023305,-0.0006274
 3,-0.00047068,0.00084448,-0.00090501,0.00543948,0.00005035,0.00006364,
 -0.00004594,0.00009821,0.00000828,-0.00006426,-0.00019955,-0.00005623,
 0.00007662,-0.00005926,-0.00011827,0.00001914,-0.00000095,-0.00002688,
 0.00002116,-0.00011097,-0.03317525,-0.02445616,0.48645882,0.00023719,0
 .00005481,0.00008123,0.00214493,-0.00038813,-0.00023095,-0.00163074,-0
 .00061467,0.00248013,-0.00247770,0.02366976,0.00200810,-0.00020903,-0.
 00008075,0.00032102,-0.00015238,-0.00025070,-0.00042232,0.00001761,0.0
 0016159,0.00003962,-0.00009364,0.00002270,-0.00006038,-0.00022624,-0.0
 0007773,-0.00025143,-0.11168247,-0.01603739,-0.05549122,0.55716334,0.0
 0050134,0.00122852,0.00063464,-0.00881724,-0.00489361,-0.00158417,0.01
 525002,0.01277239,-0.02727740,0.01939825,-0.13313296,0.00278012,0.0000
 3355,-0.00001668,-0.00077071,-0.00023018,-0.00009208,0.00068809,0.0009
 1508,-0.00078464,0.00026823,0.00067086,0.00029179,0.00001294,0.0006934
 2,0.00056848,0.00131076,-0.01173122,-0.05311449,-0.00194209,0.06626592
 ,0.19228579,0.00044913,0.00069564,0.00010240,-0.00350843,-0.00271445,-
 0.00052378,0.00480790,0.00657473,-0.01038452,0.00484940,-0.04227411,0.
 00746436,0.00000243,-0.00005118,-0.00009988,-0.00001435,-0.00001998,0.
 00025435,0.00039899,-0.00025421,0.00019101,0.00022271,0.00015305,0.000
 03692,0.00034930,0.00037116,0.00045464,-0.05477093,-0.00986990,-0.1837
 6034,-0.01939763,-0.10717006,0.49640832,-0.00005749,-0.00009880,-0.000
 09897,0.00045564,0.00028615,0.00019723,-0.00065854,-0.00062020,0.00119
 493,0.00036800,0.00141869,-0.00109017,0.00001687,-0.00001058,0.0000485
 6,0.00004832,0.00000463,-0.00000917,-0.00005966,0.00002437,-0.00001304
 ,-0.00008115,-0.00003637,0.00000218,-0.00003618,-0.00001718,-0.0000679
 0,-0.04987461,0.03561923,0.01369628,0.00089009,-0.01300911,-0.00624487
 ,0.05166504,-0.00002904,0.00001209,-0.00001269,0.00001418,0.00006968,-
 0.00002710,0.00025312,-0.00005217,-0.00056250,-0.00007335,-0.00089097,
 0.00081884,0.00003462,-0.00000655,-0.00000771,0.00001165,0.00000999,0.
 00002276,-0.00000706,-0.00002328,-0.00000674,0.00001516,0.00001268,0.0
 0000438,-0.00003481,-0.00002540,-0.00001625,0.03985399,-0.25103951,-0.
 07619242,-0.00217226,-0.00320988,-0.00525171,-0.04159127,0.27626993,-0
 .00003572,-0.00013614,-0.00011795,0.00072751,0.00034898,0.00020364,-0.
 00117620,-0.00092007,0.00197953,0.00071041,0.00190262,-0.00175045,-0.0
 0000936,0.00002056,0.00005198,0.00005483,0.00001633,0.00001238,-0.0000
 9316,0.00001637,0.00000207,-0.00010632,-0.00008230,0.00000151,-0.00005
 385,-0.00004075,-0.00010608,0.01679446,-0.08349598,-0.07111548,0.00131
 265,-0.02464252,-0.01583737,-0.01393599,0.09039095,0.08137023,-0.00001
 772,0.00000490,0.00000935,-0.00007028,0.00014968,0.00002041,-0.0001169
 5,-0.00048382,0.00045601,0.00068435,0.00009478,-0.00031461,0.00004137,
 0.00001638,-0.00005001,0.00000061,0.00001524,0.00004915,-0.00000720,-0
 .00004014,-0.00001350,0.00001696,-0.00000800,0.00001407,0.00002013,-0.
 00002436,-0.00001416,-0.30227878,0.03213674,0.02594632,-0.01466742,0.0
 0087429,0.00006107,-0.00477992,0.00090896,0.00100234,0.32968416,0.0000
 2965,0.00007161,0.00007913,-0.00033214,-0.00011223,-0.00006575,0.00022
 534,-0.00007827,-0.00020346,0.00037429,-0.00015822,0.00044271,0.000033
 17,-0.00000065,-0.00003649,-0.00003938,-0.00000153,0.00000617,0.000043
 73,-0.00002824,-0.00000839,0.00005562,0.00002859,0.00000088,0.00004769
 ,0.00000598,0.00003083,0.03380852,-0.05038267,-0.00051613,-0.00599383,
 -0.00094053,-0.00076774,0.02981936,-0.00384499,-0.00307171,-0.03562183
 ,0.05023935,0.00001355,-0.00002969,-0.00011104,-0.00009891,0.00003878,
 -0.00004009,-0.00001080,-0.00007876,0.00027448,0.00044859,0.00004397,-
 0.00012161,-0.00001190,0.00001875,-0.00002276,-0.00000720,0.00003289,0
 .00009241,-0.00000641,-0.00002972,0.00002690,0.00004218,-0.00000572,0.
 00000568,0.00000708,-0.00000563,0.00000400,0.02743790,-0.00128264,-0.0
 5051851,-0.03208596,0.00279089,0.00323705,0.01120769,-0.00071575,-0.00
 167433,-0.02524322,0.00418419,0.05466228,0.00003086,-0.00006474,-0.000
 16364,0.00027280,0.00001510,-0.00001034,-0.00036623,-0.00002415,0.0001
 7989,-0.00005388,0.00007632,-0.00018725,-0.00009348,-0.00002326,0.0000
 7395,0.00002084,0.00000273,-0.00001860,-0.00003705,0.00005620,0.000028
 18,-0.00002282,-0.00000635,-0.00000732,-0.00006656,-0.00000658,-0.0000
 2509,-0.08172171,-0.05913441,0.05947094,0.00718825,0.01123011,-0.00967
 128,0.00142219,0.00402079,-0.00393090,-0.00965761,-0.02172847,0.020809
 19,0.08269458,0.00006880,0.00008058,0.00004735,-0.00062149,-0.00025306
 ,0.00003535,0.00039017,0.00031284,-0.00023689,-0.00000847,-0.00013406,
 0.00057282,-0.00002969,-0.00000710,-0.00002746,-0.00002828,-0.00001175
 ,-0.00001192,0.00005671,-0.00001062,-0.00000090,0.00003802,0.00001975,
 -0.00001618,0.00012626,0.00006525,0.00008247,-0.05980316,-0.15785099,0
 .11712935,0.00283767,0.00371157,-0.00480055,-0.01081093,-0.02015620,0.
 01975271,0.00148757,0.00319822,-0.00456956,0.06633382,0.16966910,0.000
 12548,-0.00004003,-0.00015866,-0.00023272,-0.00013600,0.00009166,-0.00
 045917,-0.00000063,0.00121964,0.00075681,0.00035616,-0.00085362,-0.000
 13626,-0.00001021,0.00007053,-0.00001398,-0.00000248,0.,0.00000466,0.0
 0003519,0.00005276,0.00000220,-0.00002418,-0.00002003,0.00007734,0.000
 06115,0.00005175,0.06023777,0.11496328,-0.16080542,0.01090589,0.017866
 10,-0.02295253,-0.00422966,-0.00730022,0.00805618,0.00115896,0.0010812
 2,-0.00203290,-0.06405501,-0.12607451,0.18060504,0.00043275,0.00044250
 ,0.00046776,-0.00076577,-0.00529794,0.00205012,0.00468675,-0.00591764,
 -0.01289353,-0.02205650,0.00315276,0.02528197,-0.00017831,0.00005979,-
 0.00002179,-0.00097443,-0.00000665,-0.00041099,0.00037407,0.00020351,-
 0.00003524,-0.00104661,-0.00029366,-0.00005396,0.00008251,0.00042879,0
 .00034921,0.00025198,-0.00145987,-0.00046051,-0.01598621,-0.02614370,-
 0.00626275,0.00024949,-0.00071717,-0.00095655,-0.00047307,-0.00071831,
 -0.00065630,0.00017336,0.00014388,-0.00005279,0.03975494,-0.00081060,-
 0.00207853,-0.00069696,0.01153582,0.00614285,0.00071522,-0.02393144,-0
 .03480176,0.05131555,0.00520767,0.05299316,-0.04160286,0.00006954,0.00
 008048,0.00056734,-0.00078308,0.00024729,-0.00088135,-0.00107085,0.000
 88944,-0.00058866,0.00003045,0.00006842,-0.00000470,-0.00105907,-0.001
 34138,-0.00161737,0.00098218,-0.02100029,-0.01168290,-0.01902083,0.104
 32893,0.04073914,-0.00215231,0.00252787,-0.00213114,0.00033738,0.00090
 874,0.00049814,-0.00016808,0.00082454,0.00082080,0.02532012,-0.0752788
 7,-0.00000475,-0.00091919,0.00070749,0.00095827,0.00229694,-0.00146204
 ,-0.00677933,0.02324046,0.00778182,0.01854608,-0.01278793,-0.04585823,
 0.00017075,0.00005353,-0.00007036,-0.00019883,0.00003604,-0.00023162,-
 0.00020114,0.00018392,-0.00029247,0.00056295,0.00028882,0.00031275,-0.
 00002550,-0.00006353,-0.00042340,0.00054634,-0.01391995,-0.00800902,-0
 .00202407,0.02614054,-0.01271517,-0.00143837,-0.00036119,-0.00219905,0
 .00000247,0.00007163,0.00018630,-0.00007107,-0.00049895,-0.00049055,-0
 .01057313,-0.02706398,0.06327635,-0.00035703,-0.00008702,-0.00023009,-
 0.00019881,0.00015333,-0.00000708,0.00033413,0.00047533,-0.00051884,0.
 00082552,-0.00025896,0.00048580,0.00010455,-0.00002581,-0.00015621,0.0
 0008403,-0.00011970,0.00030436,-0.00000465,-0.00022944,0.00002932,0.00
 005889,-0.00002283,0.00003421,0.00003766,0.00001765,0.00000274,-0.0102
 6364,0.00201881,0.00223800,-0.32360374,0.00154960,0.00588232,0.0002893
 0,-0.00037227,-0.00007109,0.00057163,-0.00061864,-0.00269428,0.0005857
 9,0.00016998,-0.00032119,-0.00439823,0.00054754,0.00044751,0.34432718,
 -0.00029127,-0.00045143,-0.00001658,0.00190860,0.00101511,0.00046165,-
 0.00287957,-0.00244725,0.00461956,0.00037086,0.00896624,-0.00381756,-0
 .00011594,-0.00015768,0.00036329,-0.00001441,-0.00025346,-0.00053863,-
 0.00024372,0.00039743,-0.00010296,-0.00026380,-0.00004705,-0.00004508,
 -0.00022155,-0.00005596,-0.00018494,-0.00762931,0.00178912,-0.00015462
 ,0.01551922,-0.02541258,0.00696834,0.00102679,0.00050996,0.00082856,0.
 00036165,0.00137074,-0.00119505,0.00055503,0.00010966,-0.00088456,0.01
 351831,-0.01470626,-0.00346985,-0.00571689,0.02564089,-0.00018866,-0.0
 0009368,0.00038662,0.00041360,0.00026865,0.00005641,-0.00067317,-0.000
 55206,0.00079428,0.00012468,0.00168600,-0.00078200,0.00010381,0.000084
 77,-0.00012384,0.00000178,-0.00011939,-0.00012014,-0.00002849,0.000034
 24,-0.00011356,-0.00009892,-0.00000457,-0.00001227,-0.00000282,-0.0000
 4468,-0.00004217,-0.02914635,0.00184674,0.00416490,0.00961129,0.006239
 61,-0.05205110,0.00055599,-0.00027173,0.00064364,-0.00270247,-0.001038
 58,-0.00523163,0.00077786,0.00052763,0.00112030,0.00350051,-0.00270348
 ,-0.00062956,-0.00448498,-0.00390187,0.05008578,-0.00005539,0.00000610
 ,0.00008821,-0.00064341,-0.00018189,-0.00012176,0.00054742,0.00079192,
 -0.00118750,0.00036130,-0.00320372,0.00037821,0.00008702,0.00007389,-0
 .00023271,-0.00001285,0.00003726,0.00023601,0.00006961,-0.00015607,-0.
 00000884,0.00006504,0.00000986,0.00002200,0.00009342,0.00000313,0.0000
 5789,0.00791591,0.00743807,-0.01108563,-0.09691185,-0.05745099,0.08284
 699,0.00014261,-0.00011524,-0.00023304,0.00104974,0.00061521,0.0008487
 8,-0.00036934,-0.00035086,-0.00376832,-0.00012673,0.00496559,0.0000818
 2,-0.00839258,-0.01588401,0.02223633,0.09618008,-0.00011840,-0.0002738
 4,-0.00008106,0.00135102,0.00095126,0.00018237,-0.00148694,-0.00233527
 ,0.00334651,-0.00044594,0.00924551,-0.00274568,0.00002092,0.00003536,0
 .00001392,-0.00002406,0.00000960,-0.00000062,-0.00015348,0.00005307,-0
 .00004751,-0.00009155,-0.00006066,-0.00000881,-0.00014565,-0.00018734,
 -0.00019355,0.00297910,0.00620841,-0.00729095,-0.06389539,-0.09359001,
 0.11767183,0.00014753,-0.00016326,0.00124356,-0.00020944,-0.00027590,0
 .00030490,-0.00113406,0.00043226,-0.00071107,-0.00271474,-0.01980464,0
 .00677267,0.00251933,0.00373251,-0.00195761,0.06340175,0.09602294,-0.0
 0001309,-0.00009795,-0.00009838,0.00061049,0.00024533,0.00017243,-0.00
 072404,-0.00113898,0.00131141,-0.00078992,0.00406943,-0.00029224,-0.00
 003670,0.00001528,0.00003780,0.00000195,0.00000682,-0.00001251,-0.0000
 6077,0.00003874,-0.00000228,-0.00008710,-0.00006498,-0.00001627,-0.000
 04916,-0.00003909,-0.00006836,0.01167166,0.01603190,-0.01736860,0.0832
 0403,0.10465503,-0.20982435,0.00022530,-0.00051091,0.00047956,-0.00038
 217,-0.00018849,0.00126376,-0.00319952,-0.00191075,-0.00395414,0.00072
 797,-0.00568279,0.00011676,-0.00094049,0.00107030,0.00185432,-0.090158
 45,-0.11649889,0.22640109\\0.00000002,-0.00000008,0.00000040,-0.000000
 06,-0.00000004,0.00000062,-0.00000007,-0.00000005,0.00000069,0.0000000
 9,-0.00000012,0.,0.00000003,0.00000021,0.00000023,-0.00000003,-0.00000
 036,0.00000016,0.,-0.00000017,0.00000064,-0.00000001,0.00000025,0.0000
 0089,0.00000003,-0.00000038,0.00000085,0.00000005,0.00000029,-0.000000
 68,-0.00000007,-0.00000008,-0.00000053,0.00000005,0.00000042,-0.000000
 96,-0.00000001,0.00000028,-0.00000057,-0.00000003,0.00000057,-0.000000
 37,0.00000002,-0.00000019,-0.00000008,0.00000005,-0.00000012,-0.000000
 57,-0.00000005,-0.00000040,-0.00000070\\\@
 Job cpu time:       0 days  0 hours 23 minutes 46.7 seconds.
 File lengths (MBytes):  RWF=   7115 Int=      0 D2E=      0 Chk=     10 Scr=      1
 Normal termination of Gaussian 09 at Wed Sep 15 14:09:07 2021.
