 Entering Gaussian System, Link 0=/Local/ce_dana/g09/g09
 Initial command:
 /Local/ce_dana/g09/l1.exe "/storage/ce_dana/alongd/scratch/g09/Gau-11387.inp" -scrdir="/storage/ce_dana/alongd/scratch/g09/"
 Entering Link 1 = /Local/ce_dana/g09/l1.exe PID=     11388.
  
 Copyright (c) 1988,1990,1992,1993,1995,1998,2003,2009,2013,
            Gaussian, Inc.  All Rights Reserved.
  
 This is part of the Gaussian(R) 09 program.  It is based on
 the Gaussian(R) 03 system (copyright 2003, Gaussian, Inc.),
 the Gaussian(R) 98 system (copyright 1998, Gaussian, Inc.),
 the Gaussian(R) 94 system (copyright 1995, Gaussian, Inc.),
 the Gaussian 92(TM) system (copyright 1992, Gaussian, Inc.),
 the Gaussian 90(TM) system (copyright 1990, Gaussian, Inc.),
 the Gaussian 88(TM) system (copyright 1988, Gaussian, Inc.),
 the Gaussian 86(TM) system (copyright 1986, Carnegie Mellon
 University), and the Gaussian 82(TM) system (copyright 1983,
 Carnegie Mellon University). Gaussian is a federally registered
 trademark of Gaussian, Inc.
  
 This software contains proprietary and confidential information,
 including trade secrets, belonging to Gaussian, Inc.
  
 This software is provided under written license and may be
 used, copied, transmitted, or stored only in accord with that
 written license.
  
 The following legend is applicable only to US Government
 contracts under FAR:
  
                    RESTRICTED RIGHTS LEGEND
  
 Use, reproduction and disclosure by the US Government is
 subject to restrictions as set forth in subparagraphs (a)
 and (c) of the Commercial Computer Software - Restricted
 Rights clause in FAR 52.227-19.
  
 Gaussian, Inc.
 340 Quinnipiac St., Bldg. 40, Wallingford CT 06492
  
  
 ---------------------------------------------------------------
 Warning -- This program may not be used in any manner that
 competes with the business of Gaussian, Inc. or will provide
 assistance to any competitor of Gaussian, Inc.  The licensee
 of this program is prohibited from giving any competitor of
 Gaussian, Inc. access to this program.  By using this program,
 the user acknowledges that Gaussian, Inc. is engaged in the
 business of creating and licensing software in the field of
 computational chemistry and represents and warrants to the
 licensee that it is not a competitor of Gaussian, Inc. and that
 it will not use this program in any manner prohibited above.
 ---------------------------------------------------------------
  

 Cite this work as:
 Gaussian 09, Revision D.01,
 M. J. Frisch, G. W. Trucks, H. B. Schlegel, G. E. Scuseria, 
 M. A. Robb, J. R. Cheeseman, G. Scalmani, V. Barone, B. Mennucci, 
 G. A. Petersson, H. Nakatsuji, M. Caricato, X. Li, H. P. Hratchian, 
 A. F. Izmaylov, J. Bloino, G. Zheng, J. L. Sonnenberg, M. Hada, 
 M. Ehara, K. Toyota, R. Fukuda, J. Hasegawa, M. Ishida, T. Nakajima, 
 Y. Honda, O. Kitao, H. Nakai, T. Vreven, J. A. Montgomery, Jr., 
 J. E. Peralta, F. Ogliaro, M. Bearpark, J. J. Heyd, E. Brothers, 
 K. N. Kudin, V. N. Staroverov, T. Keith, R. Kobayashi, J. Normand, 
 K. Raghavachari, A. Rendell, J. C. Burant, S. S. Iyengar, J. Tomasi, 
 M. Cossi, N. Rega, J. M. Millam, M. Klene, J. E. Knox, J. B. Cross, 
 V. Bakken, C. Adamo, J. Jaramillo, R. Gomperts, R. E. Stratmann, 
 O. Yazyev, A. J. Austin, R. Cammi, C. Pomelli, J. W. Ochterski, 
 R. L. Martin, K. Morokuma, V. G. Zakrzewski, G. A. Voth, 
 P. Salvador, J. J. Dannenberg, S. Dapprich, A. D. Daniels, 
 O. Farkas, J. B. Foresman, J. V. Ortiz, J. Cioslowski, 
 and D. J. Fox, Gaussian, Inc., Wallingford CT, 2013.
 
 ******************************************
 Gaussian 09:  ES64L-G09RevD.01 24-Apr-2013
                 3-Jul-2021 
 ******************************************
 %chk=check.chk
 %mem=25600mb
 %NProcShared=10
 Will use up to   10 processors via shared memory.
 ----------------------------------------------------------------------
 #P opt=(ts, calcfc, noeigentest, maxcycles=100, tight, maxstep=5) gues
 s=mix cbs-qb3 scf=(tight, direct) integral=(grid=ultrafine, Acc2E=12) 
 IOp(2/9=2000) scf=xqc
 ----------------------------------------------------------------------
 1/5=1,6=100,7=10,8=5,10=4,11=1,14=-1,18=20,26=4,38=1/1,3;
 2/9=2000,12=2,17=6,18=5,40=1/2;
 3/5=4,6=6,7=700,11=2,16=1,25=1,30=1,71=2,74=-5,75=-5,140=1/1,2,3;
 4/13=-1/1;
 5/5=2,8=3,13=1,32=2,38=5,87=12/2,8;
 8/6=4,10=90,11=11,87=12/1;
 11/6=1,8=1,9=11,15=111,16=1,87=12/1,2,10;
 10/6=1,13=1,87=12/2;
 6/7=2,8=2,9=2,10=2,28=1/1;
 7/10=1,18=20,25=1,87=12/1,2,3,16;
 1/5=1,6=100,7=10,8=5,10=4,11=1,14=-1,18=20,26=4/3(2);
 2/9=2000/2;
 99//99;
 2/9=2000/2;
 3/5=4,6=6,7=700,11=2,16=1,25=1,30=1,71=1,74=-5,75=-5/1,2,3;
 4/5=5,16=3,69=1/1;
 5/5=2,8=3,13=1,32=2,38=5,87=12/2,8;
 7/87=12/1,2,3,16;
 1/5=1,6=100,7=10,8=5,11=1,14=-1,18=20,26=4/3(-5);
 2/9=2000/2;
 6/7=2,8=2,9=2,10=2,19=2,28=1/1;
 99/9=1/99;
 Leave Link    1 at Sat Jul  3 11:36:52 2021, MaxMem=  3355443200 cpu:         0.1
 (Enter /Local/ce_dana/g09/l101.exe)
 ---
 TS0
 ---
 Symbolic Z-matrix:
 Charge =  0 Multiplicity = 2
 C                    -0.20217  -0.1382   -2.94346 
 C                    -0.75937   0.1698   -1.569 
 O                    -0.32528  -0.84357  -0.6636 
 O                    -0.89285  -0.48541   0.62379 
 H                    -0.54431  -1.11994  -3.28725 
 H                    -0.51332   0.61824  -3.66932 
 H                     0.89194  -0.17386  -2.91696 
 H                    -1.85402   0.18343  -1.59891 
 H                    -0.39648   1.14352  -1.22331 
 H                     0.05495   0.06182   1.03448 
 C                     1.11945   0.67642   1.49575 
 C                     1.11945   0.67642   3.00779 
 H                     1.11945   1.70076   1.11138 
 H                     2.00657   0.16427   1.11138 
 H                     2.00654   1.1886    3.39218 
 H                     1.11945  -0.34792   3.39217 
 H                     0.23234   1.18858   3.39216 
 
 Add virtual bond connecting atoms H10        and O4         Dist= 2.21D+00.
 Add virtual bond connecting atoms C11        and H10        Dist= 2.48D+00.
 NAtoms=     17 NQM=       17 NQMF=       0 NMMI=      0 NMMIF=      0
                NMic=       0 NMicF=      0.
                    Isotopes and Nuclear Properties:
 (Nuclear quadrupole moments (NQMom) in fm**2, nuclear magnetic moments (NMagM)
  in nuclear magnetons)

  Atom         1           2           3           4           5           6           7           8           9          10
 IAtWgt=          12          12          16          16           1           1           1           1           1           1
 AtmWgt=  12.0000000  12.0000000  15.9949146  15.9949146   1.0078250   1.0078250   1.0078250   1.0078250   1.0078250   1.0078250
 NucSpn=           0           0           0           0           1           1           1           1           1           1
 AtZEff=   0.0000000   0.0000000   0.0000000   0.0000000   0.0000000   0.0000000   0.0000000   0.0000000   0.0000000   0.0000000
 NQMom=    0.0000000   0.0000000   0.0000000   0.0000000   0.0000000   0.0000000   0.0000000   0.0000000   0.0000000   0.0000000
 NMagM=    0.0000000   0.0000000   0.0000000   0.0000000   2.7928460   2.7928460   2.7928460   2.7928460   2.7928460   2.7928460
 AtZNuc=   6.0000000   6.0000000   8.0000000   8.0000000   1.0000000   1.0000000   1.0000000   1.0000000   1.0000000   1.0000000

  Atom        11          12          13          14          15          16          17
 IAtWgt=          12          12           1           1           1           1           1
 AtmWgt=  12.0000000  12.0000000   1.0078250   1.0078250   1.0078250   1.0078250   1.0078250
 NucSpn=           0           0           1           1           1           1           1
 AtZEff=   0.0000000   0.0000000   0.0000000   0.0000000   0.0000000   0.0000000   0.0000000
 NQMom=    0.0000000   0.0000000   0.0000000   0.0000000   0.0000000   0.0000000   0.0000000
 NMagM=    0.0000000   0.0000000   2.7928460   2.7928460   2.7928460   2.7928460   2.7928460
 AtZNuc=   6.0000000   6.0000000   1.0000000   1.0000000   1.0000000   1.0000000   1.0000000
 Leave Link  101 at Sat Jul  3 11:36:53 2021, MaxMem=  3355443200 cpu:         0.5
 (Enter /Local/ce_dana/g09/l103.exe)

 GradGradGradGradGradGradGradGradGradGradGradGradGradGradGradGradGradGrad
 Berny optimization.
 Initialization pass.
                           ----------------------------
                           !    Initial Parameters    !
                           ! (Angstroms and Degrees)  !
 --------------------------                            --------------------------
 ! Name  Definition              Value          Derivative Info.                !
 --------------------------------------------------------------------------------
 ! R1    R(1,2)                  1.5147         calculate D2E/DX2 analytically  !
 ! R2    R(1,5)                  1.095          calculate D2E/DX2 analytically  !
 ! R3    R(1,6)                  1.0936         calculate D2E/DX2 analytically  !
 ! R4    R(1,7)                  1.095          calculate D2E/DX2 analytically  !
 ! R5    R(2,3)                  1.4266         calculate D2E/DX2 analytically  !
 ! R6    R(2,8)                  1.0951         calculate D2E/DX2 analytically  !
 ! R7    R(2,9)                  1.0951         calculate D2E/DX2 analytically  !
 ! R8    R(3,4)                  1.4518         calculate D2E/DX2 analytically  !
 ! R9    R(4,10)                 1.1689         calculate D2E/DX2 analytically  !
 ! R10   R(10,11)                1.3129         calculate D2E/DX2 analytically  !
 ! R11   R(11,12)                1.512          calculate D2E/DX2 analytically  !
 ! R12   R(11,13)                1.0941         calculate D2E/DX2 analytically  !
 ! R13   R(11,14)                1.0941         calculate D2E/DX2 analytically  !
 ! R14   R(12,15)                1.0941         calculate D2E/DX2 analytically  !
 ! R15   R(12,16)                1.0941         calculate D2E/DX2 analytically  !
 ! R16   R(12,17)                1.0941         calculate D2E/DX2 analytically  !
 ! A1    A(2,1,5)              110.6246         calculate D2E/DX2 analytically  !
 ! A2    A(2,1,6)              110.9143         calculate D2E/DX2 analytically  !
 ! A3    A(2,1,7)              110.6227         calculate D2E/DX2 analytically  !
 ! A4    A(5,1,6)              108.8362         calculate D2E/DX2 analytically  !
 ! A5    A(5,1,7)              106.8933         calculate D2E/DX2 analytically  !
 ! A6    A(6,1,7)              108.8375         calculate D2E/DX2 analytically  !
 ! A7    A(1,2,3)              108.6339         calculate D2E/DX2 analytically  !
 ! A8    A(1,2,8)              110.2082         calculate D2E/DX2 analytically  !
 ! A9    A(1,2,9)              110.2014         calculate D2E/DX2 analytically  !
 ! A10   A(3,2,8)              109.2888         calculate D2E/DX2 analytically  !
 ! A11   A(3,2,9)              109.2944         calculate D2E/DX2 analytically  !
 ! A12   A(8,2,9)              109.1941         calculate D2E/DX2 analytically  !
 ! A13   A(2,3,4)              105.5802         calculate D2E/DX2 analytically  !
 ! A14   A(3,4,10)              96.3185         calculate D2E/DX2 analytically  !
 ! A15   A(10,11,12)           110.5689         calculate D2E/DX2 analytically  !
 ! A16   A(10,11,13)           108.3525         calculate D2E/DX2 analytically  !
 ! A17   A(10,11,14)           108.3525         calculate D2E/DX2 analytically  !
 ! A18   A(12,11,13)           110.568          calculate D2E/DX2 analytically  !
 ! A19   A(12,11,14)           110.5675         calculate D2E/DX2 analytically  !
 ! A20   A(13,11,14)           108.352          calculate D2E/DX2 analytically  !
 ! A21   A(11,12,15)           110.5689         calculate D2E/DX2 analytically  !
 ! A22   A(11,12,16)           110.5679         calculate D2E/DX2 analytically  !
 ! A23   A(11,12,17)           110.5675         calculate D2E/DX2 analytically  !
 ! A24   A(15,12,16)           108.3529         calculate D2E/DX2 analytically  !
 ! A25   A(15,12,17)           108.3525         calculate D2E/DX2 analytically  !
 ! A26   A(16,12,17)           108.3518         calculate D2E/DX2 analytically  !
 ! A27   L(4,10,11,7,-1)       180.0            calculate D2E/DX2 analytically  !
 ! A28   L(4,10,11,7,-2)       180.0            calculate D2E/DX2 analytically  !
 ! D1    D(5,1,2,3)             59.1269         calculate D2E/DX2 analytically  !
 ! D2    D(5,1,2,8)            -60.5818         calculate D2E/DX2 analytically  !
 ! D3    D(5,1,2,9)            178.8382         calculate D2E/DX2 analytically  !
 ! D4    D(6,1,2,3)            179.9996         calculate D2E/DX2 analytically  !
 ! D5    D(6,1,2,8)             60.2909         calculate D2E/DX2 analytically  !
 ! D6    D(6,1,2,9)            -60.2891         calculate D2E/DX2 analytically  !
 ! D7    D(7,1,2,3)            -59.1274         calculate D2E/DX2 analytically  !
 ! D8    D(7,1,2,8)           -178.8361         calculate D2E/DX2 analytically  !
 ! D9    D(7,1,2,9)             60.5839         calculate D2E/DX2 analytically  !
 ! D10   D(1,2,3,4)            179.9922         calculate D2E/DX2 analytically  !
 ! D11   D(8,2,3,4)            -59.7273         calculate D2E/DX2 analytically  !
 ! D12   D(9,2,3,4)             59.7167         calculate D2E/DX2 analytically  !
 ! D13   D(2,3,4,10)           -96.4533         calculate D2E/DX2 analytically  !
 ! D14   D(3,4,11,12)         -155.6935         calculate D2E/DX2 analytically  !
 ! D15   D(3,4,11,13)           82.9854         calculate D2E/DX2 analytically  !
 ! D16   D(3,4,11,14)          -34.3729         calculate D2E/DX2 analytically  !
 ! D17   D(10,11,12,15)       -180.0            calculate D2E/DX2 analytically  !
 ! D18   D(10,11,12,16)         59.9991         calculate D2E/DX2 analytically  !
 ! D19   D(10,11,12,17)        -59.9997         calculate D2E/DX2 analytically  !
 ! D20   D(13,11,12,15)        -59.9994         calculate D2E/DX2 analytically  !
 ! D21   D(13,11,12,16)        179.9997         calculate D2E/DX2 analytically  !
 ! D22   D(13,11,12,17)         60.0009         calculate D2E/DX2 analytically  !
 ! D23   D(14,11,12,15)         59.9997         calculate D2E/DX2 analytically  !
 ! D24   D(14,11,12,16)        -60.0012         calculate D2E/DX2 analytically  !
 ! D25   D(14,11,12,17)        180.0            calculate D2E/DX2 analytically  !
 --------------------------------------------------------------------------------
 Trust Radius=5.00D-02 FncErr=1.00D-07 GrdErr=1.00D-06
 Number of steps in this run=    100 maximum allowed number of steps=    102.
 Search for a saddle point of order  1.
 GradGradGradGradGradGradGradGradGradGradGradGradGradGradGradGradGradGrad

 Leave Link  103 at Sat Jul  3 11:36:53 2021, MaxMem=  3355443200 cpu:         0.0
 (Enter /Local/ce_dana/g09/l202.exe)
                          Input orientation:                          
 ---------------------------------------------------------------------
 Center     Atomic      Atomic             Coordinates (Angstroms)
 Number     Number       Type             X           Y           Z
 ---------------------------------------------------------------------
      1          6           0       -0.202171   -0.138200   -2.943460
      2          6           0       -0.759371    0.169796   -1.569004
      3          8           0       -0.325276   -0.843571   -0.663599
      4          8           0       -0.892846   -0.485406    0.623794
      5          1           0       -0.544312   -1.119941   -3.287253
      6          1           0       -0.513321    0.618238   -3.669323
      7          1           0        0.891936   -0.173865   -2.916962
      8          1           0       -1.854021    0.183428   -1.598914
      9          1           0       -0.396479    1.143520   -1.223310
     10          1           0        0.054950    0.061817    1.034484
     11          6           0        1.119454    0.676424    1.495746
     12          6           0        1.119454    0.676424    3.007794
     13          1           0        1.119454    1.700761    1.111375
     14          1           0        2.006569    0.164266    1.111382
     15          1           0        2.006541    1.188597    3.392179
     16          1           0        1.119448   -0.347919    3.392165
     17          1           0        0.232338    1.188582    3.392158
 ---------------------------------------------------------------------
                    Distance matrix (angstroms):
                    1          2          3          4          5
     1  C    0.000000
     2  C    1.514748   0.000000
     3  O    2.389659   1.426573   0.000000
     4  O    3.650053   2.292481   1.451825   0.000000
     5  H    1.095021   2.159179   2.647248   3.977487   0.000000
     6  H    1.093568   2.161708   3.347630   4.448924   1.779945
     7  H    1.095009   2.159146   2.647218   3.977369   1.759257
     8  H    2.154032   1.095143   2.065575   2.512296   2.502917
     9  H    2.153945   1.095141   2.065642   2.512285   3.066753
    10  H    3.991260   2.730006   1.961578   1.168947   4.520297
    11  C    4.702856   3.630337   3.010050   2.481834   5.373279
    12  C    6.150425   4.973303   4.228092   3.329063   6.754456
    13  H    4.644368   3.613623   3.422193   3.011048   5.483832
    14  H    4.627285   3.851614   3.099000   3.011051   5.244443
    15  H    6.839526   5.770750   5.100628   4.344270   7.513389
    16  H    6.475400   5.330215   4.333834   3.425216   6.926669
    17  H    6.487619   5.160866   4.570530   3.425218   7.109641
                    6          7          8          9         10
     6  H    0.000000
     7  H    1.779950   0.000000
     8  H    2.504621   3.066788   0.000000
     9  H    2.504507   2.502794   1.785297   0.000000
    10  H    4.770570   4.045989   3.254804   2.543915   0.000000
    11  C    5.417313   4.499639   4.319898   3.147935   1.312887
    12  C    6.874099   5.989783   5.505122   4.518681   2.324836
    13  H    5.166516   4.448988   4.299944   2.838895   1.955816
    14  H    5.423199   4.193364   4.717015   3.490611   1.955819
    15  H    7.519297   6.550108   6.389469   5.203775   3.261451
    16  H    7.311909   6.315627   5.833928   5.081834   2.619103
    17  H    7.123610   6.488169   5.502184   4.658324   2.619101
                   11         12         13         14         15
    11  C    0.000000
    12  C    1.512049   0.000000
    13  H    1.094078   2.155382   0.000000
    14  H    1.094082   2.155379   1.774201   0.000000
    15  H    2.155389   1.094073   2.500260   2.500257   0.000000
    16  H    2.155385   1.094084   3.065794   2.500258   1.774208
    17  H    2.155379   1.094082   2.500254   3.065788   1.774202
                   16         17
    16  H    0.000000
    17  H    1.774204   0.000000
 Stoichiometry    C4H11O2(2)
 Framework group  C1[X(C4H11O2)]
 Deg. of freedom    45
 Full point group                 C1      NOp   1
 Largest Abelian subgroup         C1      NOp   1
 Largest concise Abelian subgroup C1      NOp   1
                         Standard orientation:                         
 ---------------------------------------------------------------------
 Center     Atomic      Atomic             Coordinates (Angstroms)
 Number     Number       Type             X           Y           Z
 ---------------------------------------------------------------------
      1          6           0        2.884595   -0.681040   -0.117002
      2          6           0        1.700447    0.037538    0.496105
      3          8           0        0.878307    0.540840   -0.555505
      4          8           0       -0.228489    1.212005    0.102019
      5          1           0        3.462095   -0.000862   -0.751763
      6          1           0        3.541770   -1.083152    0.659090
      7          1           0        2.547703   -1.503810   -0.756220
      8          1           0        2.044167    0.871435    1.117241
      9          1           0        1.116386   -0.653847    1.112703
     10          1           0       -0.976872    0.316117    0.040816
     11          6           0       -1.817408   -0.690087   -0.027925
     12          6           0       -3.244926   -0.194271    0.023565
     13          1           0       -1.614845   -1.365905    0.808283
     14          1           0       -1.631773   -1.230915   -0.960694
     15          1           0       -3.945373   -1.032775   -0.033718
     16          1           0       -3.447486    0.481556   -0.812645
     17          1           0       -3.430560    0.346557    0.956335
 ---------------------------------------------------------------------
 Rotational constants (GHZ):      7.8061457      1.2276554      1.1344900
 Leave Link  202 at Sat Jul  3 11:36:53 2021, MaxMem=  3355443200 cpu:         0.0
 (Enter /Local/ce_dana/g09/l301.exe)
 Standard basis: 6-311G(2d,d,p) (5D, 7F)
 Ernie: Thresh=  0.10000D-02 Tol=  0.10000D-05 Strict=F.
 There are   180 symmetry adapted cartesian basis functions of A   symmetry.
 There are   174 symmetry adapted basis functions of A   symmetry.
   174 basis functions,   280 primitive gaussians,   180 cartesian basis functions
    26 alpha electrons       25 beta electrons
       nuclear repulsion energy       247.1160263311 Hartrees.
 IExCor=  402 DFT=T Ex+Corr=B3LYP ExCW=0 ScaHFX=  0.200000
 ScaDFX=  0.800000  0.720000  1.000000  0.810000 ScalE2=  1.000000  1.000000
 IRadAn=      5 IRanWt=     -1 IRanGd=            0 ICorTp=0 IEmpDi=  4
 NAtoms=   17 NActive=   17 NUniq=   17 SFac= 1.00D+00 NAtFMM=   60 NAOKFM=F Big=F
 Integral buffers will be    131072 words long.
 Raffenetti 2 integral format.
 Two-electron integral symmetry is turned on.
 Leave Link  301 at Sat Jul  3 11:36:53 2021, MaxMem=  3355443200 cpu:         0.1
 (Enter /Local/ce_dana/g09/l302.exe)
 NPDir=0 NMtPBC=     1 NCelOv=     1 NCel=       1 NClECP=     1 NCelD=      1
         NCelK=      1 NCelE2=     1 NClLst=     1 CellRange=     0.0.
 One-electron integrals computed using PRISM.
 NBasis=   174 RedAO= T EigKep=  3.10D-03  NBF=   174
 NBsUse=   174 1.00D-06 EigRej= -1.00D+00 NBFU=   174
 Precomputing XC quadrature grid using
 IXCGrd= 4 IRadAn=           5 IRanWt=          -1 IRanGd=           0 AccXCQ= 0.00D+00.
 Generated NRdTot=       0 NPtTot=           0 NUsed=           0 NTot=          32
 NSgBfM=   180   180   180   180   180 MxSgAt=    17 MxSgA2=    17.
 Leave Link  302 at Sat Jul  3 11:36:53 2021, MaxMem=  3355443200 cpu:         2.4
 (Enter /Local/ce_dana/g09/l303.exe)
 DipDrv:  MaxL=1.
 Leave Link  303 at Sat Jul  3 11:36:54 2021, MaxMem=  3355443200 cpu:         0.1
 (Enter /Local/ce_dana/g09/l401.exe)
 ExpMin= 1.03D-01 ExpMax= 8.59D+03 ExpMxC= 1.30D+03 IAcc=3 IRadAn=         5 AccDes= 0.00D+00
 Harris functional with IExCor=  402 and IRadAn=       5 diagonalized for initial guess.
 HarFok:  IExCor=  402 AccDes= 0.00D+00 IRadAn=         5 IDoV= 1 UseB2=F ITyADJ=14
 ICtDFT=  3500011 ScaDFX=  1.000000  1.000000  1.000000  1.000000
 FoFCou: FMM=F IPFlag=           0 FMFlag=      100000 FMFlg1=           0
         NFxFlg=           0 DoJE=T BraDBF=F KetDBF=T FulRan=T
         wScrn=  0.000000 ICntrl=     500 IOpCl=  0 I1Cent=   200000004 NGrid=           0
         NMat0=    1 NMatS0=      1 NMatT0=    0 NMatD0=    1 NMtDS0=    0 NMtDT0=    0
 Petite list used in FoFCou.
 Harris En= -309.476210336474    
 JPrj=0 DoOrth=F DoCkMO=T.
 Mixing orbitals, IMix= 1 IMixAn=  0 NRI=1 NE=   26 Coef=  7.07106781D-01  7.07106781D-01
 Mixing orbitals, IMix= 1 IMixAn=  0 NRI=1 NE=   25 Coef= -7.07106781D-01  7.07106781D-01
 Initial guess <Sx>= 0.0000 <Sy>= 0.0000 <Sz>= 0.5000 <S**2>= 1.0000 S= 0.6180
 Leave Link  401 at Sat Jul  3 11:36:55 2021, MaxMem=  3355443200 cpu:        11.6
 (Enter /Local/ce_dana/g09/l502.exe)
 UHF open shell SCF:
 Using DIIS extrapolation, IDIIS=  1040.
 Integral symmetry usage will be decided dynamically.
 Keep R1 and R2 ints in memory in canonical form, NReq=234886934.
 IVT=      106304 IEndB=      106304 NGot=  3355443200 MDV=  3123521047
 LenX=  3123521047 LenY=  3123488206
 Requested convergence on RMS density matrix=1.00D-08 within  64 cycles.
 Requested convergence on MAX density matrix=1.00D-06.
 Requested convergence on             energy=1.00D-06.
 No special actions if energy rises.
 FoFCou: FMM=F IPFlag=           0 FMFlag=           0 FMFlg1=           0
         NFxFlg=           0 DoJE=F BraDBF=F KetDBF=F FulRan=T
         wScrn=  0.000000 ICntrl=     600 IOpCl=  0 I1Cent=           0 NGrid=           0
         NMat0=    1 NMatS0=  15225 NMatT0=    0 NMatD0=    1 NMtDS0=    0 NMtDT0=    0
 Symmetry not used in FoFCou.
 Integral accuracy reduced to 1.0D-05 until final iterations.

 Cycle   1  Pass 0  IDiag  1:
 E= -309.084123730680    
 DIIS: error= 4.22D-02 at cycle   1 NSaved=   1.
 NSaved= 1 IEnMin= 1 EnMin= -309.084123730680     IErMin= 1 ErrMin= 4.22D-02
 ErrMax= 4.22D-02  0.00D+00 EMaxC= 1.00D-01 BMatC= 9.38D-01 BMatP= 9.38D-01
 IDIUse=3 WtCom= 5.78D-01 WtEn= 4.22D-01
 Coeff-Com:  0.100D+01
 Coeff-En:   0.100D+01
 Coeff:      0.100D+01
 Gap=     0.083 Goal=   None    Shift=    0.000
 Gap=     0.114 Goal=   None    Shift=    0.000
 GapD=    0.083 DampG=0.500 DampE=0.500 DampFc=0.2500 IDamp=-1.
 Damping current iteration by 2.50D-01
 RMSDP=5.41D-03 MaxDP=1.36D-01              OVMax= 4.44D-01

 Cycle   2  Pass 0  IDiag  1:
 E= -309.180439915688     Delta-E=       -0.096316185009 Rises=F Damp=T
 DIIS: error= 1.87D-02 at cycle   2 NSaved=   2.
 NSaved= 2 IEnMin= 2 EnMin= -309.180439915688     IErMin= 2 ErrMin= 1.87D-02
 ErrMax= 1.87D-02  0.00D+00 EMaxC= 1.00D-01 BMatC= 2.41D-01 BMatP= 9.38D-01
 IDIUse=3 WtCom= 8.13D-01 WtEn= 1.87D-01
 Coeff-Com: -0.759D+00 0.176D+01
 Coeff-En:   0.000D+00 0.100D+01
 Coeff:     -0.617D+00 0.162D+01
 Gap=     0.218 Goal=   None    Shift=    0.000
 Gap=     0.185 Goal=   None    Shift=    0.000
 RMSDP=3.49D-03 MaxDP=7.82D-02 DE=-9.63D-02 OVMax= 1.68D-01

 Cycle   3  Pass 0  IDiag  1:
 E= -309.381477972203     Delta-E=       -0.201038056514 Rises=F Damp=F
 DIIS: error= 8.79D-03 at cycle   3 NSaved=   3.
 NSaved= 3 IEnMin= 3 EnMin= -309.381477972203     IErMin= 3 ErrMin= 8.79D-03
 ErrMax= 8.79D-03  0.00D+00 EMaxC= 1.00D-01 BMatC= 9.96D-02 BMatP= 2.41D-01
 IDIUse=3 WtCom= 9.12D-01 WtEn= 8.79D-02
 Coeff-Com: -0.414D+00 0.947D+00 0.467D+00
 Coeff-En:   0.000D+00 0.000D+00 0.100D+01
 Coeff:     -0.377D+00 0.864D+00 0.514D+00
 Gap=     0.224 Goal=   None    Shift=    0.000
 Gap=     0.128 Goal=   None    Shift=    0.000
 RMSDP=1.04D-03 MaxDP=3.08D-02 DE=-2.01D-01 OVMax= 1.28D-01

 Cycle   4  Pass 0  IDiag  1:
 E= -309.402016481673     Delta-E=       -0.020538509471 Rises=F Damp=F
 DIIS: error= 6.22D-03 at cycle   4 NSaved=   4.
 NSaved= 4 IEnMin= 4 EnMin= -309.402016481673     IErMin= 4 ErrMin= 6.22D-03
 ErrMax= 6.22D-03  0.00D+00 EMaxC= 1.00D-01 BMatC= 3.45D-02 BMatP= 9.96D-02
 IDIUse=3 WtCom= 9.38D-01 WtEn= 6.22D-02
 Coeff-Com: -0.256D-01 0.852D-01 0.352D+00 0.588D+00
 Coeff-En:   0.000D+00 0.000D+00 0.129D+00 0.871D+00
 Coeff:     -0.241D-01 0.799D-01 0.339D+00 0.606D+00
 Gap=     0.246 Goal=   None    Shift=    0.000
 Gap=     0.151 Goal=   None    Shift=    0.000
 RMSDP=5.19D-04 MaxDP=1.46D-02 DE=-2.05D-02 OVMax= 6.04D-02

 Cycle   5  Pass 0  IDiag  1:
 E= -309.411414011621     Delta-E=       -0.009397529947 Rises=F Damp=F
 DIIS: error= 2.16D-03 at cycle   5 NSaved=   5.
 NSaved= 5 IEnMin= 5 EnMin= -309.411414011621     IErMin= 5 ErrMin= 2.16D-03
 ErrMax= 2.16D-03  0.00D+00 EMaxC= 1.00D-01 BMatC= 4.86D-03 BMatP= 3.45D-02
 IDIUse=3 WtCom= 9.78D-01 WtEn= 2.16D-02
 Coeff-Com:  0.213D-01-0.300D-01 0.122D+00 0.304D+00 0.582D+00
 Coeff-En:   0.000D+00 0.000D+00 0.000D+00 0.000D+00 0.100D+01
 Coeff:      0.208D-01-0.294D-01 0.119D+00 0.298D+00 0.591D+00
 Gap=     0.259 Goal=   None    Shift=    0.000
 Gap=     0.146 Goal=   None    Shift=    0.000
 RMSDP=3.00D-04 MaxDP=6.26D-03 DE=-9.40D-03 OVMax= 5.04D-02

 Cycle   6  Pass 0  IDiag  1:
 E= -309.413366708132     Delta-E=       -0.001952696511 Rises=F Damp=F
 DIIS: error= 1.58D-03 at cycle   6 NSaved=   6.
 NSaved= 6 IEnMin= 6 EnMin= -309.413366708132     IErMin= 6 ErrMin= 1.58D-03
 ErrMax= 1.58D-03  0.00D+00 EMaxC= 1.00D-01 BMatC= 2.47D-03 BMatP= 4.86D-03
 IDIUse=3 WtCom= 9.84D-01 WtEn= 1.58D-02
 Coeff-Com:  0.137D-01-0.247D-01-0.991D-01-0.153D+00 0.447D+00 0.816D+00
 Coeff-En:   0.000D+00 0.000D+00 0.000D+00 0.000D+00 0.000D+00 0.100D+01
 Coeff:      0.135D-01-0.243D-01-0.975D-01-0.151D+00 0.440D+00 0.819D+00
 Gap=     0.261 Goal=   None    Shift=    0.000
 Gap=     0.152 Goal=   None    Shift=    0.000
 RMSDP=2.95D-04 MaxDP=6.83D-03 DE=-1.95D-03 OVMax= 6.02D-02

 Cycle   7  Pass 0  IDiag  1:
 E= -309.414903422961     Delta-E=       -0.001536714829 Rises=F Damp=F
 DIIS: error= 5.78D-04 at cycle   7 NSaved=   7.
 NSaved= 7 IEnMin= 7 EnMin= -309.414903422961     IErMin= 7 ErrMin= 5.78D-04
 ErrMax= 5.78D-04  0.00D+00 EMaxC= 1.00D-01 BMatC= 2.43D-04 BMatP= 2.47D-03
 IDIUse=3 WtCom= 9.94D-01 WtEn= 5.78D-03
 Coeff-Com: -0.155D-01 0.297D-01-0.326D-01-0.714D-01-0.634D-01 0.162D+00
 Coeff-Com:  0.991D+00
 Coeff-En:   0.000D+00 0.000D+00 0.000D+00 0.000D+00 0.000D+00 0.000D+00
 Coeff-En:   0.100D+01
 Coeff:     -0.154D-01 0.296D-01-0.324D-01-0.710D-01-0.630D-01 0.161D+00
 Coeff:      0.991D+00
 Gap=     0.262 Goal=   None    Shift=    0.000
 Gap=     0.151 Goal=   None    Shift=    0.000
 RMSDP=1.36D-04 MaxDP=3.83D-03 DE=-1.54D-03 OVMax= 2.72D-02

 Cycle   8  Pass 0  IDiag  1:
 E= -309.415181015151     Delta-E=       -0.000277592190 Rises=F Damp=F
 DIIS: error= 3.69D-04 at cycle   8 NSaved=   8.
 NSaved= 8 IEnMin= 8 EnMin= -309.415181015151     IErMin= 8 ErrMin= 3.69D-04
 ErrMax= 3.69D-04  0.00D+00 EMaxC= 1.00D-01 BMatC= 8.05D-05 BMatP= 2.43D-04
 IDIUse=3 WtCom= 9.96D-01 WtEn= 3.69D-03
 Coeff-Com: -0.928D-02 0.172D-01 0.133D-01 0.182D-01-0.111D+00-0.135D+00
 Coeff-Com:  0.412D+00 0.794D+00
 Coeff-En:   0.000D+00 0.000D+00 0.000D+00 0.000D+00 0.000D+00 0.000D+00
 Coeff-En:   0.000D+00 0.100D+01
 Coeff:     -0.924D-02 0.172D-01 0.132D-01 0.181D-01-0.111D+00-0.134D+00
 Coeff:      0.411D+00 0.795D+00
 Gap=     0.261 Goal=   None    Shift=    0.000
 Gap=     0.151 Goal=   None    Shift=    0.000
 RMSDP=5.88D-05 MaxDP=1.77D-03 DE=-2.78D-04 OVMax= 1.28D-02

 Cycle   9  Pass 0  IDiag  1:
 E= -309.415244840083     Delta-E=       -0.000063824932 Rises=F Damp=F
 DIIS: error= 1.36D-04 at cycle   9 NSaved=   9.
 NSaved= 9 IEnMin= 9 EnMin= -309.415244840083     IErMin= 9 ErrMin= 1.36D-04
 ErrMax= 1.36D-04  0.00D+00 EMaxC= 1.00D-01 BMatC= 1.34D-05 BMatP= 8.05D-05
 IDIUse=3 WtCom= 9.99D-01 WtEn= 1.36D-03
 Coeff-Com:  0.145D-02-0.265D-02 0.114D-01 0.185D-01-0.185D-01-0.887D-01
 Coeff-Com: -0.120D+00 0.263D+00 0.936D+00
 Coeff-En:   0.000D+00 0.000D+00 0.000D+00 0.000D+00 0.000D+00 0.000D+00
 Coeff-En:   0.000D+00 0.000D+00 0.100D+01
 Coeff:      0.145D-02-0.265D-02 0.113D-01 0.184D-01-0.185D-01-0.885D-01
 Coeff:     -0.120D+00 0.262D+00 0.936D+00
 Gap=     0.261 Goal=   None    Shift=    0.000
 Gap=     0.151 Goal=   None    Shift=    0.000
 RMSDP=3.93D-05 MaxDP=1.21D-03 DE=-6.38D-05 OVMax= 8.25D-03

 Cycle  10  Pass 0  IDiag  1:
 E= -309.415261855591     Delta-E=       -0.000017015508 Rises=F Damp=F
 DIIS: error= 3.87D-05 at cycle  10 NSaved=  10.
 NSaved=10 IEnMin=10 EnMin= -309.415261855591     IErMin=10 ErrMin= 3.87D-05
 ErrMax= 3.87D-05  0.00D+00 EMaxC= 1.00D-01 BMatC= 8.80D-07 BMatP= 1.34D-05
 IDIUse=1 WtCom= 1.00D+00 WtEn= 0.00D+00
 Coeff-Com:  0.327D-03-0.553D-03 0.379D-03 0.256D-03 0.857D-02 0.278D-02
 Coeff-Com: -0.519D-01-0.637D-01 0.447D-01 0.106D+01
 Coeff:      0.327D-03-0.553D-03 0.379D-03 0.256D-03 0.857D-02 0.278D-02
 Coeff:     -0.519D-01-0.637D-01 0.447D-01 0.106D+01
 Gap=     0.261 Goal=   None    Shift=    0.000
 Gap=     0.151 Goal=   None    Shift=    0.000
 RMSDP=1.19D-05 MaxDP=3.65D-04 DE=-1.70D-05 OVMax= 2.47D-03

 Cycle  11  Pass 0  IDiag  1:
 E= -309.415263258806     Delta-E=       -0.000001403215 Rises=F Damp=F
 DIIS: error= 1.80D-05 at cycle  11 NSaved=  11.
 NSaved=11 IEnMin=11 EnMin= -309.415263258806     IErMin=11 ErrMin= 1.80D-05
 ErrMax= 1.80D-05  0.00D+00 EMaxC= 1.00D-01 BMatC= 3.27D-07 BMatP= 8.80D-07
 IDIUse=1 WtCom= 1.00D+00 WtEn= 0.00D+00
 Coeff-Com: -0.185D-03 0.352D-03-0.130D-02-0.210D-02 0.647D-02 0.112D-01
 Coeff-Com: -0.985D-02-0.623D-01-0.954D-01 0.487D+00 0.666D+00
 Coeff:     -0.185D-03 0.352D-03-0.130D-02-0.210D-02 0.647D-02 0.112D-01
 Coeff:     -0.985D-02-0.623D-01-0.954D-01 0.487D+00 0.666D+00
 Gap=     0.261 Goal=   None    Shift=    0.000
 Gap=     0.151 Goal=   None    Shift=    0.000
 RMSDP=3.27D-06 MaxDP=8.70D-05 DE=-1.40D-06 OVMax= 5.53D-04

 Initial convergence to 1.0D-05 achieved.  Increase integral accuracy.
 Cycle  12  Pass 1  IDiag  1:
 E= -309.415265180849     Delta-E=       -0.000001922043 Rises=F Damp=F
 DIIS: error= 5.23D-06 at cycle   1 NSaved=   1.
 NSaved= 1 IEnMin= 1 EnMin= -309.415265180849     IErMin= 1 ErrMin= 5.23D-06
 ErrMax= 5.23D-06  0.00D+00 EMaxC= 1.00D-01 BMatC= 4.43D-08 BMatP= 4.43D-08
 IDIUse=1 WtCom= 1.00D+00 WtEn= 0.00D+00
 Coeff-Com:  0.100D+01
 Coeff:      0.100D+01
 Gap=     0.261 Goal=   None    Shift=    0.000
 Gap=     0.151 Goal=   None    Shift=    0.000
 RMSDP=3.27D-06 MaxDP=8.70D-05 DE=-1.92D-06 OVMax= 1.54D-04

 Cycle  13  Pass 1  IDiag  1:
 E= -309.415265187888     Delta-E=       -0.000000007039 Rises=F Damp=F
 DIIS: error= 7.77D-06 at cycle   2 NSaved=   2.
 NSaved= 2 IEnMin= 2 EnMin= -309.415265187888     IErMin= 1 ErrMin= 5.23D-06
 ErrMax= 7.77D-06  0.00D+00 EMaxC= 1.00D-01 BMatC= 6.35D-08 BMatP= 4.43D-08
 IDIUse=1 WtCom= 1.00D+00 WtEn= 0.00D+00
 Coeff-Com:  0.553D+00 0.447D+00
 Coeff:      0.553D+00 0.447D+00
 Gap=     0.261 Goal=   None    Shift=    0.000
 Gap=     0.151 Goal=   None    Shift=    0.000
 RMSDP=6.56D-07 MaxDP=2.11D-05 DE=-7.04D-09 OVMax= 1.02D-04

 Cycle  14  Pass 1  IDiag  1:
 E= -309.415265204985     Delta-E=       -0.000000017096 Rises=F Damp=F
 DIIS: error= 2.28D-06 at cycle   3 NSaved=   3.
 NSaved= 3 IEnMin= 3 EnMin= -309.415265204985     IErMin= 3 ErrMin= 2.28D-06
 ErrMax= 2.28D-06  0.00D+00 EMaxC= 1.00D-01 BMatC= 5.41D-09 BMatP= 4.43D-08
 IDIUse=1 WtCom= 1.00D+00 WtEn= 0.00D+00
 Coeff-Com:  0.111D+00 0.196D+00 0.693D+00
 Coeff:      0.111D+00 0.196D+00 0.693D+00
 Gap=     0.261 Goal=   None    Shift=    0.000
 Gap=     0.151 Goal=   None    Shift=    0.000
 RMSDP=3.12D-07 MaxDP=7.65D-06 DE=-1.71D-08 OVMax= 4.80D-05

 Cycle  15  Pass 1  IDiag  1:
 E= -309.415265207183     Delta-E=       -0.000000002199 Rises=F Damp=F
 DIIS: error= 2.26D-06 at cycle   4 NSaved=   4.
 NSaved= 4 IEnMin= 4 EnMin= -309.415265207183     IErMin= 4 ErrMin= 2.26D-06
 ErrMax= 2.26D-06  0.00D+00 EMaxC= 1.00D-01 BMatC= 3.34D-09 BMatP= 5.41D-09
 IDIUse=1 WtCom= 1.00D+00 WtEn= 0.00D+00
 Coeff-Com: -0.190D+00-0.501D-01 0.536D+00 0.705D+00
 Coeff:     -0.190D+00-0.501D-01 0.536D+00 0.705D+00
 Gap=     0.261 Goal=   None    Shift=    0.000
 Gap=     0.151 Goal=   None    Shift=    0.000
 RMSDP=3.03D-07 MaxDP=7.64D-06 DE=-2.20D-09 OVMax= 5.00D-05

 Cycle  16  Pass 1  IDiag  1:
 E= -309.415265208765     Delta-E=       -0.000000001582 Rises=F Damp=F
 DIIS: error= 9.26D-07 at cycle   5 NSaved=   5.
 NSaved= 5 IEnMin= 5 EnMin= -309.415265208765     IErMin= 5 ErrMin= 9.26D-07
 ErrMax= 9.26D-07  0.00D+00 EMaxC= 1.00D-01 BMatC= 7.07D-10 BMatP= 3.34D-09
 IDIUse=1 WtCom= 1.00D+00 WtEn= 0.00D+00
 Coeff-Com: -0.124D+00-0.585D-01 0.144D+00 0.419D+00 0.619D+00
 Coeff:     -0.124D+00-0.585D-01 0.144D+00 0.419D+00 0.619D+00
 Gap=     0.261 Goal=   None    Shift=    0.000
 Gap=     0.151 Goal=   None    Shift=    0.000
 RMSDP=1.28D-07 MaxDP=3.38D-06 DE=-1.58D-09 OVMax= 1.93D-05

 Cycle  17  Pass 1  IDiag  1:
 E= -309.415265209047     Delta-E=       -0.000000000281 Rises=F Damp=F
 DIIS: error= 4.69D-07 at cycle   6 NSaved=   6.
 NSaved= 6 IEnMin= 6 EnMin= -309.415265209047     IErMin= 6 ErrMin= 4.69D-07
 ErrMax= 4.69D-07  0.00D+00 EMaxC= 1.00D-01 BMatC= 2.45D-10 BMatP= 7.07D-10
 IDIUse=1 WtCom= 1.00D+00 WtEn= 0.00D+00
 Coeff-Com: -0.158D-01-0.204D-01-0.107D+00 0.428D-01 0.447D+00 0.654D+00
 Coeff:     -0.158D-01-0.204D-01-0.107D+00 0.428D-01 0.447D+00 0.654D+00
 Gap=     0.261 Goal=   None    Shift=    0.000
 Gap=     0.151 Goal=   None    Shift=    0.000
 RMSDP=7.87D-08 MaxDP=2.24D-06 DE=-2.81D-10 OVMax= 1.47D-05

 Cycle  18  Pass 1  IDiag  1:
 E= -309.415265209149     Delta-E=       -0.000000000102 Rises=F Damp=F
 DIIS: error= 1.41D-07 at cycle   7 NSaved=   7.
 NSaved= 7 IEnMin= 7 EnMin= -309.415265209149     IErMin= 7 ErrMin= 1.41D-07
 ErrMax= 1.41D-07  0.00D+00 EMaxC= 1.00D-01 BMatC= 1.80D-11 BMatP= 2.45D-10
 IDIUse=1 WtCom= 1.00D+00 WtEn= 0.00D+00
 Coeff-Com:  0.163D-01 0.248D-02-0.660D-01-0.614D-01 0.598D-01 0.257D+00
 Coeff-Com:  0.792D+00
 Coeff:      0.163D-01 0.248D-02-0.660D-01-0.614D-01 0.598D-01 0.257D+00
 Coeff:      0.792D+00
 Gap=     0.261 Goal=   None    Shift=    0.000
 Gap=     0.151 Goal=   None    Shift=    0.000
 RMSDP=3.04D-08 MaxDP=9.80D-07 DE=-1.02D-10 OVMax= 5.86D-06

 Cycle  19  Pass 1  IDiag  1:
 E= -309.415265209161     Delta-E=       -0.000000000011 Rises=F Damp=F
 DIIS: error= 5.67D-08 at cycle   8 NSaved=   8.
 NSaved= 8 IEnMin= 8 EnMin= -309.415265209161     IErMin= 8 ErrMin= 5.67D-08
 ErrMax= 5.67D-08  0.00D+00 EMaxC= 1.00D-01 BMatC= 2.63D-12 BMatP= 1.80D-11
 IDIUse=1 WtCom= 1.00D+00 WtEn= 0.00D+00
 Coeff-Com:  0.651D-02 0.328D-02 0.134D-02-0.230D-01-0.535D-01-0.335D-01
 Coeff-Com:  0.186D+00 0.913D+00
 Coeff:      0.651D-02 0.328D-02 0.134D-02-0.230D-01-0.535D-01-0.335D-01
 Coeff:      0.186D+00 0.913D+00
 Gap=     0.261 Goal=   None    Shift=    0.000
 Gap=     0.151 Goal=   None    Shift=    0.000
 RMSDP=1.36D-08 MaxDP=4.27D-07 DE=-1.13D-11 OVMax= 2.66D-06

 Cycle  20  Pass 1  IDiag  1:
 E= -309.415265209166     Delta-E=       -0.000000000005 Rises=F Damp=F
 DIIS: error= 2.79D-08 at cycle   9 NSaved=   9.
 NSaved= 9 IEnMin= 9 EnMin= -309.415265209166     IErMin= 9 ErrMin= 2.79D-08
 ErrMax= 2.79D-08  0.00D+00 EMaxC= 1.00D-01 BMatC= 8.81D-13 BMatP= 2.63D-12
 IDIUse=1 WtCom= 1.00D+00 WtEn= 0.00D+00
 Coeff-Com: -0.194D-02 0.103D-02 0.220D-01 0.855D-02-0.468D-01-0.103D+00
 Coeff-Com: -0.162D+00 0.430D+00 0.852D+00
 Coeff:     -0.194D-02 0.103D-02 0.220D-01 0.855D-02-0.468D-01-0.103D+00
 Coeff:     -0.162D+00 0.430D+00 0.852D+00
 Gap=     0.261 Goal=   None    Shift=    0.000
 Gap=     0.151 Goal=   None    Shift=    0.000
 RMSDP=8.26D-09 MaxDP=2.55D-07 DE=-5.23D-12 OVMax= 1.67D-06

 SCF Done:  E(UB3LYP) =  -309.415265209     A.U. after   20 cycles
            NFock= 20  Conv=0.83D-08     -V/T= 2.0037
 <Sx>= 0.0000 <Sy>= 0.0000 <Sz>= 0.5000 <S**2>= 0.7563 S= 0.5031
 <L.S>=  0.00000000000    
 KE= 3.082652196256D+02 PE=-1.217989429911D+03 EE= 3.531929187455D+02
 Annihilation of the first spin contaminant:
 S**2 before annihilation     0.7563,   after     0.7500
 Leave Link  502 at Sat Jul  3 11:37:46 2021, MaxMem=  3355443200 cpu:       395.5
 (Enter /Local/ce_dana/g09/l508.exe)
 QCSCF skips out because SCF is already converged.
 Leave Link  508 at Sat Jul  3 11:37:46 2021, MaxMem=  3355443200 cpu:         0.0
 (Enter /Local/ce_dana/g09/l801.exe)
 DoSCS=F DFT=T ScalE2(SS,OS)=  1.000000  1.000000
 Range of M.O.s used for correlation:     1   174
 NBasis=   174 NAE=    26 NBE=    25 NFC=     0 NFV=     0
 NROrb=    174 NOA=    26 NOB=    25 NVA=   148 NVB=   149
 Leave Link  801 at Sat Jul  3 11:37:46 2021, MaxMem=  3355443200 cpu:         0.0
 (Enter /Local/ce_dana/g09/l1101.exe)
 Using compressed storage, NAtomX=    17.
 Will process     18 centers per pass.
 Leave Link 1101 at Sat Jul  3 11:37:47 2021, MaxMem=  3355443200 cpu:         4.2
 (Enter /Local/ce_dana/g09/l1102.exe)
 Symmetrizing basis deriv contribution to polar:
 IMax=3 JMax=2 DiffMx= 0.00D+00
 Leave Link 1102 at Sat Jul  3 11:37:47 2021, MaxMem=  3355443200 cpu:         0.1
 (Enter /Local/ce_dana/g09/l1110.exe)
 Forming Gx(P) for the SCF density, NAtomX=    17.
 Integral derivatives from FoFJK, PRISM(SPDF).
 Do as many integral derivatives as possible in FoFJK.
 G2DrvN: MDV=    3355442960.
 G2DrvN: will do    18 centers at a time, making    1 passes.
 Calling FoFCou, ICntrl=  3107 FMM=F I1Cent=   0 AccDes= 1.00D-12.
 FoFJK:  IHMeth= 1 ICntrl=    3107 DoSepK=F KAlg= 0 I1Cent=   0 FoldK=F
 IRaf=         0 NMat=   1 IRICut=       1 DoRegI=T DoRafI=F ISym2E= 0.
 FoFCou: FMM=F IPFlag=           0 FMFlag=      100000 FMFlg1=           0
         NFxFlg=           0 DoJE=F BraDBF=F KetDBF=F FulRan=T
         wScrn=  0.000000 ICntrl=    3107 IOpCl=  1 I1Cent=           0 NGrid=           0
         NMat0=    1 NMatS0=      1 NMatT0=    0 NMatD0=    1 NMtDS0=    0 NMtDT0=    0
 Symmetry not used in FoFCou.
 End of G2Drv F.D. properties file   721 does not exist.
 End of G2Drv F.D. properties file   722 does not exist.
 End of G2Drv F.D. properties file   788 does not exist.
 Leave Link 1110 at Sat Jul  3 11:39:26 2021, MaxMem=  3355443200 cpu:       991.8
 (Enter /Local/ce_dana/g09/l1002.exe)
 Minotr:  UHF open shell wavefunction.
          IDoAtm=11111111111111111
          Direct CPHF calculation.
          Differentiating once with respect to nuclear coordinates.
          Requested convergence is 1.0D-08 RMS, and 1.0D-07 maximum.
          Secondary convergence is 1.0D-12 RMS, and 1.0D-12 maximum.
          NewPWx=T KeepS1=F KeepF1=F KeepIn=T MapXYZ=F SortEE=F KeepMc=T.
          MDV=    3355442678 using IRadAn=       1.
 Generate precomputed XC quadrature information.
 Keep R1 and R2 ints in memory in canonical form, NReq=234788016.
 FoFCou: FMM=F IPFlag=           0 FMFlag=           0 FMFlg1=           0
         NFxFlg=           0 DoJE=F BraDBF=F KetDBF=F FulRan=T
         wScrn=  0.000000 ICntrl=     600 IOpCl=  0 I1Cent=           0 NGrid=           0
         NMat0=    1 NMatS0=  15225 NMatT0=    0 NMatD0=    1 NMtDS0=    0 NMtDT0=    0
 Symmetry not used in FoFCou.
          Solving linear equations simultaneously, MaxMat=       0.
          There are    54 degrees of freedom in the 1st order CPHF.  IDoFFX=6 NUNeed=     0.
     48 vectors produced by pass  0 Test12= 1.40D-14 1.85D-09 XBig12= 1.72D-01 1.30D-01.
 AX will form    48 AO Fock derivatives at one time.
     48 vectors produced by pass  1 Test12= 1.40D-14 1.85D-09 XBig12= 2.64D-02 3.52D-02.
     48 vectors produced by pass  2 Test12= 1.40D-14 1.85D-09 XBig12= 5.09D-04 3.33D-03.
     48 vectors produced by pass  3 Test12= 1.40D-14 1.85D-09 XBig12= 3.84D-06 2.68D-04.
     48 vectors produced by pass  4 Test12= 1.40D-14 1.85D-09 XBig12= 2.42D-08 1.69D-05.
     48 vectors produced by pass  5 Test12= 1.40D-14 1.85D-09 XBig12= 8.90D-11 8.86D-07.
     21 vectors produced by pass  6 Test12= 1.40D-14 1.85D-09 XBig12= 2.04D-13 4.29D-08.
      3 vectors produced by pass  7 Test12= 1.40D-14 1.85D-09 XBig12= 6.99D-16 2.46D-09.
 InvSVY:  IOpt=1 It=  1 EMax= 5.00D-16
 Solved reduced A of dimension   312 with    54 vectors.
 End of Minotr F.D. properties file   721 does not exist.
 End of Minotr F.D. properties file   722 does not exist.
 End of Minotr F.D. properties file   788 does not exist.
 Leave Link 1002 at Sat Jul  3 11:41:27 2021, MaxMem=  3355443200 cpu:      1181.7
 (Enter /Local/ce_dana/g09/l601.exe)
 Copying SCF densities to generalized density rwf, IOpCl= 1 IROHF=0.

 **********************************************************************

            Population analysis using the SCF density.

 **********************************************************************

 Orbital symmetries:
 Alpha Orbitals:
       Occupied  (A) (A) (A) (A) (A) (A) (A) (A) (A) (A) (A) (A)
                 (A) (A) (A) (A) (A) (A) (A) (A) (A) (A) (A) (A)
                 (A) (A)
       Virtual   (A) (A) (A) (A) (A) (A) (A) (A) (A) (A) (A) (A)
                 (A) (A) (A) (A) (A) (A) (A) (A) (A) (A) (A) (A)
                 (A) (A) (A) (A) (A) (A) (A) (A) (A) (A) (A) (A)
                 (A) (A) (A) (A) (A) (A) (A) (A) (A) (A) (A) (A)
                 (A) (A) (A) (A) (A) (A) (A) (A) (A) (A) (A) (A)
                 (A) (A) (A) (A) (A) (A) (A) (A) (A) (A) (A) (A)
                 (A) (A) (A) (A) (A) (A) (A) (A) (A) (A) (A) (A)
                 (A) (A) (A) (A) (A) (A) (A) (A) (A) (A) (A) (A)
                 (A) (A) (A) (A) (A) (A) (A) (A) (A) (A) (A) (A)
                 (A) (A) (A) (A) (A) (A) (A) (A) (A) (A) (A) (A)
                 (A) (A) (A) (A) (A) (A) (A) (A) (A) (A) (A) (A)
                 (A) (A) (A) (A) (A) (A) (A) (A) (A) (A) (A) (A)
                 (A) (A) (A) (A)
 Beta  Orbitals:
       Occupied  (A) (A) (A) (A) (A) (A) (A) (A) (A) (A) (A) (A)
                 (A) (A) (A) (A) (A) (A) (A) (A) (A) (A) (A) (A)
                 (A)
       Virtual   (A) (A) (A) (A) (A) (A) (A) (A) (A) (A) (A) (A)
                 (A) (A) (A) (A) (A) (A) (A) (A) (A) (A) (A) (A)
                 (A) (A) (A) (A) (A) (A) (A) (A) (A) (A) (A) (A)
                 (A) (A) (A) (A) (A) (A) (A) (A) (A) (A) (A) (A)
                 (A) (A) (A) (A) (A) (A) (A) (A) (A) (A) (A) (A)
                 (A) (A) (A) (A) (A) (A) (A) (A) (A) (A) (A) (A)
                 (A) (A) (A) (A) (A) (A) (A) (A) (A) (A) (A) (A)
                 (A) (A) (A) (A) (A) (A) (A) (A) (A) (A) (A) (A)
                 (A) (A) (A) (A) (A) (A) (A) (A) (A) (A) (A) (A)
                 (A) (A) (A) (A) (A) (A) (A) (A) (A) (A) (A) (A)
                 (A) (A) (A) (A) (A) (A) (A) (A) (A) (A) (A) (A)
                 (A) (A) (A) (A) (A) (A) (A) (A) (A) (A) (A) (A)
                 (A) (A) (A) (A) (A)
 The electronic state is 2-A.
 Alpha  occ. eigenvalues --  -19.18341 -19.17875 -10.22183 -10.18348 -10.17152
 Alpha  occ. eigenvalues --  -10.16883  -1.11669  -0.90070  -0.77139  -0.74683
 Alpha  occ. eigenvalues --   -0.62837  -0.61751  -0.52710  -0.49519  -0.46548
 Alpha  occ. eigenvalues --   -0.45391  -0.44171  -0.42182  -0.40119  -0.38015
 Alpha  occ. eigenvalues --   -0.37314  -0.36376  -0.35774  -0.30201  -0.29268
 Alpha  occ. eigenvalues --   -0.24688
 Alpha virt. eigenvalues --    0.01451   0.04126   0.06018   0.07445   0.08523
 Alpha virt. eigenvalues --    0.09927   0.10812   0.11171   0.12640   0.13008
 Alpha virt. eigenvalues --    0.14698   0.15527   0.21330   0.21498   0.23909
 Alpha virt. eigenvalues --    0.28764   0.29517   0.30092   0.31067   0.31984
 Alpha virt. eigenvalues --    0.33044   0.35444   0.38118   0.41445   0.46307
 Alpha virt. eigenvalues --    0.51347   0.52569   0.54612   0.55604   0.56425
 Alpha virt. eigenvalues --    0.57028   0.57350   0.58378   0.58808   0.59521
 Alpha virt. eigenvalues --    0.59967   0.62066   0.62600   0.72422   0.72690
 Alpha virt. eigenvalues --    0.77631   0.78715   0.84818   0.87697   0.89203
 Alpha virt. eigenvalues --    0.89962   0.94317   0.95709   0.98264   1.06052
 Alpha virt. eigenvalues --    1.09845   1.14317   1.23879   1.25332   1.26220
 Alpha virt. eigenvalues --    1.35375   1.40622   1.41818   1.43997   1.44252
 Alpha virt. eigenvalues --    1.44963   1.45135   1.46329   1.46800   1.48300
 Alpha virt. eigenvalues --    1.49500   1.49776   1.53072   1.54593   1.57565
 Alpha virt. eigenvalues --    1.57838   1.61605   1.66834   1.67404   1.71727
 Alpha virt. eigenvalues --    1.73046   1.77178   1.77697   1.81603   1.85586
 Alpha virt. eigenvalues --    1.94586   1.95863   1.97450   1.99176   2.02545
 Alpha virt. eigenvalues --    2.03187   2.09353   2.11973   2.19942   2.20671
 Alpha virt. eigenvalues --    2.26455   2.28783   2.29217   2.34318   2.36909
 Alpha virt. eigenvalues --    2.37766   2.39701   2.40539   2.42780   2.46295
 Alpha virt. eigenvalues --    2.49264   2.49956   2.51258   2.51520   2.54033
 Alpha virt. eigenvalues --    2.55976   2.56694   2.56989   2.60149   2.60992
 Alpha virt. eigenvalues --    2.62520   2.68386   2.69972   2.75909   2.79538
 Alpha virt. eigenvalues --    2.81225   2.82324   2.87737   2.98613   3.12317
 Alpha virt. eigenvalues --    3.16759   3.18044   3.20028   3.27721   3.38394
 Alpha virt. eigenvalues --    3.66580   3.76472   3.78029   3.79279   3.79728
 Alpha virt. eigenvalues --    3.80412   3.80466   3.89846   3.94715   4.17392
 Alpha virt. eigenvalues --    4.19403   4.71183   4.84139   4.88188   5.24689
 Alpha virt. eigenvalues --    5.39448   5.65494  23.78579  23.83899  23.91101
 Alpha virt. eigenvalues --   23.91656  49.78003  49.83110
  Beta  occ. eigenvalues --  -19.18168 -19.16483 -10.22190 -10.17473 -10.17154
  Beta  occ. eigenvalues --  -10.16893  -1.10275  -0.87967  -0.76082  -0.74335
  Beta  occ. eigenvalues --   -0.61983  -0.61021  -0.50924  -0.48749  -0.45355
  Beta  occ. eigenvalues --   -0.44753  -0.43431  -0.40732  -0.39940  -0.37490
  Beta  occ. eigenvalues --   -0.36762  -0.35876  -0.35402  -0.28636  -0.27585
  Beta virt. eigenvalues --   -0.12470   0.02229   0.04316   0.06282   0.07550
  Beta virt. eigenvalues --    0.08621   0.10041   0.10883   0.11251   0.12768
  Beta virt. eigenvalues --    0.13158   0.14912   0.15760   0.21497   0.21912
  Beta virt. eigenvalues --    0.24506   0.28890   0.29644   0.30994   0.31488
  Beta virt. eigenvalues --    0.32101   0.33378   0.35865   0.38541   0.41593
  Beta virt. eigenvalues --    0.46425   0.52915   0.52974   0.54710   0.56039
  Beta virt. eigenvalues --    0.56839   0.57520   0.57781   0.58429   0.58945
  Beta virt. eigenvalues --    0.59629   0.60653   0.62331   0.63049   0.72661
  Beta virt. eigenvalues --    0.73777   0.77878   0.79230   0.85026   0.88436
  Beta virt. eigenvalues --    0.89477   0.90826   0.95347   0.96500   0.98961
  Beta virt. eigenvalues --    1.06482   1.10374   1.14372   1.24167   1.25703
  Beta virt. eigenvalues --    1.26543   1.35560   1.40911   1.42884   1.44159
  Beta virt. eigenvalues --    1.44344   1.45227   1.45347   1.46433   1.47146
  Beta virt. eigenvalues --    1.49465   1.49664   1.50390   1.53466   1.55077
  Beta virt. eigenvalues --    1.57785   1.58253   1.61700   1.67047   1.67610
  Beta virt. eigenvalues --    1.71906   1.73194   1.77260   1.78109   1.81940
  Beta virt. eigenvalues --    1.86118   1.94654   1.96853   1.97708   1.99262
  Beta virt. eigenvalues --    2.03342   2.03797   2.09957   2.12013   2.20681
  Beta virt. eigenvalues --    2.22135   2.27020   2.28919   2.29570   2.34347
  Beta virt. eigenvalues --    2.37029   2.37859   2.39923   2.40836   2.43043
  Beta virt. eigenvalues --    2.46409   2.49573   2.50130   2.51409   2.52773
  Beta virt. eigenvalues --    2.54727   2.56243   2.56925   2.57078   2.60522
  Beta virt. eigenvalues --    2.61072   2.63091   2.68654   2.70684   2.76326
  Beta virt. eigenvalues --    2.79676   2.81480   2.82427   2.87999   3.01785
  Beta virt. eigenvalues --    3.13081   3.16999   3.18510   3.22237   3.28156
  Beta virt. eigenvalues --    3.41533   3.67452   3.77375   3.78052   3.79592
  Beta virt. eigenvalues --    3.79806   3.80458   3.80586   3.90667   3.97514
  Beta virt. eigenvalues --    4.17803   4.19974   4.71826   4.85171   4.89094
  Beta virt. eigenvalues --    5.25792   5.42622   5.66450  23.78573  23.84857
  Beta virt. eigenvalues --   23.91099  23.91679  49.78682  49.83989
          Condensed to atoms (all electrons):
               1          2          3          4          5          6
     1  C    4.912060   0.322796  -0.031759   0.007700   0.396775   0.392018
     2  C    0.322796   4.805463   0.215798  -0.053018  -0.033262  -0.024304
     3  O   -0.031759   0.215798   8.046633   0.090219   0.003885   0.003259
     4  O    0.007700  -0.053018   0.090219   8.104254  -0.000213  -0.000283
     5  H    0.396775  -0.033262   0.003885  -0.000213   0.572813  -0.024483
     6  H    0.392018  -0.024304   0.003259  -0.000283  -0.024483   0.569811
     7  H    0.396875  -0.034153   0.004001  -0.000180  -0.035615  -0.024500
     8  H   -0.034704   0.398446  -0.033904   0.003601  -0.012207  -0.002171
     9  H   -0.033596   0.388164  -0.038912   0.000002   0.011226  -0.003571
    10  H   -0.001659   0.001838  -0.039895   0.138708   0.000117   0.000116
    11  C    0.000253  -0.001966   0.004367  -0.077022  -0.000020  -0.000037
    12  C   -0.000004   0.000084   0.000524   0.002513  -0.000001   0.000000
    13  H   -0.000067   0.000058   0.000577   0.000681  -0.000007   0.000003
    14  H    0.000086  -0.000361   0.002752   0.000490  -0.000006  -0.000002
    15  H   -0.000000  -0.000004  -0.000040  -0.000142   0.000000  -0.000000
    16  H   -0.000002   0.000005   0.000040   0.001780  -0.000000   0.000000
    17  H    0.000002   0.000011  -0.000033   0.000765   0.000000   0.000000
               7          8          9         10         11         12
     1  C    0.396875  -0.034704  -0.033596  -0.001659   0.000253  -0.000004
     2  C   -0.034153   0.398446   0.388164   0.001838  -0.001966   0.000084
     3  O    0.004001  -0.033904  -0.038912  -0.039895   0.004367   0.000524
     4  O   -0.000180   0.003601   0.000002   0.138708  -0.077022   0.002513
     5  H   -0.035615  -0.012207   0.011226   0.000117  -0.000020  -0.000001
     6  H   -0.024500  -0.002171  -0.003571   0.000116  -0.000037   0.000000
     7  H    0.579579   0.010773  -0.013295   0.000045   0.000070   0.000003
     8  H    0.010773   0.615499  -0.056732   0.000869   0.000068   0.000022
     9  H   -0.013295  -0.056732   0.639610   0.005877   0.001893  -0.000420
    10  H    0.000045   0.000869   0.005877   0.433549   0.239188  -0.016133
    11  C    0.000070   0.000068   0.001893   0.239188   5.162106   0.344294
    12  C    0.000003   0.000022  -0.000420  -0.016133   0.344294   4.847818
    13  H    0.000024  -0.000029  -0.000505  -0.010065   0.384573  -0.037835
    14  H    0.000184   0.000099  -0.000404  -0.008971   0.390562  -0.036750
    15  H   -0.000001  -0.000002   0.000037   0.003595  -0.031184   0.397381
    16  H    0.000001  -0.000000  -0.000031  -0.003617  -0.038179   0.405583
    17  H    0.000000  -0.000001   0.000028  -0.003536  -0.036688   0.403135
              13         14         15         16         17
     1  C   -0.000067   0.000086  -0.000000  -0.000002   0.000002
     2  C    0.000058  -0.000361  -0.000004   0.000005   0.000011
     3  O    0.000577   0.002752  -0.000040   0.000040  -0.000033
     4  O    0.000681   0.000490  -0.000142   0.001780   0.000765
     5  H   -0.000007  -0.000006   0.000000  -0.000000   0.000000
     6  H    0.000003  -0.000002  -0.000000   0.000000   0.000000
     7  H    0.000024   0.000184  -0.000001   0.000001   0.000000
     8  H   -0.000029   0.000099  -0.000002  -0.000000  -0.000001
     9  H   -0.000505  -0.000404   0.000037  -0.000031   0.000028
    10  H   -0.010065  -0.008971   0.003595  -0.003617  -0.003536
    11  C    0.384573   0.390562  -0.031184  -0.038179  -0.036688
    12  C   -0.037835  -0.036750   0.397381   0.405583   0.403135
    13  H    0.587985  -0.036475  -0.005710   0.009231  -0.008033
    14  H   -0.036475   0.569611  -0.005736  -0.007949   0.008899
    15  H   -0.005710  -0.005736   0.584723  -0.029325  -0.029572
    16  H    0.009231  -0.007949  -0.029325   0.573764  -0.030386
    17  H   -0.008033   0.008899  -0.029572  -0.030386   0.580111
          Atomic-Atomic Spin Densities.
               1          2          3          4          5          6
     1  C   -0.003213   0.002394  -0.000618  -0.000067  -0.000121   0.000255
     2  C    0.002394  -0.007839   0.002669  -0.003296   0.000054   0.000059
     3  O   -0.000618   0.002669   0.076712  -0.041499   0.000412  -0.000022
     4  O   -0.000067  -0.003296  -0.041499   0.588301  -0.000021   0.000003
     5  H   -0.000121   0.000054   0.000412  -0.000021   0.000294   0.000198
     6  H    0.000255   0.000059  -0.000022   0.000003   0.000198  -0.000759
     7  H    0.000031   0.000065  -0.000043  -0.000107  -0.000184  -0.000182
     8  H    0.001219  -0.003367  -0.002263   0.001115  -0.000593  -0.000341
     9  H   -0.000539   0.002832  -0.000956   0.003103   0.000124   0.000266
    10  H    0.000052   0.000999   0.007659  -0.030305  -0.000044  -0.000007
    11  C   -0.000048   0.002004   0.012956  -0.090074  -0.000048  -0.000009
    12  C    0.000000  -0.000034  -0.000182   0.003553   0.000000   0.000000
    13  H    0.000019  -0.000231  -0.000797   0.003532   0.000007   0.000003
    14  H    0.000011  -0.000190  -0.001198   0.002930   0.000009   0.000001
    15  H   -0.000000   0.000007   0.000029  -0.000398  -0.000000  -0.000000
    16  H    0.000000  -0.000005  -0.000044   0.000606   0.000000   0.000000
    17  H   -0.000000  -0.000007  -0.000029   0.000820   0.000000   0.000000
               7          8          9         10         11         12
     1  C    0.000031   0.001219  -0.000539   0.000052  -0.000048   0.000000
     2  C    0.000065  -0.003367   0.002832   0.000999   0.002004  -0.000034
     3  O   -0.000043  -0.002263  -0.000956   0.007659   0.012956  -0.000182
     4  O   -0.000107   0.001115   0.003103  -0.030305  -0.090074   0.003553
     5  H   -0.000184  -0.000593   0.000124  -0.000044  -0.000048   0.000000
     6  H   -0.000182  -0.000341   0.000266  -0.000007  -0.000009   0.000000
     7  H    0.000147   0.000270  -0.000242   0.000103   0.000188  -0.000002
     8  H    0.000270   0.010064  -0.002825   0.000943   0.001177  -0.000020
     9  H   -0.000242  -0.002825   0.006135  -0.002438  -0.004589   0.000102
    10  H    0.000103   0.000943  -0.002438  -0.050893   0.058365  -0.000672
    11  C    0.000188   0.001177  -0.004589   0.058365   0.602225  -0.028493
    12  C   -0.000002  -0.000020   0.000102  -0.000672  -0.028493  -0.013002
    13  H   -0.000044  -0.000158   0.001135  -0.000993  -0.007072   0.000419
    14  H   -0.000062  -0.000066   0.000406  -0.000460  -0.006506   0.000727
    15  H    0.000001   0.000003  -0.000030   0.000255  -0.011471   0.012338
    16  H   -0.000000  -0.000004   0.000014  -0.000319  -0.003160   0.002615
    17  H   -0.000000  -0.000009   0.000030  -0.000541  -0.003881   0.002560
              13         14         15         16         17
     1  C    0.000019   0.000011  -0.000000   0.000000  -0.000000
     2  C   -0.000231  -0.000190   0.000007  -0.000005  -0.000007
     3  O   -0.000797  -0.001198   0.000029  -0.000044  -0.000029
     4  O    0.003532   0.002930  -0.000398   0.000606   0.000820
     5  H    0.000007   0.000009  -0.000000   0.000000   0.000000
     6  H    0.000003   0.000001  -0.000000   0.000000   0.000000
     7  H   -0.000044  -0.000062   0.000001  -0.000000  -0.000000
     8  H   -0.000158  -0.000066   0.000003  -0.000004  -0.000009
     9  H    0.001135   0.000406  -0.000030   0.000014   0.000030
    10  H   -0.000993  -0.000460   0.000255  -0.000319  -0.000541
    11  C   -0.007072  -0.006506  -0.011471  -0.003160  -0.003881
    12  C    0.000419   0.000727   0.012338   0.002615   0.002560
    13  H   -0.008749   0.004503  -0.002606   0.000228   0.001394
    14  H    0.004503  -0.007150  -0.002247   0.001036   0.000270
    15  H   -0.002606  -0.002247   0.043686  -0.003614  -0.004411
    16  H    0.000228   0.001036  -0.003614   0.005137   0.001550
    17  H    0.001394   0.000270  -0.004411   0.001550   0.007256
 Mulliken charges and spin densities:
               1          2
     1  C   -0.326773  -0.000625
     2  C    0.014403  -0.003887
     3  O   -0.227513   0.052784
     4  O   -0.219853   0.438197
     5  H    0.120997   0.000087
     6  H    0.114143  -0.000536
     7  H    0.116187  -0.000062
     8  H    0.110372   0.005146
     9  H    0.100628   0.002529
    10  H    0.259972  -0.018296
    11  C   -0.342278   0.521562
    12  C   -0.310214  -0.020088
    13  H    0.115594  -0.009410
    14  H    0.123970  -0.007985
    15  H    0.115981   0.031541
    16  H    0.119086   0.004041
    17  H    0.115299   0.005001
 Sum of Mulliken charges =  -0.00000   1.00000
 Mulliken charges and spin densities with hydrogens summed into heavy atoms:
               1          2
     1  C    0.024553  -0.001136
     2  C    0.225403   0.003788
     3  O   -0.227513   0.052784
     4  O    0.040119   0.419901
    11  C   -0.102713   0.504167
    12  C    0.040152   0.020495
 APT charges:
               1
     1  C   -1.143906
     2  C   -0.503987
     3  O   -0.162014
     4  O   -0.157893
     5  H    0.444760
     6  H    0.563454
     7  H    0.224492
     8  H    0.415902
     9  H    0.189112
    10  H    0.087317
    11  C   -0.663703
    12  C   -1.200841
    13  H    0.320741
    14  H    0.335780
    15  H    0.594899
    16  H    0.329719
    17  H    0.326168
 Sum of APT charges =  -0.00000
 APT charges with hydrogens summed into heavy atoms:
               1
     1  C    0.088801
     2  C    0.101027
     3  O   -0.162014
     4  O   -0.070576
    11  C   -0.007182
    12  C    0.049945
 Electronic spatial extent (au):  <R**2>=           1083.2551
 Charge=             -0.0000 electrons
 Dipole moment (field-independent basis, Debye):
    X=              0.0832    Y=             -1.9607    Z=              0.9639  Tot=              2.1864
 Quadrupole moment (field-independent basis, Debye-Ang):
   XX=            -33.3597   YY=            -41.0105   ZZ=            -39.8251
   XY=              0.5119   XZ=              1.5174   YZ=              0.3628
 Traceless Quadrupole moment (field-independent basis, Debye-Ang):
   XX=              4.7054   YY=             -2.9454   ZZ=             -1.7600
   XY=              0.5119   XZ=              1.5174   YZ=              0.3628
 Octapole moment (field-independent basis, Debye-Ang**2):
  XXX=              6.4065  YYY=              3.7819  ZZZ=             -1.0816  XYY=              0.9246
  XXY=              0.1468  XXZ=              1.4582  XZZ=              0.8221  YZZ=              1.2299
  YYZ=             -0.2294  XYZ=              0.0144
 Hexadecapole moment (field-independent basis, Debye-Ang**3):
 XXXX=          -1189.9802 YYYY=           -173.8988 ZZZZ=            -90.6898 XXXY=              9.0421
 XXXZ=              5.0789 YYYX=              4.4572 YYYZ=              0.4198 ZZZX=              0.0391
 ZZZY=             -0.5467 XXYY=           -225.8404 XXZZ=           -212.8752 YYZZ=            -41.5917
 XXYZ=             -1.6575 YYXZ=              0.6817 ZZXY=             -1.1927
 N-N= 2.471160263311D+02 E-N=-1.217989427014D+03  KE= 3.082652196257D+02
  Exact polarizability:   0.000   0.000   0.000   0.000   0.000   0.000
 Approx polarizability: 113.246  11.468  87.186  -4.183   1.410  72.911
                          Isotropic Fermi Contact Couplings
        Atom                 a.u.       MegaHertz       Gauss      10(-4) cm-1
     1  C(13)             -0.00106      -1.19128      -0.42508      -0.39737
     2  C(13)             -0.00278      -3.12636      -1.11556      -1.04284
     3  O(17)              0.01542      -9.34907      -3.33598      -3.11851
     4  O(17)              0.03711     -22.49488      -8.02673      -7.50348
     5  H(1)              -0.00002      -0.10614      -0.03787      -0.03541
     6  H(1)              -0.00020      -0.87936      -0.31378      -0.29332
     7  H(1)              -0.00002      -0.06998      -0.02497      -0.02334
     8  H(1)               0.00077       3.43388       1.22529       1.14542
     9  H(1)               0.00213       9.52862       3.40005       3.17840
    10  H(1)              -0.02416    -108.00840     -38.54008     -36.02772
    11  C(13)              0.15761     177.18372      63.22356      59.10213
    12  C(13)             -0.00987     -11.09583      -3.95927      -3.70117
    13  H(1)              -0.00068      -3.02295      -1.07866      -1.00835
    14  H(1)               0.00068       3.04891       1.08793       1.01701
    15  H(1)               0.01757      78.54328      28.02620      26.19922
    16  H(1)               0.00248      11.10312       3.96187       3.70360
    17  H(1)               0.00282      12.62016       4.50319       4.20963
 --------------------------------------------------------
       Center         ----  Spin Dipole Couplings  ----
                      3XX-RR        3YY-RR        3ZZ-RR
 --------------------------------------------------------
     1   Atom        0.002285     -0.000358     -0.001927
     2   Atom        0.007603     -0.003580     -0.004023
     3   Atom        0.037667      0.153312     -0.190980
     4   Atom       -0.076138      1.125937     -1.049799
     5   Atom        0.003270     -0.001499     -0.001771
     6   Atom        0.001961     -0.000578     -0.001384
     7   Atom        0.002192     -0.000094     -0.002098
     8   Atom        0.006919     -0.004815     -0.002104
     9   Atom        0.002910     -0.000120     -0.002790
    10   Atom        0.032751      0.093973     -0.126724
    11   Atom        0.045394      0.269577     -0.314971
    12   Atom        0.030668     -0.010185     -0.020482
    13   Atom       -0.020479      0.008023      0.012456
    14   Atom       -0.019650     -0.003210      0.022860
    15   Atom        0.007297     -0.000042     -0.007255
    16   Atom        0.006942     -0.002864     -0.004078
    17   Atom        0.006622     -0.003891     -0.002732
 --------------------------------------------------------
                        XY            XZ            YZ
 --------------------------------------------------------
     1   Atom       -0.001794      0.000310      0.000145
     2   Atom       -0.005442      0.003114     -0.003322
     3   Atom        0.306863      0.009411     -0.070782
     4   Atom        1.441263      0.073737      0.162143
     5   Atom       -0.001097     -0.000852      0.000274
     6   Atom       -0.001324      0.000543     -0.000236
     7   Atom       -0.002554     -0.000923      0.000516
     8   Atom       -0.001062      0.005968     -0.000528
     9   Atom       -0.004571      0.005534     -0.004561
    10   Atom        0.186584      0.012039      0.016936
    11   Atom        0.464099      0.040470      0.051716
    12   Atom        0.014880      0.000793      0.000874
    13   Atom        0.006624      0.015659     -0.032789
    14   Atom        0.009407     -0.015229      0.029610
    15   Atom        0.003871      0.000070      0.000508
    16   Atom       -0.004903      0.006380     -0.003166
    17   Atom       -0.003800     -0.007352      0.003273
 --------------------------------------------------------


 ---------------------------------------------------------------------------------
              Anisotropic Spin Dipole Couplings in Principal Axis System
 ---------------------------------------------------------------------------------

       Atom             a.u.   MegaHertz   Gauss  10(-4) cm-1        Axes

              Baa    -0.0020    -0.272    -0.097    -0.091 -0.1836 -0.2789  0.9426
     1 C(13)  Bbb    -0.0012    -0.157    -0.056    -0.052  0.4112  0.8492  0.3313
              Bcc     0.0032     0.429     0.153     0.143  0.8929 -0.4485  0.0412
 
              Baa    -0.0073    -0.986    -0.352    -0.329  0.1483  0.7657  0.6259
     2 C(13)  Bbb    -0.0036    -0.486    -0.173    -0.162 -0.4508 -0.5110  0.7319
              Bcc     0.0110     1.472     0.525     0.491  0.8802 -0.3907  0.2694
 
              Baa    -0.2592    18.758     6.693     6.257 -0.5684  0.5307  0.6287
     3 O(17)  Bbb    -0.1524    11.031     3.936     3.680  0.5280 -0.3508  0.7734
              Bcc     0.4117   -29.789   -10.629    -9.937  0.6310  0.7716 -0.0808
 
              Baa    -1.0789    78.067    27.856    26.040  0.4403 -0.3486  0.8274
     4 O(17)  Bbb    -1.0174    73.619    26.269    24.557  0.7071 -0.4332 -0.5588
              Bcc     2.0963  -151.686   -54.125   -50.597  0.5533  0.8311  0.0558
 
              Baa    -0.0020    -1.041    -0.372    -0.347  0.0671 -0.3931  0.9170
     5 H(1)   Bbb    -0.0017    -0.910    -0.325    -0.304  0.2595  0.8944  0.3644
              Bcc     0.0037     1.951     0.696     0.651  0.9634 -0.2135 -0.1621
 
              Baa    -0.0015    -0.785    -0.280    -0.262 -0.1304  0.0678  0.9891
     6 H(1)   Bbb    -0.0011    -0.609    -0.217    -0.203  0.3939  0.9191 -0.0111
              Bcc     0.0026     1.394     0.498     0.465  0.9099 -0.3882  0.1465
 
              Baa    -0.0023    -1.221    -0.436    -0.407  0.2092  0.0138  0.9778
     7 H(1)   Bbb    -0.0017    -0.929    -0.331    -0.310  0.5201  0.8452 -0.1232
              Bcc     0.0040     2.150     0.767     0.717  0.8281 -0.5343 -0.1697
 
              Baa    -0.0051    -2.707    -0.966    -0.903 -0.4457 -0.0023  0.8952
     8 H(1)   Bbb    -0.0049    -2.620    -0.935    -0.874  0.0705  0.9968  0.0376
              Bcc     0.0100     5.327     1.901     1.777  0.8924 -0.0799  0.4441
 
              Baa    -0.0068    -3.624    -1.293    -1.209 -0.3190  0.3762  0.8699
     9 H(1)   Bbb    -0.0034    -1.801    -0.643    -0.601  0.6391  0.7631 -0.0956
              Bcc     0.0102     5.425     1.936     1.809  0.6998 -0.5255  0.4839
 
              Baa    -0.1289   -68.755   -24.534   -22.934  0.3455 -0.3553  0.8686
    10 H(1)   Bbb    -0.1247   -66.536   -23.742   -22.194  0.6805 -0.5425 -0.4926
              Bcc     0.2536   135.291    48.275    45.128  0.6462  0.7612  0.0544
 
              Baa    -0.3200   -42.944   -15.324   -14.325  0.7266 -0.6011  0.3328
    11 C(13)  Bbb    -0.3194   -42.863   -15.295   -14.298 -0.3022  0.1555  0.9405
              Bcc     0.6394    85.808    30.618    28.622  0.6171  0.7839  0.0686
 
              Baa    -0.0206    -2.759    -0.985    -0.920  0.0153 -0.1056  0.9943
    12 C(13)  Bbb    -0.0150    -2.009    -0.717    -0.670 -0.3099  0.9449  0.1051
              Bcc     0.0355     4.768     1.701     1.590  0.9506  0.3098  0.0183
 
              Baa    -0.0374   -19.955    -7.120    -6.656  0.6880 -0.4880 -0.5371
    13 H(1)   Bbb    -0.0065    -3.463    -1.236    -1.155  0.7168  0.5724  0.3982
              Bcc     0.0439    23.418     8.356     7.811  0.1131 -0.6589  0.7437
 
              Baa    -0.0377   -20.108    -7.175    -6.707  0.6818 -0.5747  0.4525
    14 H(1)   Bbb    -0.0055    -2.922    -1.042    -0.975  0.7202  0.6359 -0.2775
              Bcc     0.0432    23.030     8.218     7.682 -0.1283  0.5151  0.8475
 
              Baa    -0.0073    -3.892    -1.389    -1.298  0.0160 -0.0783  0.9968
    15 H(1)   Bbb    -0.0017    -0.892    -0.318    -0.298 -0.3956  0.9151  0.0782
              Bcc     0.0090     4.784     1.707     1.596  0.9183  0.3956  0.0163
 
              Baa    -0.0073    -3.886    -1.386    -1.296 -0.2941  0.3192  0.9009
    16 H(1)   Bbb    -0.0048    -2.569    -0.917    -0.857  0.4536  0.8763 -0.1624
              Bcc     0.0121     6.455     2.303     2.153  0.8413 -0.3609  0.4025
 
              Baa    -0.0073    -3.891    -1.389    -1.298  0.3193 -0.4471  0.8355
    17 H(1)   Bbb    -0.0049    -2.599    -0.927    -0.867  0.4570  0.8451  0.2776
              Bcc     0.0122     6.490     2.316     2.165  0.8302 -0.2932 -0.4742
 

 ---------------------------------------------------------------------------------

 No NMR shielding tensors so no spin-rotation constants.
 Leave Link  601 at Sat Jul  3 11:41:27 2021, MaxMem=  3355443200 cpu:         3.0
 (Enter /Local/ce_dana/g09/l701.exe)
 Compute integral second derivatives.
 ... and contract with generalized density number  0.
 Leave Link  701 at Sat Jul  3 11:41:28 2021, MaxMem=  3355443200 cpu:         4.2
 (Enter /Local/ce_dana/g09/l702.exe)
 L702 exits ... SP integral derivatives will be done elsewhere.
 Leave Link  702 at Sat Jul  3 11:41:28 2021, MaxMem=  3355443200 cpu:         0.1
 (Enter /Local/ce_dana/g09/l703.exe)
 Compute integral second derivatives, UseDBF=F ICtDFT=           0.
 Integral derivatives from FoFJK, PRISM(SPDF).
 Calling FoFJK, ICntrl=    100147 FMM=F ISym2X=0 I1Cent= 0 IOpClX= 1 NMat=1 NMatS=1 NMatT=0.
 FoFJK:  IHMeth= 1 ICntrl=  100147 DoSepK=F KAlg= 0 I1Cent=   0 FoldK=F
 IRaf=         0 NMat=   1 IRICut=       1 DoRegI=T DoRafI=F ISym2E= 0.
 FoFCou: FMM=F IPFlag=           0 FMFlag=      100000 FMFlg1=         800
         NFxFlg=           0 DoJE=F BraDBF=F KetDBF=F FulRan=T
         wScrn=  0.000000 ICntrl=  100147 IOpCl=  1 I1Cent=           0 NGrid=           0
         NMat0=    1 NMatS0=      1 NMatT0=    0 NMatD0=    1 NMtDS0=    0 NMtDT0=    0
 Symmetry not used in FoFCou.
 Leave Link  703 at Sat Jul  3 11:43:07 2021, MaxMem=  3355443200 cpu:       985.4
 (Enter /Local/ce_dana/g09/l716.exe)
 Dipole        = 3.27478746D-02-7.71403160D-01 3.79218669D-01
 Polarizability= 0.00000000D+00 0.00000000D+00 0.00000000D+00
                 0.00000000D+00 0.00000000D+00 0.00000000D+00
 ***** Axes restored to original set *****
 -------------------------------------------------------------------
 Center     Atomic                   Forces (Hartrees/Bohr)
 Number     Number              X              Y              Z
 -------------------------------------------------------------------
      1        6           0.006156363   -0.008881717   -0.001249331
      2        6          -0.003416088    0.004666464   -0.007187645
      3        8          -0.017437424    0.003953518    0.015722610
      4        8           0.007992515   -0.014872659   -0.027419752
      5        1          -0.001031758    0.001955896   -0.000517864
      6        1          -0.000292925   -0.000330324    0.001728284
      7        1          -0.000983372    0.001836869   -0.000765312
      8        1           0.000489461    0.001033560    0.002271058
      9        1          -0.001093618    0.000343194    0.001690577
     10        1           0.011097638    0.008747103    0.012905001
     11        6           0.020693411    0.014012074    0.010525966
     12        6          -0.011269938   -0.006282654   -0.002011997
     13        1          -0.007006456   -0.002146861   -0.005004065
     14        1          -0.007124325   -0.006202355   -0.006329516
     15        1           0.001165589    0.000778840    0.000755902
     16        1           0.000545059    0.001407710    0.002205153
     17        1           0.001515869   -0.000018658    0.002680930
 -------------------------------------------------------------------
 Cartesian Forces:  Max     0.027419752 RMS     0.008081030
 FormGI is forming the generalized inverse of G from B-inverse, IUseBI=4.
 Leave Link  716 at Sat Jul  3 11:43:07 2021, MaxMem=  3355443200 cpu:         0.1
 (Enter /Local/ce_dana/g09/l103.exe)

 GradGradGradGradGradGradGradGradGradGradGradGradGradGradGradGradGradGrad
 Berny optimization.
 Red2BG is reusing G-inverse.
 Internal  Forces:  Max     0.027730053 RMS     0.005592607
 Search for a saddle point.
 Step number   1 out of a maximum of  100
 All quantities printed in internal units (Hartrees-Bohrs-Radians)
 Swapping is turned off.
 Second derivative matrix not updated -- analytic derivatives used.
 ITU=  0
     Eigenvalues ---   -0.05602  -0.00026   0.00200   0.00226   0.00594
     Eigenvalues ---    0.01449   0.02221   0.03183   0.03583   0.04112
     Eigenvalues ---    0.04349   0.04415   0.04472   0.04523   0.04850
     Eigenvalues ---    0.06084   0.06456   0.09525   0.09608   0.10439
     Eigenvalues ---    0.11934   0.12244   0.12282   0.13066   0.14867
     Eigenvalues ---    0.15097   0.16251   0.16578   0.20075   0.21343
     Eigenvalues ---    0.26048   0.29458   0.30342   0.30426   0.32282
     Eigenvalues ---    0.32873   0.32952   0.32964   0.33201   0.33376
     Eigenvalues ---    0.33664   0.34057   0.34314   0.34461   0.41107
 Eigenvectors required to have negative eigenvalues:
                          R9        R10       R8        D13       D22
   1                   -0.69997   0.65417   0.18404  -0.07200  -0.06735
                          D24       D20       A18       D23       A19
   1                    0.06445  -0.05903   0.05663   0.05518   0.05345
 Eigenvalue     2 is  -2.63D-04 should be greater than     0.000000 Eigenvector:
                          D14       D15       D16       D13       A28
   1                   -0.58820  -0.57723  -0.55709  -0.06010  -0.04656
                          D11       D12       D10       D18       A16
   1                   -0.02582  -0.02566  -0.02475   0.02213  -0.02052
 RFO step:  Lambda0=3.493132672D-03 Lambda=-1.36606925D-02.
 Linear search not attempted -- option 19 set.
 Maximum step size (   0.050) exceeded in Quadratic search.
    -- Step size scaled by   0.141
 Iteration  1 RMS(Cart)=  0.02290572 RMS(Int)=  0.00015618
 Iteration  2 RMS(Cart)=  0.00021878 RMS(Int)=  0.00004617
 Iteration  3 RMS(Cart)=  0.00000002 RMS(Int)=  0.00004617
 ITry= 1 IFail=0 DXMaxC= 6.27D-02 DCOld= 1.00D+10 DXMaxT= 5.00D-02 DXLimC= 3.00D+00 Rises=F
 Variable       Old X    -DE/DX   Delta X   Delta X   Delta X     New X
                                 (Linear)    (Quad)   (Total)
    R1        2.86246   0.00325   0.00000   0.00100   0.00100   2.86346
    R2        2.06929  -0.00127   0.00000  -0.00075  -0.00075   2.06854
    R3        2.06654  -0.00129   0.00000  -0.00026  -0.00026   2.06628
    R4        2.06927  -0.00106   0.00000  -0.00068  -0.00068   2.06859
    R5        2.69583   0.00305   0.00000   0.00115   0.00115   2.69698
    R6        2.06952  -0.00054   0.00000  -0.00009  -0.00009   2.06943
    R7        2.06952   0.00048   0.00000   0.00047   0.00047   2.06999
    R8        2.74355  -0.01838   0.00000  -0.01128  -0.01128   2.73227
    R9        2.20899   0.01814   0.00000  -0.01567  -0.01567   2.19332
   R10        2.48100   0.00051   0.00000   0.02779   0.02778   2.50878
   R11        2.85736   0.00363   0.00000  -0.00224  -0.00224   2.85512
   R12        2.06751  -0.00025   0.00000  -0.00098  -0.00098   2.06653
   R13        2.06751  -0.00065   0.00000  -0.00096  -0.00096   2.06656
   R14        2.06750   0.00158   0.00000   0.00132   0.00132   2.06882
   R15        2.06752  -0.00054   0.00000  -0.00034  -0.00034   2.06718
   R16        2.06751  -0.00030   0.00000  -0.00025  -0.00025   2.06727
    A1        1.93076   0.00072   0.00000   0.00001   0.00001   1.93077
    A2        1.93582  -0.00251   0.00000  -0.00207  -0.00207   1.93375
    A3        1.93073   0.00110   0.00000   0.00052   0.00052   1.93125
    A4        1.89955   0.00008   0.00000  -0.00062  -0.00062   1.89892
    A5        1.86564   0.00074   0.00000   0.00294   0.00294   1.86858
    A6        1.89957  -0.00003   0.00000  -0.00062  -0.00062   1.89895
    A7        1.89602  -0.00662   0.00000  -0.00437  -0.00437   1.89165
    A8        1.92350   0.00338   0.00000   0.00326   0.00325   1.92675
    A9        1.92338   0.00322   0.00000   0.00301   0.00300   1.92638
   A10        1.90745   0.00108   0.00000  -0.00032  -0.00032   1.90713
   A11        1.90755   0.00116   0.00000   0.00016   0.00016   1.90771
   A12        1.90580  -0.00223   0.00000  -0.00176  -0.00177   1.90403
   A13        1.84272   0.01442   0.00000   0.00739   0.00739   1.85011
   A14        1.68108   0.02773   0.00000   0.01986   0.01986   1.70093
   A15        1.92979  -0.00385   0.00000  -0.00817  -0.00813   1.92166
   A16        1.89111  -0.00406   0.00000  -0.01012  -0.01008   1.88103
   A17        1.89111  -0.00655   0.00000  -0.01563  -0.01560   1.87551
   A18        1.92978   0.00650   0.00000   0.01168   0.01157   1.94134
   A19        1.92977   0.00820   0.00000   0.01216   0.01200   1.94177
   A20        1.89110  -0.00066   0.00000   0.00946   0.00920   1.90030
   A21        1.92979  -0.00129   0.00000  -0.00047  -0.00047   1.92933
   A22        1.92977   0.00316   0.00000   0.00252   0.00252   1.93229
   A23        1.92977   0.00385   0.00000   0.00293   0.00292   1.93269
   A24        1.89111  -0.00151   0.00000  -0.00220  -0.00220   1.88891
   A25        1.89111  -0.00184   0.00000  -0.00257  -0.00257   1.88854
   A26        1.89110  -0.00259   0.00000  -0.00040  -0.00041   1.89068
   A27        3.14159   0.00462   0.00000   0.00080   0.00080   3.14239
   A28        3.14159  -0.00018   0.00000   0.00288   0.00289   3.14448
    D1        1.03196   0.00103   0.00000   0.00181   0.00181   1.03377
    D2       -1.05735   0.00177   0.00000   0.00295   0.00295  -1.05440
[...]
 Version=ES64L-G09RevD.01\State=2-A\HF=-307.5165409\MP2=-308.6860264\E2
 (CBS)=-1.2884678\CBS-Int=-1.2498732\OIii=10.2636205\PUHF=-307.5248147\
 PMP2-0=-308.691747\S2=0.788995\S2-1=0.76464\S2A=0.750781\RMSD=4.394e-0
 9\PG=C01 [X(C4H11O2)]\\@


 The cat could very well be man's best friend
 but would never stoop to admitting it.
                               -- Doug Larson
 Diagonal vibrational polarizability:
        0.0000000       0.0000000       0.0000000
    1 imaginary frequencies ignored.

 Complete Basis Set (CBS) Extrapolation:
 M. R. Nyden and G. A. Petersson, JCP 75, 1843 (1981)
 G. A. Petersson and M. A. Al-Laham, JCP 94, 6081 (1991)
 G. A. Petersson, T. Tensfeldt, and J. A. Montgomery, JCP 94, 6091 (1991)
 J. A. Montgomery, J. W. Ochterski, and G. A. Petersson, JCP 101, 5900 (1994)

 Temperature=               298.150000 Pressure=                       1.000000
 E(ZPE)=                      0.139099 E(Thermal)=                     0.148353
 E(SCF)=                   -307.516541 DE(MP2)=                       -1.169486
 DE(CBS)=                    -0.118982 DE(MP34)=                      -0.071911
 DE(CCSD)=                   -0.031719 DE(Int)=                        0.038595
 DE(Empirical)=              -0.059798
 CBS-QB3 (0 K)=            -308.790744 CBS-QB3 Energy=              -308.781490
 CBS-QB3 Enthalpy=         -308.780546 CBS-QB3 Free Energy=         -308.826679

 Test job not archived.
 1\1\GINC-TECH-WN205\Mixed\CBS-QB3\CBS-QB3\C4H11O2(2)\ALONGD\03-Jul-202
 1\0\\#P opt=(ts, calcfc, noeigentest, maxcycles=100, tight, maxstep=5)
  guess=mix cbs-qb3 scf=(tight, direct) integral=(grid=ultrafine, Acc2E
 =12) IOp(2/9=2000) scf=xqc\\TS0\\0,2\C,0,-0.1031015528,-0.7704215405,-
 2.5949463151\C,0,-0.524223981,0.3297407891,-1.6367644841\O,0,-0.735407
 1538,-0.2904814101,-0.3615701857\O,0,-1.241213415,0.6711290774,0.53475
 54806\H,0,-0.8781436761,-1.5362341201,-2.665902814\H,0,0.0624245882,-0
 .3520988351,-3.5908804935\H,0,0.8227056737,-1.2453093409,-2.2627972583
 \H,0,-1.4548605734,0.8100276404,-1.9538080371\H,0,0.2503829588,1.10058
 43986,-1.541449319\H,0,-0.3330246203,1.0414297376,1.1147058014\C,0,0.8
 018548515,1.4151397794,1.8594979925\C,0,1.3256613941,0.1216388074,2.41
 61054732\H,0,0.3585701036,2.1123246522,2.5695615659\H,0,1.4186988303,1
 .9067237206,1.1082377318\H,0,2.2602575143,0.2830202948,2.9721990395\H,
 0,1.541037052,-0.5961052469,1.620161188\H,0,0.6107296558,-0.338155204,
 3.1021471742\\Version=ES64L-G09RevD.01\State=2-A\HF/CbsB3=-307.5165409
 \E2(CBS)/CbsB3=-1.2884678\CBS-Int/CbsB3=0.0385946\OIii/CbsB3=10.263620
 5\MP2/CbsB4=-308.4090535\MP4(SDQ)/CbsB4=-308.4809649\MP4(SDQ)/6-31+G(d
 ')=-308.3822819\QCISD(T)/6-31+G(d')=-308.4140012\CBSQB3=-308.7907444\F
 reqCoord=-0.1948336986,-1.4558857184,-4.9037378651,-0.9906397564,0.623
 1197862,-3.0930366191,-1.3897181168,-0.5489303119,-0.6832686288,-2.345
 5534268,1.2682501561,1.0105414064,-1.6594510531,-2.903061763,-5.037826
 2154,0.1179653757,-0.66537037,-6.7857807087,1.5546884113,-2.3532936049
 ,-4.2760671124,-2.7492880453,1.5307304004,-3.6921621063,0.4731552205,2
 .0798030995,-2.9129170607,-0.6293253279,1.9680169907,2.1064886833,1.51
 52860677,2.6742266228,3.5139419506,2.5051369798,0.2298640331,4.5657776
 525,0.6775992953,3.9917150965,4.8557676411,2.6809522542,3.6031856431,2
 .0942658032,4.2712676919,0.5348308473,5.616642197,2.9121379889,-1.1264
 75663,3.0616609364,1.1541117906,-0.6390207259,5.8622085831\PG=C01 [X(C
 4H11O2)]\NImag=1\\0.56397552,0.01939913,0.52080438,0.01541769,-0.04425
 410,0.53431219,-0.09196204,0.02654809,0.01524717,0.59222347,0.02430253
 ,-0.15521116,-0.04863592,-0.00552075,0.55990849,0.01696115,-0.05734821
 ,-0.11456074,0.04200860,0.02180202,0.41954838,-0.00110228,-0.00208481,
 0.01358223,-0.06234254,-0.00749039,0.00605318,0.09722431,0.00455164,0.
 01206967,-0.02571299,0.00222393,-0.13430930,0.05260688,-0.04360566,0.3
 0229416,0.00802066,0.00193330,-0.03288346,-0.00184667,0.08794569,-0.13
 567725,-0.06085736,-0.00333234,0.34535180,0.00083063,-0.00240857,0.001
 18192,-0.00766431,0.00724181,0.01056983,-0.07252469,0.05599121,0.04990
 612,0.18304482,0.00006403,0.00285637,0.00032476,0.00044869,0.00707008,
 -0.01343390,0.05766394,-0.12909119,-0.08540428,-0.06102595,0.12013723,
 0.00131851,0.00636993,-0.00811828,0.02485851,-0.04078722,-0.04486688,0
 .03251730,-0.04884899,-0.10744985,-0.03718723,0.08925254,0.16324333,-0
 .18525276,-0.13159437,-0.01187434,0.00841760,0.00800226,0.00003711,0.0
 0015407,-0.00027525,-0.00041576,0.00004062,0.00001176,-0.00020321,0.19
 701393,-0.12952080,-0.17419952,-0.01126643,-0.01920035,-0.01989414,-0.
 00122982,0.00018027,0.00167528,0.00115583,0.00038186,0.00035758,-0.000
 03986,0.14316432,0.19092136,-0.01076362,-0.00952000,-0.04757809,-0.016
 71519,-0.01637538,-0.00273432,-0.00081199,0.00006135,0.00168564,0.0003
 2218,0.00035261,-0.00024675,0.01161549,0.01453563,0.04817584,-0.051077
 48,-0.01484657,0.03600160,-0.00299292,-0.00523324,0.00752646,-0.000547
 11,0.00185013,0.00070423,0.00069030,0.00007106,0.00078021,-0.00329268,
 -0.00761148,0.02175769,0.05170960,-0.01529327,-0.08623002,0.09374778,0
 .00284244,0.01187920,-0.02225844,0.00111779,-0.00392245,-0.00197035,0.
 00081691,-0.00035506,-0.00246706,-0.00165653,-0.00834011,0.02051480,0.
 01584292,0.09150385,0.03631576,0.09208210,-0.26409962,0.00173993,0.011
 76520,-0.01777563,0.00124976,-0.00505190,-0.00091123,0.00034140,0.0002
 9453,-0.00105990,-0.00014881,-0.00102504,0.00331878,-0.04061570,-0.100
 70708,0.28775183,-0.23752611,0.09405334,-0.06981712,-0.00814043,0.0040
 8533,-0.00207121,0.00030791,-0.00010689,-0.00054313,0.00025300,-0.0004
 1992,0.00027666,-0.01864297,0.01023336,-0.00740468,0.00550655,-0.00315
 735,0.00131833,0.25584082,0.09297067,-0.09541744,0.03366469,0.02315673
 ,-0.01272071,0.00953851,-0.00106584,0.00126580,0.00056482,-0.00036322,
 0.00033195,0.00002942,-0.01910159,0.01111903,-0.00774231,0.00996961,-0
 .00590094,0.00309040,-0.10586616,0.10331361,-0.07130574,0.03553779,-0.
 07289444,0.02090505,-0.01010363,0.00691361,-0.00022487,0.00006800,0.00
 175404,-0.00047580,0.00025012,-0.00023484,-0.00052160,0.00041939,-0.00
 122535,-0.02580794,0.01166353,-0.00817706,0.07653140,-0.03575323,0.075
 80799,-0.00589222,0.00253886,-0.00147098,-0.24622542,0.09131355,-0.060
 95692,0.01100221,-0.00148113,0.00203618,0.00163503,-0.00158121,0.00031
 309,0.00105546,0.00009431,0.00020867,-0.00011378,0.00012069,0.00047026
 ,0.00134492,0.00073231,0.00124025,0.25756081,0.01972878,-0.00965848,0.
 00551840,0.08721754,-0.09384585,0.02684197,0.01381406,-0.01089290,0.01
 482932,-0.00183529,0.00093254,-0.00257150,-0.00013907,0.00058489,0.000
 93036,-0.00023851,0.00075650,-0.00011605,0.00120162,-0.00251991,-0.003
 05254,-0.10067713,0.10465216,0.02016079,-0.01000294,0.00757330,-0.0560
 0629,0.02326920,-0.06260246,-0.02196807,0.02253595,-0.03078534,-0.0010
 1388,0.00316555,0.00659557,-0.00065638,0.00074866,0.00064710,-0.000377
 82,0.00087025,0.00068475,0.00107704,-0.00412409,-0.00271147,0.06430243
 ,-0.03626986,0.07954612,0.00817464,0.00838891,0.00098840,-0.18123065,-
 0.11872262,-0.02504656,0.00078781,-0.00538637,0.00969031,0.00068944,-0
 .00003949,-0.00214511,0.00057406,0.00228412,0.00163001,0.00021122,-0.0
 0074351,-0.00067570,0.00104931,-0.00038920,-0.00041022,-0.01969965,-0.
 01930153,-0.00492341,0.18908769,-0.01580335,-0.01528026,-0.00346616,-0
 .11774760,-0.16289492,-0.02111822,-0.01286278,-0.01529190,0.01019499,0
 .00179221,0.00095349,-0.00148801,0.00158021,-0.00226615,-0.00294067,0.
 00007525,0.00060450,-0.00029207,-0.00009866,0.00057569,0.00091461,0.00
 905364,0.00987495,0.00062507,0.13366534,0.18279926,-0.01646035,-0.0154
 2539,-0.00144287,-0.02583000,-0.02512208,-0.05115750,0.02860010,0.0300
 5052,-0.01497298,-0.00085061,0.00351588,0.00624823,0.00221104,-0.00353
 378,-0.00236070,-0.00013893,0.00072740,0.00041063,0.00058163,0.0008340
 6,0.00079542,-0.00592827,-0.00662202,0.00167927,0.01983222,0.01647378,
 0.06188773,-0.00027228,0.00020729,0.00069842,-0.00179871,0.00064795,0.
 00941375,0.03424636,-0.02228615,-0.01563737,-0.04569405,0.04443346,0.0
 3382563,-0.00008109,-0.00000028,0.00025321,-0.00004885,0.00005988,-0.0
 0011227,0.00001285,-0.00011325,0.00014612,-0.00087691,0.00071968,-0.00
 116947,0.00091736,0.00107059,-0.00203277,-0.01455706,-0.00036673,0.000
 33606,0.00000265,-0.00098959,-0.00088086,0.00492717,-0.00115041,-0.025
 67803,-0.02770005,0.02196666,0.00538816,0.01861133,0.00000689,0.000040
 21,0.00017908,0.00013587,-0.00002405,-0.00008076,0.00007549,-0.0000766
 9,0.00006722,-0.00019840,0.00034902,-0.00071272,0.00027045,0.00097612,
 -0.00072833,-0.04490646,0.03680162,0.00043068,0.00090656,-0.00046073,-
 0.00452157,-0.00461655,0.00556093,0.00715943,-0.02861281,-0.03265980,0
 .01963557,0.02737866,0.01782057,-0.00007900,0.00028698,0.00041343,0.00
 019500,-0.00018126,-0.00025990,0.00003972,-0.00011757,0.00009603,-0.00
 035146,0.00069616,-0.00096004,0.00151600,0.00167026,-0.00146488,-0.060
 17812,-0.00929964,0.01200951,-0.00007225,-0.00102028,0.00061872,0.0033
 5296,0.00415373,-0.00862286,-0.01480026,0.01707022,0.01843703,-0.07048
 655,-0.05669926,-0.07250977,0.00005877,-0.00011521,-0.00032802,-0.0001
 7091,0.00026443,0.00041508,-0.00005069,0.00020197,-0.00013347,0.000401
 36,-0.00097872,0.00095671,-0.00116554,-0.00165024,0.00113240,0.0659589
 6,0.03665867,0.06110796,0.30308004,-0.00015128,-0.00014596,0.00012655,
 0.00161081,0.00145355,-0.00103248,-0.00432304,0.00206903,0.00244069,-0
 .02315611,-0.01055326,-0.01840664,0.00000606,-0.00005136,-0.00004485,-
 0.00000825,0.00004136,0.00006572,0.00002812,0.00003521,-0.00001972,-0.
 00000299,-0.00039819,0.00004437,-0.00022533,-0.00032377,0.00005697,0.0
 2277974,-0.00975979,0.01396396,-0.07019343,0.49022145,0.00003902,-0.00
 071479,0.00043023,0.00020212,0.00151257,-0.00491459,-0.01031589,0.0116
 6090,0.01219566,-0.04714324,-0.03644017,-0.04507953,0.00004729,-0.0000
 1348,-0.00019770,-0.00011366,0.00018250,0.00029147,-0.00007374,0.00010
 229,-0.00007934,0.00041268,-0.00030046,0.00054104,-0.00035943,-0.00079
 037,0.00104326,0.05897319,0.02262328,0.01967013,-0.19738421,-0.0352529
 2,0.44974133,0.00010120,0.00038921,-0.00032381,-0.00093244,-0.00144751
 ,0.00195057,0.00360828,-0.00273216,-0.00362849,0.00307425,0.00728361,0
 .00704700,-0.00001898,0.00001508,0.00009360,0.00005822,-0.00010925,-0.
 00018067,-0.00000371,-0.00006736,0.00006705,-0.00010726,0.00028993,-0.
 00016911,0.00019133,0.00037905,-0.00036077,-0.01860046,0.00286717,-0.0
 1438598,-0.07706757,0.05082801,-0.00179980,0.51805979,-0.00009067,0.00
 019273,-0.00012689,-0.00043190,-0.00044527,0.00085449,0.00164445,-0.00
 116625,-0.00169672,-0.00220426,0.00180608,0.00089101,0.00001246,-0.000
 01066,0.00003504,0.00005366,-0.00006476,-0.00005065,0.00006317,-0.0000
 7830,-0.00003853,-0.00000154,0.00008379,-0.00012065,0.00008112,0.00018
 197,-0.00007037,0.00081093,-0.00010979,0.00006399,0.04444167,-0.178700
 57,0.04489655,0.02152056,0.49480551,-0.00010192,0.00020623,-0.00016368
 ,-0.00030843,-0.00057888,0.00072824,0.00247096,-0.00185664,-0.00183090
 ,0.00207216,0.00489526,0.00460721,-0.00000046,-0.00001559,0.00003344,0
 .00006663,-0.00007617,-0.00006460,0.00007333,-0.00006585,-0.00003750,-
 0.00006052,0.00009867,-0.00001017,0.00000838,0.00016215,-0.00014446,-0
 .01252720,0.00191320,-0.00965690,-0.00181606,0.05177670,-0.09317351,-0
 .03562211,0.02052571,0.53773714,-0.00000710,0.00022930,-0.00014113,-0.
 00055490,-0.00077844,0.00162778,0.00155294,-0.00286263,-0.00313929,0.0
 0454293,0.00562858,0.00628229,-0.00000728,0.00002013,0.00006783,0.0000
 4464,-0.00005982,-0.00008137,0.00001745,-0.00004766,0.00002119,-0.0000
 4771,0.00016276,-0.00019747,0.00023033,0.00033973,-0.00022204,-0.00714
 555,-0.00979980,-0.01327426,-0.07400685,0.06885845,0.07852421,-0.00211
 966,0.00868381,0.01003834,0.07996279,0.00003063,0.00001279,0.00000942,
 -0.00009353,-0.00007526,0.00036493,0.00041693,-0.00066770,-0.00043586,
 0.00025769,0.00138039,0.00158311,-0.00000227,0.00000848,0.00001953,-0.
 00000781,0.00000535,-0.00001725,-0.00002161,0.00000060,0.00002195,-0.0
 0001366,0.00005112,-0.00006799,0.00003101,0.00005852,-0.00012970,-0.00
 082984,-0.00362440,-0.00524898,0.07819381,-0.15892311,-0.10952373,0.00
 777799,-0.01280334,-0.01840565,-0.08217425,0.16706978,-0.00004896,0.00
 003806,-0.00002403,-0.00002768,-0.00010268,0.00080526,0.00066846,-0.00
 108072,-0.00132599,0.00116198,0.00276723,0.00284567,-0.00000890,-0.000
 01925,0.00000789,0.00001868,-0.00001476,-0.00003207,0.00000486,0.00001
 316,0.00001722,-0.00010130,0.00002350,-0.00011588,0.00009930,0.0000314
 2,0.00005410,-0.00185410,-0.00694969,-0.00856689,0.08947193,-0.1124951
 1,-0.16743639,-0.00596565,0.01018849,0.01195351,-0.08853514,0.11927970
 ,0.17154547,0.00014867,0.00028483,-0.00018903,-0.00045536,-0.00081459,
 0.00121791,0.00208535,-0.00245394,-0.00289268,0.00194020,0.00477008,0.
 00437336,-0.00002203,0.00007885,0.00009944,0.00002486,-0.00006303,-0.0
 0008884,-0.00001388,-0.00002393,0.00003275,-0.00003284,0.00013492,-0.0
 0015780,0.00026615,0.00029480,-0.00059171,-0.01404649,-0.00752875,0.00
 165549,-0.12854042,-0.06582334,0.12790936,0.01014162,0.00680836,-0.010
 97812,-0.00359226,-0.00589414,0.00594321,0.13174919,0.00005168,0.00010
 282,-0.00009158,-0.00038238,-0.00041401,0.00035233,0.00087426,-0.00111
 267,-0.00100865,0.00081527,0.00192431,0.00143886,0.00001369,0.00003835
 ,0.00005224,0.00000566,-0.00001823,-0.00002097,-0.00000248,-0.00005328
 ,0.00000154,0.00007505,0.00010401,-0.00004118,0.00007212,0.00029083,-0
 .00025976,-0.00532001,-0.00282770,0.00047033,-0.06223363,-0.10394507,0
 .08911600,-0.01706891,-0.00825321,0.01665227,0.01186337,0.01037446,-0.
 01303225,0.06862397,0.10651742,0.00002433,0.00021146,-0.00010085,0.000
 07931,-0.00006772,0.00075954,0.00185378,-0.00204950,-0.00194679,0.0017
 0477,0.00366938,0.00507172,-0.00000944,0.00001053,0.00006099,0.0000194
 7,-0.00004421,-0.00006828,0.00001371,-0.00003235,0.00002218,-0.0000894
 0,0.00001810,-0.00011981,-0.00014276,0.00001546,-0.00057443,-0.0102674
 5,-0.00503613,-0.00214085,0.11526896,0.08211075,-0.16808918,0.00843335
 ,0.00501856,-0.00644553,0.01251340,0.01004337,-0.00984734,-0.12687947,
 -0.09556708,0.18091905,-0.00001201,0.00002581,-0.00001702,-0.00009059,
 -0.00005734,0.00020363,0.00011226,-0.00019830,-0.00035211,-0.00017614,
 -0.00014917,0.00003018,-0.00000062,-0.00000904,0.00000712,0.00000711,-
 0.00000497,-0.00001927,0.00000053,-0.00000480,0.00000987,-0.00001410,0
 .00002449,-0.00005388,0.00001210,0.00000640,-0.00001222,0.00095953,0.0
 0164710,0.00022754,-0.01070175,0.00405495,-0.00699547,-0.21995185,-0.0
 3880417,-0.10355612,0.00035915,0.00046440,0.00017294,0.00038533,0.0003
 5267,-0.00010187,0.24221450,0.00003009,-0.00015627,0.00011673,0.000223
 06,0.00043594,-0.00075383,-0.00172294,0.00163294,0.00167294,0.00050856
 ,-0.00234590,-0.00236148,0.00000890,0.00000500,-0.00002647,-0.00003567
 ,0.00005175,0.00005680,-0.00003259,0.00003210,-0.00000563,0.00004792,-
 0.00006969,0.00006224,-0.00004621,-0.00013059,0.00012220,0.00317410,-0
 .00043362,0.00267331,0.02372625,0.00006943,0.01448858,-0.03118310,-0.0
 4731658,-0.01783645,-0.00111523,0.00000624,-0.00069831,-0.00094737,0.0
 0046809,-0.00075373,0.03606027,0.05387200,0.00000882,0.00005522,-0.000
 05603,-0.00003851,-0.00016838,0.00040790,0.00013119,-0.00029753,-0.000
 51252,-0.00004976,0.00010523,0.00029935,0.00000280,-0.00000756,0.00001
 417,-0.00000145,-0.00001050,-0.00004112,-0.00001275,-0.00000775,0.0000
 2587,-0.00001655,0.00003817,-0.00004807,0.00001949,0.00005632,-0.00002
 501,-0.00035323,0.00113015,0.00009279,-0.01007866,0.00210019,-0.007458
 96,-0.10496448,-0.02238435,-0.10479959,-0.00019175,0.00013069,-0.00004
 800,0.00076389,0.00030605,0.00069226,0.11819030,0.02036779,0.11322346,
 -0.00003325,-0.00006888,0.00005870,0.00036049,0.00019135,-0.00064639,0
 .00036440,-0.00040892,0.00026127,-0.00029091,-0.00011727,0.00043352,-0
 .00000868,0.00000524,-0.00002432,-0.00000304,0.00000962,0.00004988,0.0
 0004525,0.00001777,-0.00006364,-0.00000070,-0.00010428,0.00017296,-0.0
 0007327,-0.00007338,0.00003454,0.00028410,0.00092365,0.00076223,-0.005
 04067,0.01002307,0.00837125,-0.05444688,0.02930232,0.03872015,0.000354
 00,0.00261890,-0.00124781,0.00010745,-0.00057012,-0.00083628,0.0052916
 5,-0.01816383,-0.02077487,0.05727251,0.00004343,-0.00006263,0.00004609
 ,0.00018917,0.00007192,-0.00001407,-0.00115321,0.00071161,0.00055420,0
 .00078206,-0.00067157,-0.00076719,-0.00002823,-0.00000449,-0.00002732,
 -0.00001279,0.00001210,0.00000310,-0.00002383,0.00007557,0.00002251,-0
 .00003632,-0.00001597,-0.00000483,0.00002117,-0.00012604,0.00008861,-0
 .00002868,-0.00030998,-0.00019083,0.00769464,-0.01900366,-0.02095969,0
 .03139548,-0.15602707,-0.12296732,0.00131132,-0.00390257,0.00284568,-0
 .00034048,0.00096093,0.00048641,0.00037282,-0.00354598,-0.00416762,-0.
 03842304,0.17198525,-0.00002722,-0.00001139,0.00000895,0.00005644,0.00
 009078,-0.00031675,0.00009769,0.00013190,0.00023054,0.00020078,-0.0002
 3777,-0.00009633,0.00002254,0.00000418,0.00001059,-0.00000190,0.000009
 43,0.00001266,0.00000996,-0.00003260,-0.00007742,0.00002215,-0.0000260
 8,0.00006585,-0.00005818,0.00003562,-0.00002423,-0.00013686,0.00037926
 ,0.00045403,-0.00319163,0.00834790,0.01199566,0.03989963,-0.12313093,-
 0.18931804,-0.00219233,0.00266253,-0.00042911,0.00053356,-0.00074121,0
 .00072571,0.00319859,-0.00999626,-0.01248724,-0.04072813,0.13480592,0.
 20341941,-0.00002089,-0.00004127,0.00003860,0.00003579,0.00012638,-0.0
 0022602,-0.00012903,0.00011026,0.00025705,0.00009543,-0.00034294,-0.00
 001093,0.00001256,-0.00000037,-0.00000740,-0.00000572,0.00001305,0.000
 02221,-0.00000079,-0.00000604,-0.00001040,0.00001081,-0.00001924,0.000
 02366,-0.00002233,-0.00002121,0.00003576,0.00074228,0.00038820,0.00006
 077,0.00925137,0.00569456,-0.01029368,-0.16198588,-0.07188995,0.111520
 99,0.00041710,-0.00075424,0.00024819,-0.00014555,0.00282979,-0.0015844
 3,-0.01839513,-0.01053220,0.01736553,-0.00418245,-0.00176352,0.0022949
 2,0.17432242,0.00005348,-0.00001307,-0.00000302,-0.00009436,-0.0001276
 9,-0.00009931,-0.00025261,0.00041394,0.00025647,0.00043915,-0.00012119
 ,-0.00043824,-0.00000923,0.00001625,-0.00000364,-0.00000984,0.00000101
 ,0.00000391,-0.00001093,0.00001769,0.00000663,0.00001606,0.00001201,0.
 00002298,0.00004002,-0.00000170,0.00002201,-0.00041894,-0.00016627,0.0
 0015743,-0.01951461,-0.01208530,0.01941293,-0.07013781,-0.09209428,0.0
 6557237,-0.00025961,0.00102864,-0.00079445,0.00289377,-0.00415704,0.00
 196670,-0.00378111,-0.00257484,0.00275387,0.01483784,0.00985257,-0.012
 29127,0.07620873,0.09999927,0.00001041,-0.00006384,0.00005816,0.000197
 21,0.00017299,-0.00011774,-0.00020589,-0.00027207,-0.00026156,-0.00037
 620,-0.00045563,0.00042072,-0.00001835,-0.00001039,-0.00002494,-0.0000
 1257,0.00001412,0.00001929,-0.00000401,0.00003841,0.00000507,-0.000030
 31,-0.00003615,0.00002024,-0.00002273,-0.00008418,0.00004843,0.0009585
 3,0.00067398,0.00005258,0.00665590,0.00621792,-0.00947959,0.10990967,0
 .06514525,-0.14941466,-0.00110027,-0.00028606,0.00059659,-0.00075132,0
 .00237306,0.00108163,-0.01093221,-0.00712842,0.01072075,0.01545697,0.0
 1024636,-0.01417427,-0.11973483,-0.07654536,0.16044928\\-0.00000046,0.
 00000006,0.00000004,0.00000016,0.00000040,-0.00000020,-0.00000031,0.00
 000047,0.00000004,0.00000018,0.00000094,-0.00000004,-0.00000090,0.0000
 0045,0.00000005,-0.00000018,-0.00000011,0.00000004,-0.00000072,-0.0000
 0047,0.00000013,0.00000039,0.00000082,-0.00000009,0.00000054,-0.000000
 12,-0.00000002,0.00000040,0.00000037,-0.00000010,0.00000057,-0.0000001
 8,0.,-0.00000018,-0.00000041,0.00000003,0.00000092,0.00000005,-0.00000
 017,0.00000082,-0.00000063,0.00000002,-0.00000016,-0.00000097,0.000000
 08,-0.00000055,-0.00000064,0.00000013,-0.00000050,-0.00000004,0.000000
 06\\\@
 Job cpu time:       0 days  0 hours 38 minutes 52.6 seconds.
 File lengths (MBytes):  RWF=   6997 Int=      0 D2E=      0 Chk=     10 Scr=      1
 Normal termination of Gaussian 09 at Sat Jul  3 12:46:26 2021.
