 Entering Gaussian System, Link 0=g16
 Initial command:
 /home/gridsan/groups/GRPAPI/Software/g16/l1.exe "/state/partition1/user/alongd/a695-10994821/Gau-65313.inp" -scrdir="/state/partition1/user/alongd/a695-10994821/"
 Entering Link 1 = /home/gridsan/groups/GRPAPI/Software/g16/l1.exe PID=     65322.
  
 Copyright (c) 1988-2017, Gaussian, Inc.  All Rights Reserved.
  
 This is part of the Gaussian(R) 16 program.  It is based on
 the Gaussian(R) 09 system (copyright 2009, Gaussian, Inc.),
 the Gaussian(R) 03 system (copyright 2003, Gaussian, Inc.),
 the Gaussian(R) 98 system (copyright 1998, Gaussian, Inc.),
 the Gaussian(R) 94 system (copyright 1995, Gaussian, Inc.),
 the Gaussian 92(TM) system (copyright 1992, Gaussian, Inc.),
 the Gaussian 90(TM) system (copyright 1990, Gaussian, Inc.),
 the Gaussian 88(TM) system (copyright 1988, Gaussian, Inc.),
 the Gaussian 86(TM) system (copyright 1986, Carnegie Mellon
 University), and the Gaussian 82(TM) system (copyright 1983,
 Carnegie Mellon University). Gaussian is a federally registered
 trademark of Gaussian, Inc.
  
 This software contains proprietary and confidential information,
 including trade secrets, belonging to Gaussian, Inc.
  
 This software is provided under written license and may be
 used, copied, transmitted, or stored only in accord with that
 written license.
  
 The following legend is applicable only to US Government
 contracts under FAR:
  
                    RESTRICTED RIGHTS LEGEND
  
 Use, reproduction and disclosure by the US Government is
 subject to restrictions as set forth in subparagraphs (a)
 and (c) of the Commercial Computer Software - Restricted
 Rights clause in FAR 52.227-19.
  
 Gaussian, Inc.
 340 Quinnipiac St., Bldg. 40, Wallingford CT 06492
  
  
 ---------------------------------------------------------------
 Warning -- This program may not be used in any manner that
 competes with the business of Gaussian, Inc. or will provide
 assistance to any competitor of Gaussian, Inc.  The licensee
 of this program is prohibited from giving any competitor of
 Gaussian, Inc. access to this program.  By using this program,
 the user acknowledges that Gaussian, Inc. is engaged in the
 business of creating and licensing software in the field of
 computational chemistry and represents and warrants to the
 licensee that it is not a competitor of Gaussian, Inc. and that
 it will not use this program in any manner prohibited above.
 ---------------------------------------------------------------
  

 Cite this work as:
 Gaussian 16, Revision B.01,
 M. J. Frisch, G. W. Trucks, H. B. Schlegel, G. E. Scuseria, 
 M. A. Robb, J. R. Cheeseman, G. Scalmani, V. Barone, 
 G. A. Petersson, H. Nakatsuji, X. Li, M. Caricato, A. V. Marenich, 
 J. Bloino, B. G. Janesko, R. Gomperts, B. Mennucci, H. P. Hratchian, 
 J. V. Ortiz, A. F. Izmaylov, J. L. Sonnenberg, D. Williams-Young, 
 F. Ding, F. Lipparini, F. Egidi, J. Goings, B. Peng, A. Petrone, 
 T. Henderson, D. Ranasinghe, V. G. Zakrzewski, J. Gao, N. Rega, 
 G. Zheng, W. Liang, M. Hada, M. Ehara, K. Toyota, R. Fukuda, 
 J. Hasegawa, M. Ishida, T. Nakajima, Y. Honda, O. Kitao, H. Nakai, 
 T. Vreven, K. Throssell, J. A. Montgomery, Jr., J. E. Peralta, 
 F. Ogliaro, M. J. Bearpark, J. J. Heyd, E. N. Brothers, K. N. Kudin, 
 V. N. Staroverov, T. A. Keith, R. Kobayashi, J. Normand, 
 K. Raghavachari, A. P. Rendell, J. C. Burant, S. S. Iyengar, 
 J. Tomasi, M. Cossi, J. M. Millam, M. Klene, C. Adamo, R. Cammi, 
 J. W. Ochterski, R. L. Martin, K. Morokuma, O. Farkas, 
 J. B. Foresman, and D. J. Fox, Gaussian, Inc., Wallingford CT, 2016.
 
 ******************************************
 Gaussian 16:  ES64L-G16RevB.01 20-Dec-2017
                19-Sep-2021 
 ******************************************
 %chk=check.chk
 %mem=14336mb
 %NProcShared=8
 Will use up to    8 processors via shared memory.
 ----------------------------------------------------------------------
 #P opt=(ts, calcfc, noeigentest, maxcycles=100, tight, maxstep=5) gues
 s=read cbs-qb3 scf=(tight, direct) integral=(grid=ultrafine, Acc2E=12)
  IOp(2/9=2000) scf=xqc
 ----------------------------------------------------------------------
 1/5=1,6=100,7=10,8=5,10=4,11=1,18=20,26=4,38=1/1,3;
 2/9=2000,12=2,17=6,18=5,40=1/2;
 3/5=4,6=6,7=700,11=2,25=1,27=12,30=1,71=2,74=-5,75=-5,116=-2,140=1/1,2,3;
 4/5=1/1;
 5/5=2,8=3,13=1,32=2,38=6,87=12/2,8;
 8/6=4,10=90,11=11,87=12/1;
 11/6=1,8=1,9=11,15=111,16=1,87=12/1,2,10;
 10/6=1,13=1,87=12/2;
 6/7=2,8=2,9=2,10=2,28=1,87=12/1;
 7/10=1,18=20,25=1,87=12/1,2,3,16;
 1/5=1,6=100,7=10,8=5,10=4,11=1,18=20,26=4/3(2);
 2/9=2000/2;
 99//99;
 2/9=2000/2;
 3/5=4,6=6,7=700,11=2,25=1,27=12,30=1,71=1,74=-5,75=-5/1,2,3;
 4/5=5,16=3,69=1/1;
 5/5=2,8=3,13=1,32=2,38=5,87=12/2,8;
 7/87=12/1,2,3,16;
 1/5=1,6=100,7=10,8=5,11=1,18=20,26=4/3(-5);
 2/9=2000/2;
 6/7=2,8=2,9=2,10=2,19=2,28=1,87=12/1;
 99/9=1/99;
 Leave Link    1 at Sun Sep 19 14:22:20 2021, MaxMem=  1879048192 cpu:               1.5 elap:               0.3
 (Enter /home/gridsan/groups/GRPAPI/Software/g16/l101.exe)
 ---
 TS0
 ---
 Symbolic Z-matrix:
 Charge =  0 Multiplicity = 2
 N                     0.04286  -0.52836  -1.18636 
 C                     0.04286  -0.52836   0.28005 
 C                     0.04286   0.85101   0.95115 
 H                    -0.77006  -0.02695  -1.53368 
 H                     0.85578  -0.02695  -1.53368 
 H                     0.91741  -1.09795   0.61128 
 H                    -0.83168  -1.09795   0.61128 
 H                    -1.01825   1.54273   0.60169 
 H                     0.04286   0.76628   2.04303 
 H                     0.92712   1.42744   0.65994 
 H                    -1.73939   2.01283   0.3642 
 
 Add virtual bond connecting atoms H11        and H8         Dist= 1.69D+00.
 Add virtual bond connecting atoms H8         and C3         Dist= 2.48D+00.
 ITRead=  0  0  0  0  0  0  0  0  0  0  0
 MicOpt= -1 -1 -1 -1 -1 -1 -1 -1 -1 -1 -1
 NAtoms=     11 NQM=       11 NQMF=       0 NMMI=      0 NMMIF=      0
                NMic=       0 NMicF=      0.
                    Isotopes and Nuclear Properties:
 (Nuclear quadrupole moments (NQMom) in fm**2, nuclear magnetic moments (NMagM)
  in nuclear magnetons)

  Atom         1           2           3           4           5           6           7           8           9          10
 IAtWgt=          14          12          12           1           1           1           1           1           1           1
 AtmWgt=  14.0030740  12.0000000  12.0000000   1.0078250   1.0078250   1.0078250   1.0078250   1.0078250   1.0078250   1.0078250
 NucSpn=           2           0           0           1           1           1           1           1           1           1
 AtZEff=  -0.0000000  -0.0000000  -0.0000000  -0.0000000  -0.0000000  -0.0000000  -0.0000000  -0.0000000  -0.0000000  -0.0000000
 NQMom=    2.0440000   0.0000000   0.0000000   0.0000000   0.0000000   0.0000000   0.0000000   0.0000000   0.0000000   0.0000000
 NMagM=    0.4037610   0.0000000   0.0000000   2.7928460   2.7928460   2.7928460   2.7928460   2.7928460   2.7928460   2.7928460
 AtZNuc=   7.0000000   6.0000000   6.0000000   1.0000000   1.0000000   1.0000000   1.0000000   1.0000000   1.0000000   1.0000000

  Atom        11
 IAtWgt=           1
 AtmWgt=   1.0078250
 NucSpn=           1
 AtZEff=  -0.0000000
 NQMom=    0.0000000
 NMagM=    2.7928460
 AtZNuc=   1.0000000
 Leave Link  101 at Sun Sep 19 14:22:22 2021, MaxMem=  1879048192 cpu:               5.1 elap:               0.8
 (Enter /home/gridsan/groups/GRPAPI/Software/g16/l103.exe)

 GradGradGradGradGradGradGradGradGradGradGradGradGradGradGradGradGradGrad
 Berny optimization.
 Initialization pass.
                           ----------------------------
                           !    Initial Parameters    !
                           ! (Angstroms and Degrees)  !
 --------------------------                            --------------------------
 ! Name  Definition              Value          Derivative Info.                !
 --------------------------------------------------------------------------------
 ! R1    R(1,2)                  1.4664         calculate D2E/DX2 analytically  !
 ! R2    R(1,4)                  1.0163         calculate D2E/DX2 analytically  !
 ! R3    R(1,5)                  1.0163         calculate D2E/DX2 analytically  !
 ! R4    R(2,3)                  1.534          calculate D2E/DX2 analytically  !
 ! R5    R(2,6)                  1.095          calculate D2E/DX2 analytically  !
 ! R6    R(2,7)                  1.095          calculate D2E/DX2 analytically  !
 ! R7    R(3,8)                  1.314          calculate D2E/DX2 analytically  !
 ! R8    R(3,9)                  1.0952         calculate D2E/DX2 analytically  !
 ! R9    R(3,10)                 1.095          calculate D2E/DX2 analytically  !
 ! R10   R(8,11)                 0.893          calculate D2E/DX2 analytically  !
 ! A1    A(2,1,4)              109.9833         calculate D2E/DX2 analytically  !
 ! A2    A(2,1,5)              109.9833         calculate D2E/DX2 analytically  !
 ! A3    A(4,1,5)              106.2358         calculate D2E/DX2 analytically  !
 ! A4    A(1,2,3)              115.9442         calculate D2E/DX2 analytically  !
 ! A5    A(1,2,6)              107.6078         calculate D2E/DX2 analytically  !
 ! A6    A(1,2,7)              107.6078         calculate D2E/DX2 analytically  !
 ! A7    A(3,2,6)              109.5978         calculate D2E/DX2 analytically  !
 ! A8    A(3,2,7)              109.5979         calculate D2E/DX2 analytically  !
 ! A9    A(6,2,7)              106.0102         calculate D2E/DX2 analytically  !
 ! A10   A(2,3,8)              110.9175         calculate D2E/DX2 analytically  !
 ! A11   A(2,3,9)              111.5069         calculate D2E/DX2 analytically  !
 ! A12   A(2,3,10)             110.9176         calculate D2E/DX2 analytically  !
 ! A13   A(8,3,9)              107.8113         calculate D2E/DX2 analytically  !
 ! A14   A(8,3,10)             107.715          calculate D2E/DX2 analytically  !
 ! A15   A(9,3,10)             107.8113         calculate D2E/DX2 analytically  !
 ! A16   L(3,8,11,4,-1)        180.0            calculate D2E/DX2 analytically  !
 ! A17   L(3,8,11,4,-2)        180.0            calculate D2E/DX2 analytically  !
 ! D1    D(4,1,2,3)            -58.3333         calculate D2E/DX2 analytically  !
 ! D2    D(4,1,2,6)            178.5908         calculate D2E/DX2 analytically  !
 ! D3    D(4,1,2,7)             64.7428         calculate D2E/DX2 analytically  !
 ! D4    D(5,1,2,3)             58.3332         calculate D2E/DX2 analytically  !
 ! D5    D(5,1,2,6)            -64.7427         calculate D2E/DX2 analytically  !
 ! D6    D(5,1,2,7)           -178.5908         calculate D2E/DX2 analytically  !
 ! D7    D(1,2,3,8)             59.829          calculate D2E/DX2 analytically  !
 ! D8    D(1,2,3,9)           -180.0            calculate D2E/DX2 analytically  !
 ! D9    D(1,2,3,10)           -59.829          calculate D2E/DX2 analytically  !
 ! D10   D(6,2,3,8)           -178.1445         calculate D2E/DX2 analytically  !
 ! D11   D(6,2,3,9)            -57.9735         calculate D2E/DX2 analytically  !
 ! D12   D(6,2,3,10)            62.1975         calculate D2E/DX2 analytically  !
 ! D13   D(7,2,3,8)            -62.1976         calculate D2E/DX2 analytically  !
 ! D14   D(7,2,3,9)             57.9734         calculate D2E/DX2 analytically  !
 ! D15   D(7,2,3,10)           178.1444         calculate D2E/DX2 analytically  !
 --------------------------------------------------------------------------------
 Trust Radius=5.00D-02 FncErr=1.00D-07 GrdErr=1.00D-06 EigMax=2.50D+02 EigMin=1.00D-04
 Number of steps in this run=    100 maximum allowed number of steps=    100.
 Search for a saddle point of order  1.
 GradGradGradGradGradGradGradGradGradGradGradGradGradGradGradGradGradGrad

 Leave Link  103 at Sun Sep 19 14:22:22 2021, MaxMem=  1879048192 cpu:               0.6 elap:               0.2
 (Enter /home/gridsan/groups/GRPAPI/Software/g16/l202.exe)
                          Input orientation:                          
 ---------------------------------------------------------------------
 Center     Atomic      Atomic             Coordinates (Angstroms)
 Number     Number       Type             X           Y           Z
 ---------------------------------------------------------------------
      1          7           0        0.042861   -0.528362   -1.186359
      2          6           0        0.042861   -0.528362    0.280047
      3          6           0        0.042861    0.851012    0.951149
      4          1           0       -0.770056   -0.026946   -1.533679
      5          1           0        0.855778   -0.026945   -1.533680
      6          1           0        0.917406   -1.097947    0.611277
      7          1           0       -0.831681   -1.097948    0.611277
      8          1           0       -1.018246    1.542730    0.601694
      9          1           0        0.042861    0.766283    2.043028
     10          1           0        0.927117    1.427444    0.659937
     11          1           0       -1.739394    2.012834    0.364198
 ---------------------------------------------------------------------
                    Distance matrix (angstroms):
                    1          2          3          4          5
     1  N    0.000000
     2  C    1.466406   0.000000
     3  C    2.543937   1.533966   0.000000
     4  H    1.016309   2.049843   2.757901   0.000000
     5  H    1.016309   2.049843   2.757901   1.625834   0.000000
     6  H    2.078641   1.094974   2.163049   2.931792   2.398266
     7  H    2.078641   1.094973   2.163049   2.398266   2.931792
     8  H    2.934707   2.349218   1.313979   2.661823   3.245869
     9  H    3.479231   2.187283   1.095162   3.752717   3.752717
    10  H    2.831236   2.179771   1.094983   3.131709   2.632924
    11  H    3.469630   3.105026   2.206983   2.949958   3.807565
                    6          7          8          9         10
     6  H    0.000000
     7  H    1.749087   0.000000
     8  H    3.274143   2.647277   0.000000
     9  H    2.508006   2.508006   1.950965   0.000000
    10  H    2.525879   3.077880   1.949646   1.769742   0.000000
    11  H    4.098364   3.249915   0.893004   2.747507   2.745983
                   11
    11  H    0.000000
 Stoichiometry    C2H8N(2)
 Framework group  C1[X(C2H8N)]
 Deg. of freedom    27
 Full point group                 C1      NOp   1
 Largest Abelian subgroup         C1      NOp   1
 Largest concise Abelian subgroup C1      NOp   1
                         Standard orientation:                         
 ---------------------------------------------------------------------
 Center     Atomic      Atomic             Coordinates (Angstroms)
 Number     Number       Type             X           Y           Z
 ---------------------------------------------------------------------
      1          7           0        1.330979    0.262585    0.065938
      2          6           0        0.167332   -0.573917   -0.244767
      3          6           0       -1.192287   -0.027634    0.209172
      4          1           0        1.221548    1.180517   -0.356329
      5          1           0        1.390332    0.416387    1.068787
      6          1           0        0.336804   -1.557552    0.205466
      7          1           0        0.155224   -0.735494   -1.327685
      8          1           0       -1.439895    1.136346   -0.347948
      9          1           0       -2.007929   -0.707561   -0.058795
     10          1           0       -1.215031    0.111162    1.295084
     11          1           0       -1.608174    1.927408   -0.726576
 ---------------------------------------------------------------------
 Rotational constants (GHZ):          23.3943880           8.0769590           7.1221800
 Leave Link  202 at Sun Sep 19 14:22:23 2021, MaxMem=  1879048192 cpu:               1.3 elap:               0.3
 (Enter /home/gridsan/groups/GRPAPI/Software/g16/l301.exe)
 Standard basis: 6-311G(2d,d,p) (5D, 7F)
 Ernie: Thresh=  0.10000D-02 Tol=  0.10000D-05 Strict=F.
 There are   105 symmetry adapted cartesian basis functions of A   symmetry.
 There are   102 symmetry adapted basis functions of A   symmetry.
   102 basis functions,   160 primitive gaussians,   105 cartesian basis functions
    14 alpha electrons       13 beta electrons
       nuclear repulsion energy        86.9791674834 Hartrees.
 IExCor=  402 DFT=T Ex+Corr=B3LYP ExCW=0 ScaHFX=  0.200000
 ScaDFX=  0.800000  0.720000  1.000000  0.810000 ScalE2=  1.000000  1.000000
 IRadAn=      5 IRanWt=     -1 IRanGd=            0 ICorTp=0 IEmpDi=  4
 NAtoms=   11 NActive=   11 NUniq=   11 SFac= 1.00D+00 NAtFMM=   60 NAOKFM=F Big=F
 Integral buffers will be    131072 words long.
 Raffenetti 2 integral format.
 Two-electron integral symmetry is turned on.
 Leave Link  301 at Sun Sep 19 14:22:24 2021, MaxMem=  1879048192 cpu:               0.5 elap:               0.1
 (Enter /home/gridsan/groups/GRPAPI/Software/g16/l302.exe)
 NPDir=0 NMtPBC=     1 NCelOv=     1 NCel=       1 NClECP=     1 NCelD=      1
         NCelK=      1 NCelE2=     1 NClLst=     1 CellRange=     0.0.
 One-electron integrals computed using PRISM.
 One-electron integral symmetry used in STVInt
 NBasis=   102 RedAO= T EigKep=  3.18D-03  NBF=   102
 NBsUse=   102 1.00D-06 EigRej= -1.00D+00 NBFU=   102
 Precomputing XC quadrature grid using
 IXCGrd= 4 IRadAn=           5 IRanWt=          -1 IRanGd=           0 AccXCQ= 1.00D-12.
 Generated NRdTot=       0 NPtTot=           0 NUsed=           0 NTot=          32
 NSgBfM=   105   105   105   105   105 MxSgAt=    11 MxSgA2=    11.
 Leave Link  302 at Sun Sep 19 14:22:27 2021, MaxMem=  1879048192 cpu:               4.6 elap:               1.1
 (Enter /home/gridsan/groups/GRPAPI/Software/g16/l303.exe)
 DipDrv:  MaxL=1.
 Leave Link  303 at Sun Sep 19 14:22:27 2021, MaxMem=  1879048192 cpu:               0.4 elap:               0.1
 (Enter /home/gridsan/groups/GRPAPI/Software/g16/l401.exe)
 Initial guess from the checkpoint file:  "check.chk"
 B after Tr=    -0.000000    0.000000    0.000000
         Rot=    0.999928    0.010047    0.001968   -0.006213 Ang=   1.37 deg.
 Guess basis will be translated and rotated to current coordinates.
 JPrj=2 DoOrth=T DoCkMO=T.
 Initial guess <Sx>= 0.0000 <Sy>= 0.0000 <Sz>= 0.5000 <S**2>= 0.7847 S= 0.5172
 Leave Link  401 at Sun Sep 19 14:22:28 2021, MaxMem=  1879048192 cpu:               2.0 elap:               0.4
 (Enter /home/gridsan/groups/GRPAPI/Software/g16/l502.exe)
 Keep R1 and R2 ints in memory in canonical form, NReq=35047222.
 FoFCou: FMM=F IPFlag=           0 FMFlag=           0 FMFlg1=           0
         NFxFlg=           0 DoJE=F BraDBF=F KetDBF=F FulRan=T
         wScrn=  0.000000 ICntrl=       600 IOpCl=  0 I1Cent=           0 NGrid=           0
         NMat0=    1 NMatS0=   5253 NMatT0=    0 NMatD0=    1 NMtDS0=    0 NMtDT0=    0
 Symmetry not used in FoFCou.
 Two-electron integral symmetry not used.
 UHF open shell SCF:
 Using DIIS extrapolation, IDIIS=  1040.
 NGot=  1879048192 LenX=  1851424754 LenY=  1851413288
 Requested convergence on RMS density matrix=1.00D-08 within  32 cycles.
 Requested convergence on MAX density matrix=1.00D-06.
 Requested convergence on             energy=1.00D-06.
 No special actions if energy rises.

 Cycle   1  Pass 1  IDiag  1:
 E= -135.674811545491    
 DIIS: error= 1.56D-02 at cycle   1 NSaved=   1.
 NSaved= 1 IEnMin= 1 EnMin= -135.674811545491     IErMin= 1 ErrMin= 1.56D-02
 ErrMax= 1.56D-02  0.00D+00 EMaxC= 1.00D-01 BMatC= 1.98D-01 BMatP= 1.98D-01
 IDIUse=3 WtCom= 8.44D-01 WtEn= 1.56D-01
 Coeff-Com:  0.100D+01
 Coeff-En:   0.100D+01
 Coeff:      0.100D+01
 Gap=     1.880 Goal=   None    Shift=    0.000
 Gap=     1.643 Goal=   None    Shift=    0.000
 GapD=    1.643 DampG=2.000 DampE=0.500 DampFc=1.0000 IDamp=-1.
 RMSDP=1.84D-03 MaxDP=4.35D-02              OVMax= 6.83D-02

 Cycle   2  Pass 1  IDiag  1:
 E= -135.701804578583     Delta-E=       -0.026993033091 Rises=F Damp=F
 DIIS: error= 5.16D-03 at cycle   2 NSaved=   2.
 NSaved= 2 IEnMin= 2 EnMin= -135.701804578583     IErMin= 2 ErrMin= 5.16D-03
 ErrMax= 5.16D-03  0.00D+00 EMaxC= 1.00D-01 BMatC= 1.17D-02 BMatP= 1.98D-01
 IDIUse=3 WtCom= 9.48D-01 WtEn= 5.16D-02
 Coeff-Com:  0.922D-01 0.908D+00
 Coeff-En:   0.000D+00 0.100D+01
 Coeff:      0.875D-01 0.913D+00
 Gap=     0.253 Goal=   None    Shift=    0.000
 Gap=     0.152 Goal=   None    Shift=    0.000
 RMSDP=9.75D-04 MaxDP=3.63D-02 DE=-2.70D-02 OVMax= 3.11D-02

 Cycle   3  Pass 1  IDiag  1:
 E= -135.701729555844     Delta-E=        0.000075022738 Rises=F Damp=F
 DIIS: error= 4.56D-03 at cycle   3 NSaved=   3.
 NSaved= 3 IEnMin= 2 EnMin= -135.701804578583     IErMin= 3 ErrMin= 4.56D-03
 ErrMax= 4.56D-03  0.00D+00 EMaxC= 1.00D-01 BMatC= 1.18D-02 BMatP= 1.17D-02
 IDIUse=3 WtCom= 9.54D-01 WtEn= 4.56D-02
 Coeff-Com: -0.104D-01 0.501D+00 0.509D+00
 Coeff-En:   0.000D+00 0.506D+00 0.494D+00
 Coeff:     -0.990D-02 0.501D+00 0.509D+00
 Gap=     0.256 Goal=   None    Shift=    0.000
 Gap=     0.160 Goal=   None    Shift=    0.000
 RMSDP=4.87D-04 MaxDP=1.49D-02 DE= 7.50D-05 OVMax= 1.72D-02

 Cycle   4  Pass 1  IDiag  1:
 E= -135.704666885331     Delta-E=       -0.002937329487 Rises=F Damp=F
 DIIS: error= 6.21D-04 at cycle   4 NSaved=   4.
 NSaved= 4 IEnMin= 4 EnMin= -135.704666885331     IErMin= 4 ErrMin= 6.21D-04
 ErrMax= 6.21D-04  0.00D+00 EMaxC= 1.00D-01 BMatC= 1.14D-04 BMatP= 1.17D-02
 IDIUse=3 WtCom= 9.94D-01 WtEn= 6.21D-03
 Coeff-Com: -0.381D-02-0.181D-01 0.603D-01 0.962D+00
 Coeff-En:   0.000D+00 0.000D+00 0.000D+00 0.100D+01
 Coeff:     -0.379D-02-0.180D-01 0.600D-01 0.962D+00
 Gap=     0.256 Goal=   None    Shift=    0.000
 Gap=     0.157 Goal=   None    Shift=    0.000
 RMSDP=8.99D-05 MaxDP=3.18D-03 DE=-2.94D-03 OVMax= 3.23D-03

 Cycle   5  Pass 1  IDiag  1:
 E= -135.704707493936     Delta-E=       -0.000040608605 Rises=F Damp=F
 DIIS: error= 1.61D-04 at cycle   5 NSaved=   5.
 NSaved= 5 IEnMin= 5 EnMin= -135.704707493936     IErMin= 5 ErrMin= 1.61D-04
 ErrMax= 1.61D-04  0.00D+00 EMaxC= 1.00D-01 BMatC= 1.33D-05 BMatP= 1.14D-04
 IDIUse=3 WtCom= 9.98D-01 WtEn= 1.61D-03
 Coeff-Com: -0.238D-03-0.485D-01-0.298D-01 0.260D+00 0.818D+00
 Coeff-En:   0.000D+00 0.000D+00 0.000D+00 0.000D+00 0.100D+01
 Coeff:     -0.237D-03-0.484D-01-0.298D-01 0.260D+00 0.819D+00
 Gap=     0.256 Goal=   None    Shift=    0.000
 Gap=     0.157 Goal=   None    Shift=    0.000
 RMSDP=3.04D-05 MaxDP=1.16D-03 DE=-4.06D-05 OVMax= 9.40D-04

 Cycle   6  Pass 1  IDiag  1:
 E= -135.704711166588     Delta-E=       -0.000003672651 Rises=F Damp=F
 DIIS: error= 1.01D-04 at cycle   6 NSaved=   6.
 NSaved= 6 IEnMin= 6 EnMin= -135.704711166588     IErMin= 6 ErrMin= 1.01D-04
 ErrMax= 1.01D-04  0.00D+00 EMaxC= 1.00D-01 BMatC= 6.17D-06 BMatP= 1.33D-05
 IDIUse=3 WtCom= 9.99D-01 WtEn= 1.01D-03
 Coeff-Com:  0.658D-03-0.238D-01-0.288D-01-0.171D-01 0.454D+00 0.615D+00
 Coeff-En:   0.000D+00 0.000D+00 0.000D+00 0.000D+00 0.000D+00 0.100D+01
 Coeff:      0.657D-03-0.237D-01-0.287D-01-0.171D-01 0.453D+00 0.616D+00
 Gap=     0.256 Goal=   None    Shift=    0.000
 Gap=     0.157 Goal=   None    Shift=    0.000
 RMSDP=9.83D-06 MaxDP=2.16D-04 DE=-3.67D-06 OVMax= 5.10D-04

 Cycle   7  Pass 1  IDiag  1:
 E= -135.704712750612     Delta-E=       -0.000001584024 Rises=F Damp=F
 DIIS: error= 2.37D-05 at cycle   7 NSaved=   7.
 NSaved= 7 IEnMin= 7 EnMin= -135.704712750612     IErMin= 7 ErrMin= 2.37D-05
 ErrMax= 2.37D-05  0.00D+00 EMaxC= 1.00D-01 BMatC= 2.93D-07 BMatP= 6.17D-06
 IDIUse=1 WtCom= 1.00D+00 WtEn= 0.00D+00
 Coeff-Com:  0.140D-03 0.276D-03-0.467D-02-0.385D-01 0.127D-01 0.172D+00
 Coeff-Com:  0.858D+00
 Coeff:      0.140D-03 0.276D-03-0.467D-02-0.385D-01 0.127D-01 0.172D+00
 Coeff:      0.858D+00
 Gap=     0.256 Goal=   None    Shift=    0.000
 Gap=     0.157 Goal=   None    Shift=    0.000
 RMSDP=4.37D-06 MaxDP=1.33D-04 DE=-1.58D-06 OVMax= 1.44D-04

 Cycle   8  Pass 1  IDiag  1:
 E= -135.704712844737     Delta-E=       -0.000000094125 Rises=F Damp=F
 DIIS: error= 1.26D-05 at cycle   8 NSaved=   8.
 NSaved= 8 IEnMin= 8 EnMin= -135.704712844737     IErMin= 8 ErrMin= 1.26D-05
 ErrMax= 1.26D-05  0.00D+00 EMaxC= 1.00D-01 BMatC= 4.87D-08 BMatP= 2.93D-07
 IDIUse=1 WtCom= 1.00D+00 WtEn= 0.00D+00
 Coeff-Com:  0.889D-05 0.201D-02 0.635D-03-0.135D-01-0.330D-01 0.158D-01
 Coeff-Com:  0.357D+00 0.671D+00
 Coeff:      0.889D-05 0.201D-02 0.635D-03-0.135D-01-0.330D-01 0.158D-01
 Coeff:      0.357D+00 0.671D+00
 Gap=     0.256 Goal=   None    Shift=    0.000
 Gap=     0.157 Goal=   None    Shift=    0.000
 RMSDP=1.17D-06 MaxDP=3.85D-05 DE=-9.41D-08 OVMax= 5.49D-05

 Cycle   9  Pass 1  IDiag  1:
 E= -135.704712858140     Delta-E=       -0.000000013403 Rises=F Damp=F
 DIIS: error= 5.19D-06 at cycle   9 NSaved=   9.
 NSaved= 9 IEnMin= 9 EnMin= -135.704712858140     IErMin= 9 ErrMin= 5.19D-06
 ErrMax= 5.19D-06  0.00D+00 EMaxC= 1.00D-01 BMatC= 8.28D-09 BMatP= 4.87D-08
 IDIUse=1 WtCom= 1.00D+00 WtEn= 0.00D+00
 Coeff-Com: -0.302D-04 0.801D-03 0.155D-02 0.333D-02-0.174D-01-0.365D-01
 Coeff-Com: -0.557D-01 0.273D+00 0.830D+00
 Coeff:     -0.302D-04 0.801D-03 0.155D-02 0.333D-02-0.174D-01-0.365D-01
 Coeff:     -0.557D-01 0.273D+00 0.830D+00
 Gap=     0.256 Goal=   None    Shift=    0.000
 Gap=     0.157 Goal=   None    Shift=    0.000
 RMSDP=6.15D-07 MaxDP=1.76D-05 DE=-1.34D-08 OVMax= 2.31D-05

 Cycle  10  Pass 1  IDiag  1:
 E= -135.704712860977     Delta-E=       -0.000000002837 Rises=F Damp=F
 DIIS: error= 1.20D-06 at cycle  10 NSaved=  10.
 NSaved=10 IEnMin=10 EnMin= -135.704712860977     IErMin=10 ErrMin= 1.20D-06
 ErrMax= 1.20D-06  0.00D+00 EMaxC= 1.00D-01 BMatC= 3.87D-10 BMatP= 8.28D-09
 IDIUse=1 WtCom= 1.00D+00 WtEn= 0.00D+00
 Coeff-Com: -0.853D-05 0.345D-04 0.349D-03 0.199D-02-0.137D-02-0.104D-01
 Coeff-Com: -0.452D-01 0.120D-01 0.210D+00 0.832D+00
 Coeff:     -0.853D-05 0.345D-04 0.349D-03 0.199D-02-0.137D-02-0.104D-01
 Coeff:     -0.452D-01 0.120D-01 0.210D+00 0.832D+00
 Gap=     0.256 Goal=   None    Shift=    0.000
 Gap=     0.157 Goal=   None    Shift=    0.000
 RMSDP=1.40D-07 MaxDP=2.77D-06 DE=-2.84D-09 OVMax= 6.16D-06

 Cycle  11  Pass 1  IDiag  1:
 E= -135.704712861121     Delta-E=       -0.000000000144 Rises=F Damp=F
 DIIS: error= 3.13D-07 at cycle  11 NSaved=  11.
 NSaved=11 IEnMin=11 EnMin= -135.704712861121     IErMin=11 ErrMin= 3.13D-07
 ErrMax= 3.13D-07  0.00D+00 EMaxC= 1.00D-01 BMatC= 2.46D-11 BMatP= 3.87D-10
 IDIUse=1 WtCom= 1.00D+00 WtEn= 0.00D+00
 Coeff-Com:  0.748D-06-0.560D-04-0.778D-04 0.347D-04 0.117D-02 0.162D-02
 Coeff-Com: -0.343D-02-0.211D-01-0.388D-01 0.147D+00 0.914D+00
 Coeff:      0.748D-06-0.560D-04-0.778D-04 0.347D-04 0.117D-02 0.162D-02
 Coeff:     -0.343D-02-0.211D-01-0.388D-01 0.147D+00 0.914D+00
 Gap=     0.256 Goal=   None    Shift=    0.000
 Gap=     0.157 Goal=   None    Shift=    0.000
 RMSDP=3.54D-08 MaxDP=6.76D-07 DE=-1.44D-10 OVMax= 1.51D-06

 Cycle  12  Pass 1  IDiag  1:
 E= -135.704712861130     Delta-E=       -0.000000000009 Rises=F Damp=F
 DIIS: error= 5.38D-08 at cycle  12 NSaved=  12.
 NSaved=12 IEnMin=12 EnMin= -135.704712861130     IErMin=12 ErrMin= 5.38D-08
 ErrMax= 5.38D-08  0.00D+00 EMaxC= 1.00D-01 BMatC= 1.01D-12 BMatP= 2.46D-11
 IDIUse=1 WtCom= 1.00D+00 WtEn= 0.00D+00
 Coeff-Com:  0.403D-06-0.883D-05-0.235D-04-0.691D-04 0.169D-03 0.585D-03
 Coeff-Com:  0.145D-02-0.274D-02-0.127D-01-0.181D-01 0.105D+00 0.927D+00
 Coeff:      0.403D-06-0.883D-05-0.235D-04-0.691D-04 0.169D-03 0.585D-03
 Coeff:      0.145D-02-0.274D-02-0.127D-01-0.181D-01 0.105D+00 0.927D+00
 Gap=     0.256 Goal=   None    Shift=    0.000
 Gap=     0.157 Goal=   None    Shift=    0.000
 RMSDP=8.42D-09 MaxDP=1.58D-07 DE=-9.27D-12 OVMax= 2.88D-07

 SCF Done:  E(UB3LYP) =  -135.704712861     A.U. after   12 cycles
            NFock= 12  Conv=0.84D-08     -V/T= 2.0043
 <Sx>= 0.0000 <Sy>= 0.0000 <Sz>= 0.5000 <S**2>= 0.7567 S= 0.5033
 <L.S>=  0.00000000000    
 KE= 1.351201940232D+02 PE=-4.887872843574D+02 EE= 1.309832099896D+02
 Annihilation of the first spin contaminant:
 S**2 before annihilation     0.7567,   after     0.7500
 Leave Link  502 at Sun Sep 19 14:22:33 2021, MaxMem=  1879048192 cpu:              36.5 elap:               5.3
 (Enter /home/gridsan/groups/GRPAPI/Software/g16/l508.exe)
 QCSCF skips out because SCF is already converged.
 Leave Link  508 at Sun Sep 19 14:22:33 2021, MaxMem=  1879048192 cpu:               0.0 elap:               0.0
 (Enter /home/gridsan/groups/GRPAPI/Software/g16/l801.exe)
 DoSCS=F DFT=T ScalE2(SS,OS)=  1.000000  1.000000
 Range of M.O.s used for correlation:     1   102
 NBasis=   102 NAE=    14 NBE=    13 NFC=     0 NFV=     0
 NROrb=    102 NOA=    14 NOB=    13 NVA=    88 NVB=    89
 Leave Link  801 at Sun Sep 19 14:22:34 2021, MaxMem=  1879048192 cpu:               0.4 elap:               0.1
 (Enter /home/gridsan/groups/GRPAPI/Software/g16/l1101.exe)
 Using compressed storage, NAtomX=    11.
 Will process     12 centers per pass.
 Leave Link 1101 at Sun Sep 19 14:22:36 2021, MaxMem=  1879048192 cpu:               2.4 elap:               0.3
 (Enter /home/gridsan/groups/GRPAPI/Software/g16/l1102.exe)
 Symmetrizing basis deriv contribution to polar:
 IMax=3 JMax=2 DiffMx= 0.00D+00
 Leave Link 1102 at Sun Sep 19 14:22:37 2021, MaxMem=  1879048192 cpu:               1.5 elap:               0.6
 (Enter /home/gridsan/groups/GRPAPI/Software/g16/l1110.exe)
 Forming Gx(P) for the SCF density, NAtomX=    11.
 Integral derivatives from FoFJK, PRISM(SPDF).
 Do as many integral derivatives as possible in FoFJK.
 G2DrvN: MDV=    1879047176.
 G2DrvN: will do    12 centers at a time, making    1 passes.
 Calling FoFCou, ICntrl=  3107 FMM=F I1Cent=   0 AccDes= 1.00D-12.
 FoFJK:  IHMeth= 1 ICntrl=    3107 DoSepK=F KAlg= 0 I1Cent=           0 FoldK=F
 IRaf=         0 NMat=       1 IRICut=       1 DoRegI=T DoRafI=F ISym2E= 0 IDoP0=0 IntGTp=1.
 FoFCou: FMM=F IPFlag=           0 FMFlag=      100000 FMFlg1=           0
         NFxFlg=           0 DoJE=F BraDBF=F KetDBF=F FulRan=T
         wScrn=  0.000000 ICntrl=      3107 IOpCl=  1 I1Cent=           0 NGrid=           0
         NMat0=    1 NMatS0=      1 NMatT0=    0 NMatD0=    1 NMtDS0=    0 NMtDT0=    0
 Symmetry not used in FoFCou.
 End of G2Drv F.D. properties file   721 does not exist.
 End of G2Drv F.D. properties file   722 does not exist.
 End of G2Drv F.D. properties file   788 does not exist.
 Leave Link 1110 at Sun Sep 19 14:22:44 2021, MaxMem=  1879048192 cpu:              56.2 elap:               7.0
 (Enter /home/gridsan/groups/GRPAPI/Software/g16/l1002.exe)
 Minotr:  UHF open shell wavefunction.
          IDoAtm=11111111111
          Direct CPHF calculation.
          Differentiating once with respect to nuclear coordinates.
          Requested convergence is 1.0D-08 RMS, and 1.0D-07 maximum.
          Secondary convergence is 1.0D-12 RMS, and 1.0D-12 maximum.
          NewPWx=T KeepS1=F KeepF1=F KeepIn=T MapXYZ=F SortEE=F KeepMc=T.
         3265 words used for storage of precomputed grid.
 Keep R1 and R2 ints in memory in canonical form, NReq=35030119.
 FoFCou: FMM=F IPFlag=           0 FMFlag=           0 FMFlg1=           0
         NFxFlg=           0 DoJE=F BraDBF=F KetDBF=F FulRan=T
         wScrn=  0.000000 ICntrl=       600 IOpCl=  0 I1Cent=           0 NGrid=           0
         NMat0=    1 NMatS0=   5253 NMatT0=    0 NMatD0=    1 NMtDS0=    0 NMtDT0=    0
 Symmetry not used in FoFCou.
 Two-electron integral symmetry not used.
          MDV=    1879048192 using IRadAn=       1.
          Solving linear equations simultaneously, MaxMat=       0.
          There are    36 degrees of freedom in the 1st order CPHF.  IDoFFX=6 NUNeed=     0.
     30 vectors produced by pass  0 Test12= 6.64D-15 2.78D-09 XBig12= 1.54D-01 1.63D-01.
 AX will form    30 AO Fock derivatives at one time.
     30 vectors produced by pass  1 Test12= 6.64D-15 2.78D-09 XBig12= 1.22D-02 1.97D-02.
     30 vectors produced by pass  2 Test12= 6.64D-15 2.78D-09 XBig12= 3.01D-04 3.23D-03.
     30 vectors produced by pass  3 Test12= 6.64D-15 2.78D-09 XBig12= 5.14D-06 3.94D-04.
     30 vectors produced by pass  4 Test12= 6.64D-15 2.78D-09 XBig12= 2.08D-08 1.74D-05.
     29 vectors produced by pass  5 Test12= 6.64D-15 2.78D-09 XBig12= 4.94D-11 8.28D-07.
     11 vectors produced by pass  6 Test12= 6.64D-15 2.78D-09 XBig12= 1.55D-13 4.43D-08.
 InvSVY:  IOpt=1 It=  1 EMax= 2.00D-15
 Solved reduced A of dimension   190 with    30 vectors.
 End of Minotr F.D. properties file   721 does not exist.
 End of Minotr F.D. properties file   722 does not exist.
 End of Minotr F.D. properties file   788 does not exist.
 Leave Link 1002 at Sun Sep 19 14:22:55 2021, MaxMem=  1879048192 cpu:              72.8 elap:               9.5
 (Enter /home/gridsan/groups/GRPAPI/Software/g16/l601.exe)
 Copying SCF densities to generalized density rwf, IOpCl= 1 IROHF=0.

 **********************************************************************

            Population analysis using the SCF Density.

 **********************************************************************

 Orbital symmetries:
 Alpha Orbitals:
       Occupied  (A) (A) (A) (A) (A) (A) (A) (A) (A) (A) (A) (A)
                 (A) (A)
       Virtual   (A) (A) (A) (A) (A) (A) (A) (A) (A) (A) (A) (A)
                 (A) (A) (A) (A) (A) (A) (A) (A) (A) (A) (A) (A)
                 (A) (A) (A) (A) (A) (A) (A) (A) (A) (A) (A) (A)
                 (A) (A) (A) (A) (A) (A) (A) (A) (A) (A) (A) (A)
                 (A) (A) (A) (A) (A) (A) (A) (A) (A) (A) (A) (A)
                 (A) (A) (A) (A) (A) (A) (A) (A) (A) (A) (A) (A)
                 (A) (A) (A) (A) (A) (A) (A) (A) (A) (A) (A) (A)
                 (A) (A) (A) (A)
 Beta  Orbitals:
       Occupied  (A) (A) (A) (A) (A) (A) (A) (A) (A) (A) (A) (A)
                 (A)
       Virtual   (A) (A) (A) (A) (A) (A) (A) (A) (A) (A) (A) (A)
                 (A) (A) (A) (A) (A) (A) (A) (A) (A) (A) (A) (A)
                 (A) (A) (A) (A) (A) (A) (A) (A) (A) (A) (A) (A)
                 (A) (A) (A) (A) (A) (A) (A) (A) (A) (A) (A) (A)
                 (A) (A) (A) (A) (A) (A) (A) (A) (A) (A) (A) (A)
                 (A) (A) (A) (A) (A) (A) (A) (A) (A) (A) (A) (A)
                 (A) (A) (A) (A) (A) (A) (A) (A) (A) (A) (A) (A)
                 (A) (A) (A) (A) (A)
 The electronic state is 2-A.
 Alpha  occ. eigenvalues --  -14.28799 -10.20061 -10.18443  -0.88471  -0.74064
 Alpha  occ. eigenvalues --   -0.62169  -0.50897  -0.46938  -0.44289  -0.42004
 Alpha  occ. eigenvalues --   -0.39249  -0.36188  -0.24417  -0.21636
 Alpha virt. eigenvalues --    0.03928   0.07010   0.07909   0.10045   0.11948
 Alpha virt. eigenvalues --    0.13043   0.15731   0.19567   0.22927   0.28274
 Alpha virt. eigenvalues --    0.30176   0.32790   0.34194   0.35636   0.38900
 Alpha virt. eigenvalues --    0.44423   0.50032   0.51923   0.55733   0.56948
 Alpha virt. eigenvalues --    0.57350   0.58960   0.61078   0.68419   0.72306
 Alpha virt. eigenvalues --    0.73504   0.78782   0.89443   0.99590   1.01412
 Alpha virt. eigenvalues --    1.07387   1.14773   1.18652   1.24978   1.32409
 Alpha virt. eigenvalues --    1.34307   1.41715   1.45525   1.49693   1.51192
 Alpha virt. eigenvalues --    1.52806   1.55882   1.58956   1.61930   1.68426
 Alpha virt. eigenvalues --    1.70778   1.73053   1.75290   1.80818   1.85371
 Alpha virt. eigenvalues --    1.87613   1.90774   1.99445   2.05944   2.09179
 Alpha virt. eigenvalues --    2.10871   2.20912   2.24941   2.28632   2.34998
 Alpha virt. eigenvalues --    2.38479   2.41375   2.44867   2.49863   2.50309
 Alpha virt. eigenvalues --    2.56029   2.58303   2.60807   2.63336   2.71518
 Alpha virt. eigenvalues --    2.73319   2.74056   2.80454   2.92578   2.95433
 Alpha virt. eigenvalues --    3.11051   3.16905   3.43757   3.74579   3.80581
 Alpha virt. eigenvalues --    3.91768   4.01213   4.14953   4.71654   4.84508
 Alpha virt. eigenvalues --   23.80393  23.83339  35.56650
  Beta  occ. eigenvalues --  -14.28792 -10.20077 -10.17438  -0.88362  -0.72648
  Beta  occ. eigenvalues --   -0.61052  -0.50248  -0.44752  -0.42949  -0.41499
  Beta  occ. eigenvalues --   -0.38284  -0.35771  -0.24207
  Beta virt. eigenvalues --   -0.08492   0.04113   0.07115   0.08011   0.10354
  Beta virt. eigenvalues --    0.12290   0.13273   0.17646   0.19948   0.23368
  Beta virt. eigenvalues --    0.28660   0.30941   0.33455   0.35250   0.36038
  Beta virt. eigenvalues --    0.40030   0.44603   0.50135   0.53006   0.57326
  Beta virt. eigenvalues --    0.57423   0.58385   0.59700   0.62450   0.68577
  Beta virt. eigenvalues --    0.72368   0.73524   0.79454   0.90321   1.00290
  Beta virt. eigenvalues --    1.02190   1.08295   1.16712   1.21358   1.25538
  Beta virt. eigenvalues --    1.32701   1.36860   1.44614   1.46516   1.50270
  Beta virt. eigenvalues --    1.52181   1.53462   1.57717   1.59483   1.61972
  Beta virt. eigenvalues --    1.68893   1.71195   1.73602   1.76321   1.81996
  Beta virt. eigenvalues --    1.85814   1.90000   1.92115   1.99954   2.07318
  Beta virt. eigenvalues --    2.09529   2.11847   2.21699   2.26114   2.31694
  Beta virt. eigenvalues --    2.35353   2.39330   2.41619   2.45818   2.50652
  Beta virt. eigenvalues --    2.51478   2.56878   2.58707   2.61360   2.63707
  Beta virt. eigenvalues --    2.71765   2.73464   2.74279   2.81082   2.94215
  Beta virt. eigenvalues --    2.97653   3.11254   3.17618   3.43807   3.75618
  Beta virt. eigenvalues --    3.80787   3.93893   4.01720   4.16037   4.71664
  Beta virt. eigenvalues --    4.84583  23.80551  23.84314  35.56658
          Condensed to atoms (all electrons):
               1          2          3          4          5          6
     1  N    6.466189   0.342387  -0.070052   0.378554   0.374672  -0.029983
     2  C    0.342387   4.814740   0.370808  -0.054736  -0.056988   0.400379
     3  C   -0.070052   0.370808   5.272812  -0.002550  -0.002005  -0.041923
     4  H    0.378554  -0.054736  -0.002550   0.526079  -0.042849   0.009734
     5  H    0.374672  -0.056988  -0.002005  -0.042849   0.538003  -0.010262
     6  H   -0.029983   0.400379  -0.041923   0.009734  -0.010262   0.588186
     7  H   -0.029278   0.402053  -0.050269  -0.010198   0.010503  -0.036297
     8  H    0.003561  -0.031958   0.231964   0.006999  -0.000861   0.007013
     9  H    0.007563  -0.029216   0.357119   0.000072   0.000081  -0.001722
    10  H    0.001669  -0.039093   0.379749  -0.000643   0.006717  -0.007188
    11  H   -0.000594   0.007385  -0.178111  -0.000459   0.000037  -0.001440
               7          8          9         10         11
     1  N   -0.029278   0.003561   0.007563   0.001669  -0.000594
     2  C    0.402053  -0.031958  -0.029216  -0.039093   0.007385
     3  C   -0.050269   0.231964   0.357119   0.379749  -0.178111
     4  H   -0.010198   0.006999   0.000072  -0.000643  -0.000459
     5  H    0.010503  -0.000861   0.000081   0.006717   0.000037
     6  H   -0.036297   0.007013  -0.001722  -0.007188  -0.001440
     7  H    0.590107  -0.007418  -0.001744   0.009225   0.003285
     8  H   -0.007418   0.572027  -0.013586  -0.023213   0.177652
     9  H   -0.001744  -0.013586   0.588912  -0.026055   0.006138
    10  H    0.009225  -0.023213  -0.026055   0.583918   0.008079
    11  H    0.003285   0.177652   0.006138   0.008079   1.053609
          Atomic-Atomic Spin Densities.
               1          2          3          4          5          6
     1  N    0.002769   0.001453  -0.000386   0.000241  -0.000022  -0.002998
     2  C    0.001453  -0.009928  -0.037390   0.000113   0.000418   0.008620
     3  C   -0.000386  -0.037390   0.768076   0.001947  -0.000289  -0.008583
     4  H    0.000241   0.000113   0.001947  -0.000645   0.000020   0.000216
     5  H   -0.000022   0.000418  -0.000289   0.000020  -0.000267  -0.000208
     6  H   -0.002998   0.008620  -0.008583   0.000216  -0.000208   0.041309
     7  H    0.001402   0.002456  -0.006463  -0.000358   0.000033  -0.005496
     8  H    0.000253  -0.000281   0.072267  -0.000088  -0.000022   0.000702
     9  H    0.000010   0.002351  -0.014243  -0.000056   0.000029  -0.002614
    10  H    0.000222   0.003368  -0.019041  -0.000208   0.000044  -0.003085
    11  H   -0.000231   0.012156  -0.210976  -0.001561   0.000070  -0.002075
               7          8          9         10         11
     1  N    0.001402   0.000253   0.000010   0.000222  -0.000231
     2  C    0.002456  -0.000281   0.002351   0.003368   0.012156
     3  C   -0.006463   0.072267  -0.014243  -0.019041  -0.210976
     4  H   -0.000358  -0.000088  -0.000056  -0.000208  -0.001561
     5  H    0.000033  -0.000022   0.000029   0.000044   0.000070
     6  H   -0.005496   0.000702  -0.002614  -0.003085  -0.002075
     7  H    0.007756  -0.001084   0.001408   0.000633   0.004184
     8  H   -0.001084  -0.134220  -0.000143  -0.000577  -0.065159
     9  H    0.001408  -0.000143  -0.013257   0.005140   0.009595
    10  H    0.000633  -0.000577   0.005140  -0.007225   0.011975
    11  H    0.004184  -0.065159   0.009595   0.011975   0.830261
 Mulliken charges and spin densities:
               1          2
     1  N   -0.444687   0.002712
     2  C   -0.125763  -0.016664
     3  C   -0.267541   0.544918
     4  H    0.189997  -0.000381
     5  H    0.182952  -0.000195
     6  H    0.123504   0.025789
     7  H    0.120030   0.004470
     8  H    0.077818  -0.128352
     9  H    0.112436  -0.011780
    10  H    0.106836  -0.008754
    11  H   -0.075581   0.588238
 Sum of Mulliken charges =  -0.00000   1.00000
 Mulliken charges and spin densities with hydrogens summed into heavy atoms:
               1          2
     1  N   -0.071738   0.002136
     2  C    0.117771   0.013595
     3  C   -0.046033   0.984269
 APT charges:
               1
     1  N   -0.760619
     2  C   -0.674536
     3  C   -0.635638
     4  H    0.371389
     5  H    0.383875
     6  H    0.357226
     7  H    0.335089
     8  H   -0.078456
     9  H    0.379015
    10  H    0.291742
    11  H    0.030912
 Sum of APT charges =  -0.00000
 APT charges with hydrogens summed into heavy atoms:
               1
     1  N   -0.005355
     2  C    0.017779
     3  C   -0.012424
 Electronic spatial extent (au):  <R**2>=            242.8177
 Charge=             -0.0000 electrons
 Dipole moment (field-independent basis, Debye):
    X=             -0.6639    Y=             -0.2617    Z=              0.8277  Tot=              1.0929
 Quadrupole moment (field-independent basis, Debye-Ang):
   XX=            -26.6372   YY=            -22.4737   ZZ=            -20.9907
   XY=              2.8745   XZ=              0.6952   YZ=              0.5191
 Traceless Quadrupole moment (field-independent basis, Debye-Ang):
   XX=             -3.2700   YY=              0.8935   ZZ=              2.3765
   XY=              2.8745   XZ=              0.6952   YZ=              0.5191
 Octapole moment (field-independent basis, Debye-Ang**2):
  XXX=             -1.3989  YYY=             -5.3607  ZZZ=              3.1704  XYY=              6.7384
  XXY=             -1.7983  XXZ=              3.4141  XZZ=              4.1610  YZZ=             -0.9243
  YYZ=              1.4563  XYZ=             -1.3299
 Hexadecapole moment (field-independent basis, Debye-Ang**3):
 XXXX=           -223.9754 YYYY=           -100.8169 ZZZZ=            -48.7390 XXXY=             15.8210
 XXXZ=              1.9492 YYYX=             15.6619 YYYZ=              3.7744 ZZZX=             -0.2227
 ZZZY=              4.3894 XXYY=            -51.9343 XXZZ=            -41.4602 YYZZ=            -25.8170
 XXYZ=              3.1882 YYXZ=             -2.6059 ZZXY=              4.1317
 N-N= 8.697916748342D+01 E-N=-4.887872842218D+02  KE= 1.351201940232D+02
  Exact polarizability:   0.000   0.000   0.000   0.000   0.000   0.000
 Approx polarizability:  45.962  -2.945  60.728   2.873  -7.993  47.585
                          Isotropic Fermi Contact Couplings
        Atom                 a.u.       MegaHertz       Gauss      10(-4) cm-1
     1  N(14)              0.00482       1.55838       0.55607       0.51982
     2  C(13)             -0.01158     -13.01867      -4.64538      -4.34256
     3  C(13)              0.22857     256.95561      91.68815      85.71117
     4  H(1)               0.00032       1.43757       0.51296       0.47952
     5  H(1)              -0.00014      -0.64112      -0.22877      -0.21386
     6  H(1)               0.01447      64.68702      23.08194      21.57727
     7  H(1)               0.00184       8.23399       2.93809       2.74656
     8  H(1)              -0.03157    -141.10281     -50.34899     -47.06683
     9  H(1)              -0.00379     -16.92695      -6.03996      -5.64622
    10  H(1)              -0.00266     -11.90262      -4.24715      -3.97029
    11  H(1)               0.18117     809.81630     288.96259     270.12564
 --------------------------------------------------------
       Center         ----  Spin Dipole Couplings  ----
                      3XX-RR        3YY-RR        3ZZ-RR
 --------------------------------------------------------
     1   Atom        0.000338      0.006468     -0.006806
     2   Atom        0.014981      0.003751     -0.018732
     3   Atom       -0.301842      0.454155     -0.152312
     4   Atom        0.008520     -0.003279     -0.005241
     5   Atom        0.005150     -0.002763     -0.002387
     6   Atom        0.001539      0.003747     -0.005286
     7   Atom        0.000107     -0.000999      0.000892
     8   Atom       -0.111288      0.167825     -0.056537
     9   Atom        0.007593      0.019425     -0.027018
    10   Atom       -0.039058     -0.008118      0.047176
    11   Atom        0.002332     -0.003546      0.001214
 --------------------------------------------------------
                        XY            XZ            YZ
 --------------------------------------------------------
     1   Atom        0.002937      0.002786      0.002233
     2   Atom       -0.025258      0.001015     -0.001801
     3   Atom       -0.169397      0.083461     -0.383990
     4   Atom        0.001163     -0.000359     -0.001401
     5   Atom        0.000225      0.004096     -0.000089
     6   Atom       -0.005998     -0.001751     -0.002882
     7   Atom       -0.006424     -0.007588      0.004111
     8   Atom       -0.061128      0.029614     -0.140483
     9   Atom        0.031818      0.019277     -0.001336
    10   Atom       -0.005794      0.001001     -0.000914
    11   Atom        0.001310     -0.000776      0.003003
 --------------------------------------------------------


 ---------------------------------------------------------------------------------
              Anisotropic Spin Dipole Couplings in Principal Axis System
 ---------------------------------------------------------------------------------

       Atom             a.u.   MegaHertz   Gauss  10(-4) cm-1        Axes

              Baa    -0.0079    -0.303    -0.108    -0.101 -0.2916 -0.0886  0.9524
     1 N(14)  Bbb    -0.0004    -0.017    -0.006    -0.006  0.8684 -0.4421  0.2248
              Bcc     0.0083     0.320     0.114     0.107  0.4011  0.8926  0.2059
 
              Baa    -0.0190    -2.554    -0.911    -0.852  0.1558  0.2483  0.9561
     2 C(13)  Bbb    -0.0163    -2.184    -0.779    -0.728  0.6070  0.7395 -0.2910
              Bcc     0.0353     4.738     1.691     1.580  0.7792 -0.6257  0.0355
 
              Baa    -0.3395   -45.564   -16.258   -15.199 -0.6833  0.1946  0.7037
     3 C(13)  Bbb    -0.3371   -45.236   -16.141   -15.089  0.7051  0.4260  0.5668
              Bcc     0.6766    90.800    32.400    30.288 -0.1895  0.8835 -0.4283
 
              Baa    -0.0060    -3.187    -1.137    -1.063 -0.0155  0.4665  0.8844
     4 H(1)   Bbb    -0.0027    -1.429    -0.510    -0.477 -0.1061  0.8787 -0.4654
              Bcc     0.0087     4.616     1.647     1.540  0.9942  0.1011 -0.0359
 
              Baa    -0.0042    -2.244    -0.801    -0.748 -0.4007  0.1184  0.9085
     5 H(1)   Bbb    -0.0027    -1.465    -0.523    -0.489  0.0316  0.9928 -0.1154
              Bcc     0.0070     3.709     1.323     1.237  0.9157  0.0175  0.4015
 
              Baa    -0.0077    -4.128    -1.473    -1.377  0.4245  0.4227  0.8007
     6 H(1)   Bbb    -0.0011    -0.585    -0.209    -0.195  0.6586  0.4626 -0.5935
              Bcc     0.0088     4.712     1.681     1.572 -0.6213  0.7793 -0.0820
 
              Baa    -0.0080    -4.280    -1.527    -1.428  0.7735  0.4413  0.4550
     7 H(1)   Bbb    -0.0043    -2.273    -0.811    -0.758 -0.0407  0.7509 -0.6591
              Bcc     0.0123     6.552     2.338     2.186  0.6325 -0.4913 -0.5988
 
              Baa    -0.1243   -66.323   -23.666   -22.123 -0.6808  0.1968  0.7055
     8 H(1)   Bbb    -0.1239   -66.133   -23.598   -22.060  0.7086  0.4211  0.5662
              Bcc     0.2483   132.456    47.264    44.183 -0.1856  0.8854 -0.4261
 
              Baa    -0.0401   -21.386    -7.631    -7.134 -0.5215  0.2968  0.7999
     9 H(1)   Bbb    -0.0076    -4.048    -1.445    -1.350 -0.5416  0.6093 -0.5792
              Bcc     0.0477    25.434     9.076     8.484  0.6593  0.7353  0.1570
 
              Baa    -0.0401   -21.404    -7.637    -7.139  0.9840  0.1779 -0.0094
    10 H(1)   Bbb    -0.0071    -3.783    -1.350    -1.262 -0.1777  0.9839  0.0199
              Bcc     0.0472    25.186     8.987     8.401  0.0128 -0.0179  0.9998
 
              Baa    -0.0053    -2.827    -1.009    -0.943 -0.1951  0.8817 -0.4297
    11 H(1)   Bbb     0.0025     1.346     0.480     0.449  0.7358  0.4212  0.5302
              Bcc     0.0028     1.481     0.529     0.494 -0.6484  0.2128  0.7309
 

 ---------------------------------------------------------------------------------

 No NMR shielding tensors so no spin-rotation constants.
 Leave Link  601 at Sun Sep 19 14:22:58 2021, MaxMem=  1879048192 cpu:               4.6 elap:               1.0
 (Enter /home/gridsan/groups/GRPAPI/Software/g16/l701.exe)
 ... and contract with generalized density number  0.
 Compute integral second derivatives.
 Leave Link  701 at Sun Sep 19 14:22:58 2021, MaxMem=  1879048192 cpu:               2.0 elap:               0.3
 (Enter /home/gridsan/groups/GRPAPI/Software/g16/l702.exe)
 L702 exits ... SP integral derivatives will be done elsewhere.
 Leave Link  702 at Sun Sep 19 14:22:59 2021, MaxMem=  1879048192 cpu:               0.2 elap:               0.0
 (Enter /home/gridsan/groups/GRPAPI/Software/g16/l703.exe)
 Integral derivatives from FoFJK, PRISM(SPDF).
 Compute integral second derivatives, UseDBF=F ICtDFT=           0.
 Calling FoFJK, ICntrl=    100147 FMM=F ISym2X=0 I1Cent= 0 IOpClX= 1 NMat=1 NMatS=1 NMatT=0.
 FoFJK:  IHMeth= 1 ICntrl=  100147 DoSepK=F KAlg= 0 I1Cent=           0 FoldK=F
 IRaf=         0 NMat=       1 IRICut=       1 DoRegI=T DoRafI=F ISym2E= 0 IDoP0=0 IntGTp=1.
 FoFCou: FMM=F IPFlag=           0 FMFlag=      100000 FMFlg1=         800
         NFxFlg=           0 DoJE=F BraDBF=F KetDBF=F FulRan=T
         wScrn=  0.000000 ICntrl=    100147 IOpCl=  1 I1Cent=           0 NGrid=           0
         NMat0=    1 NMatS0=      1 NMatT0=    0 NMatD0=    1 NMtDS0=    0 NMtDT0=    0
 Symmetry not used in FoFCou.
 Leave Link  703 at Sun Sep 19 14:23:10 2021, MaxMem=  1879048192 cpu:              93.8 elap:              11.7
 (Enter /home/gridsan/groups/GRPAPI/Software/g16/l716.exe)
 Dipole        =-2.61185565D-01-1.02965318D-01 3.25655893D-01
 Polarizability= 0.00000000D+00 0.00000000D+00 0.00000000D+00
                 0.00000000D+00 0.00000000D+00 0.00000000D+00
 ***** Axes restored to original set *****
 -------------------------------------------------------------------
 Center     Atomic                   Forces (Hartrees/Bohr)
 Number     Number              X              Y              Z
 -------------------------------------------------------------------
      1        7           0.000770908    0.000044049    0.000025844
      2        6          -0.009915205    0.007364019   -0.004001614
      3        6           0.022806156   -0.018618754    0.006110449
      4        1           0.000164269   -0.000588773    0.000201022
      5        1          -0.000010447   -0.000122489   -0.000103956
      6        1           0.001385870    0.000745650    0.001937270
      7        1           0.000207587   -0.000459496    0.000223042
      8        1           0.011988611   -0.007394723    0.004030254
      9        1          -0.006939392    0.003896042   -0.000077227
     10        1          -0.005338358    0.005739837   -0.003411730
     11        1          -0.015119998    0.009394638   -0.004933354
 -------------------------------------------------------------------
 Cartesian Forces:  Max     0.022806156 RMS     0.007328911
 Force constants in Cartesian coordinates: 
                1             2             3             4             5 
      1  0.672882D+00
      2 -0.414825D-03  0.291270D+00
      3 -0.478253D-03 -0.155468D+00  0.451562D+00
      4 -0.102740D+00 -0.167696D-02  0.126921D-02  0.602911D+00
      5 -0.163764D-02 -0.614488D-01 -0.182032D-01  0.122483D-01  0.474399D+00
      6  0.119202D-02  0.342061D-01 -0.203510D+00 -0.437476D-02 -0.589055D-01
      7  0.264845D-02  0.943008D-03  0.212631D-02 -0.716050D-01 -0.163409D-01
      8  0.182484D-03  0.381513D-02 -0.650769D-02 -0.287199D-02 -0.155133D+00
      9 -0.140215D-03 -0.334582D-01 -0.340058D-01  0.808522D-02 -0.298749D-01
     10 -0.289673D+00  0.133042D+00 -0.920265D-01  0.150974D-02  0.179171D-02
     11  0.175853D+00 -0.118374D+00  0.897888D-01 -0.102052D-02 -0.434763D-02
     12 -0.786457D-01  0.639389D-01 -0.864240D-01 -0.345057D-01  0.203026D-01
     13 -0.289271D+00 -0.132570D+00  0.915782D-01  0.151870D-02 -0.193387D-02
     14 -0.174929D+00 -0.117397D+00  0.887946D-01  0.155404D-03 -0.481468D-02
     15  0.784150D-01  0.637870D-01 -0.864114D-01  0.353401D-01  0.211813D-01
     16  0.139252D-02 -0.712259D-03 -0.198715D-02 -0.213890D+00  0.103243D+00
     17 -0.292220D-03  0.178346D-02  0.187682D-02  0.107819D+00 -0.111517D+00
     18 -0.326412D-01  0.154533D-01 -0.213765D-01 -0.511001D-01  0.342804D-01
     19  0.197387D-02  0.128263D-02  0.199683D-02 -0.215917D+00 -0.105062D+00
     20  0.530365D-03  0.169692D-02  0.166302D-02 -0.104234D+00 -0.114638D+00
     21  0.324993D-01  0.155981D-01 -0.205592D-01  0.515989D-01  0.353088D-01
     22  0.331113D-03 -0.117776D-02 -0.139262D-02 -0.604429D-02  0.817948D-02
     23 -0.448566D-03  0.160763D-02  0.248935D-02  0.167977D-01 -0.147439D-01
     24  0.727824D-03  0.139011D-03  0.701196D-03  0.356056D-02 -0.130622D-02
     25  0.134234D-02  0.208841D-03 -0.957658D-03  0.144750D-02  0.278817D-03
     26  0.657087D-04 -0.573027D-02 -0.468335D-02  0.105550D-03  0.741036D-02
     27 -0.144142D-03 -0.519714D-02 -0.264548D-02  0.810523D-03  0.613930D-02
     28  0.613371D-03  0.128561D-02 -0.124436D-02  0.182803D-02  0.164958D-02
     29  0.138340D-02  0.240047D-02  0.100527D-02 -0.263776D-01 -0.176293D-01
     30 -0.884195D-03  0.120568D-02  0.233315D-02 -0.105728D-01 -0.843831D-02
     31  0.500039D-03 -0.210274D-03  0.111596D-02  0.982264D-03 -0.241634D-02
     32 -0.292747D-03  0.376401D-03 -0.755272D-03 -0.944184D-03  0.246368D-02
     33  0.995772D-04 -0.204331D-03  0.335503D-03 -0.111195D-03 -0.484285D-03
                6             7             8             9            10 
      6  0.457621D+00
      7  0.123361D-02  0.347415D+00
      8 -0.268460D-01  0.129957D+00  0.366812D+00
      9 -0.842019D-01 -0.649782D-01 -0.844239D-02  0.503439D+00
     10  0.450446D-03  0.973694D-04 -0.246396D-03  0.140452D-02  0.311805D+00
     11 -0.746166D-02 -0.160656D-02  0.198832D-02 -0.273117D-03 -0.153345D+00
     12 -0.174303D-01 -0.124708D-02  0.811142D-03  0.148681D-02  0.100615D+00
     13 -0.579305D-03  0.429384D-03  0.663117D-03 -0.152098D-02 -0.269280D-01
     14 -0.628634D-02  0.201076D-02  0.200879D-02 -0.606134D-03  0.200422D-01
     15 -0.173761D-01  0.785763D-03  0.596206D-03  0.165759D-02 -0.113793D-01
     16 -0.594668D-01  0.411151D-03  0.936330D-03  0.932423D-03  0.240130D-02
     17  0.411326D-01  0.231133D-01 -0.211229D-01  0.351958D-02 -0.428217D-03
     18 -0.621811D-01  0.910329D-02 -0.644518D-02  0.391816D-02  0.808962D-03
     19  0.584543D-01  0.145520D-02  0.651314D-03 -0.902973D-03  0.517492D-03
     20  0.382239D-01 -0.245974D-01 -0.194942D-01  0.682601D-02 -0.309886D-03
     21 -0.663200D-01 -0.113466D-01 -0.676605D-02  0.509851D-02 -0.348134D-04
     22 -0.151631D-03  0.321861D-01 -0.448080D-01  0.180947D-01  0.434460D-03
     23  0.413478D-02 -0.414800D-01  0.234933D-02 -0.119458D-01 -0.679246D-03
     24  0.925699D-03  0.196602D-01 -0.137663D-01 -0.228428D-01 -0.251545D-03
     25  0.163786D-02 -0.370922D-01 -0.685058D-02 -0.444652D-02  0.254810D-03
     26 -0.287263D-01 -0.675372D-02 -0.472788D-01  0.259450D-01  0.134305D-03
     27 -0.110485D-01  0.777859D-02  0.186120D-01 -0.307875D+00  0.492877D-03
     28  0.264042D-02 -0.214101D+00 -0.122770D+00  0.651024D-01 -0.115470D-03
     29  0.983036D-02 -0.110155D+00 -0.110699D+00  0.341288D-01 -0.118464D-03
     30  0.434532D-02  0.591061D-01  0.336241D-01 -0.661901D-01 -0.122333D-03
     31 -0.103612D-02 -0.618443D-01  0.451565D-01 -0.216303D-01 -0.303489D-03
     32  0.698036D-03  0.449101D-01 -0.232455D-01  0.141812D-01  0.116618D-03
     33 -0.824215D-03 -0.222219D-01  0.151301D-01 -0.484311D-03  0.423331D-04
               11            12            13            14            15 
     11  0.115299D+00
     12 -0.764735D-01  0.103211D+00
     13 -0.203057D-01  0.115017D-01  0.311247D+00
     14  0.529162D-02 -0.805588D-02  0.153086D+00  0.114657D+00
     15 -0.805878D-02  0.489570D-02 -0.100561D+00 -0.765104D-01  0.103016D+00
     16 -0.365719D-03  0.661050D-03  0.605019D-03 -0.219676D-03 -0.469904D-03
     17  0.888380D-03 -0.306661D-04  0.281934D-03 -0.417041D-03  0.221652D-03
     18  0.179378D-02 -0.728548D-02  0.798576D-04  0.567146D-03  0.112658D-02
     19  0.183613D-03  0.446098D-03  0.243284D-02  0.554443D-03 -0.878776D-03
     20 -0.409996D-03  0.301914D-03  0.311420D-03  0.754423D-03 -0.731141D-04
     21  0.611473D-03  0.108843D-02 -0.639696D-03  0.190418D-02 -0.724667D-02
     22  0.207305D-04  0.342327D-03 -0.140727D-03  0.137219D-03  0.736407D-04
     23  0.864352D-04 -0.730132D-03  0.764168D-04 -0.231501D-04 -0.125470D-03
     24 -0.355541D-03 -0.264394D-03  0.459141D-04  0.445955D-04  0.113761D-04
     25  0.427010D-03  0.550443D-03  0.197747D-03 -0.362414D-03 -0.618922D-03
     26 -0.330151D-03  0.134200D-03 -0.142438D-03 -0.290266D-03  0.132169D-03
     27  0.273965D-03  0.595535D-03 -0.497024D-03  0.195691D-03  0.653822D-03
     28 -0.389298D-04 -0.305175D-04 -0.916649D-04 -0.467106D-03 -0.683640D-03
     29 -0.180241D-05 -0.153749D-03  0.467895D-03  0.289897D-03 -0.117379D-02
     30 -0.478146D-05 -0.976342D-04  0.599533D-03 -0.179876D-04 -0.329146D-03
     31  0.198056D-03  0.311965D-03  0.000000D+00 -0.771662D-05 -0.233714D-04
     32 -0.900861D-04 -0.448563D-04  0.657339D-04 -0.594331D-04  0.232893D-04
     33  0.159342D-03  0.224785D-03 -0.768788D-05 -0.294162D-04  0.215586D-05
               16            17            18            19            20 
     16  0.228010D+00
     17 -0.115316D+00  0.121430D+00
     18  0.665098D-01 -0.396964D-01  0.819397D-01
     19 -0.215600D-01 -0.129444D-01  0.727413D-02  0.229066D+00
     20  0.126311D-01  0.887633D-02 -0.511588D-02  0.115631D+00  0.126410D+00
     21 -0.731658D-02 -0.542710D-02  0.344174D-02 -0.655083D-01 -0.386807D-01
     22  0.205098D-02 -0.995581D-03  0.824918D-03  0.246568D-03 -0.997254D-03
     23 -0.815722D-03 -0.190127D-02 -0.230824D-02  0.642775D-04  0.117303D-02
     24  0.605218D-03 -0.178862D-02  0.421571D-04 -0.175227D-03  0.146345D-03
     25  0.552607D-04 -0.835889D-03 -0.359819D-03 -0.191484D-04  0.508940D-03
     26  0.636227D-03  0.876728D-03  0.845934D-03 -0.621920D-03  0.832711D-03
     27  0.388008D-03 -0.523504D-03  0.160297D-03 -0.524812D-03 -0.326108D-03
     28  0.587781D-03 -0.115790D-02 -0.481785D-03  0.152666D-02 -0.314007D-05
     29  0.400500D-03  0.119825D-02  0.421807D-03  0.712726D-03 -0.500658D-02
     30  0.157021D-03  0.254658D-03  0.168501D-03 -0.320280D-03 -0.313698D-02
     31 -0.638694D-04  0.756324D-03 -0.180437D-04  0.277433D-03  0.529332D-03
     32 -0.417994D-03 -0.947155D-04  0.203333D-03 -0.451173D-03 -0.195141D-03
     33 -0.130575D-04  0.460956D-03  0.460205D-04  0.138992D-03  0.171542D-03
               21            22            23            24            25 
     21  0.843661D-01
     22  0.342106D-03  0.133017D-01
     23  0.412378D-04  0.138873D-01  0.258401D-01
     24  0.156093D-03 -0.589277D-02  0.514294D-02  0.312936D-01
     25 -0.319465D-04 -0.512310D-02  0.419125D-02 -0.147367D-01  0.360062D-01
     26  0.849480D-03  0.192965D-02 -0.268978D-02  0.877532D-02  0.663249D-02
     27  0.484600D-03  0.102338D-02 -0.198442D-03 -0.314657D-02 -0.806700D-02
     28  0.471840D-03 -0.128013D-01 -0.460156D-02  0.291543D-02  0.100761D-02
     29 -0.345808D-02  0.113255D-01  0.151415D-02 -0.118766D-02 -0.271920D-02
     30 -0.465644D-03 -0.686500D-02 -0.722395D-03 -0.955704D-04  0.256667D-01
     31 -0.341985D-04 -0.244414D-01  0.130081D-01 -0.645892D-02  0.192301D-02
     32  0.186624D-04  0.124986D-01 -0.132125D-01  0.415610D-02 -0.147926D-02
     33 -0.439534D-04 -0.639901D-02  0.422219D-02 -0.678081D-02  0.136358D-02
               26            27            28            29            30 
     26  0.461284D-01
     27 -0.193769D-01  0.329886D+00
     28 -0.927448D-03 -0.561099D-03  0.219871D+00
     29  0.528018D-03  0.129751D-03  0.126892D+00  0.126363D+00
     30  0.169814D-01 -0.779753D-02 -0.678627D-01 -0.388564D-01  0.679478D-01
     31 -0.105841D-02 -0.699303D-03  0.167477D-02 -0.181110D-02  0.109799D-02
     32  0.542992D-03  0.271340D-03  0.138784D-03  0.104305D-02 -0.889076D-03
     33 -0.876963D-03  0.732881D-03 -0.265963D-03 -0.686384D-03  0.180860D-03
               31            32            33 
     31  0.812950D-01
     32 -0.541445D-01  0.324713D-01
     33  0.273744D-01 -0.178627D-01  0.661108D-02
 FormGI is forming the generalized inverse of G from B-inverse, IUseBI=4.
 Leave Link  716 at Sun Sep 19 14:23:11 2021, MaxMem=  1879048192 cpu:               1.3 elap:               0.2
 (Enter /home/gridsan/groups/GRPAPI/Software/g16/l103.exe)

 GradGradGradGradGradGradGradGradGradGradGradGradGradGradGradGradGradGrad
 Berny optimization.
 Red2BG is reusing G-inverse.
 Internal  Forces:  Max     0.018467657 RMS     0.003824918
 Search for a saddle point.
 Step number   1 out of a maximum of  100
 All quantities printed in internal units (Hartrees-Bohrs-Radians)
 Swapping is turned off.
 Second derivative matrix not updated -- analytic derivatives used.
 ITU=  0
     Eigenvalues ---   -0.00893   0.00234   0.00306   0.02232   0.02315
     Eigenvalues ---    0.02788   0.03073   0.03909   0.04307   0.04467
     Eigenvalues ---    0.07250   0.08157   0.10832   0.11839   0.13791
     Eigenvalues ---    0.14544   0.18372   0.18816   0.22316   0.25829
     Eigenvalues ---    0.32197   0.32420   0.33091   0.33399   0.35858
     Eigenvalues ---    0.44203   0.44293
 Eigenvectors required to have negative eigenvalues:
                          R7        R10       D9        D12       D15
   1                   -0.79634   0.54638  -0.09603  -0.09209  -0.08228
                          D14       A13       D11       A14       D8
   1                    0.08061   0.07298   0.07079   0.06925   0.06686
 RFO step:  Lambda0=1.180231323D-03 Lambda=-6.00337666D-03.
 Linear search not attempted -- option 19 set.
 Maximum step size (   0.050) exceeded in Quadratic search.
    -- Step size scaled by   0.141
 Iteration  1 RMS(Cart)=  0.00697056 RMS(Int)=  0.00009160
 Iteration  2 RMS(Cart)=  0.00006642 RMS(Int)=  0.00006725
 Iteration  3 RMS(Cart)=  0.00000000 RMS(Int)=  0.00006725
 ITry= 1 IFail=0 DXMaxC= 2.25D-02 DCOld= 1.00D+10 DXMaxT= 5.00D-02 DXLimC= 3.00D+00 Rises=F
 Variable       Old X    -DE/DX   Delta X   Delta X   Delta X     New X
                                 (Linear)    (Quad)   (Total)
    R1        2.77111  -0.00012   0.00000  -0.00042  -0.00042   2.77069
    R2        1.92055  -0.00049   0.00000  -0.00015  -0.00015   1.92040
    R3        1.92055  -0.00003   0.00000  -0.00007  -0.00007   1.92048
    R4        2.89878  -0.00553   0.00000  -0.00641  -0.00641   2.89236
    R5        2.06920   0.00130   0.00000   0.00130   0.00130   2.07050
    R6        2.06920   0.00014   0.00000   0.00006   0.00006   2.06926
    R7        2.48306   0.00382   0.00000   0.03754   0.03754   2.52060
    R8        2.06956  -0.00038   0.00000  -0.00113  -0.00113   2.06842
    R9        2.06922  -0.00038   0.00000  -0.00105  -0.00105   2.06817
   R10        1.68753   0.01847   0.00000  -0.00940  -0.00940   1.67813
    A1        1.91957  -0.00003   0.00000  -0.00024  -0.00024   1.91933
    A2        1.91957   0.00028   0.00000   0.00035   0.00035   1.91992
    A3        1.85416   0.00009   0.00000   0.00041   0.00041   1.85457
    A4        2.02361   0.00235   0.00000   0.00141   0.00140   2.02501
    A5        1.87811   0.00043   0.00000  -0.00001  -0.00001   1.87810
    A6        1.87811  -0.00060   0.00000   0.00112   0.00112   1.87923
    A7        1.91284  -0.00281   0.00000  -0.00195  -0.00195   1.91089
    A8        1.91284   0.00010   0.00000   0.00052   0.00051   1.91336
    A9        1.85023   0.00042   0.00000  -0.00129  -0.00129   1.84894
   A10        1.93588  -0.00445   0.00000  -0.01080  -0.01077   1.92511
   A11        1.94616   0.00582   0.00000   0.01169   0.01154   1.95770
   A12        1.93588   0.00618   0.00000   0.01186   0.01171   1.94759
   A13        1.88166  -0.00372   0.00000  -0.01355  -0.01351   1.86815
   A14        1.87998  -0.00384   0.00000  -0.01295  -0.01292   1.86706
   A15        1.88166  -0.00045   0.00000   0.01289   0.01258   1.89425
   A16        3.14159  -0.00033   0.00000  -0.00244  -0.00244   3.13916
   A17        3.14159  -0.00056   0.00000  -0.00358  -0.00358   3.13801
    D1       -1.01811  -0.00123   0.00000  -0.00167  -0.00167  -1.01978
    D2        3.11700   0.00048   0.00000  -0.00008  -0.00008   3.11692
    D3        1.12997   0.00007   0.00000   0.00087   0.00087   1.13084
    D4        1.01811  -0.00097   0.00000  -0.00111  -0.00111   1.01700
    D5       -1.12997   0.00074   0.00000   0.00048   0.00048  -1.12949
    D6       -3.11700   0.00033   0.00000   0.00143   0.00143  -3.11557
    D7        1.04421   0.00056   0.00000   0.00527   0.00527   1.04949
    D8       -3.14159  -0.00327   0.00000  -0.01137  -0.01146   3.13014
    D9       -1.04421   0.00425   0.00000   0.02085   0.02094  -1.02327
   D10       -3.10921   0.00060   0.00000   0.00472   0.00472  -3.10449
   D11       -1.01183  -0.00323   0.00000  -0.01193  -0.01201  -1.02384
   D12        1.08555   0.00429   0.00000   0.02030   0.02038   1.10594
   D13       -1.08555  -0.00043   0.00000   0.00235   0.00235  -1.08320
   D14        1.01183  -0.00427   0.00000  -0.01429  -0.01438   0.99745
   D15        3.10921   0.00326   0.00000   0.01793   0.01802   3.12722
         Item               Value     Threshold  Converged?
 Maximum Force            0.018468     0.000015     NO 
 RMS     Force            0.003825     0.000010     NO 
 Maximum Displacement     0.022522     0.000060     NO 
 RMS     Displacement     0.006964     0.000040     NO 
 Predicted change in Energy=-6.378803D-04
 Lowest energy point so far.  Saving SCF results.
 GradGradGradGradGradGradGradGradGradGradGradGradGradGradGradGradGradGrad

 Leave Link  103 at Sun Sep 19 14:23:11 2021, MaxMem=  1879048192 cpu:               0.1 elap:               0.0
 (Enter /home/gridsan/groups/GRPAPI/Software/g16/l202.exe)
                          Input orientation:                          
 ---------------------------------------------------------------------
 Center     Atomic      Atomic             Coordinates (Angstroms)
 Number     Number       Type             X           Y           Z
 ---------------------------------------------------------------------
      1          7           0        0.042029   -0.526351   -1.185998
      2          6           0        0.043026   -0.528955    0.280186
      3          6           0        0.054780    0.845185    0.954170
      4          1           0       -0.767834   -0.019009   -1.531614
      5          1           0        0.858117   -0.030183   -1.533312
      6          1           0        0.914556   -1.105267    0.609994
      7          1           0       -0.834218   -1.093978    0.612190
      8          1           0       -1.024588    1.543906    0.599345
      9          1           0        0.043305    0.769750    2.046069
     10          1           0        0.928317    1.432850    0.655250
     11          1           0       -1.745120    2.005845    0.362609
 ---------------------------------------------------------------------
                    Distance matrix (angstroms):
                    1          2          3          4          5
     1  N    0.000000
     2  C    1.466187   0.000000
     3  C    2.541967   1.530573   0.000000
     4  H    1.016230   2.049428   2.757290   0.000000
     5  H    1.016272   2.049859   2.756662   1.625991   0.000000
     6  H    2.078950   1.095661   2.159151   2.932043   2.398489
     7  H    2.079300   1.095004   2.160467   2.399137   2.932377
     8  H    2.934465   2.353384   1.333847   2.655110   3.251240
     9  H    3.482261   2.192026   1.094562   3.752320   3.757097
    10  H    2.830931   2.184741   1.094427   3.125252   2.633477
    11  H    3.464694   3.103139   2.221872   2.939932   3.810088
                    6          7          8          9         10
     6  H    0.000000
     7  H    1.748811   0.000000
     8  H    3.283064   2.644775   0.000000
     9  H    2.517355   2.509888   1.957735   0.000000
    10  H    2.538558   3.081111   1.956859   1.776887   0.000000
    11  H    4.100499   3.240514   0.888030   2.749625   2.749769
                   11
    11  H    0.000000
 Stoichiometry    C2H8N(2)
 Framework group  C1[X(C2H8N)]
 Deg. of freedom    27
 Full point group                 C1      NOp   1
 RotChk:  IX=0 Diff= 7.02D-03
 Largest Abelian subgroup         C1      NOp   1
 Largest concise Abelian subgroup C1      NOp   1
                         Standard orientation:                         
 ---------------------------------------------------------------------
 Center     Atomic      Atomic             Coordinates (Angstroms)
 Number     Number       Type             X           Y           Z
 ---------------------------------------------------------------------
      1          7           0        1.330114    0.261177    0.066815
      2          6           0        0.165730   -0.572344   -0.248076
      3          6           0       -1.190404   -0.033698    0.213893
      4          1           0        1.219640    1.182519   -0.347489
      5          1           0        1.392509    0.406255    1.070741
      6          1           0        0.336249   -1.560411    0.193648
      7          1           0        0.150464   -0.726209   -1.332108
      8          1           0       -1.435262    1.149459   -0.351202
      9          1           0       -2.014857   -0.698201   -0.063197
     10          1           0       -1.215359    0.118428    1.297408
     11          1           0       -1.596133    1.936175   -0.730407
 ---------------------------------------------------------------------
 Rotational constants (GHZ):          23.3154161           8.0832469           7.1320873
 Leave Link  202 at Sun Sep 19 14:23:11 2021, MaxMem=  1879048192 cpu:               0.0 elap:               0.0
 (Enter /home/gridsan/groups/GRPAPI/Software/g16/l301.exe)
 Standard basis: 6-311G(2d,d,p) (5D, 7F)
 Ernie: Thresh=  0.10000D-02 Tol=  0.10000D-05 Strict=F.
 There are   105 symmetry adapted cartesian basis functions of A   symmetry.
 There are   102 symmetry adapted basis functions of A   symmetry.
   102 basis functions,   160 primitive gaussians,   105 cartesian basis functions
    14 alpha electrons       13 beta electrons
       nuclear repulsion energy        86.9674689428 Hartrees.
 IExCor=  402 DFT=T Ex+Corr=B3LYP ExCW=0 ScaHFX=  0.200000
 ScaDFX=  0.800000  0.720000  1.000000  0.810000 ScalE2=  1.000000  1.000000
 IRadAn=      5 IRanWt=     -1 IRanGd=            0 ICorTp=0 IEmpDi=  4
 NAtoms=   11 NActive=   11 NUniq=   11 SFac= 1.00D+00 NAtFMM=   60 NAOKFM=F Big=F
 Integral buffers will be    131072 words long.
 Raffenetti 2 integral format.
 Two-electron integral symmetry is turned on.
 Leave Link  301 at Sun Sep 19 14:23:11 2021, MaxMem=  1879048192 cpu:               0.5 elap:               0.1
 (Enter /home/gridsan/groups/GRPAPI/Software/g16/l302.exe)
 NPDir=0 NMtPBC=     1 NCelOv=     1 NCel=       1 NClECP=     1 NCelD=      1
         NCelK=      1 NCelE2=     1 NClLst=     1 CellRange=     0.0.
 One-electron integrals computed using PRISM.
 One-electron integral symmetry used in STVInt
 NBasis=   102 RedAO= T EigKep=  3.18D-03  NBF=   102
 NBsUse=   102 1.00D-06 EigRej= -1.00D+00 NBFU=   102
 Precomputing XC quadrature grid using
 IXCGrd= 4 IRadAn=           5 IRanWt=          -1 IRanGd=           0 AccXCQ= 1.00D-12.
 Generated NRdTot=       0 NPtTot=           0 NUsed=           0 NTot=          32
 NSgBfM=   105   105   105   105   105 MxSgAt=    11 MxSgA2=    11.
 Leave Link  302 at Sun Sep 19 14:23:11 2021, MaxMem=  1879048192 cpu:               1.5 elap:               0.2
 (Enter /home/gridsan/groups/GRPAPI/Software/g16/l303.exe)
 DipDrv:  MaxL=1.
 Leave Link  303 at Sun Sep 19 14:23:11 2021, MaxMem=  1879048192 cpu:               0.4 elap:               0.1
 (Enter /home/gridsan/groups/GRPAPI/Software/g16/l401.exe)
 Initial guess from the checkpoint file:  "check.chk"
 B after Tr=    -0.000000   -0.000000    0.000000
         Rot=    0.999998   -0.002002   -0.000078    0.000844 Ang=  -0.25 deg.
 Guess basis will be translated and rotated to current coordinates.
 JPrj=2 DoOrth=T DoCkMO=T.
 Initial guess <Sx>= 0.0000 <Sy>= 0.0000 <Sz>= 0.5000 <S**2>= 0.7568 S= 0.5034
 Generating alternative initial guess.
 ExpMin= 1.03D-01 ExpMax= 6.29D+03 ExpMxC= 9.49D+02 IAcc=3 IRadAn=         5 AccDes= 0.00D+00
 Harris functional with IExCor=  402 and IRadAn=       5 diagonalized for initial guess.
 HarFok:  IExCor=  402 AccDes= 0.00D+00 IRadAn=         5 IDoV= 1 UseB2=F ITyADJ=14
 ICtDFT=  3500011 ScaDFX=  1.000000  1.000000  1.000000  1.000000
 FoFCou: FMM=F IPFlag=           0 FMFlag=      100000 FMFlg1=           0
         NFxFlg=           0 DoJE=T BraDBF=F KetDBF=T FulRan=T
         wScrn=  0.000000 ICntrl=       500 IOpCl=  0 I1Cent=   200000004 NGrid=           0
         NMat0=    1 NMatS0=      1 NMatT0=    0 NMatD0=    1 NMtDS0=    0 NMtDT0=    0
 Petite list used in FoFCou.
 Harris En= -135.716056875104    
 Leave Link  401 at Sun Sep 19 14:23:11 2021, MaxMem=  1879048192 cpu:               3.2 elap:               0.4
 (Enter /home/gridsan/groups/GRPAPI/Software/g16/l502.exe)
 Keep R1 and R2 ints in memory in canonical form, NReq=35047222.
 FoFCou: FMM=F IPFlag=           0 FMFlag=           0 FMFlg1=           0
         NFxFlg=           0 DoJE=F BraDBF=F KetDBF=F FulRan=T
         wScrn=  0.000000 ICntrl=       600 IOpCl=  0 I1Cent=           0 NGrid=           0
         NMat0=    1 NMatS0=   5253 NMatT0=    0 NMatD0=    1 NMtDS0=    0 NMtDT0=    0
 Symmetry not used in FoFCou.
 Two-electron integral symmetry not used.
 UHF open shell SCF:
 Using DIIS extrapolation, IDIIS=  1040.
 NGot=  1879048192 LenX=  1851424754 LenY=  1851413288
 Requested convergence on RMS density matrix=1.00D-08 within  32 cycles.
 Requested convergence on MAX density matrix=1.00D-06.
 Requested convergence on             energy=1.00D-06.
 No special actions if energy rises.
 Integral accuracy reduced to 1.0D-05 until final iterations.

 Cycle   1  Pass 0  IDiag  1:
 E= -135.705187188741    
 DIIS: error= 1.19D-03 at cycle   1 NSaved=   1.
 NSaved= 1 IEnMin= 1 EnMin= -135.705187188741     IErMin= 1 ErrMin= 1.19D-03
 ErrMax= 1.19D-03  0.00D+00 EMaxC= 1.00D-01 BMatC= 3.09D-04 BMatP= 3.09D-04
 IDIUse=3 WtCom= 9.88D-01 WtEn= 1.19D-02
 Coeff-Com:  0.100D+01
 Coeff-En:   0.100D+01
 Coeff:      0.100D+01
 Gap=     0.532 Goal=   None    Shift=    0.000
 Gap=     0.543 Goal=   None    Shift=    0.000
 GapD=    0.532 DampG=2.000 DampE=1.000 DampFc=2.0000 IDamp=-1.
 RMSDP=1.18D-04 MaxDP=2.67D-03              OVMax= 8.64D-03

 Cycle   2  Pass 0  IDiag  1:
 E= -135.705339823932     Delta-E=       -0.000152635191 Rises=F Damp=F
 DIIS: error= 5.16D-04 at cycle   2 NSaved=   2.
 NSaved= 2 IEnMin= 2 EnMin= -135.705339823932     IErMin= 2 ErrMin= 5.16D-04
 ErrMax= 5.16D-04  0.00D+00 EMaxC= 1.00D-01 BMatC= 2.11D-05 BMatP= 3.09D-04
 IDIUse=3 WtCom= 9.95D-01 WtEn= 5.16D-03
 Coeff-Com: -0.562D-02 0.101D+01
 Coeff-En:   0.000D+00 0.100D+01
 Coeff:     -0.559D-02 0.101D+01
 Gap=     0.255 Goal=   None    Shift=    0.000
 Gap=     0.158 Goal=   None    Shift=    0.000
 RMSDP=7.64D-05 MaxDP=2.88D-03 DE=-1.53D-04 OVMax= 3.69D-03

 Cycle   3  Pass 0  IDiag  1:
 E= -135.705345272010     Delta-E=       -0.000005448079 Rises=F Damp=F
 DIIS: error= 3.13D-04 at cycle   3 NSaved=   3.
 NSaved= 3 IEnMin= 3 EnMin= -135.705345272010     IErMin= 3 ErrMin= 3.13D-04
 ErrMax= 3.13D-04  0.00D+00 EMaxC= 1.00D-01 BMatC= 2.08D-05 BMatP= 2.11D-05
 IDIUse=3 WtCom= 9.97D-01 WtEn= 3.13D-03
 Coeff-Com: -0.479D-01 0.529D+00 0.519D+00
 Coeff-En:   0.000D+00 0.158D+00 0.842D+00
 Coeff:     -0.477D-01 0.528D+00 0.520D+00
 Gap=     0.255 Goal=   None    Shift=    0.000
 Gap=     0.158 Goal=   None    Shift=    0.000
 RMSDP=2.09D-05 MaxDP=7.00D-04 DE=-5.45D-06 OVMax= 1.40D-03

 Cycle   4  Pass 0  IDiag  1:
 E= -135.705351386080     Delta-E=       -0.000006114070 Rises=F Damp=F
 DIIS: error= 8.30D-05 at cycle   4 NSaved=   4.
 NSaved= 4 IEnMin= 4 EnMin= -135.705351386080     IErMin= 4 ErrMin= 8.30D-05
 ErrMax= 8.30D-05  0.00D+00 EMaxC= 1.00D-01 BMatC= 1.05D-06 BMatP= 2.08D-05
 IDIUse=1 WtCom= 1.00D+00 WtEn= 0.00D+00
 Coeff-Com: -0.516D-02-0.510D-01 0.128D+00 0.928D+00
 Coeff:     -0.516D-02-0.510D-01 0.128D+00 0.928D+00
 Gap=     0.255 Goal=   None    Shift=    0.000
 Gap=     0.158 Goal=   None    Shift=    0.000
 RMSDP=1.13D-05 MaxDP=4.46D-04 DE=-6.11D-06 OVMax= 4.44D-04

 Cycle   5  Pass 0  IDiag  1:
 E= -135.705351862724     Delta-E=       -0.000000476644 Rises=F Damp=F
 DIIS: error= 2.39D-05 at cycle   5 NSaved=   5.
 NSaved= 5 IEnMin= 5 EnMin= -135.705351862724     IErMin= 5 ErrMin= 2.39D-05
 ErrMax= 2.39D-05  0.00D+00 EMaxC= 1.00D-01 BMatC= 2.04D-07 BMatP= 1.05D-06
 IDIUse=1 WtCom= 1.00D+00 WtEn= 0.00D+00
 Coeff-Com:  0.414D-02-0.965D-01-0.258D-02 0.372D+00 0.723D+00
 Coeff:      0.414D-02-0.965D-01-0.258D-02 0.372D+00 0.723D+00
 Gap=     0.255 Goal=   None    Shift=    0.000
 Gap=     0.158 Goal=   None    Shift=    0.000
 RMSDP=4.61D-06 MaxDP=1.79D-04 DE=-4.77D-07 OVMax= 1.89D-04

 Initial convergence to 1.0D-05 achieved.  Increase integral accuracy.
 Cycle   6  Pass 1  IDiag  1:
 E= -135.705353775862     Delta-E=       -0.000001913138 Rises=F Damp=F
 DIIS: error= 1.21D-05 at cycle   1 NSaved=   1.
 NSaved= 1 IEnMin= 1 EnMin= -135.705353775862     IErMin= 1 ErrMin= 1.21D-05
 ErrMax= 1.21D-05  0.00D+00 EMaxC= 1.00D-01 BMatC= 4.92D-08 BMatP= 4.92D-08
 IDIUse=1 WtCom= 1.00D+00 WtEn= 0.00D+00
 Coeff-Com:  0.100D+01
 Coeff:      0.100D+01
 Gap=     0.255 Goal=   None    Shift=    0.000
 Gap=     0.158 Goal=   None    Shift=    0.000
 RMSDP=4.61D-06 MaxDP=1.79D-04 DE=-1.91D-06 OVMax= 6.44D-05

 Cycle   7  Pass 1  IDiag  1:
 E= -135.705353770652     Delta-E=        0.000000005210 Rises=F Damp=F
 DIIS: error= 1.75D-05 at cycle   2 NSaved=   2.
[...]
 Alpha virt. eigenvalues --    5.30782   5.40656   5.56948   5.66336   5.71326
 Alpha virt. eigenvalues --    5.77589   5.81565   5.87258   5.94211   6.01374
 Alpha virt. eigenvalues --    6.05734   6.16870   6.26996   6.65495   6.95755
 Alpha virt. eigenvalues --   25.32817  25.54425  37.16581
  Beta  occ. eigenvalues --  -15.54302 -11.25888 -11.22727  -1.18205  -0.97272
  Beta  occ. eigenvalues --   -0.81906  -0.67509  -0.60822  -0.58117  -0.56021
  Beta  occ. eigenvalues --   -0.52129  -0.49806  -0.39810
  Beta virt. eigenvalues --    0.03785   0.05631   0.05695   0.05995   0.08409
  Beta virt. eigenvalues --    0.08951   0.09744   0.11498   0.12983   0.13434
  Beta virt. eigenvalues --    0.15548   0.16449   0.18712   0.19514   0.20051
  Beta virt. eigenvalues --    0.20563   0.22016   0.24190   0.25869   0.26502
  Beta virt. eigenvalues --    0.29975   0.30927   0.31743   0.33313   0.36433
  Beta virt. eigenvalues --    0.37467   0.38222   0.40504   0.45025   0.46514
  Beta virt. eigenvalues --    0.55927   0.57577   0.58305   0.60974   0.64368
  Beta virt. eigenvalues --    0.66938   0.68166   0.69602   0.72851   0.76098
  Beta virt. eigenvalues --    0.77425   0.79480   0.79616   0.80081   0.81172
  Beta virt. eigenvalues --    0.82753   0.85131   0.85910   0.86039   0.89811
  Beta virt. eigenvalues --    0.94338   0.98213   1.00339   1.01763   1.04500
  Beta virt. eigenvalues --    1.09305   1.13166   1.16568   1.20153   1.22914
  Beta virt. eigenvalues --    1.25662   1.31585   1.34908   1.35008   1.36736
  Beta virt. eigenvalues --    1.38958   1.42245   1.45472   1.47845   1.49207
  Beta virt. eigenvalues --    1.54489   1.55844   1.57111   1.60201   1.63652
  Beta virt. eigenvalues --    1.65751   1.67401   1.70746   1.74898   1.79036
  Beta virt. eigenvalues --    1.80237   1.82952   1.85224   1.92795   1.98487
  Beta virt. eigenvalues --    2.08169   2.08891   2.17179   2.18684   2.74142
  Beta virt. eigenvalues --    2.77090   2.78083   2.88478   2.92508   2.98175
  Beta virt. eigenvalues --    3.07610   3.10502   3.18617   3.19172   3.23308
  Beta virt. eigenvalues --    3.28181   3.33177   3.34608   3.42687   3.46571
  Beta virt. eigenvalues --    3.48245   3.53813   3.55025   3.60282   3.65375
  Beta virt. eigenvalues --    3.70571   3.73570   3.79450   3.80182   3.85364
  Beta virt. eigenvalues --    3.86541   3.90449   3.91434   3.94321   4.00527
  Beta virt. eigenvalues --    4.06157   4.08632   4.10108   4.11046   4.13364
  Beta virt. eigenvalues --    4.15397   4.18997   4.21408   4.27059   4.28589
  Beta virt. eigenvalues --    4.33543   4.36707   4.41394   4.44518   4.48013
  Beta virt. eigenvalues --    4.49503   4.52754   4.55458   4.60414   4.65439
  Beta virt. eigenvalues --    4.69516   4.70718   4.75987   4.82896   4.87925
  Beta virt. eigenvalues --    4.88944   4.99667   5.02929   5.07118   5.12730
  Beta virt. eigenvalues --    5.21248   5.30847   5.40835   5.57192   5.66539
  Beta virt. eigenvalues --    5.71324   5.77715   5.81784   5.88119   5.95017
  Beta virt. eigenvalues --    6.01644   6.06000   6.16969   6.27016   6.65513
  Beta virt. eigenvalues --    6.95757  25.33873  25.54623  37.16590
          Condensed to atoms (all electrons):
               1          2          3          4          5          6
     1  N    6.407558   0.247818  -0.064928   0.407559   0.402146  -0.041843
     2  C    0.247818   4.848282   0.234570  -0.054892  -0.048904   0.413206
     3  C   -0.064928   0.234570   5.266759   0.013765   0.013177  -0.022590
     4  H    0.407559  -0.054892   0.013765   0.516706  -0.039957   0.007371
     5  H    0.402146  -0.048904   0.013177  -0.039957   0.528696  -0.008080
     6  H   -0.041843   0.413206  -0.022590   0.007371  -0.008080   0.648624
     7  H   -0.042923   0.426120  -0.026972  -0.007690   0.007203  -0.037837
     8  H   -0.017925   0.022983   0.072745   0.004958  -0.005438  -0.001856
     9  H    0.008297  -0.013373   0.412530  -0.001642  -0.001512  -0.003716
    10  H   -0.009901  -0.018727   0.399308  -0.001645   0.001469  -0.007648
    11  H    0.002175   0.034880  -0.218386  -0.001962   0.001084  -0.003735
               7          8          9         10         11
     1  N   -0.042923  -0.017925   0.008297  -0.009901   0.002175
     2  C    0.426120   0.022983  -0.013373  -0.018727   0.034880
     3  C   -0.026972   0.072745   0.412530   0.399308  -0.218386
     4  H   -0.007690   0.004958  -0.001642  -0.001645  -0.001962
     5  H    0.007203  -0.005438  -0.001512   0.001469   0.001084
     6  H   -0.037837  -0.001856  -0.003716  -0.007648  -0.003735
     7  H    0.622521  -0.014857  -0.005943   0.007252   0.001479
     8  H   -0.014857   0.749735  -0.020838  -0.032519   0.278322
     9  H   -0.005943  -0.020838   0.586801  -0.031327   0.008286
    10  H    0.007252  -0.032519  -0.031327   0.605463   0.012977
    11  H    0.001479   0.278322   0.008286   0.012977   0.954624
          Atomic-Atomic Spin Densities.
               1          2          3          4          5          6
     1  N    0.001563   0.005107  -0.002569   0.000216  -0.000610  -0.001550
     2  C    0.005107  -0.018973  -0.091653  -0.001639   0.001699  -0.010940
     3  C   -0.002569  -0.091653   1.021446   0.003922  -0.000534   0.001591
     4  H    0.000216  -0.001639   0.003922  -0.000482  -0.000230   0.000784
     5  H   -0.000610   0.001699  -0.000534  -0.000230  -0.000233  -0.000889
     6  H   -0.001550  -0.010940   0.001591   0.000784  -0.000889   0.064944
     7  H   -0.000478   0.010920  -0.013568  -0.000295  -0.000011  -0.004300
     8  H    0.001385   0.000023   0.098461  -0.001780   0.000773  -0.005758
     9  H    0.000660   0.007658  -0.027879  -0.000129   0.000048  -0.003017
    10  H   -0.001471   0.014019  -0.040690   0.000102  -0.000190  -0.004435
    11  H   -0.001417   0.039079  -0.215736  -0.001070   0.000085  -0.003795
               7          8          9         10         11
     1  N   -0.000478   0.001385   0.000660  -0.001471  -0.001417
     2  C    0.010920   0.000023   0.007658   0.014019   0.039079
     3  C   -0.013568   0.098461  -0.027879  -0.040690  -0.215736
     4  H   -0.000295  -0.001780  -0.000129   0.000102  -0.001070
     5  H   -0.000011   0.000773   0.000048  -0.000190   0.000085
     6  H   -0.004300  -0.005758  -0.003017  -0.004435  -0.003795
     7  H    0.007356   0.005652   0.000228   0.000302   0.001201
     8  H    0.005652  -0.448502   0.011181   0.012371   0.017704
     9  H    0.000228   0.011181  -0.031825   0.004861   0.006759
    10  H    0.000302   0.012371   0.004861  -0.026047   0.011329
    11  H    0.001201   0.017704   0.006759   0.011329   0.787784
 Mulliken charges and spin densities:
               1          2
     1  N   -0.298033   0.000834
     2  C   -0.091964  -0.044700
     3  C   -0.079979   0.732792
     4  H    0.157429  -0.000602
     5  H    0.150116  -0.000092
     6  H    0.058105   0.032633
     7  H    0.071649   0.007007
     8  H   -0.035309  -0.308491
     9  H    0.062435  -0.031456
    10  H    0.075298  -0.029849
    11  H   -0.069745   0.641923
 Sum of Mulliken charges =  -0.00000   1.00000
 Mulliken charges and spin densities with hydrogens summed into heavy atoms:
               1          2
     1  N    0.009511   0.000140
     2  C    0.037789  -0.005059
     3  C   -0.047300   1.004919
 Electronic spatial extent (au):  <R**2>=            242.3915
 Charge=             -0.0000 electrons
 Dipole moment (field-independent basis, Debye):
    X=             -0.9002    Y=             -0.3791    Z=              0.9877  Tot=              1.3891
 Quadrupole moment (field-independent basis, Debye-Ang):
   XX=            -26.7060   YY=            -22.8212   ZZ=            -21.0196
   XY=              2.9301   XZ=              0.7969   YZ=              0.7810
 Traceless Quadrupole moment (field-independent basis, Debye-Ang):
   XX=             -3.1904   YY=              0.6944   ZZ=              2.4960
   XY=              2.9301   XZ=              0.7969   YZ=              0.7810
 Octapole moment (field-independent basis, Debye-Ang**2):
  XXX=             -4.3894  YYY=             -5.4397  ZZZ=              3.8849  XYY=              6.6020
  XXY=             -2.0077  XXZ=              4.0713  XZZ=              3.9272  YZZ=             -1.0182
  YYZ=              1.5085  XYZ=             -1.7207
 Hexadecapole moment (field-independent basis, Debye-Ang**3):
 XXXX=           -223.2484 YYYY=            -99.5824 ZZZZ=            -50.1301 XXXY=             16.2325
 XXXZ=              3.1008 YYYX=             15.2726 YYYZ=              4.0954 ZZZX=             -0.0633
 ZZZY=              5.3825 XXYY=            -51.6481 XXZZ=            -41.4570 YYZZ=            -26.4875
 XXYZ=              3.8116 YYXZ=             -2.7412 ZZXY=              3.7185
 N-N= 8.707744765579D+01 E-N=-4.880655289922D+02  KE= 1.346254261410D+02
 Leave Link  601 at Sun Sep 19 14:26:10 2021, MaxMem=  1879048192 cpu:               3.9 elap:               0.8
 (Enter /home/gridsan/groups/GRPAPI/Software/g16/l9999.exe)

 Test job not archived.
 1\1\GINC-D-7-7-1\SP\UMP2-FC\CBSB3\C2H8N1(2)\ALONGD\19-Sep-2021\0\\#P G
 eom=AllCheck Guess=TCheck SCRF=Check Test MP2/CBSB3 CBSExtrap=(NMin=10
 ,MinPop)\\TS0\\0,2\N,0,0.0491361585,-0.5135983121,-1.1855482617\C,0,0.
 0316700689,-0.524986565,0.2780249235\C,0,0.125180793,0.8223761014,0.96
 33564381\H,0,-0.731555707,0.0321781786,-1.5382024696\H,0,0.8939453842,
 -0.0614249124,-1.5230398437\H,0,0.864336707,-1.1571184522,0.6176219241
 \H,0,-0.8781160109,-1.0411611287,0.6025093364\H,0,-1.016344774,1.50786
 64545,0.6218657812\H,0,0.0655099234,0.8116326952,2.0526839922\H,0,0.90
 8924969,1.4847380391,0.5930817542\H,0,-1.8003181422,1.9332909015,0.386
 5345653\\Version=ES64L-G16RevB.01\State=2-A\HF=-134.7658011\MP2=-135.3
 392001\E2(CBS)=-0.6310045\CBS-Int=-0.6110028\OIii=5.264633\PUHF=-134.7
 734146\PMP2-0=-135.3443994\S2=0.789478\S2-1=0.764281\S2A=0.750425\RMSD
 =5.237e-09\PG=C01 [X(C2H8N1)]\\@


 MOST BUREAUCRACIES FUNCTION LIKE A SEPTIC TANK.
 THE LARGE CHUNKS RISE TO THE TOP.
 Diagonal vibrational polarizability:
        0.0000000       0.0000000       0.0000000
    1 imaginary frequencies ignored.

 Complete Basis Set (CBS) Extrapolation:
 M. R. Nyden and G. A. Petersson, JCP 75, 1843 (1981)
 G. A. Petersson and M. A. Al-Laham, JCP 94, 6081 (1991)
 G. A. Petersson, T. Tensfeldt, and J. A. Montgomery, JCP 94, 6091 (1991)
 J. A. Montgomery, J. W. Ochterski, and G. A. Petersson, JCP 101, 5900 (1994)

 Temperature=               298.150000 Pressure=                       1.000000
 E(ZPE)=                      0.088901 E(Thermal)=                     0.094092
 E(SCF)=                   -134.765801 DE(MP2)=                       -0.573399
 DE(CBS)=                    -0.057606 DE(MP34)=                      -0.045601
 DE(CCSD)=                   -0.015636 DE(Int)=                        0.020002
 DE(Empirical)=              -0.030859
 CBS-QB3 (0 K)=            -135.379998 CBS-QB3 Energy=              -135.374808
 CBS-QB3 Enthalpy=         -135.373863 CBS-QB3 Free Energy=         -135.406995

 Test job not archived.
 1\1\GINC-D-7-7-1\Mixed\CBS-QB3\CBS-QB3\C2H8N1(2)\ALONGD\19-Sep-2021\0\
 \#P opt=(ts, calcfc, noeigentest, maxcycles=100, tight, maxstep=5) gue
 ss=read cbs-qb3 scf=(tight, direct) integral=(grid=ultrafine, Acc2E=12
 ) IOp(2/9=2000) scf=xqc\\TS0\\0,2\N,0,0.0491361585,-0.5135983121,-1.18
 55482617\C,0,0.0316700689,-0.524986565,0.2780249235\C,0,0.125180793,0.
 8223761014,0.9633564381\H,0,-0.731555707,0.0321781786,-1.5382024696\H,
 0,0.8939453842,-0.0614249124,-1.5230398437\H,0,0.864336707,-1.15711845
 22,0.6176219241\H,0,-0.8781160109,-1.0411611287,0.6025093364\H,0,-1.01
 6344774,1.5078664545,0.6218657812\H,0,0.0655099234,0.8116326952,2.0526
 839922\H,0,0.908924969,1.4847380391,0.5930817542\H,0,-1.8003181422,1.9
 332909015,0.3865345653\\Version=ES64L-G16RevB.01\State=2-A\HF/CbsB3=-1
 34.7658011\E2(CBS)/CbsB3=-0.6310045\CBS-Int/CbsB3=0.0200017\OIii/CbsB3
 =5.264633\MP2/CbsB4=-135.2179608\MP4(SDQ)/CbsB4=-135.2635615\MP4(SDQ)/
 6-31+G(d')=-135.1919482\QCISD(T)/6-31+G(d')=-135.2075847\CBSQB3=-135.3
 799985\FreqCoord=0.0928538824,-0.970560148,-2.240361522,0.0598477567,-
 0.9920808269,0.5253909613,0.2365574148,1.5540656031,1.8204798283,-1.38
 24399311,0.0608079447,-2.9067813917,1.6893119464,-0.1160762616,-2.8781
 281814,1.6333596556,-2.1866369683,1.1671362851,-1.6593987662,-1.967509
 3848,1.1385776333,-1.920613271,2.8494546315,1.1751560126,0.1237958137,
 1.5337635077,3.8790105655,1.7176192593,2.8057482606,1.1207620849,-3.40
 21082258,3.653390323,0.7304444661\PG=C01 [X(C2H8N1)]\NImag=1\\0.675819
 51,-0.02091844,0.29160701,-0.00699798,-0.15767469,0.45512505,-0.102374
 41,-0.00022686,0.00121280,0.58810980,0.00032868,-0.06089104,-0.0170251
 7,0.01028966,0.48689290,0.00412380,0.03611777,-0.20754686,-0.01219644,
 -0.04886864,0.46706117,0.00231269,0.00173229,0.00217147,-0.06661540,-0
 .02428471,0.00248983,0.27966941,0.00045866,0.00336403,-0.00624151,-0.0
 1268602,-0.17086272,-0.03984112,0.16809011,0.40441577,-0.00196624,-0.0
 3394947,-0.03502814,0.00839339,-0.03864896,-0.09206106,-0.09906236,0.0
 0774202,0.53387913,-0.27186937,0.14195986,-0.08874267,0.00178409,0.001
 33279,0.00001141,-0.00000371,-0.00011217,0.00141448,0.29343052,0.18413
 796,-0.13633730,0.09657087,-0.00108220,-0.00456613,-0.00700248,-0.0012
 6556,0.00198997,-0.00033918,-0.16349019,0.13344661,-0.07665612,0.06981
 922,-0.08771828,-0.03308451,0.02225142,-0.01800728,-0.00129657,0.00108
 497,0.00164453,0.09813879,-0.08405736,0.10485924,-0.31003455,-0.122684
 50,0.09470773,0.00120561,-0.00231777,-0.00084660,0.00050393,0.00068214
 ,-0.00171160,-0.02650069,-0.01841209,0.01064431,0.33183086,-0.16500645
 ,-0.09970540,0.08198242,-0.00031647,-0.00488552,-0.00627271,0.00218774
 ,0.00196764,-0.00060574,0.02192120,0.00525434,-0.00855662,0.14186309,0
 .09736453,0.07975245,0.05811615,-0.08442038,0.03667020,0.01889765,-0.0
 1699334,0.00075252,0.00081143,0.00163058,-0.01202705,-0.00767569,0.004
 84604,-0.10269970,-0.06925119,0.10060576,0.00156092,-0.00091185,-0.001
 77874,-0.19098688,0.10353099,-0.05489346,0.00195698,0.00059310,0.00158
 505,0.00237718,-0.00043149,0.00073389,0.00055868,-0.00031788,-0.000460
 07,0.20444727,0.00000073,0.00171746,0.00235373,0.10921264,-0.12354955,
 0.04409258,0.02177966,-0.02425841,0.00265076,-0.00055094,0.00083803,-0
 .00001322,0.00020415,-0.00045619,0.00026195,-0.11769557,0.13705948,-0.
 03124457,0.01777183,-0.02177998,-0.04669100,0.03614934,-0.06257799,0.0
 0852165,-0.00710106,0.00436807,0.00108191,0.00194644,-0.00719268,0.000
 12346,0.00057612,0.00106518,0.06147845,-0.04299004,0.08236962,0.001841
 96,0.00122477,0.00214825,-0.22806915,-0.09956422,0.05972332,0.00009324
 ,-0.00049196,-0.00053958,0.00052381,0.00015790,0.00043598,0.00241492,0
 .00045705,-0.00081968,-0.02191649,-0.01065781,0.00653910,0.24339637,0.
 00034530,0.00131280,0.00174059,-0.09793353,-0.10108264,0.03317525,-0.0
 2533897,-0.01924922,0.00724703,-0.00038686,-0.00038113,0.00025834,0.00
 019590,0.00063754,0.00000563,0.01491715,0.00879082,-0.00537936,0.10888
 915,0.11279582,0.03341137,0.01352896,-0.01970907,0.05214737,0.03057481
 ,-0.06601001,-0.01172311,-0.00598523,0.00586894,0.00002399,0.00055107,
 0.00111726,-0.00045729,0.00195366,-0.00715192,-0.00763548,-0.00474407,
 0.00330753,-0.06647919,-0.03358203,0.08277020,0.00012682,-0.00120902,-
 0.00192428,-0.00742791,0.01200274,0.00007852,0.05757030,-0.05465754,0.
 02278904,0.00056921,-0.00008866,0.00030321,-0.00013075,0.00011936,0.00
 009611,0.00164016,-0.00109432,0.00117451,-0.00013202,-0.00155308,0.000
 26873,-0.01298660,-0.00021506,0.00128534,0.00261931,0.01624531,-0.0173
 0985,0.00256632,-0.04872242,0.00717095,-0.01272566,-0.00072133,0.00015
 315,-0.00062246,0.00005453,-0.00004721,-0.00007604,-0.00038103,-0.0017
 6793,-0.00242267,0.00063825,0.00115131,-0.00003228,0.03200122,0.024448
 31,0.00076300,-0.00017953,0.00046007,0.00268590,-0.00037049,0.00068151
 ,0.02424772,-0.01537195,-0.01941522,-0.00019934,-0.00033260,-0.0002617
 0,0.00003219,0.00003619,0.00003572,0.00041653,-0.00160462,0.00017395,-
 0.00024860,0.00000076,0.00019674,-0.01512862,0.01019023,0.03626415,0.0
 0142309,-0.00007123,-0.00115327,0.00100312,0.00070763,0.00077493,-0.03
 286456,-0.01145578,0.01232903,0.00024787,0.00040075,0.00055349,0.00020
 587,-0.00042457,-0.00061854,0.00010140,-0.00080538,-0.00044318,0.00003
 165,0.00060252,0.00007836,-0.00823619,0.00520376,-0.01459502,0.0332931
 3,-0.00036316,-0.00530914,-0.00451960,0.00091471,0.00820719,-0.0267570
 9,-0.01095830,-0.04717774,0.00648219,0.00010196,-0.00034199,0.00007109
 ,-0.00013729,-0.00022605,0.00011839,0.00068975,0.00079329,0.00094651,-
 0.00063484,0.00063071,0.00082756,0.00381620,-0.00280113,0.00815885,0.0
 0808028,0.04410154,-0.00036079,-0.00464429,-0.00242078,0.00073538,0.00
 646213,-0.00844851,0.02308738,0.00074995,-0.31943750,0.00047171,0.0002
 1544,0.00052887,-0.00045682,0.00023942,0.00058656,0.00032109,-0.000531
 49,0.00012981,-0.00040659,-0.00042564,0.00029873,-0.00098086,0.0009724
 6,-0.00433924,-0.02085279,-0.00189725,0.33893597,0.00059808,0.00128158
 ,-0.00097647,0.00187688,0.00200112,0.00195703,-0.17728625,-0.13255344,
 0.07688392,-0.00016752,-0.00015241,-0.00010747,-0.00004927,-0.00044372
 ,-0.00055839,0.00001996,-0.00112804,-0.00038382,0.00108919,-0.00047896
 ,0.00033437,-0.01626654,-0.00290822,0.00238472,0.00176240,0.00010420,-
 0.00155288,0.18560479,0.00147069,0.00260195,0.00088265,-0.02373934,-0.
 01451692,0.01206149,-0.12218627,-0.13917513,0.05111357,-0.00013237,0.0
 0005155,-0.00023638,0.00047211,0.00013868,-0.00125998,0.00054840,0.000
 76616,0.00029017,0.00069099,-0.00457773,-0.00307834,0.01032506,0.00082
 916,-0.00074283,-0.00048364,0.00137737,-0.00103926,0.13501020,0.151315
 41,-0.00098545,0.00127400,0.00260466,-0.00987464,-0.00832077,0.0048502
 9,0.07164408,0.05118182,-0.08077983,-0.00018401,-0.00004444,-0.0001183
 8,0.00066279,-0.00007291,-0.00020774,0.00014117,0.00011298,0.00010148,
 -0.00063954,-0.00324856,-0.00061928,-0.00648174,-0.00004614,-0.0000370
 5,0.02261228,0.01734066,-0.00674295,-0.07815747,-0.05720588,0.08060812
 ,0.00059526,-0.00017661,0.00133317,0.00149425,-0.00402690,-0.00122233,
 -0.06533662,0.04213291,-0.02011512,-0.00039140,0.00022597,0.00033500,-
 0.00000459,-0.00003934,-0.00008785,0.00024081,0.00073486,-0.00015650,0
 .00072651,0.00074138,0.00003088,-0.01472647,-0.00119502,-0.00035847,0.
 00303223,-0.00161350,-0.00000484,0.00281828,-0.00197583,0.00126254,0.0
 7155175,-0.00023892,0.00035430,-0.00068860,-0.00067791,0.00256429,0.00
 072861,0.03896644,-0.01818513,0.01103344,0.00007803,-0.00010710,0.0000
 0102,0.00007973,-0.00004236,0.00005170,-0.00054157,0.00006685,0.000212
 72,-0.00070929,-0.00002828,-0.00001411,0.00033806,-0.01311210,0.000215
 98,-0.00175434,0.00074595,-0.00010145,-0.00073231,0.00118950,-0.000970
 78,-0.03480792,0.02655409,0.00016053,-0.00017996,0.00043372,0.00000156
 ,-0.00110133,-0.00094792,-0.02083262,0.01297067,-0.00066950,0.00001076
 ,0.00016793,0.00030239,0.00000152,-0.00002863,0.00000354,0.00009158,0.
 00041142,0.00003502,0.00028654,0.00020801,-0.00006911,-0.00019461,-0.0
 0042306,-0.01375893,0.00131473,-0.00077130,0.00090906,0.00017647,-0.00
 078521,0.00034067,0.01898354,-0.01046855,0.01342105\\-0.00000040,0.000
 00014,-0.00000023,-0.00000079,-0.00000064,-0.00000057,0.00000047,-0.00
 000029,0.00000031,-0.00000011,0.00000082,-0.00000011,-0.00000013,-0.00
 000021,-0.00000003,-0.00000097,-0.00000061,-0.00000034,-0.00000090,0.0
 0000030,-0.00000041,0.00000067,0.00000056,0.00000022,-0.00000004,-0.00
 000027,0.00000015,0.00000041,-0.00000037,0.00000044,0.00000180,0.00000
 057,0.00000058\\\@
 Job cpu time:       0 days  0 hours  2 minutes 12.2 seconds.
 Elapsed time:       0 days  0 hours  0 minutes 24.6 seconds.
 File lengths (MBytes):  RWF=    789 Int=      0 D2E=      0 Chk=      5 Scr=      1
 Normal termination of Gaussian 16 at Sun Sep 19 14:26:11 2021.
