 Entering Gaussian System, Link 0=/Local/ce_dana/g09/g09
 Initial command:
 /Local/ce_dana/g09/l1.exe "/storage/ce_dana/alongd/scratch/g09/Gau-39655.inp" -scrdir="/storage/ce_dana/alongd/scratch/g09/"
 Entering Link 1 = /Local/ce_dana/g09/l1.exe PID=     39657.
  
 Copyright (c) 1988,1990,1992,1993,1995,1998,2003,2009,2013,
            Gaussian, Inc.  All Rights Reserved.
  
 This is part of the Gaussian(R) 09 program.  It is based on
 the Gaussian(R) 03 system (copyright 2003, Gaussian, Inc.),
 the Gaussian(R) 98 system (copyright 1998, Gaussian, Inc.),
 the Gaussian(R) 94 system (copyright 1995, Gaussian, Inc.),
 the Gaussian 92(TM) system (copyright 1992, Gaussian, Inc.),
 the Gaussian 90(TM) system (copyright 1990, Gaussian, Inc.),
 the Gaussian 88(TM) system (copyright 1988, Gaussian, Inc.),
 the Gaussian 86(TM) system (copyright 1986, Carnegie Mellon
 University), and the Gaussian 82(TM) system (copyright 1983,
 Carnegie Mellon University). Gaussian is a federally registered
 trademark of Gaussian, Inc.
  
 This software contains proprietary and confidential information,
 including trade secrets, belonging to Gaussian, Inc.
  
 This software is provided under written license and may be
 used, copied, transmitted, or stored only in accord with that
 written license.
  
 The following legend is applicable only to US Government
 contracts under FAR:
  
                    RESTRICTED RIGHTS LEGEND
  
 Use, reproduction and disclosure by the US Government is
 subject to restrictions as set forth in subparagraphs (a)
 and (c) of the Commercial Computer Software - Restricted
 Rights clause in FAR 52.227-19.
  
 Gaussian, Inc.
 340 Quinnipiac St., Bldg. 40, Wallingford CT 06492
  
  
 ---------------------------------------------------------------
 Warning -- This program may not be used in any manner that
 competes with the business of Gaussian, Inc. or will provide
 assistance to any competitor of Gaussian, Inc.  The licensee
 of this program is prohibited from giving any competitor of
 Gaussian, Inc. access to this program.  By using this program,
 the user acknowledges that Gaussian, Inc. is engaged in the
 business of creating and licensing software in the field of
 computational chemistry and represents and warrants to the
 licensee that it is not a competitor of Gaussian, Inc. and that
 it will not use this program in any manner prohibited above.
 ---------------------------------------------------------------
  

 Cite this work as:
 Gaussian 09, Revision D.01,
 M. J. Frisch, G. W. Trucks, H. B. Schlegel, G. E. Scuseria, 
 M. A. Robb, J. R. Cheeseman, G. Scalmani, V. Barone, B. Mennucci, 
 G. A. Petersson, H. Nakatsuji, M. Caricato, X. Li, H. P. Hratchian, 
 A. F. Izmaylov, J. Bloino, G. Zheng, J. L. Sonnenberg, M. Hada, 
 M. Ehara, K. Toyota, R. Fukuda, J. Hasegawa, M. Ishida, T. Nakajima, 
 Y. Honda, O. Kitao, H. Nakai, T. Vreven, J. A. Montgomery, Jr., 
 J. E. Peralta, F. Ogliaro, M. Bearpark, J. J. Heyd, E. Brothers, 
 K. N. Kudin, V. N. Staroverov, T. Keith, R. Kobayashi, J. Normand, 
 K. Raghavachari, A. Rendell, J. C. Burant, S. S. Iyengar, J. Tomasi, 
 M. Cossi, N. Rega, J. M. Millam, M. Klene, J. E. Knox, J. B. Cross, 
 V. Bakken, C. Adamo, J. Jaramillo, R. Gomperts, R. E. Stratmann, 
 O. Yazyev, A. J. Austin, R. Cammi, C. Pomelli, J. W. Ochterski, 
 R. L. Martin, K. Morokuma, V. G. Zakrzewski, G. A. Voth, 
 P. Salvador, J. J. Dannenberg, S. Dapprich, A. D. Daniels, 
 O. Farkas, J. B. Foresman, J. V. Ortiz, J. Cioslowski, 
 and D. J. Fox, Gaussian, Inc., Wallingford CT, 2013.
 
 ******************************************
 Gaussian 09:  ES64L-G09RevD.01 24-Apr-2013
                26-Jun-2021 
 ******************************************
 %chk=check.chk
 %mem=25600mb
 %NProcShared=10
 Will use up to   10 processors via shared memory.
 ----------------------------------------------------------------------
 #P opt=(ts, calcfc, noeigentest, maxcycles=100, tight, maxstep=5) gues
 s=read cbs-qb3 scf=(tight, direct) integral=(grid=ultrafine, Acc2E=12)
  IOp(2/9=2000) scf=xqc
 ----------------------------------------------------------------------
 1/5=1,6=100,7=10,8=5,10=4,11=1,14=-1,18=20,26=4,38=1/1,3;
 2/9=2000,12=2,17=6,18=5,40=1/2;
 3/5=4,6=6,7=700,11=2,16=1,25=1,30=1,71=2,74=-5,75=-5,116=-2,140=1/1,2,3;
 4/5=1/1;
 5/5=2,8=3,13=1,32=2,38=6,87=12/2,8;
 8/6=4,10=90,11=11,87=12/1;
 11/6=1,8=1,9=11,15=111,16=1,87=12/1,2,10;
 10/6=1,13=1,87=12/2;
 6/7=2,8=2,9=2,10=2,28=1/1;
 7/10=1,18=20,25=1,87=12/1,2,3,16;
 1/5=1,6=100,7=10,8=5,10=4,11=1,14=-1,18=20,26=4/3(2);
 2/9=2000/2;
 99//99;
 2/9=2000/2;
 3/5=4,6=6,7=700,11=2,16=1,25=1,30=1,71=1,74=-5,75=-5/1,2,3;
 4/5=5,16=3,69=1/1;
 5/5=2,8=3,13=1,32=2,38=5,87=12/2,8;
 7/87=12/1,2,3,16;
 1/5=1,6=100,7=10,8=5,11=1,14=-1,18=20,26=4/3(-5);
 2/9=2000/2;
 6/7=2,8=2,9=2,10=2,19=2,28=1/1;
 99/9=1/99;
 Leave Link    1 at Sat Jun 26 10:47:15 2021, MaxMem=  3355443200 cpu:         0.1
 (Enter /Local/ce_dana/g09/l101.exe)
 ---
 TS0
 ---
 Symbolic Z-matrix:
 Charge =  0 Multiplicity = 2
 C                     0.62949  -0.29377  -0.56306 
 C                    -0.06826  -0.77125   0.67313 
 C                    -0.57189   0.2024    1.68389 
 H                    -0.55381  -1.75166   0.65996 
 H                     1.31964   0.53556  -0.33735 
 H                    -0.09355   0.08756  -1.30889 
 H                     0.49196  -0.54313   1.82145 
 H                     1.21241  -1.09442  -1.04074 
 H                    -0.347     1.26351   1.55299 
 H                    -1.39056  -0.08242   2.34726 
 
 NAtoms=     10 NQM=       10 NQMF=       0 NMMI=      0 NMMIF=      0
                NMic=       0 NMicF=      0.
                    Isotopes and Nuclear Properties:
 (Nuclear quadrupole moments (NQMom) in fm**2, nuclear magnetic moments (NMagM)
  in nuclear magnetons)

  Atom         1           2           3           4           5           6           7           8           9          10
 IAtWgt=          12          12          12           1           1           1           1           1           1           1
 AtmWgt=  12.0000000  12.0000000  12.0000000   1.0078250   1.0078250   1.0078250   1.0078250   1.0078250   1.0078250   1.0078250
 NucSpn=           0           0           0           1           1           1           1           1           1           1
 AtZEff=   0.0000000   0.0000000   0.0000000   0.0000000   0.0000000   0.0000000   0.0000000   0.0000000   0.0000000   0.0000000
 NQMom=    0.0000000   0.0000000   0.0000000   0.0000000   0.0000000   0.0000000   0.0000000   0.0000000   0.0000000   0.0000000
 NMagM=    0.0000000   0.0000000   0.0000000   2.7928460   2.7928460   2.7928460   2.7928460   2.7928460   2.7928460   2.7928460
 AtZNuc=   6.0000000   6.0000000   6.0000000   1.0000000   1.0000000   1.0000000   1.0000000   1.0000000   1.0000000   1.0000000
 Leave Link  101 at Sat Jun 26 10:47:16 2021, MaxMem=  3355443200 cpu:         0.7
 (Enter /Local/ce_dana/g09/l103.exe)

 GradGradGradGradGradGradGradGradGradGradGradGradGradGradGradGradGradGrad
 Berny optimization.
 Initialization pass.
                           ----------------------------
                           !    Initial Parameters    !
                           ! (Angstroms and Degrees)  !
 --------------------------                            --------------------------
 ! Name  Definition              Value          Derivative Info.                !
 --------------------------------------------------------------------------------
 ! R1    R(1,2)                  1.4977         calculate D2E/DX2 analytically  !
 ! R2    R(1,5)                  1.1023         calculate D2E/DX2 analytically  !
 ! R3    R(1,6)                  1.1065         calculate D2E/DX2 analytically  !
 ! R4    R(1,8)                  1.0996         calculate D2E/DX2 analytically  !
 ! R5    R(2,3)                  1.4911         calculate D2E/DX2 analytically  !
 ! R6    R(2,4)                  1.0941         calculate D2E/DX2 analytically  !
 ! R7    R(2,7)                  1.2979         calculate D2E/DX2 analytically  !
 ! R8    R(3,9)                  1.0926         calculate D2E/DX2 analytically  !
 ! R9    R(3,10)                 1.0915         calculate D2E/DX2 analytically  !
 ! A1    A(2,1,5)              111.2564         calculate D2E/DX2 analytically  !
 ! A2    A(2,1,6)              111.2105         calculate D2E/DX2 analytically  !
 ! A3    A(2,1,8)              111.9268         calculate D2E/DX2 analytically  !
 ! A4    A(5,1,6)              106.7289         calculate D2E/DX2 analytically  !
 ! A5    A(5,1,8)              107.7505         calculate D2E/DX2 analytically  !
 ! A6    A(6,1,8)              107.7298         calculate D2E/DX2 analytically  !
 ! A7    A(1,2,3)              120.5778         calculate D2E/DX2 analytically  !
 ! A8    A(1,2,4)              118.8482         calculate D2E/DX2 analytically  !
 ! A9    A(1,2,7)              118.2398         calculate D2E/DX2 analytically  !
 ! A10   A(3,2,4)              116.3197         calculate D2E/DX2 analytically  !
 ! A11   A(3,2,7)               55.338          calculate D2E/DX2 analytically  !
 ! A12   A(4,2,7)              111.0815         calculate D2E/DX2 analytically  !
 ! A13   A(2,3,9)              118.9112         calculate D2E/DX2 analytically  !
 ! A14   A(2,3,10)             119.6646         calculate D2E/DX2 analytically  !
 ! A15   A(9,3,10)             118.7273         calculate D2E/DX2 analytically  !
 ! D1    D(5,1,2,3)             41.2724         calculate D2E/DX2 analytically  !
 ! D2    D(5,1,2,4)           -162.7421         calculate D2E/DX2 analytically  !
 ! D3    D(5,1,2,7)            -23.1016         calculate D2E/DX2 analytically  !
 ! D4    D(6,1,2,3)            -77.5612         calculate D2E/DX2 analytically  !
 ! D5    D(6,1,2,4)             78.4243         calculate D2E/DX2 analytically  !
 ! D6    D(6,1,2,7)           -141.9352         calculate D2E/DX2 analytically  !
 ! D7    D(8,1,2,3)            161.8847         calculate D2E/DX2 analytically  !
 ! D8    D(8,1,2,4)            -42.1298         calculate D2E/DX2 analytically  !
 ! D9    D(8,1,2,7)             97.5108         calculate D2E/DX2 analytically  !
 ! D10   D(1,2,3,9)             -5.3398         calculate D2E/DX2 analytically  !
 ! D11   D(1,2,3,10)           155.8257         calculate D2E/DX2 analytically  !
 ! D12   D(4,2,3,9)           -161.9059         calculate D2E/DX2 analytically  !
 ! D13   D(4,2,3,10)            -0.7404         calculate D2E/DX2 analytically  !
 ! D14   D(7,2,3,9)             99.7075         calculate D2E/DX2 analytically  !
 ! D15   D(7,2,3,10)           -99.127          calculate D2E/DX2 analytically  !
 --------------------------------------------------------------------------------
 Trust Radius=5.00D-02 FncErr=1.00D-07 GrdErr=1.00D-06
 Number of steps in this run=    100 maximum allowed number of steps=    100.
 Search for a saddle point of order  1.
 GradGradGradGradGradGradGradGradGradGradGradGradGradGradGradGradGradGrad

 Leave Link  103 at Sat Jun 26 10:47:16 2021, MaxMem=  3355443200 cpu:         0.0
 (Enter /Local/ce_dana/g09/l202.exe)
                          Input orientation:                          
 ---------------------------------------------------------------------
 Center     Atomic      Atomic             Coordinates (Angstroms)
 Number     Number       Type             X           Y           Z
 ---------------------------------------------------------------------
      1          6           0        0.629485   -0.293771   -0.563063
      2          6           0       -0.068255   -0.771250    0.673133
      3          6           0       -0.571892    0.202401    1.683892
      4          1           0       -0.553812   -1.751658    0.659962
      5          1           0        1.319636    0.535560   -0.337349
      6          1           0       -0.093545    0.087561   -1.308893
      7          1           0        0.491959   -0.543130    1.821447
      8          1           0        1.212414   -1.094422   -1.040739
      9          1           0       -0.346997    1.263514    1.552991
     10          1           0       -1.390557   -0.082424    2.347258
 ---------------------------------------------------------------------
                    Distance matrix (angstroms):
                    1          2          3          4          5
     1  C    0.000000
     2  C    1.497667   0.000000
     3  C    2.595824   1.491067   0.000000
     4  H    2.240852   1.094138   2.206152   0.000000
     5  H    1.102291   2.157561   2.788241   3.120225   0.000000
     6  H    1.106548   2.160237   3.032947   2.733306   1.772479
     7  H    2.401454   1.297884   1.306337   1.975658   2.551278
     8  H    1.099556   2.163772   3.505583   2.538483   1.778509
     9  H    2.802916   2.234303   1.092554   3.151434   2.623160
    10  H    3.548972   2.241798   1.091509   2.516635   3.864475
                    6          7          8          9         10
     6  H    0.000000
     7  H    3.246477   0.000000
     8  H    1.781718   3.002513   0.000000
     9  H    3.104430   2.009945   3.836543   0.000000
    10  H    3.883114   2.008132   4.390686   1.879209   0.000000
 Stoichiometry    C3H7(2)
 Framework group  C1[X(C3H7)]
 Deg. of freedom    24
 Full point group                 C1      NOp   1
 Largest Abelian subgroup         C1      NOp   1
 Largest concise Abelian subgroup C1      NOp   1
                         Standard orientation:                         
 ---------------------------------------------------------------------
 Center     Atomic      Atomic             Coordinates (Angstroms)
 Number     Number       Type             X           Y           Z
 ---------------------------------------------------------------------
      1          6           0       -1.278333   -0.190776   -0.025055
      2          6           0        0.041350    0.515513    0.025951
      3          6           0        1.316686   -0.254582   -0.035309
      4          1           0        0.091809    1.563150   -0.285574
      5          1           0       -1.264001   -1.108984    0.584644
      6          1           0       -1.528130   -0.498345   -1.058231
      7          1           0        0.818433    0.292436    1.041274
      8          1           0       -2.097852    0.443234    0.342971
      9          1           0        1.275293   -1.346333   -0.029049
     10          1           0        2.226233    0.233913   -0.389553
 ---------------------------------------------------------------------
 Rotational constants (GHZ):     37.5359325      8.5518528      7.5806430
 Leave Link  202 at Sat Jun 26 10:47:16 2021, MaxMem=  3355443200 cpu:         0.0
 (Enter /Local/ce_dana/g09/l301.exe)
 Standard basis: 6-311G(2d,d,p) (5D, 7F)
 Ernie: Thresh=  0.10000D-02 Tol=  0.10000D-05 Strict=F.
 There are    99 symmetry adapted cartesian basis functions of A   symmetry.
 There are    96 symmetry adapted basis functions of A   symmetry.
    96 basis functions,   152 primitive gaussians,    99 cartesian basis functions
    13 alpha electrons       12 beta electrons
       nuclear repulsion energy        75.9790372169 Hartrees.
 IExCor=  402 DFT=T Ex+Corr=B3LYP ExCW=0 ScaHFX=  0.200000
 ScaDFX=  0.800000  0.720000  1.000000  0.810000 ScalE2=  1.000000  1.000000
 IRadAn=      5 IRanWt=     -1 IRanGd=            0 ICorTp=0 IEmpDi=  4
 NAtoms=   10 NActive=   10 NUniq=   10 SFac= 1.00D+00 NAtFMM=   60 NAOKFM=F Big=F
 Integral buffers will be    131072 words long.
 Raffenetti 2 integral format.
 Two-electron integral symmetry is turned on.
 Leave Link  301 at Sat Jun 26 10:47:16 2021, MaxMem=  3355443200 cpu:         0.1
 (Enter /Local/ce_dana/g09/l302.exe)
 NPDir=0 NMtPBC=     1 NCelOv=     1 NCel=       1 NClECP=     1 NCelD=      1
         NCelK=      1 NCelE2=     1 NClLst=     1 CellRange=     0.0.
 One-electron integrals computed using PRISM.
 NBasis=    96 RedAO= T EigKep=  3.06D-03  NBF=    96
 NBsUse=    96 1.00D-06 EigRej= -1.00D+00 NBFU=    96
 Precomputing XC quadrature grid using
 IXCGrd= 4 IRadAn=           5 IRanWt=          -1 IRanGd=           0 AccXCQ= 0.00D+00.
 Generated NRdTot=       0 NPtTot=           0 NUsed=           0 NTot=          32
 NSgBfM=    99    99    99    99    99 MxSgAt=    10 MxSgA2=    10.
 Leave Link  302 at Sat Jun 26 10:47:16 2021, MaxMem=  3355443200 cpu:         1.2
 (Enter /Local/ce_dana/g09/l303.exe)
 DipDrv:  MaxL=1.
 Leave Link  303 at Sat Jun 26 10:47:16 2021, MaxMem=  3355443200 cpu:         0.1
 (Enter /Local/ce_dana/g09/l401.exe)
 Initial guess from the checkpoint file:  "check.chk"
 B after Tr=    -0.000000    0.000000    0.000000
         Rot=    0.144008    0.087621    0.742194   -0.648639 Ang= 163.44 deg.
 Guess basis will be translated and rotated to current coordinates.
 JPrj=2 DoOrth=T DoCkMO=T.
 Initial guess <Sx>= 0.0000 <Sy>= 0.0000 <Sz>= 0.5000 <S**2>= 0.7962 S= 0.5229
 Leave Link  401 at Sat Jun 26 10:47:16 2021, MaxMem=  3355443200 cpu:         0.4
 (Enter /Local/ce_dana/g09/l502.exe)
 UHF open shell SCF:
 Using DIIS extrapolation, IDIIS=  1040.
 Integral symmetry usage will be decided dynamically.
 Keep R1 and R2 ints in memory in canonical form, NReq=22641738.
 IVT=       37088 IEndB=       37088 NGot=  3355443200 MDV=  3333723121
 LenX=  3333723121 LenY=  3333712879
 Requested convergence on RMS density matrix=1.00D-08 within  64 cycles.
 Requested convergence on MAX density matrix=1.00D-06.
 Requested convergence on             energy=1.00D-06.
 No special actions if energy rises.
 FoFCou: FMM=F IPFlag=           0 FMFlag=           0 FMFlg1=           0
         NFxFlg=           0 DoJE=F BraDBF=F KetDBF=F FulRan=T
         wScrn=  0.000000 ICntrl=     600 IOpCl=  0 I1Cent=           0 NGrid=           0
         NMat0=    1 NMatS0=   4656 NMatT0=    0 NMatD0=    1 NMtDS0=    0 NMtDT0=    0
 Symmetry not used in FoFCou.

 Cycle   1  Pass 1  IDiag  1:
 E= -115.448392690371    
 DIIS: error= 7.12D-02 at cycle   1 NSaved=   1.
 NSaved= 1 IEnMin= 1 EnMin= -115.448392690371     IErMin= 1 ErrMin= 7.12D-02
 ErrMax= 7.12D-02  0.00D+00 EMaxC= 1.00D-01 BMatC= 4.73D+00 BMatP= 4.73D+00
 IDIUse=3 WtCom= 2.88D-01 WtEn= 7.12D-01
 Coeff-Com:  0.100D+01
 Coeff-En:   0.100D+01
 Coeff:      0.100D+01
 Gap=     2.304 Goal=   None    Shift=    0.000
 Gap=     2.320 Goal=   None    Shift=    0.000
 GapD=    2.304 DampG=2.000 DampE=0.500 DampFc=1.0000 IDamp=-1.
 RMSDP=2.31D-02 MaxDP=2.61D-01              OVMax= 7.41D-01

 Cycle   2  Pass 1  IDiag  1:
 E= -118.360273130376     Delta-E=       -2.911880440006 Rises=F Damp=F
 DIIS: error= 2.18D-02 at cycle   2 NSaved=   2.
 NSaved= 2 IEnMin= 2 EnMin= -118.360273130376     IErMin= 2 ErrMin= 2.18D-02
 ErrMax= 2.18D-02  0.00D+00 EMaxC= 1.00D-01 BMatC= 2.83D-01 BMatP= 4.73D+00
 IDIUse=3 WtCom= 7.82D-01 WtEn= 2.18D-01
 Coeff-Com:  0.354D-01 0.965D+00
 Coeff-En:   0.000D+00 0.100D+01
 Coeff:      0.277D-01 0.972D+00
 Gap=     0.252 Goal=   None    Shift=    0.000
 Gap=     0.289 Goal=   None    Shift=    0.000
 RMSDP=5.74D-03 MaxDP=1.21D-01 DE=-2.91D+00 OVMax= 1.78D-01

 Cycle   3  Pass 1  IDiag  1:
 E= -118.363768328100     Delta-E=       -0.003495197724 Rises=F Damp=F
 DIIS: error= 2.54D-02 at cycle   3 NSaved=   3.
 NSaved= 3 IEnMin= 3 EnMin= -118.363768328100     IErMin= 2 ErrMin= 2.18D-02
 ErrMax= 2.54D-02  0.00D+00 EMaxC= 1.00D-01 BMatC= 3.11D-01 BMatP= 2.83D-01
 IDIUse=3 WtCom= 7.46D-01 WtEn= 2.54D-01
 Coeff-Com: -0.210D-01 0.523D+00 0.498D+00
 Coeff-En:   0.000D+00 0.488D+00 0.512D+00
 Coeff:     -0.156D-01 0.514D+00 0.501D+00
 Gap=     0.180 Goal=   None    Shift=    0.000
 Gap=     0.308 Goal=   None    Shift=    0.000
 RMSDP=2.69D-03 MaxDP=7.14D-02 DE=-3.50D-03 OVMax= 8.43D-02

 Cycle   4  Pass 1  IDiag  1:
 E= -118.442656468638     Delta-E=       -0.078888140538 Rises=F Damp=F
 DIIS: error= 2.67D-03 at cycle   4 NSaved=   4.
 NSaved= 4 IEnMin= 4 EnMin= -118.442656468638     IErMin= 4 ErrMin= 2.67D-03
 ErrMax= 2.67D-03  0.00D+00 EMaxC= 1.00D-01 BMatC= 2.35D-03 BMatP= 2.83D-01
 IDIUse=3 WtCom= 9.73D-01 WtEn= 2.67D-02
 Coeff-Com: -0.206D-02-0.268D-02 0.569D-01 0.948D+00
 Coeff-En:   0.000D+00 0.000D+00 0.000D+00 0.100D+01
 Coeff:     -0.201D-02-0.261D-02 0.554D-01 0.949D+00
 Gap=     0.179 Goal=   None    Shift=    0.000
 Gap=     0.278 Goal=   None    Shift=    0.000
 RMSDP=4.27D-04 MaxDP=8.60D-03 DE=-7.89D-02 OVMax= 1.29D-02

 Cycle   5  Pass 1  IDiag  1:
 E= -118.443570290408     Delta-E=       -0.000913821770 Rises=F Damp=F
 DIIS: error= 1.04D-03 at cycle   5 NSaved=   5.
 NSaved= 5 IEnMin= 5 EnMin= -118.443570290408     IErMin= 5 ErrMin= 1.04D-03
 ErrMax= 1.04D-03  0.00D+00 EMaxC= 1.00D-01 BMatC= 3.21D-04 BMatP= 2.35D-03
 IDIUse=3 WtCom= 9.90D-01 WtEn= 1.04D-02
 Coeff-Com:  0.561D-03-0.327D-01-0.216D-01 0.210D+00 0.843D+00
 Coeff-En:   0.000D+00 0.000D+00 0.000D+00 0.000D+00 0.100D+01
 Coeff:      0.555D-03-0.323D-01-0.214D-01 0.208D+00 0.845D+00
 Gap=     0.180 Goal=   None    Shift=    0.000
 Gap=     0.279 Goal=   None    Shift=    0.000
 RMSDP=1.77D-04 MaxDP=4.53D-03 DE=-9.14D-04 OVMax= 6.34D-03

 Cycle   6  Pass 1  IDiag  1:
 E= -118.443677774563     Delta-E=       -0.000107484155 Rises=F Damp=F
 DIIS: error= 6.21D-04 at cycle   6 NSaved=   6.
 NSaved= 6 IEnMin= 6 EnMin= -118.443677774563     IErMin= 6 ErrMin= 6.21D-04
 ErrMax= 6.21D-04  0.00D+00 EMaxC= 1.00D-01 BMatC= 1.45D-04 BMatP= 3.21D-04
 IDIUse=3 WtCom= 9.94D-01 WtEn= 6.21D-03
 Coeff-Com:  0.599D-03-0.161D-01-0.207D-01-0.511D-01 0.435D+00 0.652D+00
 Coeff-En:   0.000D+00 0.000D+00 0.000D+00 0.000D+00 0.000D+00 0.100D+01
 Coeff:      0.595D-03-0.160D-01-0.206D-01-0.507D-01 0.433D+00 0.654D+00
 Gap=     0.180 Goal=   None    Shift=    0.000
 Gap=     0.279 Goal=   None    Shift=    0.000
 RMSDP=6.82D-05 MaxDP=1.30D-03 DE=-1.07D-04 OVMax= 2.91D-03

 Cycle   7  Pass 1  IDiag  1:
 E= -118.443719461534     Delta-E=       -0.000041686971 Rises=F Damp=F
 DIIS: error= 2.35D-04 at cycle   7 NSaved=   7.
 NSaved= 7 IEnMin= 7 EnMin= -118.443719461534     IErMin= 7 ErrMin= 2.35D-04
 ErrMax= 2.35D-04  0.00D+00 EMaxC= 1.00D-01 BMatC= 1.40D-05 BMatP= 1.45D-04
 IDIUse=3 WtCom= 9.98D-01 WtEn= 2.35D-03
 Coeff-Com:  0.733D-04 0.895D-03-0.295D-02-0.602D-01-0.120D-02 0.231D+00
 Coeff-Com:  0.833D+00
 Coeff-En:   0.000D+00 0.000D+00 0.000D+00 0.000D+00 0.000D+00 0.000D+00
 Coeff-En:   0.100D+01
 Coeff:      0.731D-04 0.893D-03-0.294D-02-0.600D-01-0.120D-02 0.230D+00
 Coeff:      0.833D+00
 Gap=     0.180 Goal=   None    Shift=    0.000
 Gap=     0.279 Goal=   None    Shift=    0.000
 RMSDP=3.42D-05 MaxDP=9.74D-04 DE=-4.17D-05 OVMax= 1.12D-03

 Cycle   8  Pass 1  IDiag  1:
 E= -118.443724177694     Delta-E=       -0.000004716161 Rises=F Damp=F
 DIIS: error= 9.43D-05 at cycle   8 NSaved=   8.
 NSaved= 8 IEnMin= 8 EnMin= -118.443724177694     IErMin= 8 ErrMin= 9.43D-05
 ErrMax= 9.43D-05  0.00D+00 EMaxC= 1.00D-01 BMatC= 3.11D-06 BMatP= 1.40D-05
 IDIUse=1 WtCom= 1.00D+00 WtEn= 0.00D+00
 Coeff-Com: -0.309D-04 0.182D-02 0.739D-03-0.216D-01-0.510D-01 0.284D-01
 Coeff-Com:  0.406D+00 0.636D+00
 Coeff:     -0.309D-04 0.182D-02 0.739D-03-0.216D-01-0.510D-01 0.284D-01
 Coeff:      0.406D+00 0.636D+00
 Gap=     0.180 Goal=   None    Shift=    0.000
 Gap=     0.279 Goal=   None    Shift=    0.000
 RMSDP=1.11D-05 MaxDP=2.82D-04 DE=-4.72D-06 OVMax= 4.18D-04

 Cycle   9  Pass 1  IDiag  1:
 E= -118.443725077463     Delta-E=       -0.000000899768 Rises=F Damp=F
 DIIS: error= 2.66D-05 at cycle   9 NSaved=   9.
 NSaved= 9 IEnMin= 9 EnMin= -118.443725077463     IErMin= 9 ErrMin= 2.66D-05
 ErrMax= 2.66D-05  0.00D+00 EMaxC= 1.00D-01 BMatC= 2.49D-07 BMatP= 3.11D-06
 IDIUse=1 WtCom= 1.00D+00 WtEn= 0.00D+00
 Coeff-Com: -0.240D-04 0.760D-03 0.773D-03-0.156D-02-0.211D-01-0.168D-01
 Coeff-Com:  0.538D-01 0.245D+00 0.739D+00
 Coeff:     -0.240D-04 0.760D-03 0.773D-03-0.156D-02-0.211D-01-0.168D-01
 Coeff:      0.538D-01 0.245D+00 0.739D+00
 Gap=     0.180 Goal=   None    Shift=    0.000
 Gap=     0.279 Goal=   None    Shift=    0.000
 RMSDP=3.22D-06 MaxDP=8.42D-05 DE=-9.00D-07 OVMax= 1.18D-04

 Cycle  10  Pass 1  IDiag  1:
 E= -118.443725153030     Delta-E=       -0.000000075567 Rises=F Damp=F
 DIIS: error= 6.25D-06 at cycle  10 NSaved=  10.
 NSaved=10 IEnMin=10 EnMin= -118.443725153030     IErMin=10 ErrMin= 6.25D-06
 ErrMax= 6.25D-06  0.00D+00 EMaxC= 1.00D-01 BMatC= 1.86D-08 BMatP= 2.49D-07
 IDIUse=1 WtCom= 1.00D+00 WtEn= 0.00D+00
 Coeff-Com: -0.386D-05-0.916D-05 0.140D-03 0.233D-02-0.529D-03-0.740D-02
 Coeff-Com: -0.333D-01-0.558D-02 0.205D+00 0.839D+00
 Coeff:     -0.386D-05-0.916D-05 0.140D-03 0.233D-02-0.529D-03-0.740D-02
 Coeff:     -0.333D-01-0.558D-02 0.205D+00 0.839D+00
 Gap=     0.180 Goal=   None    Shift=    0.000
 Gap=     0.279 Goal=   None    Shift=    0.000
 RMSDP=2.05D-06 MaxDP=5.90D-05 DE=-7.56D-08 OVMax= 6.23D-05

 Cycle  11  Pass 1  IDiag  1:
 E= -118.443725160019     Delta-E=       -0.000000006989 Rises=F Damp=F
 DIIS: error= 1.56D-06 at cycle  11 NSaved=  11.
 NSaved=11 IEnMin=11 EnMin= -118.443725160019     IErMin=11 ErrMin= 1.56D-06
 ErrMax= 1.56D-06  0.00D+00 EMaxC= 1.00D-01 BMatC= 1.21D-09 BMatP= 1.86D-08
 IDIUse=1 WtCom= 1.00D+00 WtEn= 0.00D+00
 Coeff-Com:  0.880D-06-0.588D-04-0.417D-04 0.478D-03 0.156D-02 0.371D-03
 Coeff-Com: -0.102D-01-0.209D-01-0.248D-01 0.183D+00 0.871D+00
 Coeff:      0.880D-06-0.588D-04-0.417D-04 0.478D-03 0.156D-02 0.371D-03
 Coeff:     -0.102D-01-0.209D-01-0.248D-01 0.183D+00 0.871D+00
 Gap=     0.180 Goal=   None    Shift=    0.000
 Gap=     0.279 Goal=   None    Shift=    0.000
 RMSDP=4.42D-07 MaxDP=1.36D-05 DE=-6.99D-09 OVMax= 1.67D-05

 Cycle  12  Pass 1  IDiag  1:
 E= -118.443725160555     Delta-E=       -0.000000000536 Rises=F Damp=F
 DIIS: error= 4.46D-07 at cycle  12 NSaved=  12.
 NSaved=12 IEnMin=12 EnMin= -118.443725160555     IErMin=12 ErrMin= 4.46D-07
 ErrMax= 4.46D-07  0.00D+00 EMaxC= 1.00D-01 BMatC= 7.86D-11 BMatP= 1.21D-09
 IDIUse=1 WtCom= 1.00D+00 WtEn= 0.00D+00
 Coeff-Com:  0.388D-06-0.967D-05-0.181D-04-0.743D-04 0.316D-03 0.541D-03
 Coeff-Com:  0.525D-03-0.343D-02-0.188D-01-0.243D-01 0.152D+00 0.893D+00
 Coeff:      0.388D-06-0.967D-05-0.181D-04-0.743D-04 0.316D-03 0.541D-03
 Coeff:      0.525D-03-0.343D-02-0.188D-01-0.243D-01 0.152D+00 0.893D+00
 Gap=     0.180 Goal=   None    Shift=    0.000
 Gap=     0.279 Goal=   None    Shift=    0.000
 RMSDP=1.61D-07 MaxDP=5.23D-06 DE=-5.36D-10 OVMax= 7.17D-06

 Cycle  13  Pass 1  IDiag  1:
 E= -118.443725160606     Delta-E=       -0.000000000051 Rises=F Damp=F
 DIIS: error= 1.44D-07 at cycle  13 NSaved=  13.
 NSaved=13 IEnMin=13 EnMin= -118.443725160606     IErMin=13 ErrMin= 1.44D-07
 ErrMax= 1.44D-07  0.00D+00 EMaxC= 1.00D-01 BMatC= 8.20D-12 BMatP= 7.86D-11
 IDIUse=1 WtCom= 1.00D+00 WtEn= 0.00D+00
 Coeff-Com: -0.448D-07 0.480D-05 0.260D-05-0.552D-04-0.136D-03 0.125D-04
 Coeff-Com:  0.104D-02 0.200D-02 0.171D-02-0.197D-01-0.866D-01 0.256D-01
 Coeff-Com:  0.108D+01
 Coeff:     -0.448D-07 0.480D-05 0.260D-05-0.552D-04-0.136D-03 0.125D-04
 Coeff:      0.104D-02 0.200D-02 0.171D-02-0.197D-01-0.866D-01 0.256D-01
 Coeff:      0.108D+01
 Gap=     0.180 Goal=   None    Shift=    0.000
 Gap=     0.279 Goal=   None    Shift=    0.000
 RMSDP=6.72D-08 MaxDP=2.18D-06 DE=-5.09D-11 OVMax= 3.25D-06

 Cycle  14  Pass 1  IDiag  1:
 E= -118.443725160614     Delta-E=       -0.000000000008 Rises=F Damp=F
 DIIS: error= 4.08D-08 at cycle  14 NSaved=  14.
 NSaved=14 IEnMin=14 EnMin= -118.443725160614     IErMin=14 ErrMin= 4.08D-08
 ErrMax= 4.08D-08  0.00D+00 EMaxC= 1.00D-01 BMatC= 9.19D-13 BMatP= 8.20D-12
 IDIUse=1 WtCom= 1.00D+00 WtEn= 0.00D+00
 Coeff-Com: -0.401D-07 0.153D-05 0.217D-05-0.170D-05-0.516D-04-0.469D-04
 Coeff-Com:  0.101D-03 0.654D-03 0.209D-02-0.557D-03-0.293D-01-0.848D-01
 Coeff-Com:  0.171D+00 0.941D+00
 Coeff:     -0.401D-07 0.153D-05 0.217D-05-0.170D-05-0.516D-04-0.469D-04
 Coeff:      0.101D-03 0.654D-03 0.209D-02-0.557D-03-0.293D-01-0.848D-01
 Coeff:      0.171D+00 0.941D+00
 Gap=     0.180 Goal=   None    Shift=    0.000
 Gap=     0.279 Goal=   None    Shift=    0.000
 RMSDP=2.11D-08 MaxDP=6.50D-07 DE=-8.44D-12 OVMax= 9.74D-07

 Cycle  15  Pass 1  IDiag  1:
 E= -118.443725160614     Delta-E=        0.000000000000 Rises=F Damp=F
 DIIS: error= 1.14D-08 at cycle  15 NSaved=  15.
 NSaved=15 IEnMin=14 EnMin= -118.443725160614     IErMin=15 ErrMin= 1.14D-08
 ErrMax= 1.14D-08  0.00D+00 EMaxC= 1.00D-01 BMatC= 6.63D-14 BMatP= 9.19D-13
 IDIUse=1 WtCom= 1.00D+00 WtEn= 0.00D+00
 Coeff-Com: -0.203D-08-0.264D-06-0.672D-07 0.488D-05 0.885D-05-0.408D-05
 Coeff-Com: -0.917D-04-0.147D-03-0.389D-04 0.186D-02 0.679D-02-0.666D-02
 Coeff-Com: -0.974D-01 0.391D-01 0.106D+01
 Coeff:     -0.203D-08-0.264D-06-0.672D-07 0.488D-05 0.885D-05-0.408D-05
 Coeff:     -0.917D-04-0.147D-03-0.389D-04 0.186D-02 0.679D-02-0.666D-02
 Coeff:     -0.974D-01 0.391D-01 0.106D+01
 Gap=     0.180 Goal=   None    Shift=    0.000
 Gap=     0.279 Goal=   None    Shift=    0.000
 RMSDP=6.28D-09 MaxDP=1.95D-07 DE= 2.84D-14 OVMax= 2.90D-07

 SCF Done:  E(UB3LYP) =  -118.443725161     A.U. after   15 cycles
            NFock= 15  Conv=0.63D-08     -V/T= 2.0056
 <Sx>= 0.0000 <Sy>= 0.0000 <Sz>= 0.5000 <S**2>= 0.7579 S= 0.5040
 <L.S>=  0.00000000000    
 KE= 1.177889593267D+02 PE=-4.256225629023D+02 EE= 1.134108411980D+02
 Annihilation of the first spin contaminant:
 S**2 before annihilation     0.7579,   after     0.7500
 Leave Link  502 at Sat Jun 26 10:47:25 2021, MaxMem=  3355443200 cpu:        80.0
 (Enter /Local/ce_dana/g09/l508.exe)
 QCSCF skips out because SCF is already converged.
 Leave Link  508 at Sat Jun 26 10:47:25 2021, MaxMem=  3355443200 cpu:         0.0
 (Enter /Local/ce_dana/g09/l801.exe)
 DoSCS=F DFT=T ScalE2(SS,OS)=  1.000000  1.000000
 Range of M.O.s used for correlation:     1    96
 NBasis=    96 NAE=    13 NBE=    12 NFC=     0 NFV=     0
 NROrb=     96 NOA=    13 NOB=    12 NVA=    83 NVB=    84
 Leave Link  801 at Sat Jun 26 10:47:25 2021, MaxMem=  3355443200 cpu:         0.0
 (Enter /Local/ce_dana/g09/l1101.exe)
 Using compressed storage, NAtomX=    10.
 Will process     11 centers per pass.
 Leave Link 1101 at Sat Jun 26 10:47:26 2021, MaxMem=  3355443200 cpu:         3.4
 (Enter /Local/ce_dana/g09/l1102.exe)
 Symmetrizing basis deriv contribution to polar:
 IMax=3 JMax=2 DiffMx= 0.00D+00
 Leave Link 1102 at Sat Jun 26 10:47:26 2021, MaxMem=  3355443200 cpu:         0.1
 (Enter /Local/ce_dana/g09/l1110.exe)
 Forming Gx(P) for the SCF density, NAtomX=    10.
 Integral derivatives from FoFJK, PRISM(SPDF).
 Do as many integral derivatives as possible in FoFJK.
 G2DrvN: MDV=    3355443016.
 G2DrvN: will do    11 centers at a time, making    1 passes.
 Calling FoFCou, ICntrl=  3107 FMM=F I1Cent=   0 AccDes= 1.00D-12.
 FoFJK:  IHMeth= 1 ICntrl=    3107 DoSepK=F KAlg= 0 I1Cent=   0 FoldK=F
 IRaf=         0 NMat=   1 IRICut=       1 DoRegI=T DoRafI=F ISym2E= 0.
 FoFCou: FMM=F IPFlag=           0 FMFlag=      100000 FMFlg1=           0
         NFxFlg=           0 DoJE=F BraDBF=F KetDBF=F FulRan=T
         wScrn=  0.000000 ICntrl=    3107 IOpCl=  1 I1Cent=           0 NGrid=           0
         NMat0=    1 NMatS0=      1 NMatT0=    0 NMatD0=    1 NMtDS0=    0 NMtDT0=    0
 Symmetry not used in FoFCou.
 End of G2Drv F.D. properties file   721 does not exist.
 End of G2Drv F.D. properties file   722 does not exist.
 End of G2Drv F.D. properties file   788 does not exist.
 Leave Link 1110 at Sat Jun 26 10:47:37 2021, MaxMem=  3355443200 cpu:       108.1
 (Enter /Local/ce_dana/g09/l1002.exe)
 Minotr:  UHF open shell wavefunction.
          IDoAtm=1111111111
          Direct CPHF calculation.
          Differentiating once with respect to nuclear coordinates.
          Requested convergence is 1.0D-08 RMS, and 1.0D-07 maximum.
          Secondary convergence is 1.0D-12 RMS, and 1.0D-12 maximum.
          NewPWx=T KeepS1=F KeepF1=F KeepIn=T MapXYZ=F SortEE=F KeepMc=T.
          MDV=    3355442904 using IRadAn=       1.
 Generate precomputed XC quadrature information.
 Keep R1 and R2 ints in memory in canonical form, NReq=22605689.
 FoFCou: FMM=F IPFlag=           0 FMFlag=           0 FMFlg1=           0
         NFxFlg=           0 DoJE=F BraDBF=F KetDBF=F FulRan=T
         wScrn=  0.000000 ICntrl=     600 IOpCl=  0 I1Cent=           0 NGrid=           0
         NMat0=    1 NMatS0=   4656 NMatT0=    0 NMatD0=    1 NMtDS0=    0 NMtDT0=    0
 Symmetry not used in FoFCou.
          Solving linear equations simultaneously, MaxMat=       0.
          There are    33 degrees of freedom in the 1st order CPHF.  IDoFFX=6 NUNeed=     0.
     27 vectors produced by pass  0 Test12= 6.32D-15 3.03D-09 XBig12= 1.61D-01 1.64D-01.
 AX will form    27 AO Fock derivatives at one time.
     27 vectors produced by pass  1 Test12= 6.32D-15 3.03D-09 XBig12= 9.06D-03 2.67D-02.
     27 vectors produced by pass  2 Test12= 6.32D-15 3.03D-09 XBig12= 1.74D-04 2.53D-03.
     27 vectors produced by pass  3 Test12= 6.32D-15 3.03D-09 XBig12= 2.56D-06 1.88D-04.
     27 vectors produced by pass  4 Test12= 6.32D-15 3.03D-09 XBig12= 1.52D-08 1.71D-05.
     27 vectors produced by pass  5 Test12= 6.32D-15 3.03D-09 XBig12= 6.98D-11 1.05D-06.
     12 vectors produced by pass  6 Test12= 6.32D-15 3.03D-09 XBig12= 1.96D-13 5.01D-08.
      1 vectors produced by pass  7 Test12= 6.32D-15 3.03D-09 XBig12= 6.78D-16 4.03D-09.
 InvSVY:  IOpt=1 It=  1 EMax= 1.78D-15
 Solved reduced A of dimension   175 with    27 vectors.
 End of Minotr F.D. properties file   721 does not exist.
 End of Minotr F.D. properties file   722 does not exist.
 End of Minotr F.D. properties file   788 does not exist.
 Leave Link 1002 at Sat Jun 26 10:47:51 2021, MaxMem=  3355443200 cpu:       132.6
 (Enter /Local/ce_dana/g09/l601.exe)
 Copying SCF densities to generalized density rwf, IOpCl= 1 IROHF=0.

 **********************************************************************

            Population analysis using the SCF density.

 **********************************************************************

 Orbital symmetries:
 Alpha Orbitals:
       Occupied  (A) (A) (A) (A) (A) (A) (A) (A) (A) (A) (A) (A)
                 (A)
       Virtual   (A) (A) (A) (A) (A) (A) (A) (A) (A) (A) (A) (A)
                 (A) (A) (A) (A) (A) (A) (A) (A) (A) (A) (A) (A)
                 (A) (A) (A) (A) (A) (A) (A) (A) (A) (A) (A) (A)
                 (A) (A) (A) (A) (A) (A) (A) (A) (A) (A) (A) (A)
                 (A) (A) (A) (A) (A) (A) (A) (A) (A) (A) (A) (A)
                 (A) (A) (A) (A) (A) (A) (A) (A) (A) (A) (A) (A)
                 (A) (A) (A) (A) (A) (A) (A) (A) (A) (A) (A)
 Beta  Orbitals:
       Occupied  (A) (A) (A) (A) (A) (A) (A) (A) (A) (A) (A) (A)
       Virtual   (A) (A) (A) (A) (A) (A) (A) (A) (A) (A) (A) (A)
                 (A) (A) (A) (A) (A) (A) (A) (A) (A) (A) (A) (A)
                 (A) (A) (A) (A) (A) (A) (A) (A) (A) (A) (A) (A)
                 (A) (A) (A) (A) (A) (A) (A) (A) (A) (A) (A) (A)
                 (A) (A) (A) (A) (A) (A) (A) (A) (A) (A) (A) (A)
                 (A) (A) (A) (A) (A) (A) (A) (A) (A) (A) (A) (A)
                 (A) (A) (A) (A) (A) (A) (A) (A) (A) (A) (A) (A)
 The electronic state is 2-A.
 Alpha  occ. eigenvalues --  -10.18223 -10.17306 -10.16717  -0.80922  -0.69682
 Alpha  occ. eigenvalues --   -0.56860  -0.47944  -0.44655  -0.41597  -0.38671
 Alpha  occ. eigenvalues --   -0.36237  -0.32198  -0.13880
 Alpha virt. eigenvalues --    0.04168   0.07615   0.07978   0.08981   0.11886
 Alpha virt. eigenvalues --    0.12634   0.13083   0.21551   0.25300   0.26817
 Alpha virt. eigenvalues --    0.30016   0.31134   0.34359   0.36642   0.40671
 Alpha virt. eigenvalues --    0.46304   0.48913   0.53385   0.55938   0.56980
 Alpha virt. eigenvalues --    0.58255   0.59352   0.59821   0.64452   0.66727
 Alpha virt. eigenvalues --    0.71506   0.76375   0.84600   0.96043   1.10178
 Alpha virt. eigenvalues --    1.18553   1.22883   1.33967   1.36162   1.40621
 Alpha virt. eigenvalues --    1.41514   1.42736   1.45703   1.49350   1.50432
 Alpha virt. eigenvalues --    1.53328   1.59464   1.61094   1.69070   1.71091
 Alpha virt. eigenvalues --    1.73365   1.77011   1.88215   1.93352   1.98550
 Alpha virt. eigenvalues --    1.98962   2.05018   2.07493   2.12141   2.15498
 Alpha virt. eigenvalues --    2.18445   2.26164   2.35210   2.40141   2.42189
 Alpha virt. eigenvalues --    2.46027   2.46562   2.49604   2.51501   2.54216
 Alpha virt. eigenvalues --    2.56455   2.65560   2.67326   2.72774   2.80671
 Alpha virt. eigenvalues --    2.87806   2.94425   3.10489   3.20916   3.65124
 Alpha virt. eigenvalues --    3.71177   3.77784   3.81901   4.03679   4.39912
 Alpha virt. eigenvalues --   23.79537  23.84652  23.91790
  Beta  occ. eigenvalues --  -10.17390 -10.16749 -10.16492  -0.79225  -0.68865
  Beta  occ. eigenvalues --   -0.55048  -0.46838  -0.43652  -0.40884  -0.38207
  Beta  occ. eigenvalues --   -0.35737  -0.30029
  Beta virt. eigenvalues --   -0.02140   0.04603   0.07854   0.08430   0.09720
  Beta virt. eigenvalues --    0.12088   0.13057   0.13294   0.22186   0.25747
  Beta virt. eigenvalues --    0.27222   0.30256   0.31443   0.34945   0.37480
  Beta virt. eigenvalues --    0.41882   0.48950   0.51230   0.54565   0.56670
  Beta virt. eigenvalues --    0.57419   0.58480   0.59918   0.60331   0.65074
  Beta virt. eigenvalues --    0.67635   0.72603   0.77943   0.85131   0.97119
  Beta virt. eigenvalues --    1.11147   1.18975   1.24122   1.34702   1.37167
  Beta virt. eigenvalues --    1.40906   1.42275   1.43202   1.45970   1.50040
  Beta virt. eigenvalues --    1.52503   1.53690   1.59893   1.61641   1.69546
  Beta virt. eigenvalues --    1.71487   1.73653   1.78522   1.89266   1.94285
  Beta virt. eigenvalues --    1.99225   2.00006   2.05379   2.09256   2.12954
  Beta virt. eigenvalues --    2.16395   2.19456   2.26499   2.35685   2.41252
  Beta virt. eigenvalues --    2.42401   2.46386   2.46961   2.50079   2.51849
  Beta virt. eigenvalues --    2.54558   2.56810   2.66024   2.68101   2.74644
  Beta virt. eigenvalues --    2.81055   2.88434   2.94737   3.13550   3.21400
  Beta virt. eigenvalues --    3.65987   3.72249   3.78113   3.82102   4.04639
  Beta virt. eigenvalues --    4.40933  23.80454  23.85464  23.91889
          Condensed to atoms (all electrons):
               1          2          3          4          5          6
     1  C    4.796491   0.360458  -0.049410  -0.027435   0.406843   0.388845
     2  C    0.360458   5.422375   0.097318   0.389366  -0.046741  -0.048265
     3  C   -0.049410   0.097318   5.401401  -0.027106   0.003975  -0.004482
     4  H   -0.027435   0.389366  -0.027106   0.555516   0.007710  -0.004308
     5  H    0.406843  -0.046741   0.003975   0.007710   0.602722  -0.042309
     6  H    0.388845  -0.048265  -0.004482  -0.004308  -0.042309   0.625026
     7  H   -0.011924   0.167004   0.112447  -0.005511  -0.005585   0.005769
     8  H    0.404710  -0.034007   0.007484  -0.006297  -0.029132  -0.031391
     9  H   -0.006021  -0.031694   0.397350   0.005064   0.001795   0.002397
    10  H    0.004739  -0.024988   0.392838  -0.008445  -0.000299   0.000458
               7          8          9         10
     1  C   -0.011924   0.404710  -0.006021   0.004739
     2  C    0.167004  -0.034007  -0.031694  -0.024988
     3  C    0.112447   0.007484   0.397350   0.392838
     4  H   -0.005511  -0.006297   0.005064  -0.008445
     5  H   -0.005585  -0.029132   0.001795  -0.000299
     6  H    0.005769  -0.031391   0.002397   0.000458
     7  H    0.582408  -0.005313  -0.001403   0.000464
     8  H   -0.005313   0.583190  -0.000050  -0.000331
     9  H   -0.001403  -0.000050   0.538777  -0.027763
    10  H    0.000464  -0.000331  -0.027763   0.538454
          Atomic-Atomic Spin Densities.
               1          2          3          4          5          6
     1  C   -0.024566  -0.024965   0.010792   0.005613   0.007794  -0.010427
     2  C   -0.024965   0.907593  -0.346485  -0.017951  -0.016367  -0.020018
     3  C    0.010792  -0.346485   0.916621   0.011152   0.008413   0.003157
     4  H    0.005613  -0.017951   0.011152  -0.008373   0.001332  -0.004950
     5  H    0.007794  -0.016367   0.008413   0.001332   0.028860  -0.017531
     6  H   -0.010427  -0.020018   0.003157  -0.004950  -0.017531   0.092627
     7  H   -0.003798   0.043672  -0.000372  -0.002499  -0.001162   0.000313
     8  H    0.004352  -0.002873  -0.000208   0.000572   0.000967  -0.001693
     9  H    0.000016   0.005385  -0.010221  -0.001299  -0.002166   0.002052
    10  H   -0.000922   0.005969  -0.011917  -0.001484  -0.000357   0.000735
               7          8          9         10
     1  C   -0.003798   0.004352   0.000016  -0.000922
     2  C    0.043672  -0.002873   0.005385   0.005969
     3  C   -0.000372  -0.000208  -0.010221  -0.011917
     4  H   -0.002499   0.000572  -0.001299  -0.001484
     5  H   -0.001162   0.000967  -0.002166  -0.000357
     6  H    0.000313  -0.001693   0.002052   0.000735
     7  H   -0.113555   0.001037   0.000314  -0.000022
     8  H    0.001037  -0.000640  -0.000019   0.000013
     9  H    0.000314  -0.000019  -0.019903   0.004467
    10  H   -0.000022   0.000013   0.004467  -0.015491
 Mulliken charges and spin densities:
               1          2
     1  C   -0.267294  -0.036111
     2  C   -0.250826   0.533960
     3  C   -0.331813   0.580933
     4  H    0.121447  -0.017886
     5  H    0.101022   0.009782
     6  H    0.108261   0.044264
     7  H    0.161642  -0.076071
     8  H    0.111138   0.001509
     9  H    0.121549  -0.021373
    10  H    0.124873  -0.019008
 Sum of Mulliken charges =  -0.00000   1.00000
 Mulliken charges and spin densities with hydrogens summed into heavy atoms:
               1          2
     1  C    0.053127   0.019445
     2  C    0.032264   0.440003
     3  C   -0.085391   0.540552
 APT charges:
               1
     1  C   -0.995781
     2  C   -0.473790
     3  C   -0.864937
     4  H    0.362765
     5  H    0.291028
     6  H    0.309196
     7  H    0.204655
     8  H    0.402039
     9  H    0.313018
    10  H    0.451808
 Sum of APT charges =  -0.00000
 APT charges with hydrogens summed into heavy atoms:
               1
     1  C    0.006482
     2  C    0.093629
     3  C   -0.100111
 Electronic spatial extent (au):  <R**2>=            215.8022
 Charge=             -0.0000 electrons
 Dipole moment (field-independent basis, Debye):
    X=             -0.1498    Y=              0.1059    Z=              0.0649  Tot=              0.1945
 Quadrupole moment (field-independent basis, Debye-Ang):
   XX=            -21.5773   YY=            -20.5908   ZZ=            -22.3553
   XY=              0.4000   XZ=             -0.2820   YZ=             -0.4139
 Traceless Quadrupole moment (field-independent basis, Debye-Ang):
   XX=             -0.0695   YY=              0.9170   ZZ=             -0.8475
   XY=              0.4000   XZ=             -0.2820   YZ=             -0.4139
 Octapole moment (field-independent basis, Debye-Ang**2):
  XXX=             -0.7410  YYY=             -0.1124  ZZZ=             -0.2064  XYY=              0.3122
  XXY=              1.8059  XXZ=             -1.4287  XZZ=             -1.2232  YZZ=             -0.0763
  YYZ=             -0.5316  XYZ=              0.0681
 Hexadecapole moment (field-independent basis, Debye-Ang**3):
 XXXX=           -204.9585 YYYY=            -59.0507 ZZZZ=            -39.1717 XXXY=              1.1983
 XXXZ=             -6.2999 YYYX=             -0.9136 YYYZ=             -2.2951 ZZZX=              0.7733
 ZZZY=             -0.2321 XXYY=            -44.2308 XXZZ=            -42.8580 YYZZ=            -17.8966
 XXYZ=              0.3407 YYXZ=             -0.8899 ZZXY=              1.3826
 N-N= 7.597903721693D+01 E-N=-4.256225628254D+02  KE= 1.177889593267D+02
  Exact polarizability:   0.000   0.000   0.000   0.000   0.000   0.000
 Approx polarizability:  58.080  -4.610  48.752   1.034   1.154  44.724
                          Isotropic Fermi Contact Couplings
        Atom                 a.u.       MegaHertz       Gauss      10(-4) cm-1
     1  C(13)             -0.00460      -5.17409      -1.84624      -1.72589
     2  C(13)              0.06999      78.68680      28.07740      26.24709
     3  C(13)              0.06745      75.82944      27.05783      25.29398
     4  H(1)              -0.00371     -16.56391      -5.91042      -5.52513
     5  H(1)               0.00492      21.98092       7.84334       7.33204
     6  H(1)               0.01592      71.14233      25.38535      23.73053
     7  H(1)              -0.03004    -134.26182     -47.90795     -44.78492
     8  H(1)               0.00136       6.07261       2.16686       2.02560
     9  H(1)              -0.00539     -24.08927      -8.59565      -8.03532
    10  H(1)              -0.00413     -18.44986      -6.58337      -6.15421
 --------------------------------------------------------
       Center         ----  Spin Dipole Couplings  ----
                      3XX-RR        3YY-RR        3ZZ-RR
 --------------------------------------------------------
     1   Atom        0.017625     -0.001653     -0.015971
     2   Atom       -0.329554     -0.324784      0.654338
     3   Atom       -0.315659     -0.308210      0.623869
     4   Atom       -0.039603      0.039118      0.000485
     5   Atom        0.003929      0.002313     -0.006242
     6   Atom        0.006166     -0.003187     -0.002979
     7   Atom        0.051980     -0.037694     -0.014285
     8   Atom        0.013458     -0.007721     -0.005737
     9   Atom       -0.040614      0.043365     -0.002751
    10   Atom        0.019197     -0.021886      0.002689
 --------------------------------------------------------
                        XY            XZ            YZ
 --------------------------------------------------------
     1   Atom        0.014764      0.003277      0.002529
     2   Atom        0.006016      0.086463      0.122397
     3   Atom        0.012950      0.109493      0.149704
     4   Atom        0.003314      0.003401     -0.016535
     5   Atom        0.009668     -0.002896     -0.002000
     6   Atom        0.005619      0.004795      0.002426
     7   Atom       -0.081259      0.006982      0.014461
     8   Atom        0.001038     -0.001328      0.000219
     9   Atom        0.003208      0.002934      0.003008
    10   Atom        0.033151     -0.016513     -0.003397
 --------------------------------------------------------


 ---------------------------------------------------------------------------------
              Anisotropic Spin Dipole Couplings in Principal Axis System
 ---------------------------------------------------------------------------------

       Atom             a.u.   MegaHertz   Gauss  10(-4) cm-1        Axes

              Baa    -0.0164    -2.205    -0.787    -0.736 -0.0385 -0.1310  0.9906
     1 C(13)  Bbb    -0.0096    -1.286    -0.459    -0.429 -0.4837  0.8699  0.0962
              Bcc     0.0260     3.491     1.246     1.164  0.8744  0.4754  0.0969
 
              Baa    -0.3432   -46.057   -16.434   -15.363  0.5904  0.7933 -0.1485
     2 C(13)  Bbb    -0.3336   -44.770   -15.975   -14.934  0.8025 -0.5966  0.0037
              Bcc     0.6769    90.827    32.409    30.297  0.0857  0.1214  0.9889
 
              Baa    -0.3344   -44.870   -16.011   -14.967  0.5461  0.8159 -0.1899
     3 C(13)  Bbb    -0.3254   -43.664   -15.580   -14.565  0.8302 -0.5575 -0.0078
              Bcc     0.6598    88.535    31.591    29.532  0.1122  0.1533  0.9818
 
              Baa    -0.0402   -21.444    -7.652    -7.153  0.9920 -0.0642 -0.1090
     4 H(1)   Bbb    -0.0051    -2.711    -0.967    -0.904  0.1244  0.3395  0.9324
              Bcc     0.0453    24.155     8.619     8.057  0.0228  0.9384 -0.3447
 
              Baa    -0.0072    -3.853    -1.375    -1.285  0.5077 -0.3496  0.7874
     5 H(1)   Bbb    -0.0062    -3.318    -1.184    -1.107 -0.4614  0.6615  0.5912
              Bcc     0.0134     7.171     2.559     2.392  0.7276  0.6635 -0.1745
 
              Baa    -0.0058    -3.121    -1.114    -1.041 -0.3587  0.9168 -0.1756
     6 H(1)   Bbb    -0.0050    -2.685    -0.958    -0.895 -0.4013  0.0184  0.9157
              Bcc     0.0109     5.806     2.072     1.937  0.8428  0.3989  0.3614
 
              Baa    -0.0891   -47.534   -16.961   -15.856  0.4958  0.8428 -0.2092
     7 H(1)   Bbb    -0.0109    -5.804    -2.071    -1.936  0.1165  0.1742  0.9778
              Bcc     0.1000    53.338    19.032    17.792  0.8606 -0.5092 -0.0119
 
              Baa    -0.0078    -4.168    -1.487    -1.390 -0.0571  0.9884 -0.1410
     8 H(1)   Bbb    -0.0058    -3.087    -1.102    -1.030  0.0604  0.1444  0.9877
              Bcc     0.0136     7.255     2.589     2.420  0.9965  0.0478 -0.0679
 
              Baa    -0.0409   -21.846    -7.795    -7.287  0.9967 -0.0353 -0.0738
     9 H(1)   Bbb    -0.0028    -1.469    -0.524    -0.490  0.0712 -0.0698  0.9950
              Bcc     0.0437    23.315     8.319     7.777  0.0403  0.9969  0.0671
 
              Baa    -0.0410   -21.864    -7.802    -7.293 -0.5047  0.8543 -0.1244
    10 H(1)   Bbb    -0.0030    -1.593    -0.568    -0.531  0.2581  0.2868  0.9226
              Bcc     0.0440    23.458     8.370     7.825  0.8238  0.4336 -0.3652
 

 ---------------------------------------------------------------------------------

 No NMR shielding tensors so no spin-rotation constants.
 Leave Link  601 at Sat Jun 26 10:47:51 2021, MaxMem=  3355443200 cpu:         2.2
 (Enter /Local/ce_dana/g09/l701.exe)
 Compute integral second derivatives.
 ... and contract with generalized density number  0.
 Leave Link  701 at Sat Jun 26 10:47:52 2021, MaxMem=  3355443200 cpu:         4.1
 (Enter /Local/ce_dana/g09/l702.exe)
 L702 exits ... SP integral derivatives will be done elsewhere.
 Leave Link  702 at Sat Jun 26 10:47:52 2021, MaxMem=  3355443200 cpu:         0.1
 (Enter /Local/ce_dana/g09/l703.exe)
 Compute integral second derivatives, UseDBF=F ICtDFT=           0.
 Integral derivatives from FoFJK, PRISM(SPDF).
 Calling FoFJK, ICntrl=    100147 FMM=F ISym2X=0 I1Cent= 0 IOpClX= 1 NMat=1 NMatS=1 NMatT=0.
 FoFJK:  IHMeth= 1 ICntrl=  100147 DoSepK=F KAlg= 0 I1Cent=   0 FoldK=F
 IRaf=         0 NMat=   1 IRICut=       1 DoRegI=T DoRafI=F ISym2E= 0.
 FoFCou: FMM=F IPFlag=           0 FMFlag=      100000 FMFlg1=         800
         NFxFlg=           0 DoJE=F BraDBF=F KetDBF=F FulRan=T
         wScrn=  0.000000 ICntrl=  100147 IOpCl=  1 I1Cent=           0 NGrid=           0
         NMat0=    1 NMatS0=      1 NMatT0=    0 NMatD0=    1 NMtDS0=    0 NMtDT0=    0
 Symmetry not used in FoFCou.
 Leave Link  703 at Sat Jun 26 10:48:02 2021, MaxMem=  3355443200 cpu:       100.8
 (Enter /Local/ce_dana/g09/l716.exe)
 Dipole        =-5.89199783D-02 4.16536558D-02 2.55294946D-02
 Polarizability= 0.00000000D+00 0.00000000D+00 0.00000000D+00
                 0.00000000D+00 0.00000000D+00 0.00000000D+00
 ***** Axes restored to original set *****
 -------------------------------------------------------------------
 Center     Atomic                   Forces (Hartrees/Bohr)
 Number     Number              X              Y              Z
 -------------------------------------------------------------------
      1        6           0.002659136    0.001176098   -0.003308475
      2        6          -0.001851942   -0.006594574    0.000142651
      3        6          -0.004570691    0.005653182    0.003587647
      4        1           0.002772249    0.005494839    0.000158609
      5        1          -0.002682657   -0.003305408   -0.001165511
      6        1           0.002416316   -0.000932021    0.002041354
      7        1          -0.000294946   -0.000226429   -0.000583547
      8        1          -0.002160091    0.003279766    0.001719203
      9        1          -0.001281091   -0.006412020    0.001083987
     10        1           0.004993718    0.001866567   -0.003675919
 -------------------------------------------------------------------
 Cartesian Forces:  Max     0.006594574 RMS     0.003188728
 Force constants in Cartesian coordinates: 
                1             2             3             4             5 
      1  0.509479D+00
      2 -0.691667D-02  0.531507D+00
      3 -0.153328D-02  0.346525D-01  0.478150D+00
      4 -0.100961D+00 -0.344539D-01  0.684043D-01  0.267090D+00
      5 -0.254830D-01 -0.968105D-01  0.343030D-01  0.103016D+00  0.543165D+00
      6  0.595920D-01  0.297848D-01 -0.164228D+00 -0.188359D+00  0.376392D-01
      7 -0.597284D-02  0.168822D-01  0.258644D-02  0.389623D-02  0.490562D-01
      8 -0.106111D-01  0.677143D-02  0.399331D-02 -0.177373D-02 -0.171804D+00
      9  0.105778D-01 -0.196343D-01 -0.150317D-01  0.923776D-01 -0.901414D-01
     10 -0.404705D-02 -0.857371D-02 -0.263180D-02 -0.886086D-01 -0.116183D+00
     11 -0.277310D-02 -0.419716D-02 -0.219478D-02 -0.109974D+00 -0.258217D+00
     12  0.131645D-01  0.220697D-01  0.425969D-02  0.372101D-02 -0.427929D-02
     13 -0.140501D+00 -0.112581D+00 -0.312532D-01 -0.752563D-02 -0.108401D-01
     14 -0.111562D+00 -0.181724D+00 -0.411464D-01 -0.535682D-02 -0.109018D-01
     15 -0.318076D-01 -0.417647D-01 -0.586444D-01  0.179981D-01  0.234437D-01
     16 -0.149524D+00  0.506993D-01 -0.974149D-01  0.144359D-01 -0.415091D-02
     17  0.544456D-01 -0.713179D-01  0.481214D-01  0.522292D-02 -0.570195D-02
     18 -0.104078D+00  0.480886D-01 -0.142717D+00 -0.137604D-01  0.134589D-01
     19  0.528500D-02 -0.206082D-02  0.841728D-02 -0.732890D-01 -0.187912D-01
     20  0.858762D-02  0.155582D-02 -0.104234D-02  0.385981D-01  0.909803D-03
     21 -0.271103D-02  0.721930D-02 -0.124645D-01  0.512969D-02  0.169268D-01
     22 -0.116384D+00  0.948724D-01  0.551908D-01 -0.770107D-02  0.112724D-01
     23  0.956911D-01 -0.183827D+00 -0.778354D-01 -0.714749D-02  0.104582D-01
     24  0.543501D-01 -0.759949D-01 -0.904630D-01  0.120159D-01 -0.211954D-01
     25  0.164357D-02  0.942921D-03  0.814897D-03 -0.465371D-02  0.732344D-02
     26 -0.189848D-02  0.100475D-02  0.681444D-03 -0.332002D-02 -0.142994D-01
     27 -0.107330D-02  0.140853D-03  0.215537D-02 -0.986504D-02 -0.230313D-01
     28  0.981328D-03  0.118892D-02 -0.258043D-02 -0.268321D-02  0.477983D-02
     29  0.520315D-03 -0.296279D-02  0.467229D-03  0.151885D-01  0.320166D-02
     30  0.351908D-02 -0.456175D-02 -0.101598D-02  0.123377D-01  0.128758D-01
                6             7             8             9            10 
      6  0.344175D+00
      7  0.192614D+00  0.264241D+00
      8 -0.166017D+00  0.121115D+00  0.537187D+00
      9 -0.109868D+00 -0.251502D+00  0.331955D-01  0.346713D+00
     10  0.139845D-01  0.781219D-02  0.162351D-01 -0.399664D-02  0.877520D-01
     11 -0.736443D-02 -0.742254D-02 -0.170292D-01  0.185836D-02  0.118145D+00
     12 -0.476983D-01 -0.500725D-02 -0.163322D-01 -0.391782D-02 -0.128740D-01
     13 -0.651236D-03 -0.112753D-02  0.102590D-03 -0.560505D-03 -0.897827D-03
     14  0.212190D-02 -0.482936D-03  0.160910D-02 -0.602065D-04 -0.155213D-02
     15  0.506828D-02 -0.103727D-02  0.754733D-03  0.134026D-02  0.310323D-02
     16  0.107963D-01  0.109981D-03 -0.380206D-03 -0.187302D-02  0.844421D-05
     17  0.120911D-01 -0.212166D-02  0.337599D-02  0.153773D-02 -0.406943D-03
     18 -0.269513D-01  0.141133D-02 -0.412678D-02  0.609577D-03  0.533411D-03
     19 -0.965499D-01 -0.309678D-01  0.252486D-02 -0.575571D-02 -0.338837D-02
     20  0.982927D-01 -0.578552D-01  0.175531D-01 -0.589772D-02 -0.103764D-01
     21  0.229320D-01 -0.111126D+00  0.736670D-01 -0.397503D-01  0.668988D-03
     22  0.667506D-02 -0.645488D-03 -0.263159D-02  0.799102D-03  0.129588D-03
     23  0.544710D-02 -0.644474D-03 -0.350413D-03  0.147079D-02  0.263866D-03
     24 -0.151284D-01  0.450494D-02  0.318913D-02 -0.232884D-02 -0.491762D-03
     25  0.165298D-02 -0.472449D-01 -0.591156D-01  0.196467D-01 -0.271828D-03
     26  0.147369D-02 -0.601911D-01 -0.304445D+00  0.310061D-01  0.329569D-02
     27  0.435165D-02  0.302001D-01  0.345241D-01 -0.429513D-01  0.257713D-02
     28  0.245032D-03 -0.190101D+00 -0.654650D-01  0.140286D+00  0.151146D-02
     29 -0.134693D-01 -0.583351D-01 -0.728679D-01  0.466653D-01 -0.847619D-03
     30 -0.126532D-01  0.137355D+00  0.371519D-01 -0.134815D+00 -0.873045D-03
               11            12            13            14            15 
     11  0.274728D+00
     12  0.789853D-02  0.482991D-01
     13  0.849137D-04  0.192104D-02  0.151609D+00
     14  0.916040D-03  0.158194D-02  0.126576D+00  0.198906D+00
     15  0.118795D-02 -0.395927D-02  0.340650D-01  0.415619D-01  0.649957D-01
     16  0.148090D-03 -0.613084D-03 -0.146649D-01  0.669450D-02 -0.129890D-01
     17 -0.859040D-04 -0.325100D-03 -0.161660D-01  0.845326D-02 -0.161170D-01
     18  0.239897D-04  0.591987D-03 -0.582898D-02  0.185861D-02 -0.535408D-02
     19  0.145921D-02 -0.133198D-02  0.133555D-02  0.616105D-03 -0.348102D-04
     20  0.288170D-02 -0.884533D-02 -0.111427D-02 -0.130759D-02  0.217958D-03
     21  0.138083D-02  0.304761D-02 -0.966223D-03 -0.137307D-02  0.103014D-03
     22 -0.116914D-03 -0.414358D-03  0.119864D-01 -0.146641D-01 -0.901076D-02
     23  0.587804D-03 -0.697350D-03  0.128131D-01 -0.167672D-01 -0.883055D-02
     24  0.450976D-03  0.924769D-03  0.313212D-02 -0.459202D-02 -0.373957D-02
     25 -0.327918D-03  0.151774D-03 -0.232725D-03  0.313146D-04  0.101064D-03
     26 -0.688191D-03 -0.506038D-03  0.687499D-03  0.557816D-03 -0.432517D-03
     27 -0.393455D-02 -0.270489D-02  0.352673D-03  0.135640D-03  0.137341D-03
     28  0.777080D-03  0.128231D-02  0.181810D-04 -0.299159D-03 -0.388073D-03
     29  0.110411D-02 -0.564947D-03  0.437423D-03  0.257619D-03 -0.213774D-04
     30  0.693130D-03  0.115717D-02 -0.210696D-03 -0.882688D-04  0.526969D-04
               16            17            18            19            20 
     16  0.161514D+00
     17 -0.569509D-01  0.750856D-01
     18  0.111186D+00 -0.586427D-01  0.162220D+00
     19 -0.169311D-03  0.388106D-03  0.977808D-03  0.996799D-01
     20 -0.942828D-03 -0.208226D-02  0.412052D-02  0.186433D-01 -0.200794D-01
     21  0.190091D-02 -0.218832D-02  0.169924D-02  0.981126D-01 -0.917923D-01
     22 -0.118005D-01  0.163916D-01  0.881783D-02  0.539697D-03 -0.623108D-04
     23  0.478250D-02 -0.815680D-02 -0.383906D-02 -0.611832D-04  0.232751D-03
     24 -0.103807D-01  0.157727D-01  0.964575D-02 -0.350688D-04 -0.405224D-03
     25  0.244843D-03 -0.566322D-03  0.503211D-03  0.571400D-02  0.930899D-02
     26  0.224097D-03  0.247921D-03 -0.701253D-03 -0.316735D-02 -0.184445D-02
     27 -0.285206D-03 -0.143223D-03 -0.832482D-04  0.213633D-02  0.769733D-02
     28 -0.154822D-03 -0.236267D-03  0.237937D-03 -0.473973D-02 -0.478702D-02
     29 -0.123585D-03  0.182091D-03 -0.240819D-03  0.448923D-03  0.218059D-02
     30 -0.327402D-03 -0.106589D-03  0.338929D-03 -0.593649D-02 -0.234563D-02
               21            22            23            24            25 
     21  0.186243D-01
     22  0.538145D-03  0.123768D+00
     23  0.282274D-04 -0.105559D+00  0.197179D+00
     24  0.950490D-03 -0.631292D-01  0.834734D-01  0.101335D+00
     25  0.350434D-03 -0.122753D-03 -0.106740D-03 -0.196623D-03  0.454178D-01
     26 -0.382357D-03  0.382785D-04  0.284290D-03  0.165430D-03  0.627396D-01
     27 -0.110524D-02 -0.141903D-03  0.297690D-03  0.225205D-03 -0.236427D-01
     28  0.810259D-02  0.229947D-03 -0.317964D-04  0.230351D-03 -0.494327D-03
     29 -0.348607D-02  0.459142D-03  0.359395D-03 -0.864059D-03 -0.202297D-01
     30  0.596332D-02  0.675328D-03  0.485174D-03 -0.142152D-02  0.618299D-03
               26            27            28            29            30 
     26  0.320675D+00
     27 -0.301134D-01  0.409407D-01
     28  0.159177D-02 -0.258015D-03  0.195432D+00
     29 -0.149264D-02  0.144268D-01  0.624817D-01  0.700378D-01
     30 -0.119103D-02 -0.965573D-03 -0.147158D+00 -0.429128D-01  0.143359D+00
 FormGI is forming the generalized inverse of G from B-inverse, IUseBI=4.
 Force constants in internal coordinates: 
                1             2             3             4             5 
      1  0.303143D+00
      2  0.749905D-02  0.315544D+00
      3  0.140736D-01  0.426819D-02  0.302395D+00
      4  0.642803D-02  0.279387D-02  0.388610D-02  0.321846D+00
      5  0.534349D-02  0.232742D-02  0.508785D-02 -0.610859D-03  0.314434D+00
      6  0.399684D-02 -0.416273D-03  0.353201D-03  0.575993D-03  0.524941D-02
      7  0.557023D-02 -0.116235D-02 -0.346389D-02  0.139168D-04  0.567601D-01
      8  0.696168D-03  0.675729D-03  0.233685D-03 -0.184107D-03  0.427207D-02
      9 -0.957202D-03 -0.140610D-04 -0.579649D-05  0.251462D-03  0.388455D-02
     10  0.164860D-01  0.220981D-02 -0.570135D-02 -0.531875D-02 -0.331704D-02
     11  0.146873D-01 -0.639536D-02 -0.502079D-03 -0.593297D-02  0.180826D-02
     12  0.166956D-01 -0.553095D-02 -0.535546D-02  0.876255D-03  0.451197D-02
     13 -0.176379D-01  0.527035D-02  0.665872D-02  0.285325D-03 -0.783879D-03
     14 -0.166090D-01  0.470162D-02  0.292156D-04  0.509432D-02 -0.424461D-03
     15 -0.170385D-01  0.501378D-03  0.576417D-02  0.559380D-02 -0.206730D-02
     16  0.112627D-01 -0.335839D-02 -0.243698D-02  0.349992D-02  0.175408D-01
     17  0.564610D-02  0.313563D-02  0.899606D-03 -0.156735D-02 -0.224814D-01
     18  0.586882D-02 -0.208088D-02 -0.729764D-03  0.680651D-03  0.175563D-01
     19 -0.153711D-01 -0.198070D-03  0.103750D-02 -0.172497D-02  0.892239D-02
     20 -0.744002D-02  0.255776D-02  0.232483D-02 -0.329604D-03 -0.282891D-01
     21 -0.771822D-02 -0.856512D-03 -0.487525D-03  0.113610D-03  0.863602D-02
     22 -0.340441D-02  0.479999D-03  0.638905D-03 -0.983141D-03  0.103727D-01
     23  0.324742D-02  0.100678D-03 -0.806905D-04  0.113155D-02  0.104766D-01
     24  0.384267D-03 -0.597139D-03 -0.624645D-03 -0.971599D-04 -0.210967D-01
     25 -0.237469D-02  0.535712D-03  0.480903D-02 -0.292500D-02 -0.114398D-01
     26 -0.190882D-02 -0.613025D-03  0.372706D-02 -0.279757D-02  0.118850D-02
     27  0.722981D-03 -0.664418D-03  0.306400D-02 -0.389213D-02  0.101258D-01
     28 -0.675796D-03 -0.334163D-02  0.507638D-03  0.411344D-02 -0.946297D-02
     29 -0.209926D-03 -0.449037D-02 -0.574324D-03  0.424087D-02  0.316534D-02
     30  0.242187D-02 -0.454176D-02 -0.123739D-02  0.314630D-02  0.121026D-01
     31 -0.605572D-03  0.427863D-02 -0.282878D-02  0.488535D-03 -0.111840D-01
     32 -0.139702D-03  0.312989D-02 -0.391074D-02  0.615968D-03  0.144430D-02
     33  0.249209D-02  0.307850D-02 -0.457381D-02 -0.478598D-03  0.103816D-01
     34  0.326095D-02 -0.266145D-03 -0.562446D-03  0.492058D-03  0.364712D-02
     35  0.409271D-02 -0.434184D-03 -0.904191D-03  0.643967D-03 -0.117867D-02
     36 -0.183600D-02  0.602837D-04  0.497809D-03  0.372461D-03 -0.135780D-02
     37 -0.100424D-02 -0.107755D-03  0.156063D-03  0.524370D-03 -0.618359D-02
     38  0.137706D-02  0.138571D-04  0.845532D-03 -0.721509D-03  0.444061D-02
     39  0.220883D-02 -0.154181D-03  0.503786D-03 -0.569600D-03 -0.385177D-03
                6             7             8             9            10 
      6  0.331866D+00
      7 -0.924233D-03  0.817479D-01
      8 -0.101991D-02 -0.121720D-02  0.338257D+00
      9  0.104468D-02 -0.115943D-02  0.254042D-03  0.339887D+00
     10  0.363265D-02 -0.120235D-03  0.678202D-03 -0.723911D-03  0.101916D+00
     11 -0.394128D-03 -0.116685D-02  0.774588D-03 -0.301560D-03 -0.179356D-01
     12 -0.102786D-02 -0.291297D-03 -0.214849D-03  0.129990D-02 -0.207349D-01
     13 -0.139800D-02  0.102225D-02 -0.607668D-03  0.196222D-03 -0.403081D-01
     14 -0.109299D-02 -0.897167D-04 -0.368677D-03 -0.740736D-04 -0.403254D-01
     15  0.145589D-03  0.760976D-03 -0.340370D-03 -0.433646D-03  0.133727D-01
     16 -0.655261D-02 -0.475755D-01 -0.380745D-02  0.369609D-02 -0.795903D-02
     17  0.358160D-02  0.236200D-01  0.760567D-04 -0.739692D-03  0.105318D-01
     18 -0.335147D-02 -0.587357D-01  0.568030D-03 -0.941397D-04 -0.455920D-02
     19  0.340508D-02  0.814327D-02  0.380632D-02 -0.257155D-02 -0.268698D-02
     20  0.534805D-03  0.122320D+00 -0.427624D-03 -0.129825D-02  0.196918D-02
     21  0.213521D-03 -0.884393D-02 -0.318980D-03  0.681095D-03 -0.321754D-02
     22  0.283589D-02 -0.917050D-03  0.390837D-02 -0.835738D-02  0.459778D-03
     23 -0.202187D-02  0.115950D-04 -0.899884D-02  0.287376D-02 -0.478520D-03
     24 -0.596706D-03  0.238948D-02  0.563324D-02  0.605137D-02  0.156259D-04
     25 -0.154125D-02  0.496988D-01 -0.794048D-03 -0.486269D-03 -0.112979D-02
     26  0.472709D-03  0.948845D-02  0.324334D-03 -0.807330D-04 -0.199357D-02
     27  0.119449D-02 -0.592077D-01  0.683267D-03 -0.414689D-04  0.800222D-03
     28 -0.191024D-02  0.492590D-01 -0.984593D-03 -0.590986D-04 -0.559108D-02
     29  0.103721D-03  0.904867D-02  0.133790D-03  0.346437D-03 -0.645486D-02
     30  0.825502D-03 -0.596475D-01  0.492723D-03  0.385701D-03 -0.366107D-02
     31 -0.111446D-02  0.492990D-01 -0.940921D-03 -0.189132D-03  0.407001D-02
     32  0.899507D-03  0.908865D-02  0.177461D-03  0.216403D-03  0.320623D-02
     33  0.162129D-02 -0.596075D-01  0.536394D-03  0.255667D-03  0.600002D-02
     34 -0.249812D-03 -0.152895D-01 -0.248972D-02 -0.102611D-03  0.104665D-02
     35  0.379276D-03 -0.982006D-02  0.429583D-03  0.294563D-02  0.104041D-02
     36 -0.233420D-02  0.199361D-01 -0.277982D-02 -0.871885D-03 -0.120369D-02
     37 -0.170511D-02  0.254055D-01  0.139486D-03  0.217635D-02 -0.120993D-02
     38 -0.688662D-03 -0.123436D-01  0.181223D-03 -0.283620D-02  0.446546D-03
     39 -0.595733D-04 -0.687420D-02  0.310053D-02  0.212039D-03  0.440309D-03
               11            12            13            14            15 
     11  0.986792D-01
     12 -0.203097D-01  0.100984D+00
     13 -0.385343D-01  0.137817D-01  0.504743D-01
     14  0.134950D-01 -0.392836D-01  0.980590D-02  0.514279D-01
     15 -0.391907D-01 -0.396091D-01  0.918446D-02  0.965872D-02  0.513172D-01
     16 -0.650634D-02  0.137473D-01  0.518208D-02 -0.214527D-02 -0.244603D-02
     17 -0.200469D-03 -0.792056D-02 -0.401449D-02 -0.976740D-03  0.251763D-02
     18  0.145242D-02  0.333322D-02  0.127342D-02  0.383537D-03 -0.193660D-02
     19  0.509319D-02 -0.480344D-02 -0.452988D-03  0.282438D-02  0.249997D-03
     20  0.386655D-02 -0.340863D-02 -0.248659D-02  0.216040D-03 -0.276570D-03
     21 -0.104689D-02  0.199497D-02  0.168064D-02  0.673475D-03  0.398784D-04
     22  0.578597D-03 -0.162178D-02 -0.131275D-03  0.263330D-03  0.513766D-03
     23 -0.110712D-02  0.340547D-02  0.227434D-03 -0.114852D-02 -0.106543D-02
     24  0.222668D-03 -0.142208D-02  0.238576D-04  0.751069D-03  0.505241D-03
     25  0.669045D-02 -0.434789D-02  0.527192D-02 -0.525637D-02 -0.112702D-02
     26  0.359156D-02 -0.283032D-02  0.704360D-02 -0.538187D-02 -0.183557D-03
     27  0.349392D-02 -0.586641D-02  0.613812D-02 -0.499888D-02  0.739614D-03
     28  0.206066D-02  0.529544D-02 -0.640396D-02  0.299440D-04  0.430459D-02
     29 -0.103823D-02  0.681300D-02 -0.463229D-02 -0.955559D-04  0.524805D-02
     30 -0.113587D-02  0.377691D-02 -0.553776D-02  0.287436D-03  0.617122D-02
     31 -0.257059D-02  0.595310D-03 -0.795749D-03  0.531529D-02 -0.676856D-02
     32 -0.566948D-02  0.211287D-02  0.975924D-03  0.518979D-02 -0.582510D-02
     33 -0.576712D-02 -0.923219D-03  0.704493D-04  0.557278D-02 -0.490193D-02
     34 -0.340619D-02  0.158984D-02  0.815837D-03 -0.936115D-03  0.918479D-03
     35 -0.439608D-02  0.253669D-02  0.122573D-02 -0.124568D-02  0.859289D-03
     36  0.748473D-03  0.974695D-03 -0.463761D-04  0.247486D-04 -0.546886D-03
     37 -0.241413D-03  0.192155D-02  0.363513D-03 -0.284817D-03 -0.606077D-03
     38  0.373695D-02 -0.322754D-02 -0.149014D-02  0.845249D-03 -0.331311D-03
     39  0.274706D-02 -0.228069D-02 -0.108025D-02  0.535684D-03 -0.390502D-03
               16            17            18            19            20 
     16  0.767118D-01
     17 -0.284790D-01  0.505076D-01
     18  0.119468D-01 -0.157573D-01  0.166456D-01
     19 -0.456503D-01 -0.225240D-01  0.206005D-02  0.662824D-01
     20 -0.652552D-02  0.574622D-02  0.358679D-02  0.397533D-02 -0.217030D-01
     21  0.419307D-02 -0.196515D-01 -0.628326D-02  0.150887D-01  0.178622D-02
     22 -0.998820D-02 -0.168179D-02 -0.849558D-03  0.115006D-01  0.288142D-03
     23  0.128028D-01 -0.162227D-02  0.311884D-02 -0.101930D-01 -0.444480D-02
     24 -0.181267D-02  0.264174D-02 -0.154443D-02 -0.131058D-02  0.253111D-02
     25  0.747747D-02 -0.543330D-03  0.620704D-02 -0.582326D-02 -0.113166D-01
     26  0.315854D-02 -0.686688D-02  0.187825D-02  0.488244D-02 -0.174545D-02
     27 -0.133788D-01  0.770482D-02 -0.845750D-02  0.283060D-02  0.153980D-01
     28  0.104668D-01 -0.228134D-02  0.664564D-02 -0.683734D-02 -0.120250D-01
     29  0.614784D-02 -0.860488D-02  0.231685D-02  0.386836D-02 -0.245384D-02
     30 -0.103895D-01  0.596682D-02 -0.801890D-02  0.181652D-02  0.146896D-01
     31  0.866504D-02  0.899313D-04  0.581663D-02 -0.739854D-02 -0.120184D-01
     32  0.434611D-02 -0.623361D-02  0.148784D-02  0.330715D-02 -0.244720D-02
     33 -0.121913D-01  0.833808D-02 -0.884791D-02  0.125531D-02  0.146963D-01
     34  0.880035D-02  0.508398D-02 -0.581820D-02 -0.135094D-01  0.525457D-02
     35  0.118135D-01  0.334346D-02 -0.366450D-02 -0.137363D-01  0.242397D-03
     36  0.100141D-01 -0.565260D-02  0.259703D-02 -0.433541D-02 -0.457652D-02
     37  0.130273D-01 -0.739311D-02  0.475073D-02 -0.456234D-02 -0.958869D-02
     38 -0.213295D-01  0.309978D-02  0.104969D-01  0.162722D-01  0.426615D-02
     39 -0.183163D-01  0.135926D-02  0.126506D-01  0.160452D-01 -0.746018D-03
               21            22            23            24            25 
     21  0.186992D-01
     22  0.243806D-02  0.779420D-01
     23 -0.122972D-02 -0.410511D-01  0.772825D-01
     24 -0.101435D-02 -0.345489D-01 -0.337367D-01  0.646240D-01
     25 -0.622050D-03 -0.150558D-02 -0.473788D-03  0.117340D-02  0.381910D-02
     26  0.185489D-02  0.796650D-03 -0.296731D-03 -0.410174D-03  0.538857D-02
     27 -0.158086D-02  0.160460D-02 -0.365884D-03 -0.690681D-03  0.126269D-01
     28  0.662817D-04 -0.202310D-02  0.282673D-03  0.986661D-03 -0.647220D-02
     29  0.254322D-02  0.279130D-03  0.459730D-03 -0.596911D-03 -0.490273D-02
     30 -0.892530D-03  0.108708D-02  0.390576D-03 -0.877419D-03  0.233558D-02
     31 -0.628632D-03 -0.196696D-02  0.725403D-04  0.116417D-02 -0.669835D-02
     32  0.184831D-02  0.335269D-03  0.249597D-03 -0.419398D-03 -0.512888D-02
     33 -0.158744D-02  0.114322D-02  0.180444D-03 -0.699905D-03  0.210943D-02
     34 -0.183875D-02 -0.474062D-02  0.372076D-02 -0.240188D-03  0.267325D-02
     35 -0.136922D-02 -0.318241D-02  0.560889D-02 -0.405324D-03  0.167887D-03
     36  0.367863D-02 -0.411304D-02  0.175041D-02  0.388668D-03  0.275652D-04
     37  0.414816D-02 -0.255482D-02  0.363853D-02  0.223532D-03 -0.247780D-02
     38 -0.115084D-01 -0.147324D-03 -0.128796D-02 -0.141669D-03  0.168274D-02
     39 -0.110389D-01  0.141089D-02  0.600166D-03 -0.306805D-03 -0.822626D-03
               26            27            28            29            30 
     26  0.965260D-02
     27  0.575467D-02  0.164793D-02
     28 -0.452613D-02  0.207974D-02  0.390451D-02
     29 -0.262096D-03 -0.479247D-02  0.585058D-02  0.104912D-01
     30 -0.416002D-02 -0.889920D-02  0.124564D-01  0.596085D-02  0.122167D-02
     31 -0.484495D-02  0.273791D-02 -0.668107D-02 -0.482767D-02  0.275519D-02
     32 -0.580925D-03 -0.413429D-02 -0.473499D-02 -0.187041D-03 -0.374041D-02
     33 -0.447885D-02 -0.824103D-02  0.187087D-02 -0.471741D-02 -0.847959D-02
     34  0.466903D-03 -0.408077D-02  0.319919D-02  0.992838D-03 -0.355483D-02
     35  0.694431D-03 -0.235511D-02  0.833234D-03  0.135978D-02 -0.168976D-02
     36 -0.995049D-03  0.137222D-02  0.384662D-03 -0.637952D-03  0.172932D-02
     37 -0.767520D-03  0.309788D-02 -0.198129D-02 -0.271012D-03  0.359439D-02
     38  0.383231D-03 -0.962859D-03  0.806435D-03 -0.493074D-03 -0.183916D-02
     39  0.610759D-03  0.762801D-03 -0.155952D-02 -0.126134D-03  0.259080D-04
               31            32            33            34            35 
     31  0.335652D-02
     32  0.520992D-02  0.975787D-02
     33  0.127928D-01  0.620450D-02  0.244233D-02
     34  0.330276D-02  0.109641D-02 -0.345126D-02  0.715590D-02
     35  0.105030D-02  0.157684D-02 -0.147270D-02  0.283692D-02  0.958316D-02
     36 -0.108095D-03 -0.113071D-02  0.123656D-02  0.519204D-02 -0.141876D-02
     37 -0.236056D-02 -0.650277D-03  0.321513D-02  0.873054D-03  0.532749D-02
     38  0.848713D-03 -0.450796D-03 -0.179689D-02 -0.300421D-02 -0.836256D-02
     39 -0.140375D-02  0.296361D-04  0.181678D-03 -0.732320D-02 -0.161631D-02
               36            37            38            39 
     36  0.660699D-02
     37 -0.381542D-05  0.445062D-02
     38  0.100876D-02 -0.434959D-02  0.242194D-01
     39 -0.560204D-02  0.104843D-03  0.188611D-01  0.245680D-01
 Leave Link  716 at Sat Jun 26 10:48:02 2021, MaxMem=  3355443200 cpu:         0.1
 (Enter /Local/ce_dana/g09/l103.exe)

 GradGradGradGradGradGradGradGradGradGradGradGradGradGradGradGradGradGrad
 Berny optimization.
 Red2BG is reusing G-inverse.
 Internal  Forces:  Max     0.006621308 RMS     0.002129348
 Search for a saddle point.
 Step number   1 out of a maximum of  100
 All quantities printed in internal units (Hartrees-Bohrs-Radians)
 Swapping is turned off.
 Second derivative matrix not updated -- analytic derivatives used.
 ITU=  0
     Eigenvalues ---   -0.21703   0.00165   0.00711   0.01242   0.01801
     Eigenvalues ---    0.04405   0.04488   0.05141   0.08484   0.09692
     Eigenvalues ---    0.10419   0.12073   0.13440   0.14902   0.16675
     Eigenvalues ---    0.22967   0.29704   0.31118   0.31715   0.32693
     Eigenvalues ---    0.33036   0.33796   0.34010   0.34408
 Eigenvectors required to have negative eigenvalues:
                          R7        A11       D6        D3        D9
   1                    0.57161  -0.48437   0.25341   0.25332   0.25156
                          D7        D1        D4        A9        A7
   1                   -0.20893  -0.20717  -0.20708   0.20005   0.13619
 RFO step:  Lambda0=3.035198434D-06 Lambda=-5.53759902D-04.
 Linear search not attempted -- option 19 set.
 Iteration  1 RMS(Cart)=  0.00768277 RMS(Int)=  0.00005920
 Iteration  2 RMS(Cart)=  0.00004660 RMS(Int)=  0.00002426
 Iteration  3 RMS(Cart)=  0.00000000 RMS(Int)=  0.00002426
 ITry= 1 IFail=0 DXMaxC= 1.87D-02 DCOld= 1.00D+10 DXMaxT= 5.00D-02 DXLimC= 3.00D+00 Rises=F
 Variable       Old X    -DE/DX   Delta X   Delta X   Delta X     New X
                                 (Linear)    (Quad)   (Total)
    R1        2.83018   0.00077   0.00000   0.00308   0.00308   2.83326
    R2        2.08303  -0.00440   0.00000  -0.01350  -0.01350   2.06953
    R3        2.09107  -0.00328   0.00000  -0.01050  -0.01050   2.08057
    R4        2.07786  -0.00428   0.00000  -0.01303  -0.01303   2.06483
    R5        2.81771   0.00169   0.00000   0.00596   0.00596   2.82367
    R6        2.06762  -0.00616   0.00000  -0.01889  -0.01889   2.04874
    R7        2.45265  -0.00068   0.00000   0.00048   0.00048   2.45312
    R8        2.06463  -0.00662   0.00000  -0.02004  -0.02004   2.04459
    R9        2.06265  -0.00647   0.00000  -0.01930  -0.01930   2.04335
    A1        1.94179   0.00023   0.00000   0.00095   0.00095   1.94274
    A2        1.94099   0.00041   0.00000   0.00205   0.00205   1.94304
    A3        1.95349   0.00020   0.00000  -0.00006  -0.00006   1.95343
    A4        1.86277  -0.00036   0.00000  -0.00177  -0.00177   1.86100
    A5        1.88060  -0.00028   0.00000  -0.00151  -0.00151   1.87909
    A6        1.88024  -0.00026   0.00000   0.00014   0.00014   1.88038
    A7        2.10448   0.00004   0.00000  -0.00125  -0.00125   2.10323
    A8        2.07429   0.00001   0.00000   0.00269   0.00268   2.07697
    A9        2.06367   0.00004   0.00000   0.00155   0.00154   2.06521
   A10        2.03016  -0.00006   0.00000  -0.00053  -0.00053   2.02963
   A11        0.96583   0.00005   0.00000  -0.00404  -0.00404   0.96179
   A12        1.93874  -0.00008   0.00000  -0.00211  -0.00211   1.93663
   A13        2.07539   0.00014   0.00000   0.00160   0.00151   2.07691
   A14        2.08854   0.00028   0.00000   0.00253   0.00244   2.09098
   A15        2.07218  -0.00031   0.00000   0.00282   0.00274   2.07492
    D1        0.72034   0.00007   0.00000   0.00956   0.00956   0.72990
    D2       -2.84039   0.00004   0.00000   0.01188   0.01188  -2.82851
    D3       -0.40320  -0.00002   0.00000   0.01420   0.01420  -0.38900
    D4       -1.35370   0.00010   0.00000   0.00982   0.00982  -1.34388
    D5        1.36876   0.00007   0.00000   0.01213   0.01213   1.38089
    D6       -2.47724   0.00001   0.00000   0.01445   0.01445  -2.46278
    D7        2.82542   0.00001   0.00000   0.00825   0.00825   2.83367
    D8       -0.73530  -0.00002   0.00000   0.01056   0.01056  -0.72474
    D9        1.70188  -0.00008   0.00000   0.01288   0.01288   1.71477
   D10       -0.09320  -0.00019   0.00000  -0.01505  -0.01506  -0.10826
   D11        2.71967   0.00012   0.00000   0.00899   0.00899   2.72866
   D12       -2.82579  -0.00017   0.00000  -0.01806  -0.01806  -2.84386
   D13       -0.01292   0.00014   0.00000   0.00598   0.00599  -0.00693
   D14        1.74022  -0.00013   0.00000  -0.01408  -0.01409   1.72614
   D15       -1.73009   0.00018   0.00000   0.00996   0.00997  -1.72013
         Item               Value     Threshold  Converged?
 Maximum Force            0.006621     0.000015     NO 
 RMS     Force            0.002129     0.000010     NO 
 Maximum Displacement     0.018694     0.000060     NO 
 RMS     Displacement     0.007697     0.000040     NO 
 Predicted change in Energy=-2.764421D-04
 Lowest energy point so far.  Saving SCF results.
 GradGradGradGradGradGradGradGradGradGradGradGradGradGradGradGradGradGrad

 Leave Link  103 at Sat Jun 26 10:48:02 2021, MaxMem=  3355443200 cpu:         0.1
 (Enter /Local/ce_dana/g09/l202.exe)
                          Input orientation:                          
 ---------------------------------------------------------------------
 Center     Atomic      Atomic             Coordinates (Angstroms)
 Number     Number       Type             X           Y           Z
 ---------------------------------------------------------------------
      1          6           0        0.629751   -0.294321   -0.565103
      2          6           0       -0.068748   -0.773080    0.672146
      3          6           0       -0.578452    0.203683    1.681519
      4          1           0       -0.544815   -1.747068    0.663453
      5          1           0        1.319120    0.526480   -0.340603
      6          1           0       -0.087568    0.090544   -1.306395
      7          1           0        0.484678   -0.536954    1.822416
      8          1           0        1.206374   -1.090533   -1.042028
      9          1           0       -0.348122    1.253621    1.558261
     10          1           0       -1.383781   -0.079992    2.344972
 ---------------------------------------------------------------------
                    Distance matrix (angstroms):
                    1          2          3          4          5
     1  C    0.000000
     2  C    1.499298   0.000000
     3  C    2.599052   1.494222   0.000000
     4  H    2.235940   1.084144   2.200686   0.000000
     5  H    1.095146   2.154227   2.791766   3.106671   0.000000
     6  H    1.100991   2.158894   3.030082   2.732434   1.761125
     7  H    2.404197   1.298136   1.303320   1.966577   2.550654
     8  H    1.092660   2.159885   3.504041   2.531080   1.766193
     9  H    2.803753   2.229522   1.081949   3.137436   2.629471
    10  H    3.545248   2.237863   1.081294   2.512073   3.858212
                    6          7          8          9         10
     6  H    0.000000
     7  H    3.242017   0.000000
     8  H    1.771755   3.005384   0.000000
[...]
 Alpha virt. eigenvalues --    0.09029   0.09449   0.13772   0.14328   0.16072
 Alpha virt. eigenvalues --    0.17282   0.18185   0.18782   0.19218   0.19712
 Alpha virt. eigenvalues --    0.20894   0.21673   0.22559   0.24694   0.28486
 Alpha virt. eigenvalues --    0.29363   0.30712   0.31439   0.34332   0.37062
 Alpha virt. eigenvalues --    0.39292   0.43609   0.46740   0.52814   0.56775
 Alpha virt. eigenvalues --    0.57370   0.59406   0.60233   0.65088   0.67901
 Alpha virt. eigenvalues --    0.71033   0.72256   0.72438   0.73024   0.74000
 Alpha virt. eigenvalues --    0.76119   0.77046   0.79351   0.81433   0.82952
 Alpha virt. eigenvalues --    0.85993   0.89090   0.90040   0.95250   0.96702
 Alpha virt. eigenvalues --    1.03871   1.05238   1.11170   1.13309   1.13485
 Alpha virt. eigenvalues --    1.16200   1.17970   1.22928   1.32434   1.32825
 Alpha virt. eigenvalues --    1.34433   1.35208   1.40906   1.41957   1.45899
 Alpha virt. eigenvalues --    1.47877   1.51600   1.53402   1.55420   1.56933
 Alpha virt. eigenvalues --    1.59246   1.61818   1.62588   1.67321   1.68000
 Alpha virt. eigenvalues --    1.70101   1.73163   1.73817   1.75687   1.80599
 Alpha virt. eigenvalues --    1.85627   1.88469   2.03270   2.70927   2.76101
 Alpha virt. eigenvalues --    2.80991   2.84026   2.90295   2.95174   2.96392
 Alpha virt. eigenvalues --    3.00261   3.05419   3.13363   3.17413   3.20639
 Alpha virt. eigenvalues --    3.24213   3.26688   3.27283   3.33709   3.37999
 Alpha virt. eigenvalues --    3.39117   3.42773   3.44206   3.46433   3.50157
 Alpha virt. eigenvalues --    3.53097   3.56488   3.58798   3.62339   3.64952
 Alpha virt. eigenvalues --    3.67409   3.68157   3.72767   3.76022   3.79001
 Alpha virt. eigenvalues --    3.82465   3.88786   3.93425   3.99315   4.03630
 Alpha virt. eigenvalues --    4.04935   4.10252   4.12993   4.21651   4.24880
 Alpha virt. eigenvalues --    4.25448   4.29698   4.33140   4.41020   4.42125
 Alpha virt. eigenvalues --    4.47081   4.50256   4.54212   4.56001   4.59974
 Alpha virt. eigenvalues --    4.63532   4.67526   4.68982   4.70675   4.73103
 Alpha virt. eigenvalues --    4.77581   4.84679   4.92067   4.94513   5.06596
 Alpha virt. eigenvalues --    5.13885   5.31734   5.38043   5.41004   5.55973
 Alpha virt. eigenvalues --    5.68952   5.96618   6.01816   6.06850   6.10054
 Alpha virt. eigenvalues --    6.16349  25.29877  25.41729  25.56736
  Beta  occ. eigenvalues --  -11.22375 -11.22041 -11.21604  -1.05277  -0.92838
  Beta  occ. eigenvalues --   -0.74545  -0.63057  -0.58880  -0.56018  -0.52883
  Beta  occ. eigenvalues --   -0.50092  -0.41142
  Beta virt. eigenvalues --    0.04307   0.05853   0.06100   0.06952   0.08300
  Beta virt. eigenvalues --    0.09107   0.09400   0.11109   0.14037   0.15476
  Beta virt. eigenvalues --    0.17183   0.17954   0.18379   0.19083   0.19788
  Beta virt. eigenvalues --    0.21151   0.21765   0.22461   0.22984   0.25384
  Beta virt. eigenvalues --    0.29384   0.29924   0.31256   0.31916   0.35244
  Beta virt. eigenvalues --    0.38178   0.39786   0.44958   0.47486   0.52981
  Beta virt. eigenvalues --    0.56848   0.57745   0.59684   0.60763   0.67203
  Beta virt. eigenvalues --    0.69270   0.72475   0.73102   0.74306   0.74803
  Beta virt. eigenvalues --    0.76660   0.77777   0.79964   0.81135   0.82405
  Beta virt. eigenvalues --    0.84065   0.86794   0.90588   0.91311   0.95829
  Beta virt. eigenvalues --    0.97213   1.04237   1.05792   1.11631   1.14222
  Beta virt. eigenvalues --    1.14475   1.17096   1.18761   1.23705   1.32789
  Beta virt. eigenvalues --    1.33764   1.35165   1.35553   1.41762   1.42578
  Beta virt. eigenvalues --    1.45961   1.48477   1.52360   1.54414   1.56331
  Beta virt. eigenvalues --    1.58231   1.60059   1.62994   1.63544   1.67882
  Beta virt. eigenvalues --    1.68803   1.70681   1.73589   1.74464   1.76227
  Beta virt. eigenvalues --    1.80848   1.86573   1.89241   2.03968   2.71545
  Beta virt. eigenvalues --    2.76453   2.81757   2.84931   2.90670   2.96136
  Beta virt. eigenvalues --    2.97534   3.02198   3.07045   3.14065   3.19170
  Beta virt. eigenvalues --    3.21652   3.24797   3.27703   3.30266   3.35657
  Beta virt. eigenvalues --    3.39657   3.40309   3.44091   3.45214   3.47322
  Beta virt. eigenvalues --    3.50822   3.54238   3.57383   3.59713   3.63914
  Beta virt. eigenvalues --    3.66776   3.68420   3.70005   3.73623   3.77547
  Beta virt. eigenvalues --    3.79875   3.83937   3.89816   3.95111   4.00442
  Beta virt. eigenvalues --    4.04608   4.06126   4.10758   4.14089   4.21765
  Beta virt. eigenvalues --    4.24996   4.25872   4.29908   4.33611   4.41161
  Beta virt. eigenvalues --    4.42863   4.47643   4.50746   4.54677   4.56392
  Beta virt. eigenvalues --    4.60365   4.63946   4.67885   4.69750   4.71379
  Beta virt. eigenvalues --    4.73567   4.77838   4.85150   4.92378   4.95164
  Beta virt. eigenvalues --    5.07119   5.14128   5.32383   5.38522   5.41089
  Beta virt. eigenvalues --    5.56244   5.69416   5.96898   6.02104   6.07068
  Beta virt. eigenvalues --    6.10193   6.16581  25.30744  25.42315  25.57152
          Condensed to atoms (all electrons):
               1          2          3          4          5          6
     1  C    4.735805   0.170433   0.075141  -0.023288   0.439862   0.420240
     2  C    0.170433   5.760676  -0.389212   0.358309  -0.101914   0.008330
     3  C    0.075141  -0.389212   5.737341   0.002583   0.032379  -0.027850
     4  H   -0.023288   0.358309   0.002583   0.581039   0.005835  -0.001636
     5  H    0.439862  -0.101914   0.032379   0.005835   0.645827  -0.044496
     6  H    0.420240   0.008330  -0.027850  -0.001636  -0.044496   0.642722
     7  H    0.000448   0.183443   0.136598  -0.007768   0.000241   0.000413
     8  H    0.435078  -0.047494   0.007701  -0.005509  -0.027898  -0.043098
     9  H   -0.006072   0.019151   0.355554  -0.000027  -0.007107   0.005735
    10  H    0.006623   0.009092   0.383110  -0.004078  -0.000034   0.000211
               7          8          9         10
     1  C    0.000448   0.435078  -0.006072   0.006623
     2  C    0.183443  -0.047494   0.019151   0.009092
     3  C    0.136598   0.007701   0.355554   0.383110
     4  H   -0.007768  -0.005509  -0.000027  -0.004078
     5  H    0.000241  -0.027898  -0.007107  -0.000034
     6  H    0.000413  -0.043098   0.005735   0.000211
     7  H    0.587003  -0.003974  -0.006437  -0.003327
     8  H   -0.003974   0.624686  -0.001075  -0.000341
     9  H   -0.006437  -0.001075   0.555786  -0.010800
    10  H   -0.003327  -0.000341  -0.010800   0.542963
          Atomic-Atomic Spin Densities.
               1          2          3          4          5          6
     1  C   -0.016155  -0.124603   0.077080   0.009608   0.009969  -0.007783
     2  C   -0.124603   1.603405  -0.876654  -0.058565  -0.059552   0.022592
     3  C    0.077080  -0.876654   1.464204   0.051850   0.041468  -0.019849
     4  H    0.009608  -0.058565   0.051850  -0.027092   0.002314  -0.004459
     5  H    0.009969  -0.059552   0.041468   0.002314   0.034422  -0.014511
     6  H   -0.007783   0.022592  -0.019849  -0.004459  -0.014511   0.068397
     7  H   -0.021915   0.090672   0.038104  -0.004470  -0.002487  -0.002460
     8  H    0.013373  -0.021927   0.003413   0.001944   0.003738  -0.003134
     9  H    0.003211   0.039654  -0.049178  -0.004685  -0.006993   0.004488
    10  H   -0.001816   0.028828  -0.029236  -0.002503  -0.000516   0.000749
               7          8          9         10
     1  C   -0.021915   0.013373   0.003211  -0.001816
     2  C    0.090672  -0.021927   0.039654   0.028828
     3  C    0.038104   0.003413  -0.049178  -0.029236
     4  H   -0.004470   0.001944  -0.004685  -0.002503
     5  H   -0.002487   0.003738  -0.006993  -0.000516
     6  H   -0.002460  -0.003134   0.004488   0.000749
     7  H   -0.322183   0.003897   0.000451  -0.005330
     8  H    0.003897   0.001227  -0.000695  -0.000113
     9  H    0.000451  -0.000695  -0.034330   0.005813
    10  H   -0.005330  -0.000113   0.005813  -0.031459
 Mulliken charges and spin densities:
               1          2
     1  C   -0.254270  -0.059031
     2  C    0.029185   0.643851
     3  C   -0.313345   0.701201
     4  H    0.094541  -0.036058
     5  H    0.057304   0.007851
     6  H    0.039430   0.044031
     7  H    0.113360  -0.225721
     8  H    0.061924   0.001723
     9  H    0.095291  -0.042264
    10  H    0.076581  -0.035583
 Sum of Mulliken charges =  -0.00000   1.00000
 Mulliken charges and spin densities with hydrogens summed into heavy atoms:
               1          2
     1  C   -0.095612  -0.005427
     2  C    0.237086   0.382072
     3  C   -0.141474   0.623355
 Electronic spatial extent (au):  <R**2>=            216.0877
 Charge=             -0.0000 electrons
 Dipole moment (field-independent basis, Debye):
    X=             -0.2191    Y=              0.1000    Z=             -0.0287  Tot=              0.2425
 Quadrupole moment (field-independent basis, Debye-Ang):
   XX=            -21.7181   YY=            -20.7321   ZZ=            -22.6733
   XY=              0.4289   XZ=             -0.3476   YZ=             -0.5014
 Traceless Quadrupole moment (field-independent basis, Debye-Ang):
   XX=             -0.0103   YY=              0.9757   ZZ=             -0.9654
   XY=              0.4289   XZ=             -0.3476   YZ=             -0.5014
 Octapole moment (field-independent basis, Debye-Ang**2):
  XXX=             -1.6174  YYY=             -0.2047  ZZZ=             -0.7185  XYY=              0.0743
  XXY=              1.8733  XXZ=             -1.7427  XZZ=             -1.8283  YZZ=             -0.1258
  YYZ=             -0.6541  XYZ=              0.0472
 Hexadecapole moment (field-independent basis, Debye-Ang**3):
 XXXX=           -205.8407 YYYY=            -58.9398 ZZZZ=            -40.9717 XXXY=              1.6776
 XXXZ=             -6.9598 YYYX=             -0.6233 YYYZ=             -2.8847 ZZZX=              0.5716
 ZZZY=             -0.6786 XXYY=            -44.2949 XXZZ=            -43.9353 YYZZ=            -18.5291
 XXYZ=              0.2258 YYXZ=             -0.9365 ZZXY=              1.8109
 N-N= 7.609799658963D+01 E-N=-4.251288646137D+02  KE= 1.174780454891D+02
 Leave Link  601 at Sat Jun 26 10:51:14 2021, MaxMem=  3355443200 cpu:         0.2
 (Enter /Local/ce_dana/g09/l9999.exe)

 Test job not archived.
 1\1\GINC-TECH-WN036\SP\UMP2-FC\CBSB3\C3H7(2)\ALONGD\26-Jun-2021\0\\#P 
 Geom=AllCheck Guess=TCheck SCRF=Check Test MP2/CBSB3 CBSExtrap=(NMin=1
 0,MinPop)\\TS0\\0,2\C,0,0.6298621976,-0.2943414311,-0.5650590901\C,0,-
 0.0681576257,-0.7731925064,0.672413205\C,0,-0.5790804787,0.2036406642,
 1.6810858607\H,0,-0.5431753853,-1.7479912736,0.6643395517\H,0,1.321450
 1381,0.5247455695,-0.3404101144\H,0,-0.0875539686,0.0930955081,-1.3050
 300665\H,0,0.4847981727,-0.5357765951,1.8226849913\H,0,1.204219779,-1.
 091324244,-1.0436728076\H,0,-0.3496157898,1.2540363891,1.5573720207\H,
 0,-1.3843110394,-0.0805110807,2.3449154493\\Version=ES64L-G09RevD.01\S
 tate=2-A\HF=-117.5891906\MP2=-118.0992595\E2(CBS)=-0.5604659\CBS-Int=-
 0.5425426\OIii=4.6253951\PUHF=-117.5960489\PMP2-0=-118.1042484\S2=0.79
 3481\S2-1=0.769579\S2A=0.750607\RMSD=7.008e-09\PG=C01 [X(C3H7)]\\@


 SACRED COWS MAKE GREAT HAMBURGERS -- ROBERT REISNER
 Diagonal vibrational polarizability:
        0.0000000       0.0000000       0.0000000
    1 imaginary frequencies ignored.

 Complete Basis Set (CBS) Extrapolation:
 M. R. Nyden and G. A. Petersson, JCP 75, 1843 (1981)
 G. A. Petersson and M. A. Al-Laham, JCP 94, 6081 (1991)
 G. A. Petersson, T. Tensfeldt, and J. A. Montgomery, JCP 94, 6091 (1991)
 J. A. Montgomery, J. W. Ochterski, and G. A. Petersson, JCP 101, 5900 (1994)

 Temperature=               298.150000 Pressure=                       1.000000
 E(ZPE)=                      0.083112 E(Thermal)=                     0.087643
 E(SCF)=                   -117.589191 DE(MP2)=                       -0.510069
 DE(CBS)=                    -0.050397 DE(MP34)=                      -0.044213
 DE(CCSD)=                   -0.015260 DE(Int)=                        0.017923
 DE(Empirical)=              -0.027196
 CBS-QB3 (0 K)=            -118.135290 CBS-QB3 Energy=              -118.130759
 CBS-QB3 Enthalpy=         -118.129815 CBS-QB3 Free Energy=         -118.161402

 Test job not archived.
 1\1\GINC-TECH-WN036\Mixed\CBS-QB3\CBS-QB3\C3H7(2)\ALONGD\26-Jun-2021\0
 \\#P opt=(ts, calcfc, noeigentest, maxcycles=100, tight, maxstep=5) gu
 ess=read cbs-qb3 scf=(tight, direct) integral=(grid=ultrafine, Acc2E=1
 2) IOp(2/9=2000) scf=xqc\\TS0\\0,2\C,0,0.6298621976,-0.2943414311,-0.5
 650590901\C,0,-0.0681576257,-0.7731925064,0.672413205\C,0,-0.579080478
 7,0.2036406642,1.6810858607\H,0,-0.5431753853,-1.7479912736,0.66433955
 17\H,0,1.3214501381,0.5247455695,-0.3404101144\H,0,-0.0875539686,0.093
 0955081,-1.3050300665\H,0,0.4847981727,-0.5357765951,1.8226849913\H,0,
 1.204219779,-1.091324244,-1.0436728076\H,0,-0.3496157898,1.2540363891,
 1.5573720207\H,0,-1.3843110394,-0.0805110807,2.3449154493\\Version=ES6
 4L-G09RevD.01\State=2-A\HF/CbsB3=-117.5891906\E2(CBS)/CbsB3=-0.5604659
 \CBS-Int/CbsB3=0.0179233\OIii/CbsB3=4.6253951\MP2/CbsB4=-117.9976202\M
 P4(SDQ)/CbsB4=-118.0418334\MP4(SDQ)/6-31+G(d')=-117.9821878\QCISD(T)/6
 -31+G(d')=-117.9974474\CBSQB3=-118.13529\FreqCoord=1.1902670549,-0.556
 2246944,-1.0678069292,-0.1287992464,-1.461122085,1.2706768056,-1.09430
 35137,0.3848250849,3.1767918827,-1.0264527204,-3.3032247898,1.25541981
 19,2.4971788593,0.9916254158,-0.6432818891,-0.1654530224,0.1759250144,
 -2.4661494209,0.9161357762,-1.0124710332,3.4443754601,2.275645586,-2.0
 623039433,-1.9722557787,-0.6606780944,2.3697853361,2.9430066061,-2.615
 9687471,-0.1521438931,4.4312480039\PG=C01 [X(C3H7)]\NImag=1\\0.5195724
 3,-0.00861134,0.54505192,0.00269710,0.03910411,0.48132038,-0.10052108,
 -0.03415038,0.06745208,0.26635198,-0.02539843,-0.09739430,0.03404411,0
 .11161729,0.55914081,0.05857780,0.02915243,-0.16299581,-0.18732774,0.0
 3459663,0.33821234,-0.00586381,0.01701990,0.00266181,0.00315742,0.0490
 3454,0.19275004,0.27169533,-0.01074263,0.00685888,0.00385346,-0.002154
 61,-0.17119532,-0.16247376,0.13222306,0.55638949,0.01067464,-0.0196885
 0,-0.01484857,0.09170144,-0.08705361,-0.10651648,-0.26327341,0.0249913
 4,0.34897189,-0.00396458,-0.00859762,-0.00259465,-0.08863161,-0.124027
 40,0.01484396,0.00775443,0.01683008,-0.00392164,0.08787468,-0.00257010
 ,-0.00392299,-0.00219989,-0.11785987,-0.27529074,-0.00669000,-0.007313
 48,-0.01699208,0.00195947,0.12567607,0.29154866,0.01316082,0.02229394,
 0.00419936,0.00464377,-0.00334507,-0.04545078,-0.00514089,-0.01646294,
 -0.00378700,-0.01367080,0.00710719,0.04618510,-0.14644833,-0.11965316,
 -0.03364590,-0.00748281,-0.01075552,-0.00058983,-0.00116520,0.00015608
 ,-0.00057321,-0.00093639,0.00012900,0.00188154,0.15767360,-0.11849652,
 -0.18667570,-0.04345410,-0.00524369,-0.01080897,0.00218640,-0.00056058
 ,0.00162713,-0.00004781,-0.00157977,0.00092099,0.00157157,0.13358074,0
 .20373486,-0.03395117,-0.04384823,-0.05787273,0.01833322,0.02366933,0.
 00505800,-0.00108798,0.00072870,0.00134905,0.00311495,0.00114493,-0.00
 401576,0.03651423,0.04377139,0.06445283,-0.15273612,0.05419145,-0.1015
 2347,0.01451510,-0.00439611,0.01104563,0.00010398,-0.00030575,-0.00191
 980,-0.00003755,0.00012453,-0.00061221,-0.01498717,0.00706117,-0.01327
 775,0.16498876,0.05806037,-0.07290226,0.05150579,0.00515168,-0.0058076
 4,0.01203558,-0.00215721,0.00337172,0.00145659,-0.00039422,-0.00010409
 ,-0.00027720,-0.01632022,0.00871311,-0.01620886,-0.06057170,0.07674595
 ,-0.10840332,0.05155793,-0.14607025,-0.01362629,0.01355852,-0.02664921
 ,0.00140607,-0.00407447,0.00067605,0.00047908,0.00003115,0.00051823,-0
 .00599341,0.00200614,-0.00544162,0.11542547,-0.06214298,0.16527941,0.0
 0516056,-0.00194834,0.00835059,-0.07238243,-0.01954859,-0.09694123,-0.
 03134247,0.00273304,-0.00547003,-0.00330614,0.00142089,-0.00130129,0.0
 0136152,0.00062719,-0.00004443,-0.00017606,0.00039141,0.00097127,0.099
 76645,0.00854175,0.00155171,-0.00085836,0.03778856,0.00127555,0.097299
 25,-0.05805576,0.01672123,-0.00630424,-0.01050649,0.00281155,-0.009070
 75,-0.00112461,-0.00129370,0.00021084,-0.00098098,-0.00204964,0.004013
 01,0.01894284,-0.01908216,-0.00263523,0.00715552,-0.01215409,0.0048806
 7,0.01638624,0.02215586,-0.11198380,0.07348900,-0.04046464,0.00049133,
 0.00147875,0.00298166,-0.00096786,-0.00138666,0.00009744,0.00185145,-0
 .00218320,0.00161751,0.09855693,-0.09071839,0.01965610,-0.11777596,0.0
 9974077,0.05835626,-0.00771031,0.01131268,0.00665498,-0.00064015,-0.00
 261000,0.00087895,0.00013808,-0.00011693,-0.00043741,0.01218661,-0.015
 12713,-0.00932098,-0.01176934,0.01660708,0.00906757,0.00051069,-0.0000
 5056,0.00053319,0.12494609,0.10039697,-0.19056147,-0.08307415,-0.00718
 879,0.01062107,0.00567323,-0.00072263,-0.00036816,0.00152499,0.0002749
 6,0.00059048,-0.00071967,0.01290255,-0.01698859,-0.00900614,0.00479495
 ,-0.00837458,-0.00405087,-0.00007422,0.00022775,0.00002047,-0.11024973
 ,0.20420665,0.05757268,-0.08137057,-0.09269931,0.01190616,-0.02131159,
 -0.01513279,0.00446026,0.00321516,-0.00238901,-0.00050231,0.00044866,0
 .00097014,0.00320924,-0.00471927,-0.00381781,-0.01040640,0.01603768,0.
 00986804,0.00001516,-0.00042227,0.00092446,-0.06626451,0.08883857,0.10
 345397,0.00157662,0.00088746,0.00079711,-0.00462854,0.00745898,0.00112
 097,-0.04637631,-0.06612092,0.02104412,-0.00028411,-0.00025389,0.00023
 818,-0.00022226,0.00003152,0.00009863,0.00025051,-0.00054694,0.0004415
 6,0.00555279,0.01006854,0.00063392,-0.00012876,-0.00009888,-0.00019577
 ,0.04483585,-0.00174802,0.00101754,0.00066022,-0.00339055,-0.01393434,
 0.00177965,-0.06645444,-0.32360223,0.03234295,0.00322483,-0.00066419,-
 0.00059432,0.00065734,0.00052111,-0.00044545,0.00021149,0.00023105,-0.
 00066020,-0.00316060,-0.00227225,-0.00054851,0.00003448,0.00027400,0.0
 0016681,0.06903569,0.33989581,-0.00117085,0.00020374,0.00217577,-0.010
 01360,-0.02343100,0.00404504,0.03125985,0.03518715,-0.04025637,0.00267
 200,-0.00394767,-0.00275572,0.00036857,0.00015601,0.00013711,-0.000257
 79,-0.00012398,-0.00013774,0.00199469,0.00808572,-0.00096651,-0.000150
 37,0.00029472,0.00023424,-0.02456933,-0.03139207,0.03839421,0.00100027
 ,0.00112125,-0.00255093,-0.00266771,0.00470257,-0.00013459,-0.19732322
 ,-0.07000835,0.15085894,0.00139320,0.00076378,0.00123828,0.00002042,-0
 .00029292,-0.00037872,-0.00015212,-0.00022026,0.00023200,-0.00514491,-
 0.00462330,0.00863942,0.00024304,-0.00003517,0.00020550,-0.00057579,0.
 00158978,-0.00013317,0.20320681,0.00056795,-0.00302331,0.00041880,0.01
 543036,0.00339388,-0.01355940,-0.06301340,-0.07281066,0.05081882,-0.00
 090042,0.00110242,-0.00050274,0.00042779,0.00024976,-0.00001651,-0.000
 12907,0.00017638,-0.00023823,0.00061638,0.00210996,-0.00369322,0.00045
 935,0.00037286,-0.00088317,-0.02046156,-0.00146650,0.01496736,0.067002
 62,0.06989523,0.00347752,-0.00456036,-0.00105474,0.01205029,0.01288644
 ,-0.01272617,0.14894805,0.04154635,-0.14273491,-0.00091192,0.00066742,
 0.00115477,-0.00020335,-0.00008368,0.00005349,-0.00032514,-0.00009943,
 0.00033958,-0.00613166,-0.00223482,0.00615220,0.00068232,0.00049885,-0
 .00141193,0.00039061,-0.00130908,-0.00087004,-0.15797673,-0.04731171,0
 .15109776\\0.00000020,0.00000023,0.00000009,-0.00000009,-0.00000009,-0
 .00000007,-0.00000027,-0.00000006,0.00000003,-0.00000008,0.00000010,-0
 .00000047,0.00000022,0.00000013,0.00000041,0.00000034,0.00000046,0.000
 00005,-0.00000021,-0.00000039,-0.00000003,0.00000023,0.00000028,-0.000
 00001,-0.00000013,-0.00000037,0.00000031,-0.00000022,-0.00000029,-0.00
 000030\\\@
 Job cpu time:       0 days  0 hours  1 minutes 28.3 seconds.
 File lengths (MBytes):  RWF=    610 Int=      0 D2E=      0 Chk=      4 Scr=      1
 Normal termination of Gaussian 09 at Sat Jun 26 10:51:14 2021.
