 Entering Gaussian System, Link 0=/Local/ce_dana/g09/g09
 Initial command:
 /Local/ce_dana/g09/l1.exe "/storage/ce_dana/alongd/scratch/g09/Gau-1583.inp" -scrdir="/storage/ce_dana/alongd/scratch/g09/"
 Entering Link 1 = /Local/ce_dana/g09/l1.exe PID=      1584.
  
 Copyright (c) 1988,1990,1992,1993,1995,1998,2003,2009,2013,
            Gaussian, Inc.  All Rights Reserved.
  
 This is part of the Gaussian(R) 09 program.  It is based on
 the Gaussian(R) 03 system (copyright 2003, Gaussian, Inc.),
 the Gaussian(R) 98 system (copyright 1998, Gaussian, Inc.),
 the Gaussian(R) 94 system (copyright 1995, Gaussian, Inc.),
 the Gaussian 92(TM) system (copyright 1992, Gaussian, Inc.),
 the Gaussian 90(TM) system (copyright 1990, Gaussian, Inc.),
 the Gaussian 88(TM) system (copyright 1988, Gaussian, Inc.),
 the Gaussian 86(TM) system (copyright 1986, Carnegie Mellon
 University), and the Gaussian 82(TM) system (copyright 1983,
 Carnegie Mellon University). Gaussian is a federally registered
 trademark of Gaussian, Inc.
  
 This software contains proprietary and confidential information,
 including trade secrets, belonging to Gaussian, Inc.
  
 This software is provided under written license and may be
 used, copied, transmitted, or stored only in accord with that
 written license.
  
 The following legend is applicable only to US Government
 contracts under FAR:
  
                    RESTRICTED RIGHTS LEGEND
  
 Use, reproduction and disclosure by the US Government is
 subject to restrictions as set forth in subparagraphs (a)
 and (c) of the Commercial Computer Software - Restricted
 Rights clause in FAR 52.227-19.
  
 Gaussian, Inc.
 340 Quinnipiac St., Bldg. 40, Wallingford CT 06492
  
  
 ---------------------------------------------------------------
 Warning -- This program may not be used in any manner that
 competes with the business of Gaussian, Inc. or will provide
 assistance to any competitor of Gaussian, Inc.  The licensee
 of this program is prohibited from giving any competitor of
 Gaussian, Inc. access to this program.  By using this program,
 the user acknowledges that Gaussian, Inc. is engaged in the
 business of creating and licensing software in the field of
 computational chemistry and represents and warrants to the
 licensee that it is not a competitor of Gaussian, Inc. and that
 it will not use this program in any manner prohibited above.
 ---------------------------------------------------------------
  

 Cite this work as:
 Gaussian 09, Revision D.01,
 M. J. Frisch, G. W. Trucks, H. B. Schlegel, G. E. Scuseria, 
 M. A. Robb, J. R. Cheeseman, G. Scalmani, V. Barone, B. Mennucci, 
 G. A. Petersson, H. Nakatsuji, M. Caricato, X. Li, H. P. Hratchian, 
 A. F. Izmaylov, J. Bloino, G. Zheng, J. L. Sonnenberg, M. Hada, 
 M. Ehara, K. Toyota, R. Fukuda, J. Hasegawa, M. Ishida, T. Nakajima, 
 Y. Honda, O. Kitao, H. Nakai, T. Vreven, J. A. Montgomery, Jr., 
 J. E. Peralta, F. Ogliaro, M. Bearpark, J. J. Heyd, E. Brothers, 
 K. N. Kudin, V. N. Staroverov, T. Keith, R. Kobayashi, J. Normand, 
 K. Raghavachari, A. Rendell, J. C. Burant, S. S. Iyengar, J. Tomasi, 
 M. Cossi, N. Rega, J. M. Millam, M. Klene, J. E. Knox, J. B. Cross, 
 V. Bakken, C. Adamo, J. Jaramillo, R. Gomperts, R. E. Stratmann, 
 O. Yazyev, A. J. Austin, R. Cammi, C. Pomelli, J. W. Ochterski, 
 R. L. Martin, K. Morokuma, V. G. Zakrzewski, G. A. Voth, 
 P. Salvador, J. J. Dannenberg, S. Dapprich, A. D. Daniels, 
 O. Farkas, J. B. Foresman, J. V. Ortiz, J. Cioslowski, 
 and D. J. Fox, Gaussian, Inc., Wallingford CT, 2013.
 
 ******************************************
 Gaussian 09:  ES64L-G09RevD.01 24-Apr-2013
                26-Jun-2021 
 ******************************************
 %chk=check.chk
 %mem=25600mb
 %NProcShared=10
 Will use up to   10 processors via shared memory.
 ----------------------------------------------------------------------
 #P opt=(ts, calcfc, noeigentest, maxcycles=100, tight, maxstep=5) gues
 s=read cbs-qb3 scf=(tight, direct) integral=(grid=ultrafine, Acc2E=12)
  IOp(2/9=2000) scf=xqc
 ----------------------------------------------------------------------
 1/5=1,6=100,7=10,8=5,10=4,11=1,14=-1,18=20,26=4,38=1/1,3;
 2/9=2000,12=2,17=6,18=5,40=1/2;
 3/5=4,6=6,7=700,11=2,16=1,25=1,30=1,71=2,74=-5,75=-5,116=-2,140=1/1,2,3;
 4/5=1/1;
 5/5=2,8=3,13=1,32=2,38=6,87=12/2,8;
 8/6=4,10=90,11=11,87=12/1;
 11/6=1,8=1,9=11,15=111,16=1,87=12/1,2,10;
 10/6=1,13=1,87=12/2;
 6/7=2,8=2,9=2,10=2,28=1/1;
 7/10=1,18=20,25=1,87=12/1,2,3,16;
 1/5=1,6=100,7=10,8=5,10=4,11=1,14=-1,18=20,26=4/3(2);
 2/9=2000/2;
 99//99;
 2/9=2000/2;
 3/5=4,6=6,7=700,11=2,16=1,25=1,30=1,71=1,74=-5,75=-5/1,2,3;
 4/5=5,16=3,69=1/1;
 5/5=2,8=3,13=1,32=2,38=5,87=12/2,8;
 7/87=12/1,2,3,16;
 1/5=1,6=100,7=10,8=5,11=1,14=-1,18=20,26=4/3(-5);
 2/9=2000/2;
 6/7=2,8=2,9=2,10=2,19=2,28=1/1;
 99/9=1/99;
 Leave Link    1 at Sat Jun 26 11:33:08 2021, MaxMem=  3355443200 cpu:         0.1
 (Enter /Local/ce_dana/g09/l101.exe)
 ---
 TS0
 ---
 Symbolic Z-matrix:
 Charge =  0 Multiplicity = 2
 C                    -1.51477   1.00044  -1.02799 
 C                    -0.63037   0.00571  -1.05689 
 C                     0.0057   -0.60559   0.16894 
 H                    -0.32358  -0.41863  -2.01905 
 H                    -1.94617   1.40671  -1.94578 
 H                    -1.84069   1.44503  -0.08173 
 H                     1.15312  -0.69583  -0.08655 
 H                     0.34333   0.29364   0.91313 
 H                    -0.8604   -0.7787    1.00308 
 H                    -0.05492  -1.77122   0.00359 
 
 NAtoms=     10 NQM=       10 NQMF=       0 NMMI=      0 NMMIF=      0
                NMic=       0 NMicF=      0.
                    Isotopes and Nuclear Properties:
 (Nuclear quadrupole moments (NQMom) in fm**2, nuclear magnetic moments (NMagM)
  in nuclear magnetons)

  Atom         1           2           3           4           5           6           7           8           9          10
 IAtWgt=          12          12          12           1           1           1           1           1           1           1
 AtmWgt=  12.0000000  12.0000000  12.0000000   1.0078250   1.0078250   1.0078250   1.0078250   1.0078250   1.0078250   1.0078250
 NucSpn=           0           0           0           1           1           1           1           1           1           1
 AtZEff=   0.0000000   0.0000000   0.0000000   0.0000000   0.0000000   0.0000000   0.0000000   0.0000000   0.0000000   0.0000000
 NQMom=    0.0000000   0.0000000   0.0000000   0.0000000   0.0000000   0.0000000   0.0000000   0.0000000   0.0000000   0.0000000
 NMagM=    0.0000000   0.0000000   0.0000000   2.7928460   2.7928460   2.7928460   2.7928460   2.7928460   2.7928460   2.7928460
 AtZNuc=   6.0000000   6.0000000   6.0000000   1.0000000   1.0000000   1.0000000   1.0000000   1.0000000   1.0000000   1.0000000
 Leave Link  101 at Sat Jun 26 11:33:09 2021, MaxMem=  3355443200 cpu:         0.9
 (Enter /Local/ce_dana/g09/l103.exe)

 GradGradGradGradGradGradGradGradGradGradGradGradGradGradGradGradGradGrad
 Berny optimization.
 Initialization pass.
                           ----------------------------
                           !    Initial Parameters    !
                           ! (Angstroms and Degrees)  !
 --------------------------                            --------------------------
 ! Name  Definition              Value          Derivative Info.                !
 --------------------------------------------------------------------------------
 ! R1    R(1,2)                  1.3313         calculate D2E/DX2 analytically  !
 ! R2    R(1,5)                  1.0925         calculate D2E/DX2 analytically  !
 ! R3    R(1,6)                  1.0951         calculate D2E/DX2 analytically  !
 ! R4    R(2,3)                  1.5103         calculate D2E/DX2 analytically  !
 ! R5    R(2,4)                  1.0954         calculate D2E/DX2 analytically  !
 ! R6    R(3,7)                  1.179          calculate D2E/DX2 analytically  !
 ! R7    R(3,8)                  1.2151         calculate D2E/DX2 analytically  !
 ! R8    R(3,9)                  1.2149         calculate D2E/DX2 analytically  !
 ! R9    R(3,10)                 1.1789         calculate D2E/DX2 analytically  !
 ! A1    A(2,1,5)              121.4626         calculate D2E/DX2 analytically  !
 ! A2    A(2,1,6)              121.3177         calculate D2E/DX2 analytically  !
 ! A3    A(5,1,6)              117.2197         calculate D2E/DX2 analytically  !
 ! A4    A(1,2,3)              124.3726         calculate D2E/DX2 analytically  !
 ! A5    A(1,2,4)              119.6401         calculate D2E/DX2 analytically  !
 ! A6    A(3,2,4)              115.9873         calculate D2E/DX2 analytically  !
 ! A7    A(2,3,7)              105.3655         calculate D2E/DX2 analytically  !
 ! A8    A(2,3,8)              108.3362         calculate D2E/DX2 analytically  !
 ! A9    A(2,3,9)              108.3438         calculate D2E/DX2 analytically  !
 ! A10   A(2,3,10)             105.3496         calculate D2E/DX2 analytically  !
 ! A11   A(7,3,8)               85.3507         calculate D2E/DX2 analytically  !
 ! A12   A(7,3,9)              146.2763         calculate D2E/DX2 analytically  !
 ! A13   A(7,3,10)              86.7877         calculate D2E/DX2 analytically  !
 ! A14   A(8,3,9)               83.2828         calculate D2E/DX2 analytically  !
 ! A15   A(8,3,10)             146.2993         calculate D2E/DX2 analytically  !
 ! A16   A(9,3,10)              85.3396         calculate D2E/DX2 analytically  !
 ! D1    D(5,1,2,3)           -179.9543         calculate D2E/DX2 analytically  !
 ! D2    D(5,1,2,4)              0.0556         calculate D2E/DX2 analytically  !
 ! D3    D(6,1,2,3)             -0.0056         calculate D2E/DX2 analytically  !
 ! D4    D(6,1,2,4)           -179.9956         calculate D2E/DX2 analytically  !
 ! D5    D(1,2,3,7)           -134.5975         calculate D2E/DX2 analytically  !
 ! D6    D(1,2,3,8)            -44.4534         calculate D2E/DX2 analytically  !
 ! D7    D(1,2,3,9)             44.4044         calculate D2E/DX2 analytically  !
 ! D8    D(1,2,3,10)           134.5333         calculate D2E/DX2 analytically  !
 ! D9    D(4,2,3,7)             45.3929         calculate D2E/DX2 analytically  !
 ! D10   D(4,2,3,8)            135.537          calculate D2E/DX2 analytically  !
 ! D11   D(4,2,3,9)           -135.6052         calculate D2E/DX2 analytically  !
 ! D12   D(4,2,3,10)           -45.4763         calculate D2E/DX2 analytically  !
 --------------------------------------------------------------------------------
 Trust Radius=5.00D-02 FncErr=1.00D-07 GrdErr=1.00D-06
 Number of steps in this run=    100 maximum allowed number of steps=    100.
 Search for a saddle point of order  1.
 GradGradGradGradGradGradGradGradGradGradGradGradGradGradGradGradGradGrad

 Leave Link  103 at Sat Jun 26 11:33:09 2021, MaxMem=  3355443200 cpu:         0.0
 (Enter /Local/ce_dana/g09/l202.exe)
                          Input orientation:                          
 ---------------------------------------------------------------------
 Center     Atomic      Atomic             Coordinates (Angstroms)
 Number     Number       Type             X           Y           Z
 ---------------------------------------------------------------------
      1          6           0       -1.514767    1.000437   -1.027995
      2          6           0       -0.630369    0.005710   -1.056894
      3          6           0        0.005701   -0.605586    0.168941
      4          1           0       -0.323577   -0.418632   -2.019047
      5          1           0       -1.946172    1.406707   -1.945775
      6          1           0       -1.840689    1.445028   -0.081731
      7          1           0        1.153118   -0.695832   -0.086552
      8          1           0        0.343333    0.293644    0.913129
      9          1           0       -0.860397   -0.778698    1.003077
     10          1           0       -0.054921   -1.771217    0.003587
 ---------------------------------------------------------------------
                    Distance matrix (angstroms):
                    1          2          3          4          5
     1  C    0.000000
     2  C    1.331344   0.000000
     3  C    2.514714   1.510278   0.000000
     4  H    2.101160   1.095411   2.220511   0.000000
     5  H    1.092468   2.117602   3.511574   2.443368   0.000000
     6  H    1.095126   2.118361   2.770742   3.086754   1.867419
     7  H    3.298675   2.148151   1.178977   2.447857   4.181265
     8  H    2.778499   2.216301   1.215083   3.090269   3.828064
     9  H    2.778268   2.216233   1.214857   3.090478   3.827614
    10  H    3.298087   2.147843   1.178861   2.448001   4.180436
                    6          7          8          9         10
     6  H    0.000000
     7  H    3.680514   0.000000
     8  H    2.661838   1.623015   0.000000
     9  H    2.661341   2.290939   1.614613   0.000000
    10  H    3.679739   1.619857   2.291184   1.622611   0.000000
 Stoichiometry    C3H7(2)
 Framework group  C1[X(C3H7)]
 Deg. of freedom    24
 Full point group                 C1      NOp   1
 Largest Abelian subgroup         C1      NOp   1
 Largest concise Abelian subgroup C1      NOp   1
                         Standard orientation:                         
 ---------------------------------------------------------------------
 Center     Atomic      Atomic             Coordinates (Angstroms)
 Number     Number       Type             X           Y           Z
 ---------------------------------------------------------------------
      1          6           0        1.333509   -0.217643   -0.000098
      2          6           0        0.196427    0.474832   -0.000054
      3          6           0       -1.180194   -0.146338    0.000048
      4          1           0        0.228944    1.569760   -0.000257
      5          1           0        2.305200    0.281658    0.000571
      6          1           0        1.333060   -1.312769    0.000030
      7          1           0       -1.793291    0.452704   -0.809425
      8          1           0       -1.190045   -1.054037   -0.807672
      9          1           0       -1.189818   -1.054473    0.806941
     10          1           0       -1.792499    0.452056    0.810431
 ---------------------------------------------------------------------
 Rotational constants (GHZ):     38.5516945      8.7762581      7.7249003
 Leave Link  202 at Sat Jun 26 11:33:10 2021, MaxMem=  3355443200 cpu:         0.0
 (Enter /Local/ce_dana/g09/l301.exe)
 Standard basis: 6-311G(2d,d,p) (5D, 7F)
 Ernie: Thresh=  0.10000D-02 Tol=  0.10000D-05 Strict=F.
 There are    99 symmetry adapted cartesian basis functions of A   symmetry.
 There are    96 symmetry adapted basis functions of A   symmetry.
    96 basis functions,   152 primitive gaussians,    99 cartesian basis functions
    13 alpha electrons       12 beta electrons
       nuclear repulsion energy        76.2667812522 Hartrees.
 IExCor=  402 DFT=T Ex+Corr=B3LYP ExCW=0 ScaHFX=  0.200000
 ScaDFX=  0.800000  0.720000  1.000000  0.810000 ScalE2=  1.000000  1.000000
 IRadAn=      5 IRanWt=     -1 IRanGd=            0 ICorTp=0 IEmpDi=  4
 NAtoms=   10 NActive=   10 NUniq=   10 SFac= 1.00D+00 NAtFMM=   60 NAOKFM=F Big=F
 Integral buffers will be    131072 words long.
 Raffenetti 2 integral format.
 Two-electron integral symmetry is turned on.
 Leave Link  301 at Sat Jun 26 11:33:10 2021, MaxMem=  3355443200 cpu:         0.1
 (Enter /Local/ce_dana/g09/l302.exe)
 NPDir=0 NMtPBC=     1 NCelOv=     1 NCel=       1 NClECP=     1 NCelD=      1
         NCelK=      1 NCelE2=     1 NClLst=     1 CellRange=     0.0.
 One-electron integrals computed using PRISM.
 NBasis=    96 RedAO= T EigKep=  1.76D-03  NBF=    96
 NBsUse=    96 1.00D-06 EigRej= -1.00D+00 NBFU=    96
 Precomputing XC quadrature grid using
 IXCGrd= 4 IRadAn=           5 IRanWt=          -1 IRanGd=           0 AccXCQ= 0.00D+00.
 Generated NRdTot=       0 NPtTot=           0 NUsed=           0 NTot=          32
 NSgBfM=    99    99    99    99    99 MxSgAt=    10 MxSgA2=    10.
 Leave Link  302 at Sat Jun 26 11:33:10 2021, MaxMem=  3355443200 cpu:         1.8
 (Enter /Local/ce_dana/g09/l303.exe)
 DipDrv:  MaxL=1.
 Leave Link  303 at Sat Jun 26 11:33:10 2021, MaxMem=  3355443200 cpu:         0.1
 (Enter /Local/ce_dana/g09/l401.exe)
 Initial guess from the checkpoint file:  "check.chk"
 B after Tr=     0.000000    0.000000   -0.000000
         Rot=   -0.006913    0.993939   -0.107882   -0.019987 Ang= 180.79 deg.
 Guess basis will be translated and rotated to current coordinates.
 JPrj=2 DoOrth=T DoCkMO=T.
 Initial guess <Sx>= 0.0000 <Sy>= 0.0000 <Sz>= 0.5000 <S**2>= 1.0338 S= 0.6331
 Leave Link  401 at Sat Jun 26 11:33:10 2021, MaxMem=  3355443200 cpu:         0.5
 (Enter /Local/ce_dana/g09/l502.exe)
 UHF open shell SCF:
 Using DIIS extrapolation, IDIIS=  1040.
 Integral symmetry usage will be decided dynamically.
 Keep R1 and R2 ints in memory in canonical form, NReq=22641738.
 IVT=       37088 IEndB=       37088 NGot=  3355443200 MDV=  3333723121
 LenX=  3333723121 LenY=  3333712879
 Requested convergence on RMS density matrix=1.00D-08 within  64 cycles.
 Requested convergence on MAX density matrix=1.00D-06.
 Requested convergence on             energy=1.00D-06.
 No special actions if energy rises.
 FoFCou: FMM=F IPFlag=           0 FMFlag=           0 FMFlg1=           0
         NFxFlg=           0 DoJE=F BraDBF=F KetDBF=F FulRan=T
         wScrn=  0.000000 ICntrl=     600 IOpCl=  0 I1Cent=           0 NGrid=           0
         NMat0=    1 NMatS0=   4656 NMatT0=    0 NMatD0=    1 NMtDS0=    0 NMtDT0=    0
 Symmetry not used in FoFCou.

 Cycle   1  Pass 1  IDiag  1:
 E= -117.764733308217    
 DIIS: error= 4.76D-02 at cycle   1 NSaved=   1.
 NSaved= 1 IEnMin= 1 EnMin= -117.764733308217     IErMin= 1 ErrMin= 4.76D-02
 ErrMax= 4.76D-02  0.00D+00 EMaxC= 1.00D-01 BMatC= 1.12D+00 BMatP= 1.12D+00
 IDIUse=3 WtCom= 5.24D-01 WtEn= 4.76D-01
 Coeff-Com:  0.100D+01
 Coeff-En:   0.100D+01
 Coeff:      0.100D+01
 Gap=     2.465 Goal=   None    Shift=    0.000
 Gap=     2.353 Goal=   None    Shift=    0.000
 GapD=    2.353 DampG=2.000 DampE=0.500 DampFc=1.0000 IDamp=-1.
 RMSDP=1.29D-02 MaxDP=2.99D-01              OVMax= 5.09D-01

 Cycle   2  Pass 1  IDiag  1:
 E= -118.342589068314     Delta-E=       -0.577855760097 Rises=F Damp=F
 DIIS: error= 1.43D-02 at cycle   2 NSaved=   2.
 NSaved= 2 IEnMin= 2 EnMin= -118.342589068314     IErMin= 2 ErrMin= 1.43D-02
 ErrMax= 1.43D-02  0.00D+00 EMaxC= 1.00D-01 BMatC= 4.10D-02 BMatP= 1.12D+00
 IDIUse=3 WtCom= 8.57D-01 WtEn= 1.43D-01
 Coeff-Com: -0.846D-02 0.101D+01
 Coeff-En:   0.000D+00 0.100D+01
 Coeff:     -0.724D-02 0.101D+01
 Gap=     0.150 Goal=   None    Shift=    0.000
 Gap=     0.210 Goal=   None    Shift=    0.000
 RMSDP=3.90D-03 MaxDP=1.07D-01 DE=-5.78D-01 OVMax= 1.48D-01

 Cycle   3  Pass 1  IDiag  1:
 E= -118.361366602112     Delta-E=       -0.018777533797 Rises=F Damp=F
 DIIS: error= 1.18D-02 at cycle   3 NSaved=   3.
 NSaved= 3 IEnMin= 3 EnMin= -118.361366602112     IErMin= 3 ErrMin= 1.18D-02
 ErrMax= 1.18D-02  0.00D+00 EMaxC= 1.00D-01 BMatC= 2.42D-02 BMatP= 4.10D-02
 IDIUse=3 WtCom= 8.82D-01 WtEn= 1.18D-01
 Coeff-Com: -0.320D-01 0.427D+00 0.605D+00
 Coeff-En:   0.000D+00 0.000D+00 0.100D+01
 Coeff:     -0.283D-01 0.377D+00 0.652D+00
 Gap=     0.157 Goal=   None    Shift=    0.000
 Gap=     0.233 Goal=   None    Shift=    0.000
 RMSDP=1.21D-03 MaxDP=2.70D-02 DE=-1.88D-02 OVMax= 6.92D-02

 Cycle   4  Pass 1  IDiag  1:
 E= -118.368563248152     Delta-E=       -0.007196646041 Rises=F Damp=F
 DIIS: error= 9.38D-03 at cycle   4 NSaved=   4.
 NSaved= 4 IEnMin= 4 EnMin= -118.368563248152     IErMin= 4 ErrMin= 9.38D-03
 ErrMax= 9.38D-03  0.00D+00 EMaxC= 1.00D-01 BMatC= 6.79D-03 BMatP= 2.42D-02
 IDIUse=3 WtCom= 9.06D-01 WtEn= 9.38D-02
 Coeff-Com: -0.107D-01 0.226D-02 0.322D+00 0.686D+00
 Coeff-En:   0.000D+00 0.000D+00 0.000D+00 0.100D+01
 Coeff:     -0.969D-02 0.205D-02 0.292D+00 0.715D+00
 Gap=     0.146 Goal=   None    Shift=    0.000
 Gap=     0.229 Goal=   None    Shift=    0.000
 RMSDP=6.90D-04 MaxDP=2.45D-02 DE=-7.20D-03 OVMax= 5.45D-02

 Cycle   5  Pass 1  IDiag  1:
 E= -118.370738403427     Delta-E=       -0.002175155275 Rises=F Damp=F
 DIIS: error= 6.24D-03 at cycle   5 NSaved=   5.
 NSaved= 5 IEnMin= 5 EnMin= -118.370738403427     IErMin= 5 ErrMin= 6.24D-03
 ErrMax= 6.24D-03  0.00D+00 EMaxC= 1.00D-01 BMatC= 2.79D-03 BMatP= 6.79D-03
 IDIUse=3 WtCom= 9.38D-01 WtEn= 6.24D-02
 Coeff-Com:  0.332D-02-0.137D+00 0.418D-02 0.493D+00 0.636D+00
 Coeff-En:   0.000D+00 0.000D+00 0.000D+00 0.000D+00 0.100D+01
 Coeff:      0.312D-02-0.128D+00 0.392D-02 0.462D+00 0.659D+00
 Gap=     0.148 Goal=   None    Shift=    0.000
 Gap=     0.228 Goal=   None    Shift=    0.000
 RMSDP=5.13D-04 MaxDP=1.57D-02 DE=-2.18D-03 OVMax= 3.68D-02

 Cycle   6  Pass 1  IDiag  1:
 E= -118.371878258378     Delta-E=       -0.001139854951 Rises=F Damp=F
 DIIS: error= 2.48D-03 at cycle   6 NSaved=   6.
 NSaved= 6 IEnMin= 6 EnMin= -118.371878258378     IErMin= 6 ErrMin= 2.48D-03
 ErrMax= 2.48D-03  0.00D+00 EMaxC= 1.00D-01 BMatC= 3.72D-04 BMatP= 2.79D-03
 IDIUse=3 WtCom= 9.75D-01 WtEn= 2.48D-02
 Coeff-Com:  0.266D-02-0.523D-01-0.646D-01 0.286D-01 0.307D+00 0.779D+00
 Coeff-En:   0.000D+00 0.000D+00 0.000D+00 0.000D+00 0.000D+00 0.100D+01
 Coeff:      0.259D-02-0.510D-01-0.630D-01 0.279D-01 0.299D+00 0.784D+00
 Gap=     0.147 Goal=   None    Shift=    0.000
 Gap=     0.230 Goal=   None    Shift=    0.000
 RMSDP=2.23D-04 MaxDP=7.09D-03 DE=-1.14D-03 OVMax= 1.78D-02

 Cycle   7  Pass 1  IDiag  1:
 E= -118.372138763040     Delta-E=       -0.000260504661 Rises=F Damp=F
 DIIS: error= 9.21D-04 at cycle   7 NSaved=   7.
 NSaved= 7 IEnMin= 7 EnMin= -118.372138763040     IErMin= 7 ErrMin= 9.21D-04
 ErrMax= 9.21D-04  0.00D+00 EMaxC= 1.00D-01 BMatC= 5.96D-05 BMatP= 3.72D-04
 IDIUse=3 WtCom= 9.91D-01 WtEn= 9.21D-03
 Coeff-Com: -0.233D-03 0.212D-01-0.168D-01-0.113D+00-0.825D-01 0.219D+00
 Coeff-Com:  0.973D+00
 Coeff-En:   0.000D+00 0.000D+00 0.000D+00 0.000D+00 0.000D+00 0.000D+00
 Coeff-En:   0.100D+01
 Coeff:     -0.231D-03 0.210D-01-0.166D-01-0.112D+00-0.818D-01 0.217D+00
 Coeff:      0.973D+00
 Gap=     0.147 Goal=   None    Shift=    0.000
 Gap=     0.230 Goal=   None    Shift=    0.000
 RMSDP=1.14D-04 MaxDP=2.84D-03 DE=-2.61D-04 OVMax= 1.12D-02

 Cycle   8  Pass 1  IDiag  1:
 E= -118.372227065391     Delta-E=       -0.000088302351 Rises=F Damp=F
 DIIS: error= 4.46D-04 at cycle   8 NSaved=   8.
 NSaved= 8 IEnMin= 8 EnMin= -118.372227065391     IErMin= 8 ErrMin= 4.46D-04
 ErrMax= 4.46D-04  0.00D+00 EMaxC= 1.00D-01 BMatC= 1.21D-05 BMatP= 5.96D-05
 IDIUse=3 WtCom= 9.96D-01 WtEn= 4.46D-03
 Coeff-Com: -0.689D-03 0.142D-01 0.170D-01-0.114D-01-0.905D-01-0.229D+00
 Coeff-Com:  0.293D-01 0.127D+01
 Coeff-En:   0.000D+00 0.000D+00 0.000D+00 0.000D+00 0.000D+00 0.000D+00
 Coeff-En:   0.000D+00 0.100D+01
 Coeff:     -0.686D-03 0.141D-01 0.170D-01-0.113D-01-0.901D-01-0.228D+00
 Coeff:      0.292D-01 0.127D+01
 Gap=     0.147 Goal=   None    Shift=    0.000
 Gap=     0.230 Goal=   None    Shift=    0.000
 RMSDP=8.05D-05 MaxDP=2.12D-03 DE=-8.83D-05 OVMax= 8.36D-03

 Cycle   9  Pass 1  IDiag  1:
 E= -118.372255894069     Delta-E=       -0.000028828679 Rises=F Damp=F
 DIIS: error= 1.23D-04 at cycle   9 NSaved=   9.
 NSaved= 9 IEnMin= 9 EnMin= -118.372255894069     IErMin= 9 ErrMin= 1.23D-04
 ErrMax= 1.23D-04  0.00D+00 EMaxC= 1.00D-01 BMatC= 1.42D-06 BMatP= 1.21D-05
 IDIUse=3 WtCom= 9.99D-01 WtEn= 1.23D-03
 Coeff-Com:  0.490D-04-0.190D-02 0.431D-02 0.165D-01 0.196D-02-0.669D-01
 Coeff-Com: -0.167D+00 0.178D+00 0.103D+01
 Coeff-En:   0.000D+00 0.000D+00 0.000D+00 0.000D+00 0.000D+00 0.000D+00
 Coeff-En:   0.000D+00 0.000D+00 0.100D+01
 Coeff:      0.489D-04-0.189D-02 0.430D-02 0.165D-01 0.195D-02-0.668D-01
 Coeff:     -0.166D+00 0.178D+00 0.103D+01
 Gap=     0.147 Goal=   None    Shift=    0.000
 Gap=     0.230 Goal=   None    Shift=    0.000
 RMSDP=2.73D-05 MaxDP=6.56D-04 DE=-2.88D-05 OVMax= 2.68D-03

 Cycle  10  Pass 1  IDiag  1:
 E= -118.372258277835     Delta-E=       -0.000002383766 Rises=F Damp=F
 DIIS: error= 3.64D-05 at cycle  10 NSaved=  10.
 NSaved=10 IEnMin=10 EnMin= -118.372258277835     IErMin=10 ErrMin= 3.64D-05
 ErrMax= 3.64D-05  0.00D+00 EMaxC= 1.00D-01 BMatC= 3.80D-07 BMatP= 1.42D-06
 IDIUse=1 WtCom= 1.00D+00 WtEn= 0.00D+00
 Coeff-Com:  0.846D-04-0.243D-02 0.192D-03 0.905D-02 0.103D-01-0.819D-02
 Coeff-Com: -0.824D-01-0.415D-01 0.478D+00 0.637D+00
 Coeff:      0.846D-04-0.243D-02 0.192D-03 0.905D-02 0.103D-01-0.819D-02
 Coeff:     -0.824D-01-0.415D-01 0.478D+00 0.637D+00
 Gap=     0.147 Goal=   None    Shift=    0.000
 Gap=     0.230 Goal=   None    Shift=    0.000
 RMSDP=5.31D-06 MaxDP=1.35D-04 DE=-2.38D-06 OVMax= 3.89D-04

 Cycle  11  Pass 1  IDiag  1:
 E= -118.372258420906     Delta-E=       -0.000000143071 Rises=F Damp=F
 DIIS: error= 1.06D-05 at cycle  11 NSaved=  11.
 NSaved=11 IEnMin=11 EnMin= -118.372258420906     IErMin=11 ErrMin= 1.06D-05
 ErrMax= 1.06D-05  0.00D+00 EMaxC= 1.00D-01 BMatC= 3.46D-08 BMatP= 3.80D-07
 IDIUse=1 WtCom= 1.00D+00 WtEn= 0.00D+00
 Coeff-Com:  0.232D-04-0.436D-03-0.703D-03 0.119D-03 0.282D-02 0.826D-02
 Coeff-Com:  0.889D-03-0.414D-01-0.185D-01 0.224D+00 0.825D+00
 Coeff:      0.232D-04-0.436D-03-0.703D-03 0.119D-03 0.282D-02 0.826D-02
 Coeff:      0.889D-03-0.414D-01-0.185D-01 0.224D+00 0.825D+00
 Gap=     0.147 Goal=   None    Shift=    0.000
 Gap=     0.230 Goal=   None    Shift=    0.000
 RMSDP=1.85D-06 MaxDP=5.10D-05 DE=-1.43D-07 OVMax= 9.89D-05

 Cycle  12  Pass 1  IDiag  1:
 E= -118.372258434189     Delta-E=       -0.000000013284 Rises=F Damp=F
 DIIS: error= 1.37D-06 at cycle  12 NSaved=  12.
 NSaved=12 IEnMin=12 EnMin= -118.372258434189     IErMin=12 ErrMin= 1.37D-06
 ErrMax= 1.37D-06  0.00D+00 EMaxC= 1.00D-01 BMatC= 8.95D-10 BMatP= 3.46D-08
 IDIUse=1 WtCom= 1.00D+00 WtEn= 0.00D+00
 Coeff-Com: -0.410D-05 0.143D-03-0.391D-04-0.665D-03-0.647D-03 0.968D-03
 Coeff-Com:  0.693D-02 0.676D-03-0.402D-01-0.292D-01 0.519D-01 0.101D+01
 Coeff:     -0.410D-05 0.143D-03-0.391D-04-0.665D-03-0.647D-03 0.968D-03
 Coeff:      0.693D-02 0.676D-03-0.402D-01-0.292D-01 0.519D-01 0.101D+01
 Gap=     0.147 Goal=   None    Shift=    0.000
 Gap=     0.230 Goal=   None    Shift=    0.000
 RMSDP=6.88D-07 MaxDP=2.50D-05 DE=-1.33D-08 OVMax= 2.60D-05

 Cycle  13  Pass 1  IDiag  1:
 E= -118.372258434825     Delta-E=       -0.000000000635 Rises=F Damp=F
 DIIS: error= 3.90D-07 at cycle  13 NSaved=  13.
 NSaved=13 IEnMin=13 EnMin= -118.372258434825     IErMin=13 ErrMin= 3.90D-07
 ErrMax= 3.90D-07  0.00D+00 EMaxC= 1.00D-01 BMatC= 5.10D-11 BMatP= 8.95D-10
 IDIUse=1 WtCom= 1.00D+00 WtEn= 0.00D+00
 Coeff-Com: -0.118D-05 0.217D-04 0.359D-04 0.622D-05-0.110D-03-0.455D-03
 Coeff-Com: -0.199D-03 0.233D-02 0.138D-02-0.123D-01-0.470D-01-0.344D-01
 Coeff-Com:  0.109D+01
 Coeff:     -0.118D-05 0.217D-04 0.359D-04 0.622D-05-0.110D-03-0.455D-03
 Coeff:     -0.199D-03 0.233D-02 0.138D-02-0.123D-01-0.470D-01-0.344D-01
 Coeff:      0.109D+01
 Gap=     0.147 Goal=   None    Shift=    0.000
 Gap=     0.230 Goal=   None    Shift=    0.000
 RMSDP=2.03D-07 MaxDP=7.61D-06 DE=-6.35D-10 OVMax= 8.44D-06

 Cycle  14  Pass 1  IDiag  1:
 E= -118.372258434870     Delta-E=       -0.000000000046 Rises=F Damp=F
 DIIS: error= 7.58D-08 at cycle  14 NSaved=  14.
 NSaved=14 IEnMin=14 EnMin= -118.372258434870     IErMin=14 ErrMin= 7.58D-08
 ErrMax= 7.58D-08  0.00D+00 EMaxC= 1.00D-01 BMatC= 2.81D-12 BMatP= 5.10D-11
 IDIUse=1 WtCom= 1.00D+00 WtEn= 0.00D+00
 Coeff-Com:  0.180D-06-0.912D-05 0.110D-05 0.448D-04 0.423D-04-0.742D-04
 Coeff-Com: -0.463D-03 0.378D-04 0.275D-02 0.121D-02-0.492D-02-0.713D-01
 Coeff-Com:  0.415D-01 0.103D+01
 Coeff:      0.180D-06-0.912D-05 0.110D-05 0.448D-04 0.423D-04-0.742D-04
 Coeff:     -0.463D-03 0.378D-04 0.275D-02 0.121D-02-0.492D-02-0.713D-01
 Coeff:      0.415D-01 0.103D+01
 Gap=     0.147 Goal=   None    Shift=    0.000
 Gap=     0.230 Goal=   None    Shift=    0.000
 RMSDP=5.94D-08 MaxDP=2.02D-06 DE=-4.55D-11 OVMax= 2.33D-06

 Cycle  15  Pass 1  IDiag  1:
 E= -118.372258434873     Delta-E=       -0.000000000003 Rises=F Damp=F
 DIIS: error= 1.71D-08 at cycle  15 NSaved=  15.
 NSaved=15 IEnMin=15 EnMin= -118.372258434873     IErMin=15 ErrMin= 1.71D-08
 ErrMax= 1.71D-08  0.00D+00 EMaxC= 1.00D-01 BMatC= 9.00D-14 BMatP= 2.81D-12
 IDIUse=1 WtCom= 1.00D+00 WtEn= 0.00D+00
 Coeff-Com:  0.342D-07-0.343D-06-0.728D-06-0.116D-05 0.154D-05 0.149D-04
 Coeff-Com:  0.219D-04-0.774D-04-0.141D-03 0.512D-03 0.172D-02 0.254D-02
 Coeff-Com: -0.433D-01-0.825D-02 0.105D+01
 Coeff:      0.342D-07-0.343D-06-0.728D-06-0.116D-05 0.154D-05 0.149D-04
 Coeff:      0.219D-04-0.774D-04-0.141D-03 0.512D-03 0.172D-02 0.254D-02
 Coeff:     -0.433D-01-0.825D-02 0.105D+01
 Gap=     0.147 Goal=   None    Shift=    0.000
 Gap=     0.230 Goal=   None    Shift=    0.000
 RMSDP=7.75D-09 MaxDP=3.29D-07 DE=-2.81D-12 OVMax= 3.14D-07

 SCF Done:  E(UB3LYP) =  -118.372258435     A.U. after   15 cycles
            NFock= 15  Conv=0.77D-08     -V/T= 2.0055
 <Sx>= 0.0000 <Sy>= 0.0000 <Sz>= 0.5000 <S**2>= 0.7594 S= 0.5047
 <L.S>=  0.00000000000    
 KE= 1.177242249430D+02 PE=-4.258501103439D+02 EE= 1.134868457138D+02
 Annihilation of the first spin contaminant:
 S**2 before annihilation     0.7594,   after     0.7501
 Leave Link  502 at Sat Jun 26 11:33:22 2021, MaxMem=  3355443200 cpu:       112.7
 (Enter /Local/ce_dana/g09/l508.exe)
 QCSCF skips out because SCF is already converged.
 Leave Link  508 at Sat Jun 26 11:33:22 2021, MaxMem=  3355443200 cpu:         0.0
 (Enter /Local/ce_dana/g09/l801.exe)
 DoSCS=F DFT=T ScalE2(SS,OS)=  1.000000  1.000000
 Range of M.O.s used for correlation:     1    96
 NBasis=    96 NAE=    13 NBE=    12 NFC=     0 NFV=     0
 NROrb=     96 NOA=    13 NOB=    12 NVA=    83 NVB=    84

 **** Warning!!: The largest alpha MO coefficient is  0.10891420D+02


 **** Warning!!: The largest beta MO coefficient is  0.10920009D+02

 Leave Link  801 at Sat Jun 26 11:33:22 2021, MaxMem=  3355443200 cpu:         0.1
 (Enter /Local/ce_dana/g09/l1101.exe)
 Using compressed storage, NAtomX=    10.
 Will process     11 centers per pass.
 Leave Link 1101 at Sat Jun 26 11:33:23 2021, MaxMem=  3355443200 cpu:         5.8
 (Enter /Local/ce_dana/g09/l1102.exe)
 Symmetrizing basis deriv contribution to polar:
 IMax=3 JMax=2 DiffMx= 0.00D+00
 Leave Link 1102 at Sat Jun 26 11:33:23 2021, MaxMem=  3355443200 cpu:         0.1
 (Enter /Local/ce_dana/g09/l1110.exe)
 Forming Gx(P) for the SCF density, NAtomX=    10.
 Integral derivatives from FoFJK, PRISM(SPDF).
 Do as many integral derivatives as possible in FoFJK.
 G2DrvN: MDV=    3355443016.
 G2DrvN: will do    11 centers at a time, making    1 passes.
 Calling FoFCou, ICntrl=  3107 FMM=F I1Cent=   0 AccDes= 1.00D-12.
 FoFJK:  IHMeth= 1 ICntrl=    3107 DoSepK=F KAlg= 0 I1Cent=   0 FoldK=F
 IRaf=         0 NMat=   1 IRICut=       1 DoRegI=T DoRafI=F ISym2E= 0.
 FoFCou: FMM=F IPFlag=           0 FMFlag=      100000 FMFlg1=           0
         NFxFlg=           0 DoJE=F BraDBF=F KetDBF=F FulRan=T
         wScrn=  0.000000 ICntrl=    3107 IOpCl=  1 I1Cent=           0 NGrid=           0
         NMat0=    1 NMatS0=      1 NMatT0=    0 NMatD0=    1 NMtDS0=    0 NMtDT0=    0
 Symmetry not used in FoFCou.
 End of G2Drv F.D. properties file   721 does not exist.
 End of G2Drv F.D. properties file   722 does not exist.
 End of G2Drv F.D. properties file   788 does not exist.
 Leave Link 1110 at Sat Jun 26 11:33:39 2021, MaxMem=  3355443200 cpu:       163.1
 (Enter /Local/ce_dana/g09/l1002.exe)
 Minotr:  UHF open shell wavefunction.
          IDoAtm=1111111111
          Direct CPHF calculation.
          Differentiating once with respect to nuclear coordinates.
          Requested convergence is 1.0D-08 RMS, and 1.0D-07 maximum.
          Secondary convergence is 1.0D-12 RMS, and 1.0D-12 maximum.
          NewPWx=T KeepS1=F KeepF1=F KeepIn=T MapXYZ=F SortEE=F KeepMc=T.
          MDV=    3355442904 using IRadAn=       1.
 Generate precomputed XC quadrature information.
 Keep R1 and R2 ints in memory in canonical form, NReq=22605689.
 FoFCou: FMM=F IPFlag=           0 FMFlag=           0 FMFlg1=           0
         NFxFlg=           0 DoJE=F BraDBF=F KetDBF=F FulRan=T
         wScrn=  0.000000 ICntrl=     600 IOpCl=  0 I1Cent=           0 NGrid=           0
         NMat0=    1 NMatS0=   4656 NMatT0=    0 NMatD0=    1 NMtDS0=    0 NMtDT0=    0
 Symmetry not used in FoFCou.
          Solving linear equations simultaneously, MaxMat=       0.
          There are    33 degrees of freedom in the 1st order CPHF.  IDoFFX=6 NUNeed=     0.
     27 vectors produced by pass  0 Test12= 6.32D-15 3.03D-09 XBig12= 4.14D-01 3.19D-01.
 AX will form    27 AO Fock derivatives at one time.
     27 vectors produced by pass  1 Test12= 6.32D-15 3.03D-09 XBig12= 3.11D-02 7.40D-02.
     27 vectors produced by pass  2 Test12= 6.32D-15 3.03D-09 XBig12= 3.80D-04 6.00D-03.
     27 vectors produced by pass  3 Test12= 6.32D-15 3.03D-09 XBig12= 1.33D-06 2.28D-04.
     27 vectors produced by pass  4 Test12= 6.32D-15 3.03D-09 XBig12= 5.28D-09 1.42D-05.
     27 vectors produced by pass  5 Test12= 6.32D-15 3.03D-09 XBig12= 1.96D-11 7.77D-07.
     13 vectors produced by pass  6 Test12= 6.32D-15 3.03D-09 XBig12= 6.01D-14 5.06D-08.
      1 vectors produced by pass  7 Test12= 6.32D-15 3.03D-09 XBig12= 2.05D-16 3.43D-09.
 InvSVY:  IOpt=1 It=  1 EMax= 2.00D-15
 Solved reduced A of dimension   176 with    27 vectors.
 End of Minotr F.D. properties file   721 does not exist.
 End of Minotr F.D. properties file   722 does not exist.
 End of Minotr F.D. properties file   788 does not exist.
 Leave Link 1002 at Sat Jun 26 11:34:01 2021, MaxMem=  3355443200 cpu:       209.8
 (Enter /Local/ce_dana/g09/l601.exe)
 Copying SCF densities to generalized density rwf, IOpCl= 1 IROHF=0.

 **********************************************************************

            Population analysis using the SCF density.

 **********************************************************************

 Orbital symmetries:
 Alpha Orbitals:
       Occupied  (A) (A) (A) (A) (A) (A) (A) (A) (A) (A) (A) (A)
                 (A)
       Virtual   (A) (A) (A) (A) (A) (A) (A) (A) (A) (A) (A) (A)
                 (A) (A) (A) (A) (A) (A) (A) (A) (A) (A) (A) (A)
                 (A) (A) (A) (A) (A) (A) (A) (A) (A) (A) (A) (A)
                 (A) (A) (A) (A) (A) (A) (A) (A) (A) (A) (A) (A)
                 (A) (A) (A) (A) (A) (A) (A) (A) (A) (A) (A) (A)
                 (A) (A) (A) (A) (A) (A) (A) (A) (A) (A) (A) (A)
                 (A) (A) (A) (A) (A) (A) (A) (A) (A) (A) (A)
 Beta  Orbitals:
       Occupied  (A) (A) (A) (A) (A) (A) (A) (A) (A) (A) (A) (A)
       Virtual   (A) (A) (A) (A) (A) (A) (A) (A) (A) (A) (A) (A)
                 (A) (A) (A) (A) (A) (A) (A) (A) (A) (A) (A) (A)
                 (A) (A) (A) (A) (A) (A) (A) (A) (A) (A) (A) (A)
                 (A) (A) (A) (A) (A) (A) (A) (A) (A) (A) (A) (A)
                 (A) (A) (A) (A) (A) (A) (A) (A) (A) (A) (A) (A)
                 (A) (A) (A) (A) (A) (A) (A) (A) (A) (A) (A) (A)
                 (A) (A) (A) (A) (A) (A) (A) (A) (A) (A) (A) (A)
 The electronic state is 2-A.
 Alpha  occ. eigenvalues --  -10.21896 -10.18174 -10.16465  -0.80499  -0.70806
 Alpha  occ. eigenvalues --   -0.56423  -0.48952  -0.47076  -0.44371  -0.40113
 Alpha  occ. eigenvalues --   -0.35705  -0.26790  -0.14171
 Alpha virt. eigenvalues --    0.00567   0.01686   0.05913   0.07759   0.09287
 Alpha virt. eigenvalues --    0.11994   0.12396   0.20413   0.29304   0.29498
 Alpha virt. eigenvalues --    0.31088   0.33518   0.39495   0.41222   0.42012
 Alpha virt. eigenvalues --    0.46286   0.48994   0.51229   0.51963   0.58112
 Alpha virt. eigenvalues --    0.58546   0.59409   0.60790   0.67045   0.68644
 Alpha virt. eigenvalues --    0.72186   0.78644   0.92489   0.94722   1.00514
 Alpha virt. eigenvalues --    1.05194   1.09474   1.21196   1.32584   1.35574
 Alpha virt. eigenvalues --    1.40604   1.41009   1.48990   1.53840   1.55727
 Alpha virt. eigenvalues --    1.56804   1.61132   1.69512   1.71779   1.75106
 Alpha virt. eigenvalues --    1.76358   1.76890   1.80385   1.85471   1.87342
 Alpha virt. eigenvalues --    1.88690   2.00757   2.04179   2.05632   2.10205
 Alpha virt. eigenvalues --    2.11409   2.18899   2.27274   2.35054   2.35717
 Alpha virt. eigenvalues --    2.39297   2.50275   2.53030   2.59497   2.60449
 Alpha virt. eigenvalues --    2.65115   2.71042   2.71356   2.75378   2.79435
 Alpha virt. eigenvalues --    2.87391   3.01280   3.03936   3.19574   3.45028
 Alpha virt. eigenvalues --    3.64623   3.68728   3.70631   3.95975   4.33240
 Alpha virt. eigenvalues --   23.69641  23.77332  24.25682
  Beta  occ. eigenvalues --  -10.22238 -10.18119 -10.16497  -0.80125  -0.70232
  Beta  occ. eigenvalues --   -0.56006  -0.47956  -0.44304  -0.43448  -0.38927
  Beta  occ. eigenvalues --   -0.35554  -0.26448
  Beta virt. eigenvalues --   -0.03430   0.01297   0.02828   0.06435   0.07843
  Beta virt. eigenvalues --    0.10279   0.12410   0.12691   0.20885   0.29717
  Beta virt. eigenvalues --    0.31266   0.32120   0.34178   0.39833   0.41811
  Beta virt. eigenvalues --    0.42085   0.48705   0.51242   0.52150   0.53119
  Beta virt. eigenvalues --    0.58259   0.58589   0.59675   0.60886   0.67250
  Beta virt. eigenvalues --    0.69032   0.72808   0.78678   0.93260   0.95031
  Beta virt. eigenvalues --    1.02377   1.05439   1.09714   1.22591   1.35959
  Beta virt. eigenvalues --    1.36064   1.41183   1.42062   1.49205   1.54240
  Beta virt. eigenvalues --    1.57492   1.59413   1.61867   1.70690   1.75778
  Beta virt. eigenvalues --    1.76047   1.78972   1.79100   1.82756   1.86928
  Beta virt. eigenvalues --    1.88442   1.90885   2.02008   2.05764   2.06755
  Beta virt. eigenvalues --    2.10524   2.12097   2.19951   2.27831   2.36143
  Beta virt. eigenvalues --    2.38309   2.39997   2.51266   2.54062   2.60325
  Beta virt. eigenvalues --    2.64861   2.67020   2.71839   2.74706   2.77748
  Beta virt. eigenvalues --    2.81101   2.87702   3.03655   3.04009   3.20039
  Beta virt. eigenvalues --    3.45057   3.65413   3.69462   3.70634   3.96077
  Beta virt. eigenvalues --    4.33522  23.69623  23.77024  24.25688
          Condensed to atoms (all electrons):
               1          2          3          4          5          6
     1  C    4.833303   0.653137  -0.067177  -0.032947   0.404645   0.413579
     2  C    0.653137   4.928524   0.346280   0.410505  -0.030783  -0.044625
     3  C   -0.067177   0.346280   4.879623  -0.045975   0.007469  -0.011174
     4  H   -0.032947   0.410505  -0.045975   0.561271  -0.011055   0.007823
     5  H    0.404645  -0.030783   0.007469  -0.011055   0.563741  -0.040309
     6  H    0.413579  -0.044625  -0.011174   0.007823  -0.040309   0.565925
     7  H    0.000210  -0.019585   0.319083  -0.003604  -0.000370   0.000155
     8  H    0.000333  -0.042237   0.299972   0.003972  -0.000095   0.002541
     9  H    0.000332  -0.042155   0.300429   0.003988  -0.000095   0.002543
    10  H    0.000184  -0.019608   0.318867  -0.003625  -0.000371   0.000154
               7          8          9         10
     1  C    0.000210   0.000333   0.000332   0.000184
     2  C   -0.019585  -0.042237  -0.042155  -0.019608
     3  C    0.319083   0.299972   0.300429   0.318867
     4  H   -0.003604   0.003972   0.003988  -0.003625
     5  H   -0.000370  -0.000095  -0.000095  -0.000371
     6  H    0.000155   0.002541   0.002543   0.000154
     7  H    1.022736  -0.296796   0.145645  -0.270750
     8  H   -0.296796   1.134744  -0.330908   0.145739
     9  H    0.145645  -0.330908   1.134102  -0.296828
    10  H   -0.270750   0.145739  -0.296828   1.023010
          Atomic-Atomic Spin Densities.
               1          2          3          4          5          6
     1  C   -0.018438  -0.006256   0.001964  -0.000654  -0.000318  -0.000203
     2  C   -0.006256   0.041738   0.025193  -0.000556   0.000155   0.000745
     3  C    0.001964   0.025193  -0.301431   0.000288   0.000045  -0.000638
     4  H   -0.000654  -0.000556   0.000288  -0.004066  -0.000014  -0.000085
     5  H   -0.000318   0.000155   0.000045  -0.000014   0.001404  -0.000120
     6  H   -0.000203   0.000745  -0.000638  -0.000085  -0.000120   0.000181
     7  H   -0.001300   0.013935   0.002110  -0.000298  -0.000026   0.000032
     8  H    0.003306  -0.015080   0.010112   0.000433  -0.000015   0.000186
     9  H    0.003308  -0.014982   0.010460   0.000444  -0.000014   0.000182
    10  H   -0.001313   0.013898   0.001919  -0.000320  -0.000026   0.000033
               7          8          9         10
     1  C   -0.001300   0.003306   0.003308  -0.001313
     2  C    0.013935  -0.015080  -0.014982   0.013898
     3  C    0.002110   0.010112   0.010460   0.001919
     4  H   -0.000298   0.000433   0.000444  -0.000320
     5  H   -0.000026  -0.000015  -0.000014  -0.000026
     6  H    0.000032   0.000186   0.000182   0.000033
     7  H    0.672771  -0.312421   0.162935  -0.278348
     8  H   -0.312421   0.850013  -0.351473   0.163022
     9  H    0.162935  -0.351473   0.849131  -0.312452
    10  H   -0.278348   0.163022  -0.312452   0.673109
 Mulliken charges and spin densities:
               1          2
     1  C   -0.205599  -0.019904
     2  C   -0.139453   0.058789
     3  C   -0.347396  -0.249978
     4  H    0.109648  -0.004827
     5  H    0.107223   0.001071
     6  H    0.103387   0.000313
     7  H    0.103277   0.259391
     8  H    0.082737   0.348083
     9  H    0.082947   0.347541
    10  H    0.103228   0.259521
 Sum of Mulliken charges =  -0.00000   1.00000
 Mulliken charges and spin densities with hydrogens summed into heavy atoms:
               1          2
     1  C    0.005011  -0.018520
     2  C   -0.029805   0.053962
     3  C    0.024793   0.964558
 APT charges:
               1
     1  C   -0.632044
     2  C   -0.483172
     3  C   -1.087773
     4  H    0.353086
     5  H    0.454095
     6  H    0.304112
     7  H    0.306541
     8  H    0.239170
     9  H    0.239603
    10  H    0.306382
 Sum of APT charges =   0.00000
 APT charges with hydrogens summed into heavy atoms:
               1
     1  C    0.126162
     2  C   -0.130085
     3  C    0.003923
 Electronic spatial extent (au):  <R**2>=            216.7845
 Charge=             -0.0000 electrons
 Dipole moment (field-independent basis, Debye):
    X=             -0.2077    Y=              0.2468    Z=              0.0013  Tot=              0.3225
 Quadrupole moment (field-independent basis, Debye-Ang):
   XX=            -20.8027   YY=            -21.2020   ZZ=            -24.1041
   XY=             -0.1632   XZ=              0.0003   YZ=             -0.0021
 Traceless Quadrupole moment (field-independent basis, Debye-Ang):
   XX=              1.2336   YY=              0.8342   ZZ=             -2.0678
   XY=             -0.1632   XZ=              0.0003   YZ=             -0.0021
 Octapole moment (field-independent basis, Debye-Ang**2):
  XXX=              5.5928  YYY=              2.1478  ZZZ=              0.0041  XYY=              2.4461
  XXY=              0.8195  XXZ=              0.0051  XZZ=             -0.3473  YZZ=              0.5766
  YYZ=              0.0019  XYZ=              0.0027
 Hexadecapole moment (field-independent basis, Debye-Ang**3):
 XXXX=           -204.0379 YYYY=            -66.4825 ZZZZ=            -44.9384 XXXY=              1.7032
 XXXZ=              0.0061 YYYX=             -2.0670 YYYZ=             -0.0059 ZZZX=             -0.0018
 ZZZY=             -0.0076 XXYY=            -46.9976 XXZZ=            -45.3688 YYZZ=            -21.3478
 XXYZ=             -0.0031 YYXZ=             -0.0025 ZZXY=             -0.3355
 N-N= 7.626678125216D+01 E-N=-4.258501101491D+02  KE= 1.177242249430D+02
  Exact polarizability:   0.000   0.000   0.000   0.000   0.000   0.000
 Approx polarizability:  69.887 -16.039  63.656  -0.006   0.014  50.092
                          Isotropic Fermi Contact Couplings
        Atom                 a.u.       MegaHertz       Gauss      10(-4) cm-1
     1  C(13)             -0.00370      -4.15566      -1.48284      -1.38618
     2  C(13)              0.00553       6.21575       2.21793       2.07335
     3  C(13)             -0.10329    -116.12057     -41.43471     -38.73365
     4  H(1)              -0.00156      -6.96602      -2.48565      -2.32361
     5  H(1)               0.00025       1.12477       0.40135       0.37518
     6  H(1)               0.00023       1.02947       0.36734       0.34339
     7  H(1)               0.09786     437.41254     156.07967     145.90512
     8  H(1)               0.12950     578.84765     206.54723     193.08279
     9  H(1)               0.12938     578.30758     206.35452     192.90265
    10  H(1)               0.09789     437.57246     156.13673     145.95846
 --------------------------------------------------------
       Center         ----  Spin Dipole Couplings  ----
                      3XX-RR        3YY-RR        3ZZ-RR
 --------------------------------------------------------
     1   Atom        0.017239      0.008725     -0.025965
     2   Atom       -0.013656     -0.019377      0.033033
     3   Atom        0.009362     -0.007984     -0.001378
     4   Atom        0.000341      0.001828     -0.002169
     5   Atom        0.002665     -0.000854     -0.001811
     6   Atom        0.008648     -0.006147     -0.002502
     7   Atom        0.002361      0.001526     -0.003887
     8   Atom        0.003485     -0.003083     -0.000403
     9   Atom        0.003475     -0.003088     -0.000387
    10   Atom        0.002370      0.001524     -0.003894
 --------------------------------------------------------
                        XY            XZ            YZ
 --------------------------------------------------------
     1   Atom        0.001706      0.000015      0.000010
     2   Atom        0.004663      0.000024      0.000028
     3   Atom        0.003705     -0.000011     -0.000044
     4   Atom        0.006553     -0.000000     -0.000002
     5   Atom       -0.000043     -0.000000     -0.000000
     6   Atom       -0.001751      0.000002     -0.000001
     7   Atom        0.002336     -0.002268      0.002505
     8   Atom        0.001142     -0.000311     -0.003648
     9   Atom        0.001144      0.000306      0.003638
    10   Atom        0.002340      0.002261     -0.002500
 --------------------------------------------------------


 ---------------------------------------------------------------------------------
              Anisotropic Spin Dipole Couplings in Principal Axis System
 ---------------------------------------------------------------------------------

       Atom             a.u.   MegaHertz   Gauss  10(-4) cm-1        Axes

              Baa    -0.0260    -3.484    -1.243    -1.162 -0.0003 -0.0003  1.0000
     1 C(13)  Bbb     0.0084     1.127     0.402     0.376 -0.1894  0.9819  0.0002
              Bcc     0.0176     2.358     0.841     0.786  0.9819  0.1894  0.0004
 
              Baa    -0.0220    -2.950    -1.053    -0.984 -0.4885  0.8726 -0.0002
     2 C(13)  Bbb    -0.0110    -1.482    -0.529    -0.494  0.8726  0.4885 -0.0008
              Bcc     0.0330     4.433     1.582     1.479  0.0006  0.0006  1.0000
 
              Baa    -0.0087    -1.173    -0.419    -0.391 -0.2005  0.9797  0.0056
     3 C(13)  Bbb    -0.0014    -0.185    -0.066    -0.062  0.0028 -0.0052  1.0000
              Bcc     0.0101     1.358     0.485     0.453  0.9797  0.2005 -0.0017
 
              Baa    -0.0055    -2.940    -1.049    -0.981  0.7459 -0.6661 -0.0003
     4 H(1)   Bbb    -0.0022    -1.157    -0.413    -0.386  0.0003 -0.0001  1.0000
              Bcc     0.0077     4.097     1.462     1.367  0.6661  0.7459 -0.0001
 
              Baa    -0.0018    -0.966    -0.345    -0.322  0.0001  0.0003  1.0000
     5 H(1)   Bbb    -0.0009    -0.456    -0.163    -0.152  0.0122  0.9999 -0.0003
              Bcc     0.0027     1.422     0.507     0.474  0.9999 -0.0122 -0.0001
 
              Baa    -0.0064    -3.389    -1.209    -1.130  0.1159  0.9933  0.0001
     6 H(1)   Bbb    -0.0025    -1.335    -0.476    -0.445 -0.0002 -0.0001  1.0000
              Bcc     0.0089     4.723     1.685     1.576  0.9933 -0.1159  0.0002
 
              Baa    -0.0060    -3.176    -1.133    -1.059  0.3431 -0.3929  0.8531
     7 H(1)   Bbb     0.0016     0.871     0.311     0.291 -0.5281  0.6704  0.5212
              Bcc     0.0043     2.304     0.822     0.769  0.7768  0.6294 -0.0225
 
              Baa    -0.0057    -3.037    -1.084    -1.013 -0.0833  0.8227  0.5624
     8 H(1)   Bbb     0.0017     0.907     0.324     0.303  0.4378 -0.4768  0.7622
              Bcc     0.0040     2.130     0.760     0.710  0.8952  0.3097 -0.3204
 
              Baa    -0.0057    -3.032    -1.082    -1.011 -0.0841  0.8236 -0.5609
     9 H(1)   Bbb     0.0017     0.908     0.324     0.303 -0.4382  0.4750  0.7631
              Bcc     0.0040     2.124     0.758     0.709  0.8949  0.3100  0.3210
 
              Baa    -0.0060    -3.175    -1.133    -1.059 -0.3423  0.3927  0.8536
    10 H(1)   Bbb     0.0016     0.866     0.309     0.289 -0.5278  0.6713 -0.5205
              Bcc     0.0043     2.309     0.824     0.770  0.7773  0.6287  0.0226
 

 ---------------------------------------------------------------------------------

 No NMR shielding tensors so no spin-rotation constants.
 Leave Link  601 at Sat Jun 26 11:34:01 2021, MaxMem=  3355443200 cpu:         3.6
 (Enter /Local/ce_dana/g09/l701.exe)
 Compute integral second derivatives.
 ... and contract with generalized density number  0.
 Leave Link  701 at Sat Jun 26 11:34:02 2021, MaxMem=  3355443200 cpu:         6.2
 (Enter /Local/ce_dana/g09/l702.exe)
 L702 exits ... SP integral derivatives will be done elsewhere.
 Leave Link  702 at Sat Jun 26 11:34:02 2021, MaxMem=  3355443200 cpu:         0.1
 (Enter /Local/ce_dana/g09/l703.exe)
 Compute integral second derivatives, UseDBF=F ICtDFT=           0.
 Integral derivatives from FoFJK, PRISM(SPDF).
 Calling FoFJK, ICntrl=    100147 FMM=F ISym2X=0 I1Cent= 0 IOpClX= 1 NMat=1 NMatS=1 NMatT=0.
 FoFJK:  IHMeth= 1 ICntrl=  100147 DoSepK=F KAlg= 0 I1Cent=   0 FoldK=F
 IRaf=         0 NMat=   1 IRICut=       1 DoRegI=T DoRafI=F ISym2E= 0.
 FoFCou: FMM=F IPFlag=           0 FMFlag=      100000 FMFlg1=         800
         NFxFlg=           0 DoJE=F BraDBF=F KetDBF=F FulRan=T
         wScrn=  0.000000 ICntrl=  100147 IOpCl=  1 I1Cent=           0 NGrid=           0
         NMat0=    1 NMatS0=      1 NMatT0=    0 NMatD0=    1 NMtDS0=    0 NMtDT0=    0
 Symmetry not used in FoFCou.
 Leave Link  703 at Sat Jun 26 11:34:18 2021, MaxMem=  3355443200 cpu:       152.6
 (Enter /Local/ce_dana/g09/l716.exe)
 Dipole        =-8.17070445D-02 9.70821698D-02 5.30173656D-04
 Polarizability= 0.00000000D+00 0.00000000D+00 0.00000000D+00
                 0.00000000D+00 0.00000000D+00 0.00000000D+00
 ***** Axes restored to original set *****
 -------------------------------------------------------------------
 Center     Atomic                   Forces (Hartrees/Bohr)
 Number     Number              X              Y              Z
 -------------------------------------------------------------------
      1        6          -0.000890987    0.000948853    0.000421356
      2        6          -0.001760039    0.001487572   -0.006214661
      3        6           0.001053845   -0.001092750    0.000709998
      4        1          -0.001328344    0.001911853    0.005327518
      5        1           0.002064657   -0.001832897    0.005137722
      6        1           0.001453252   -0.002069611   -0.005351732
      7        1          -0.001937008    0.000072546    0.000844916
      8        1          -0.000150583   -0.001303529   -0.000706109
      9        1           0.001270667   -0.000034037   -0.000808913
     10        1           0.000224541    0.001911999    0.000639905
 -------------------------------------------------------------------
 Cartesian Forces:  Max     0.006214661 RMS     0.002341989
 Force constants in Cartesian coordinates: 
                1             2             3             4             5 
      1  0.429599D+00
      2 -0.358189D+00  0.511590D+00
      3  0.228898D-01  0.163688D-01  0.609288D+00
      4 -0.269846D+00  0.245957D+00  0.593291D-02  0.443101D+00
      5  0.245914D+00 -0.327872D+00 -0.115221D-01 -0.336680D+00  0.525054D+00
      6  0.518801D-02 -0.107067D-01 -0.109248D+00 -0.872093D-02  0.447092D-01
      7 -0.800008D-02  0.124013D-01 -0.209301D-01 -0.952089D-01  0.273313D-01
      8  0.138360D-01 -0.895872D-02  0.233016D-01  0.277654D-01 -0.947481D-01
      9 -0.380008D-02  0.408593D-02  0.244696D-02 -0.419633D-01  0.385696D-01
     10 -0.161569D-02  0.107380D-01  0.197849D-01 -0.658580D-01  0.369918D-01
     11  0.903414D-02 -0.554223D-02 -0.226412D-01  0.370631D-01 -0.861693D-01
     12 -0.750107D-03  0.408350D-03  0.125657D-02  0.618512D-01 -0.873590D-01
     13 -0.838725D-01  0.476739D-01 -0.851301D-01 -0.492395D-02  0.741379D-02
     14  0.473548D-01 -0.815005D-01  0.775694D-01  0.924681D-02 -0.542798D-02
     15 -0.886230D-01  0.815191D-01 -0.246896D+00  0.231507D-02 -0.259845D-02
     16 -0.671774D-01  0.399106D-01  0.612216D-01 -0.159904D-02  0.994413D-02
     17  0.401509D-01 -0.884167D-01 -0.866223D-01  0.825480D-02 -0.534915D-02
     18  0.642060D-01 -0.899927D-01 -0.251165D+00 -0.542274D-03  0.137456D-03
     19 -0.529934D-03  0.141425D-02  0.675872D-03 -0.853476D-02 -0.292661D-02
     20  0.710602D-03 -0.607894D-03  0.933469D-03  0.106771D-01 -0.286088D-02
     21 -0.437020D-03  0.129023D-02 -0.314111D-02 -0.233286D-01  0.145590D-02
     22  0.966464D-03 -0.736459D-03 -0.153464D-02 -0.321959D-02 -0.306254D-02
     23  0.520065D-03  0.115862D-02  0.173152D-02  0.443008D-02  0.753372D-02
     24  0.222798D-02 -0.928673D-03  0.120911D-03 -0.443961D-02 -0.854879D-02
     25  0.105218D-02  0.185679D-03 -0.164356D-02  0.794515D-02  0.315483D-02
     26 -0.566684D-03  0.944069D-03  0.172272D-02 -0.323551D-02 -0.260301D-02
     27  0.638390D-03 -0.240621D-02  0.248551D-03  0.703363D-02  0.192323D-02
     28 -0.576523D-03  0.644819D-03 -0.126662D-02 -0.185642D-02  0.119196D-01
     29  0.123480D-02 -0.794694D-03 -0.841935D-03 -0.347808D-02 -0.755733D-02
     30 -0.153993D-02  0.361830D-03 -0.291144D-02  0.186191D-02  0.232329D-01
                6             7             8             9            10 
      6  0.562156D+00
      7 -0.470823D-01  0.217942D+00
      8  0.443570D-01 -0.766261D-01  0.221043D+00
      9 -0.169376D+00  0.928432D-01 -0.899365D-01  0.316588D+00
     10  0.608018D-01  0.635773D-02 -0.197061D-02 -0.122699D-01  0.631953D-01
     11 -0.861767D-01 -0.402133D-03  0.694649D-02  0.118277D-01 -0.473409D-01
     12 -0.252934D+00  0.650963D-02 -0.924065D-02 -0.177054D-01 -0.655096D-01
     13 -0.192546D-01  0.495840D-02  0.752212D-02  0.104884D-02 -0.373103D-02
     14  0.216072D-01  0.744461D-02  0.307165D-02 -0.202635D-02 -0.418660D-02
     15  0.316120D-02  0.362326D-04 -0.901131D-03  0.141102D-02  0.155485D-03
     16  0.197551D-01 -0.283315D-02 -0.342765D-02  0.149866D-02  0.392972D-02
     17 -0.226355D-01 -0.359617D-02 -0.205930D-02 -0.106433D-02  0.800522D-02
     18  0.140071D-03 -0.474604D-03  0.114989D-02  0.137250D-02 -0.634512D-03
     19 -0.503233D-03 -0.934052D-01  0.155061D-01 -0.206470D-01  0.872078D-04
     20 -0.833957D-03  0.568518D-02 -0.546320D-02  0.178251D-01 -0.344513D-03
     21  0.329451D-02  0.258412D-01  0.146448D-01 -0.322960D-01  0.344854D-04
     22 -0.595171D-02 -0.347336D-02  0.143937D-01 -0.205525D-01 -0.122597D-02
     23  0.284770D-02  0.620195D-02 -0.214255D-01 -0.205311D-01 -0.375729D-03
     24 -0.187434D-01 -0.114186D-01  0.243250D-01 -0.353599D-01 -0.364839D-02
     25 -0.465740D-02 -0.192468D-01  0.106830D-01  0.207944D-01 -0.159133D-02
     26  0.532934D-02  0.157394D-01 -0.391583D-02  0.144303D-01 -0.579518D-03
     27 -0.197505D-01 -0.253243D-01  0.110762D-01 -0.374814D-01  0.786839D-03
     28  0.425251D-03 -0.709107D-02 -0.768183D-02 -0.169523D-01  0.452126D-03
     29  0.150230D-02  0.582069D-02 -0.944906D-01  0.268196D-01 -0.937116D-03
     30  0.129923D-02 -0.200003D-01 -0.187764D-01 -0.296003D-01  0.498962D-03
               11            12            13            14            15 
     11  0.867958D-01
     12  0.937709D-01  0.269092D+00
     13 -0.416207D-02  0.421008D-03  0.826725D-01
     14 -0.276048D-02  0.251590D-03 -0.561458D-01  0.809199D-01
     15  0.559097D-03  0.121372D-02  0.958903D-01 -0.881084D-01  0.255779D+00
     16  0.800132D-02 -0.679735D-03  0.503611D-02 -0.452702D-02 -0.978667D-02
     17  0.212982D-02 -0.310795D-04 -0.305760D-02  0.595497D-02  0.954564D-02
     18 -0.879269D-04  0.158003D-02  0.775665D-02 -0.101130D-01 -0.152367D-01
     19 -0.939811D-03 -0.661122D-04  0.720387D-03  0.881902D-03 -0.106454D-03
     20  0.535347D-03 -0.357688D-03 -0.432244D-03 -0.103153D-02  0.309894D-03
     21 -0.435133D-03  0.441755D-03  0.787644D-03  0.152813D-02  0.235050D-04
     22 -0.694365D-03 -0.661563D-04  0.171781D-03  0.242134D-03  0.351039D-03
     23 -0.136047D-02  0.212987D-02  0.210506D-04  0.746355D-04  0.172447D-04
     24 -0.335240D-03 -0.156902D-02  0.340088D-03  0.224327D-03  0.124171D-03
     25 -0.202534D-03 -0.210070D-02  0.789691D-04 -0.161500D-05 -0.536846D-04
     26 -0.817047D-03  0.312881D-03  0.200313D-03  0.911088D-04 -0.362173D-03
     27  0.356015D-02 -0.174871D-02 -0.270722D-03 -0.308684D-03  0.201354D-03
     28 -0.356717D-03  0.390622D-03 -0.111073D-02 -0.309243D-03 -0.178339D-03
     29  0.242016D-03  0.114738D-03  0.966515D-03  0.608196D-03  0.191572D-04
     30 -0.417510D-04  0.372344D-03 -0.158903D-02 -0.624311D-03  0.218381D-03
               16            17            18            19            20 
     16  0.631855D-01
     17 -0.487343D-01  0.879941D-01
     18 -0.710369D-01  0.995179D-01  0.262402D+00
     19 -0.424102D-03 -0.100673D-02  0.161904D-04  0.126126D+00
     20  0.438632D-03  0.671732D-03 -0.217056D-04 -0.628715D-02  0.476338D-01
     21 -0.543550D-03 -0.131216D-03  0.826090D-04 -0.785925D-02  0.107045D-01
     22 -0.535593D-03  0.244117D-03  0.326494D-03 -0.227254D-02  0.159119D-01
     23 -0.683397D-03 -0.172396D-03 -0.373676D-03  0.438513D-01 -0.128432D-01
     24 -0.720392D-03  0.545420D-04  0.434230D-03  0.277546D-01 -0.209101D-01
     25 -0.190540D-03 -0.625743D-03  0.433977D-03  0.101217D-01  0.384090D-02
     26  0.184577D-03 -0.447681D-03 -0.318978D-03 -0.713643D-02 -0.351453D-02
     27  0.631797D-04  0.841937D-03  0.366342D-03  0.124949D-01 -0.610594D-02
     28  0.608507D-03  0.365537D-03 -0.509900D-04 -0.318886D-01 -0.302004D-01
     29 -0.110682D-02 -0.305461D-03  0.102760D-03 -0.433568D-01 -0.225197D-01
     30  0.228689D-03  0.524478D-03  0.239292D-04 -0.117595D-01 -0.154358D-02
               21            22            23            24            25 
     21  0.318419D-01
     22  0.145014D-01  0.474557D-01
     23 -0.454860D-01  0.991581D-02  0.386873D-01
     24 -0.229693D-01 -0.174568D-02  0.209686D-01  0.569373D-01
     25 -0.181439D-01 -0.349180D-01 -0.711390D-01 -0.132497D-01  0.378103D-01
     26 -0.161401D-02 -0.299065D-01 -0.222438D-01 -0.184737D-02  0.950978D-02
     27  0.626780D-02  0.979178D-02  0.217480D-01  0.158458D-01 -0.199142D-01
     28  0.914757D-02 -0.294895D-02  0.725783D-02  0.489972D-02 -0.106163D-02
     29  0.180428D-01 -0.630775D-02  0.105911D-01 -0.130023D-01  0.445947D-01
     30  0.164543D-01  0.487997D-02  0.169478D-01  0.517918D-02  0.385348D-01
               26            27            28            29            30 
     26  0.457160D-01
     27  0.426964D-02  0.598553D-01
     28  0.157906D-01  0.147005D-01  0.454733D-01
     29 -0.132093D-01 -0.345984D-01  0.256988D-02  0.127436D+00
     30 -0.219223D-01 -0.238046D-01 -0.111155D-01  0.184131D-02  0.327690D-01
 FormGI is forming the generalized inverse of G from B-inverse, IUseBI=4.
 Force constants in internal coordinates: 
                1             2             3             4             5 
      1  0.615733D+00
      2  0.571961D-02  0.339769D+00
      3  0.733155D-02  0.194382D-02  0.334142D+00
      4  0.162057D-01 -0.752131D-03  0.908671D-03  0.299734D+00
      5  0.763391D-02  0.842529D-03 -0.319829D-03  0.452797D-02  0.331901D+00
      6  0.742551D-03  0.114077D-03 -0.309863D-03  0.644705D-03  0.479209D-03
      7 -0.529940D-03 -0.167212D-03  0.385041D-03  0.768741D-02 -0.779018D-03
      8 -0.528071D-03 -0.168022D-03  0.385837D-03  0.766462D-02 -0.777407D-03
      9  0.746438D-03  0.115552D-03 -0.310282D-03  0.647027D-03  0.479819D-03
     10  0.115094D-01  0.542678D-02 -0.125477D-01  0.479458D-02 -0.308669D-02
     11  0.970490D-02 -0.116007D-01  0.693981D-02 -0.436707D-02  0.413965D-02
     12 -0.212143D-01  0.617388D-02  0.560788D-02 -0.427512D-03 -0.105295D-02
     13  0.142196D-01  0.456910D-02 -0.419156D-02  0.173024D-01 -0.118887D-01
     14  0.101820D-01 -0.305289D-02  0.487346D-02 -0.252404D-01  0.677133D-02
     15 -0.244016D-01 -0.151620D-02 -0.681899D-03  0.793802D-02  0.511740D-02
     16  0.476026D-02  0.709747D-03 -0.431364D-03  0.719233D-02 -0.103463D-02
     17 -0.441860D-02 -0.562398D-03  0.977410D-03  0.111193D-01  0.184757D-02
     18 -0.441601D-02 -0.562195D-03  0.977573D-03  0.111192D-01  0.185126D-02
     19  0.476239D-02  0.709799D-03 -0.431087D-03  0.719514D-02 -0.103339D-02
     20 -0.259650D-03  0.125764D-03 -0.261588D-03 -0.403549D-02 -0.851892D-04
     21 -0.374132D-03 -0.150071D-03 -0.538849D-03 -0.182881D-01 -0.809094D-03
     22 -0.157791D-02 -0.487783D-03  0.140982D-03 -0.521396D-02  0.237182D-03
     23  0.158443D-02  0.526631D-04 -0.207891D-03 -0.703852D-02 -0.930407D-03
     24 -0.374074D-03 -0.149958D-03 -0.538828D-03 -0.182905D-01 -0.806519D-03
     25 -0.260538D-03  0.125502D-03 -0.260943D-03 -0.403071D-02 -0.857426D-04
     26 -0.207264D-04 -0.390358D-05 -0.509168D-05  0.310604D-05 -0.141514D-05
     27 -0.224494D-04 -0.449872D-05 -0.527377D-05  0.000000D+00 -0.225567D-05
     28  0.908929D-05  0.336581D-05  0.308794D-05  0.152031D-05  0.000000D+00
     29  0.736636D-05  0.277067D-05  0.290586D-05  0.000000D+00  0.000000D+00
     30  0.478860D-03 -0.641274D-04 -0.447918D-04 -0.792863D-03 -0.161441D-03
     31  0.559141D-03  0.153523D-03 -0.203502D-03  0.266206D-03 -0.885663D-04
     32 -0.564852D-03 -0.153853D-03  0.202572D-03 -0.267287D-03  0.876073D-04
     33 -0.482046D-03  0.638487D-04  0.443056D-04  0.794315D-03  0.160519D-03
     34  0.483497D-03 -0.637196D-04 -0.440941D-04 -0.793694D-03 -0.160400D-03
     35  0.563778D-03  0.153931D-03 -0.202804D-03  0.265375D-03 -0.875254D-04
     36 -0.560215D-03 -0.153445D-03  0.203270D-03 -0.268118D-03  0.886482D-04
     37 -0.477408D-03  0.642565D-04  0.450033D-04  0.793484D-03  0.161560D-03
                6             7             8             9            10 
      6  0.125845D+00
      7  0.583522D-01  0.687017D-01
      8 -0.976828D-03  0.735093D-01  0.689559D-01
      9  0.475523D-01 -0.925541D-03  0.583292D-01  0.125968D+00
     10  0.324877D-03 -0.242083D-03 -0.242097D-03  0.323546D-03  0.788332D-01
     11 -0.610783D-03  0.738695D-03  0.739806D-03 -0.609158D-03 -0.439296D-01
     12  0.285852D-03 -0.496919D-03 -0.497400D-03  0.285667D-03 -0.349036D-01
     13 -0.214646D-02 -0.184685D-02 -0.185117D-02 -0.214496D-02  0.103112D-01
     14  0.164293D-02  0.359297D-03  0.360135D-03  0.164529D-02 -0.868144D-02
     15  0.503507D-03  0.148763D-02  0.149097D-02  0.499691D-03 -0.162978D-02
     16  0.982065D-02 -0.185029D-01  0.129819D-01 -0.172693D-01  0.103329D-02
     17 -0.108782D-01  0.857218D-02 -0.133233D-01  0.136152D-01 -0.345049D-03
     18  0.136248D-01 -0.133403D-01  0.856878D-02 -0.108749D-01 -0.348822D-03
     19 -0.172862D-01  0.129701D-01 -0.184934D-01  0.981646D-02  0.102790D-02
     20  0.993189D-02  0.172143D-01 -0.138012D-01 -0.975593D-02 -0.225013D-03
     21 -0.234434D-01  0.326348D-01 -0.215788D-01  0.274429D-01 -0.684118D-03
     22  0.139584D-01 -0.112934D-01 -0.112777D-01  0.139381D-01 -0.538431D-03
     23 -0.111261D-01  0.132898D-01  0.132614D-01 -0.111263D-01  0.203345D-03
     24  0.274516D-01 -0.215701D-01  0.326200D-01 -0.234291D-01 -0.682528D-03
     25 -0.974793D-02 -0.138105D-01  0.172217D-01  0.993618D-02 -0.223841D-03
     26 -0.814420D-03 -0.667481D-04  0.648394D-04  0.816021D-03 -0.232091D-04
     27 -0.647084D-03 -0.576552D-03  0.575368D-03  0.649407D-03 -0.226620D-04
     28 -0.889159D-03 -0.486385D-03  0.485273D-03  0.890754D-03  0.817960D-05
     29 -0.721823D-03 -0.996189D-03  0.995802D-03  0.724140D-03  0.872670D-05
     30  0.565099D-03 -0.136350D-01 -0.254128D-04  0.123367D-01 -0.174475D-05
     31  0.116436D-01  0.132833D-02 -0.144151D-01 -0.269524D-03  0.128884D-05
     32  0.267873D-03  0.144324D-01 -0.134120D-02 -0.116438D-01  0.000000D+00
     33 -0.123387D-01  0.307884D-04  0.136268D-01 -0.556746D-03  0.170153D-05
     34  0.403416D-03 -0.131421D-01 -0.519137D-03  0.124980D-01 -0.297012D-05
     35  0.114819D-01  0.182118D-02 -0.149088D-01 -0.108307D-03  0.000000D+00
     36  0.106189D-03  0.149253D-01 -0.183493D-02 -0.114826D-01 -0.122389D-05
     37 -0.125004D-01  0.523637D-03  0.131331D-01 -0.395528D-03  0.000000D+00
               11            12            13            14            15 
     11  0.794339D-01
     12 -0.355043D-01  0.704079D-01
     13 -0.885470D-02 -0.145651D-02  0.109033D+00
     14  0.102490D-01 -0.156759D-02 -0.541612D-01  0.895904D-01
     15 -0.139433D-02  0.302410D-02 -0.548713D-01 -0.354291D-01  0.903004D-01
     16 -0.414605D-03 -0.617577D-03  0.709154D-02 -0.318974D-03 -0.677275D-02
     17  0.621987D-04  0.283563D-03 -0.447616D-02 -0.255281D-02  0.702892D-02
     18  0.647537D-04  0.283356D-03 -0.448563D-02 -0.255326D-02  0.703894D-02
     19 -0.410836D-03 -0.618168D-03  0.707898D-02 -0.313090D-03 -0.676571D-02
     20 -0.235922D-04  0.248240D-03 -0.169810D-02  0.940663D-03  0.757478D-03
     21  0.349126D-03  0.334603D-03 -0.260524D-02  0.286213D-02 -0.256757D-03
     22  0.368177D-03  0.170254D-03 -0.298304D-02  0.246852D-03  0.273618D-02
     23  0.771892D-04 -0.280535D-03  0.328821D-02  0.103241D-02 -0.432062D-02
     24  0.347925D-03  0.334993D-03 -0.260229D-02  0.285569D-02 -0.253538D-03
     25 -0.244849D-04  0.248692D-03 -0.169921D-02  0.940564D-03  0.758599D-03
     26  0.162635D-05  0.684157D-05  0.000000D+00 -0.447328D-05  0.560538D-05
     27  0.262362D-05  0.690719D-05  0.195431D-05  0.000000D+00 -0.170288D-05
     28  0.110187D-04 -0.620214D-05  0.333638D-05 -0.484558D-05  0.178303D-05
     29  0.120159D-04 -0.613651D-05  0.584434D-05  0.000000D+00 -0.552523D-05
     30  0.832321D-04 -0.807377D-04  0.375096D-03  0.408856D-04 -0.416363D-03
     31 -0.630103D-04  0.626375D-04 -0.352635D-03  0.255645D-03  0.965830D-04
     32  0.633429D-04 -0.624283D-04  0.360440D-03 -0.265349D-03 -0.954986D-04
     33 -0.819691D-04  0.810178D-04 -0.372943D-03 -0.479516D-04  0.420513D-03
     34  0.833617D-04 -0.811986D-04  0.371987D-03  0.484736D-04 -0.420078D-03
     35 -0.628807D-04  0.621766D-04 -0.355744D-03  0.263233D-03  0.928685D-04
     36  0.634725D-04 -0.628892D-04  0.357332D-03 -0.257761D-03 -0.992132D-04
     37 -0.818395D-04  0.805569D-04 -0.376052D-03 -0.403636D-04  0.416799D-03
               16            17            18            19            20 
     16  0.623808D-01
     17  0.848529D-02  0.595476D-01
     18 -0.518830D-01  0.816592D-02  0.595681D-01
     19  0.664598D-02 -0.518685D-01  0.848968D-02  0.623733D-01
     20 -0.184993D-01 -0.148742D-01  0.107171D-01  0.894925D-02  0.355458D-01
     21 -0.104787D-01 -0.164814D-01 -0.770054D-02 -0.152643D-01  0.811191D-02
     22 -0.162293D-01  0.908063D-02  0.907031D-02 -0.162432D-01 -0.124525D-01
     23  0.106262D-01 -0.175855D-01 -0.175809D-01  0.106355D-01 -0.140735D-01
     24 -0.152620D-01 -0.769462D-02 -0.164827D-01 -0.104853D-01  0.555927D-02
     25  0.893751D-02  0.107296D-01 -0.148580D-01 -0.185033D-01 -0.136535D-02
     26 -0.338186D-02 -0.175417D-02  0.175167D-02  0.338631D-02  0.767758D-03
     27 -0.204301D-02 -0.141266D-02  0.140995D-02  0.204648D-02  0.442629D-03
     28 -0.187337D-02 -0.781284D-03  0.780355D-03  0.187509D-02  0.269960D-03
     29 -0.534514D-03 -0.439770D-03  0.438639D-03  0.535254D-03 -0.551690D-04
     30  0.937259D-03 -0.180650D-02 -0.542624D-03  0.873410D-03 -0.145327D-01
     31  0.384875D-02  0.122767D-02 -0.385249D-02 -0.147079D-02  0.139312D-01
     32  0.146645D-02  0.384722D-02 -0.122889D-02 -0.384574D-02 -0.293738D-02
     33 -0.874454D-03  0.548309D-03  0.180834D-02 -0.937698D-03  0.149854D-02
     34 -0.356771D-03 -0.213753D-02 -0.213034D-03  0.216944D-02 -0.142183D-01
     35  0.255472D-02  0.896631D-03 -0.352290D-02 -0.174760D-03  0.142456D-01
     36  0.172420D-03  0.351618D-02 -0.899297D-03 -0.254972D-02 -0.262298D-02
     37 -0.216848D-02  0.217275D-03  0.213793D-02  0.358328D-03  0.181294D-02
               21            22            23            24            25 
     21  0.182002D-01
     22  0.679708D-02  0.353903D-01
     23  0.731355D-02 -0.176665D-02  0.369023D-01
     24  0.317038D-01  0.679462D-02  0.731456D-02  0.182011D-01
     25  0.556070D-02 -0.124472D-01 -0.140869D-01  0.810878D-02  0.355457D-01
     26  0.160737D-02 -0.196820D-05  0.107081D-05 -0.160893D-02 -0.768330D-03
     27  0.615970D-03  0.000000D+00  0.000000D+00 -0.616471D-03 -0.443213D-03
     28  0.107693D-02 -0.163061D-05  0.000000D+00 -0.107743D-02 -0.269584D-03
     29  0.855364D-04  0.000000D+00  0.000000D+00 -0.849719D-04  0.555329D-04
     30 -0.812379D-03  0.144740D-01  0.201544D-02  0.931587D-03 -0.150180D-02
     31 -0.184068D-05 -0.197314D-02 -0.146279D-01 -0.204260D-03  0.293710D-02
     32  0.202687D-03  0.197730D-02  0.146291D-01  0.418906D-05 -0.139331D-01
     33 -0.932433D-03 -0.144756D-01 -0.201620D-02  0.813957D-03  0.145363D-01
     34  0.146511D-03  0.144727D-01  0.201599D-02 -0.277432D-04 -0.181613D-02
     35  0.957049D-03 -0.197439D-02 -0.146274D-01 -0.116359D-02  0.262276D-02
     36  0.116158D-02  0.197605D-02  0.146296D-01 -0.955141D-03 -0.142475D-01
     37  0.264571D-04 -0.144768D-01 -0.201565D-02 -0.145373D-03  0.142219D-01
               26            27            28            29            30 
     26  0.202782D-01
     27  0.161063D-01  0.176379D-01
     28  0.162810D-03 -0.181208D-02  0.178969D-01
     29 -0.400903D-02 -0.280505D-03  0.159220D-01  0.196505D-01
     30 -0.156630D-02  0.118409D-02 -0.543341D-03  0.220705D-02  0.131529D-01
     31 -0.233692D-02  0.598210D-03 -0.108689D-02  0.184824D-02 -0.285913D-02
     32 -0.233681D-02  0.598191D-03 -0.108674D-02  0.184827D-02 -0.140057D-02
     33 -0.156642D-02  0.118347D-02 -0.542621D-03  0.220727D-02 -0.289510D-02
     34  0.246751D-02 -0.296807D-03  0.136621D-02 -0.139811D-02  0.104936D-01
     35  0.169689D-02 -0.882692D-03  0.822663D-03 -0.175692D-02 -0.551849D-02
     36  0.169699D-02 -0.882711D-03  0.822810D-03 -0.175689D-02 -0.405993D-02
     37  0.246738D-02 -0.297429D-03  0.136693D-02 -0.139789D-02 -0.555445D-02
               31            32            33            34            35 
     31  0.139279D-01
     32 -0.305179D-02  0.139278D-01
     33 -0.140255D-02 -0.285969D-02  0.131551D-01
     34 -0.569713D-02 -0.423849D-02 -0.555405D-02  0.131665D-01
     35  0.110899D-01 -0.588970D-02 -0.406150D-02 -0.302424D-02  0.135842D-01
     36 -0.588978D-02  0.110899D-01 -0.551864D-02 -0.156560D-02 -0.339545D-02
     37 -0.424055D-02 -0.569760D-02  0.104961D-01 -0.288116D-02 -0.156725D-02
               36            37 
     36  0.135842D-01
     37 -0.302431D-02  0.131694D-01
 Leave Link  716 at Sat Jun 26 11:34:18 2021, MaxMem=  3355443200 cpu:         0.1
 (Enter /Local/ce_dana/g09/l103.exe)

 GradGradGradGradGradGradGradGradGradGradGradGradGradGradGradGradGradGrad
 Berny optimization.
 Red2BG is reusing G-inverse.
 Internal  Forces:  Max     0.005897090 RMS     0.001897372
 Search for a saddle point.
 Step number   1 out of a maximum of  100
 All quantities printed in internal units (Hartrees-Bohrs-Radians)
 Swapping is turned off.
 Second derivative matrix not updated -- analytic derivatives used.
 ITU=  0
     Eigenvalues ---   -0.11792   0.00079   0.01329   0.01651   0.02171
     Eigenvalues ---    0.03147   0.03840   0.06926   0.07517   0.09588
     Eigenvalues ---    0.10282   0.10554   0.11163   0.12365   0.12805
     Eigenvalues ---    0.14361   0.14581   0.16792   0.22011   0.31109
     Eigenvalues ---    0.33345   0.33541   0.34102   0.62045
 Eigenvectors required to have negative eigenvalues:
                          R7        R8        A12       A15       R6
   1                   -0.44167   0.44108   0.38813  -0.38803   0.27740
                          R9        A7        A10       A9        A8
   1                   -0.27695  -0.19589   0.19581  -0.19155   0.19152
 RFO step:  Lambda0=1.748603862D-08 Lambda=-4.08018594D-04.
 Linear search not attempted -- option 19 set.
 Iteration  1 RMS(Cart)=  0.00606901 RMS(Int)=  0.00001686
 Iteration  2 RMS(Cart)=  0.00002148 RMS(Int)=  0.00000148
 Iteration  3 RMS(Cart)=  0.00000000 RMS(Int)=  0.00000148
 ITry= 1 IFail=0 DXMaxC= 1.77D-02 DCOld= 1.00D+10 DXMaxT= 5.00D-02 DXLimC= 3.00D+00 Rises=F
 Variable       Old X    -DE/DX   Delta X   Delta X   Delta X     New X
                                 (Linear)    (Quad)   (Total)
    R1        2.51588  -0.00395   0.00000  -0.00647  -0.00647   2.50941
    R2        2.06446  -0.00581   0.00000  -0.01657  -0.01657   2.04789
    R3        2.06949  -0.00590   0.00000  -0.01748  -0.01748   2.05201
    R4        2.85401   0.00093   0.00000   0.00393   0.00393   2.85794
    R5        2.07003  -0.00579   0.00000  -0.01754  -0.01754   2.05249
    R6        2.22794  -0.00207   0.00000  -0.01022  -0.01022   2.21772
    R7        2.29617  -0.00144   0.00000  -0.00560  -0.00560   2.29058
    R8        2.29575  -0.00146   0.00000  -0.00518  -0.00518   2.29057
    R9        2.22772  -0.00199   0.00000  -0.01001  -0.01001   2.21772
    A1        2.11992   0.00030   0.00000   0.00240   0.00240   2.12233
    A2        2.11739   0.00038   0.00000   0.00330   0.00330   2.12069
    A3        2.04587  -0.00068   0.00000  -0.00570  -0.00570   2.04017
    A4        2.17071  -0.00009   0.00000  -0.00226  -0.00226   2.16845
    A5        2.08811   0.00057   0.00000   0.00723   0.00723   2.09534
    A6        2.02436  -0.00048   0.00000  -0.00497  -0.00497   2.01939
    A7        1.83898   0.00027   0.00000   0.00180   0.00180   1.84078
    A8        1.89082   0.00025   0.00000   0.00295   0.00295   1.89378
    A9        1.89096   0.00026   0.00000   0.00279   0.00279   1.89375
   A10        1.83870   0.00025   0.00000   0.00208   0.00208   1.84077
   A11        1.48965  -0.00023   0.00000  -0.00232  -0.00232   1.48733
   A12        2.55300  -0.00053   0.00000  -0.00463  -0.00462   2.54838
   A13        1.51473  -0.00011   0.00000   0.00085   0.00084   1.51557
   A14        1.45356  -0.00004   0.00000  -0.00173  -0.00173   1.45183
   A15        2.55341  -0.00051   0.00000  -0.00505  -0.00505   2.54835
   A16        1.48946  -0.00020   0.00000  -0.00211  -0.00212   1.48734
    D1       -3.14080  -0.00003   0.00000  -0.00079  -0.00079  -3.14159
    D2        0.00097  -0.00003   0.00000  -0.00095  -0.00095   0.00002
    D3       -0.00010   0.00000   0.00000   0.00010   0.00010   0.00000
    D4       -3.14152   0.00000   0.00000  -0.00006  -0.00006  -3.14158
    D5       -2.34917   0.00002   0.00000   0.00140   0.00140  -2.34777
    D6       -0.77586  -0.00007   0.00000   0.00029   0.00029  -0.77557
    D7        0.77500   0.00005   0.00000   0.00026   0.00026   0.77526
    D8        2.34805  -0.00001   0.00000  -0.00059  -0.00059   2.34746
    D9        0.79225   0.00002   0.00000   0.00156   0.00156   0.79382
   D10        2.36557  -0.00007   0.00000   0.00045   0.00045   2.36601
   D11       -2.36676   0.00005   0.00000   0.00041   0.00041  -2.36634
   D12       -0.79371  -0.00001   0.00000  -0.00043  -0.00043  -0.79414
         Item               Value     Threshold  Converged?
 Maximum Force            0.005897     0.000015     NO 
 RMS     Force            0.001897     0.000010     NO 
 Maximum Displacement     0.017651     0.000060     NO 
 RMS     Displacement     0.006070     0.000040     NO 
 Predicted change in Energy=-2.042928D-04
 Lowest energy point so far.  Saving SCF results.
 GradGradGradGradGradGradGradGradGradGradGradGradGradGradGradGradGradGrad

 Leave Link  103 at Sat Jun 26 11:34:18 2021, MaxMem=  3355443200 cpu:         0.1
 (Enter /Local/ce_dana/g09/l202.exe)
                          Input orientation:                          
 ---------------------------------------------------------------------
 Center     Atomic      Atomic             Coordinates (Angstroms)
 Number     Number       Type             X           Y           Z
 ---------------------------------------------------------------------
      1          6           0       -1.513981    0.999315   -1.028768
      2          6           0       -0.632062    0.007054   -1.060597
      3          6           0        0.005011   -0.604989    0.166908
      4          1           0       -0.324850   -0.417339   -2.012010
      5          1           0       -1.944183    1.406008   -1.936472
      6          1           0       -1.837627    1.441022   -0.091071
      7          1           0        1.147731   -0.694274   -0.085039
      8          1           0        0.342897    0.289689    0.911638
      9          1           0       -0.856786   -0.779156    1.001293
     10          1           0       -0.054891   -1.765769    0.004859
 ---------------------------------------------------------------------
                    Distance matrix (angstroms):
                    1          2          3          4          5
     1  C    0.000000
     2  C    1.327922   0.000000
     3  C    2.512125   1.512359   0.000000
     4  H    2.094686   1.086128   2.211720   0.000000
     5  H    1.083697   2.108528   3.502524   2.439782   0.000000
     6  H    1.085876   2.109415   2.765507   3.071157   1.848806
     7  H    3.292960   2.147380   1.173567   2.440985   4.171202
     8  H    2.777903   2.218139   1.212122   3.081151   3.819507
     9  H    2.777771   2.218112   1.212116   3.081212   3.819403
    10  H    3.292874   2.147376   1.173566   2.441086   4.171134
                    6          7          8          9         10
     6  H    0.000000
     7  H    3.670408   0.000000
     8  H    2.661894   1.615335   0.000000
     9  H    2.661672   2.281537   1.609256   0.000000
    10  H    3.670266   1.613221   2.281532   1.615339   0.000000
 Stoichiometry    C3H7(2)
 Framework group  C1[X(C3H7)]
 Deg. of freedom    24
 Full point group                 C1      NOp   1
 RotChk:  IX=0 Diff= 8.85D-04
 Largest Abelian subgroup         C1      NOp   1
 Largest concise Abelian subgroup C1      NOp   1
                         Standard orientation:                         
 ---------------------------------------------------------------------
 Center     Atomic      Atomic             Coordinates (Angstroms)
 Number     Number       Type             X           Y           Z
 ---------------------------------------------------------------------
      1          6           0        1.331645   -0.218068   -0.000002
      2          6           0        0.199482    0.475895   -0.000000
      3          6           0       -1.179425   -0.145268    0.000003
      4          1           0        0.227007    1.561675   -0.000012
      5          1           0        2.298140    0.272122    0.000001
      6          1           0        1.331650   -1.303944   -0.000004
[...]
 Alpha virt. eigenvalues --    0.58500   0.62162   0.64025   0.66943   0.69027
 Alpha virt. eigenvalues --    0.70486   0.71993   0.72123   0.73859   0.77077
 Alpha virt. eigenvalues --    0.78342   0.78660   0.79131   0.82142   0.82597
 Alpha virt. eigenvalues --    0.84534   0.85715   0.88562   0.92742   0.96238
 Alpha virt. eigenvalues --    0.97645   1.00593   1.05847   1.09855   1.12524
 Alpha virt. eigenvalues --    1.19653   1.22247   1.26382   1.27168   1.29915
 Alpha virt. eigenvalues --    1.32608   1.35983   1.39833   1.39833   1.41813
 Alpha virt. eigenvalues --    1.47336   1.48882   1.50326   1.51358   1.53574
 Alpha virt. eigenvalues --    1.57888   1.59548   1.63404   1.66633   1.71068
 Alpha virt. eigenvalues --    1.75359   1.75609   1.76810   1.79885   1.88947
 Alpha virt. eigenvalues --    1.98626   2.03426   2.16577   2.73523   2.79898
 Alpha virt. eigenvalues --    2.83282   2.89623   2.96624   3.00420   3.04767
 Alpha virt. eigenvalues --    3.07258   3.09717   3.11335   3.13184   3.13560
 Alpha virt. eigenvalues --    3.16955   3.21897   3.23693   3.32239   3.34865
 Alpha virt. eigenvalues --    3.37783   3.40736   3.42322   3.45969   3.47977
 Alpha virt. eigenvalues --    3.50969   3.52321   3.58504   3.64653   3.65837
 Alpha virt. eigenvalues --    3.67965   3.68483   3.71826   3.75545   3.78547
 Alpha virt. eigenvalues --    3.80343   3.84395   3.97708   3.98400   4.00976
 Alpha virt. eigenvalues --    4.02685   4.04404   4.07971   4.10583   4.11945
 Alpha virt. eigenvalues --    4.19498   4.20360   4.23513   4.30423   4.35382
 Alpha virt. eigenvalues --    4.43599   4.49025   4.53260   4.56861   4.59250
 Alpha virt. eigenvalues --    4.60138   4.61771   4.66495   4.68181   4.72065
 Alpha virt. eigenvalues --    4.72677   4.79474   4.86776   4.99681   5.12254
 Alpha virt. eigenvalues --    5.13603   5.17988   5.42291   5.56671   5.74777
 Alpha virt. eigenvalues --    5.80567   5.88847   5.92552   5.96919   6.07137
 Alpha virt. eigenvalues --    6.44565  25.16609  25.20189  25.96426
  Beta  occ. eigenvalues --  -11.28318 -11.23491 -11.22386  -1.07548  -0.95399
  Beta  occ. eigenvalues --   -0.76088  -0.64696  -0.59101  -0.57848  -0.52969
  Beta  occ. eigenvalues --   -0.49682  -0.37044
  Beta virt. eigenvalues --    0.04018   0.05730   0.05810   0.06611   0.07950
  Beta virt. eigenvalues --    0.08454   0.08782   0.13280   0.13891   0.14997
  Beta virt. eigenvalues --    0.16537   0.17083   0.17253   0.18547   0.19983
  Beta virt. eigenvalues --    0.20490   0.20779   0.21225   0.22392   0.22587
  Beta virt. eigenvalues --    0.23476   0.31135   0.31848   0.35771   0.36188
  Beta virt. eigenvalues --    0.38110   0.40915   0.46208   0.49712   0.54325
  Beta virt. eigenvalues --    0.57365   0.59067   0.62828   0.65096   0.66967
  Beta virt. eigenvalues --    0.69560   0.70272   0.72181   0.73963   0.74017
  Beta virt. eigenvalues --    0.78659   0.79032   0.79426   0.80092   0.83436
  Beta virt. eigenvalues --    0.85522   0.86479   0.88082   0.89736   0.92798
  Beta virt. eigenvalues --    0.96865   0.98398   1.03132   1.06633   1.09982
  Beta virt. eigenvalues --    1.13792   1.19772   1.23125   1.26707   1.27371
  Beta virt. eigenvalues --    1.33296   1.33368   1.37200   1.40875   1.42150
  Beta virt. eigenvalues --    1.42295   1.48153   1.49003   1.51632   1.51767
  Beta virt. eigenvalues --    1.54236   1.58408   1.60506   1.63710   1.67455
  Beta virt. eigenvalues --    1.71394   1.75287   1.76291   1.76836   1.80345
  Beta virt. eigenvalues --    1.88957   1.98921   2.04551   2.16790   2.73942
  Beta virt. eigenvalues --    2.82405   2.84172   2.90435   2.97164   3.01370
  Beta virt. eigenvalues --    3.04748   3.07712   3.09682   3.10373   3.14452
  Beta virt. eigenvalues --    3.15116   3.17755   3.23045   3.24529   3.32412
  Beta virt. eigenvalues --    3.34296   3.37713   3.40388   3.43259   3.46387
  Beta virt. eigenvalues --    3.48112   3.51770   3.52313   3.58807   3.64978
  Beta virt. eigenvalues --    3.65649   3.67957   3.69353   3.72643   3.76004
  Beta virt. eigenvalues --    3.78291   3.80905   3.85151   3.97550   3.98579
  Beta virt. eigenvalues --    4.01668   4.02863   4.04410   4.08933   4.10386
  Beta virt. eigenvalues --    4.15340   4.20125   4.21426   4.23663   4.30672
  Beta virt. eigenvalues --    4.36360   4.44068   4.49199   4.54983   4.58330
  Beta virt. eigenvalues --    4.59313   4.61646   4.63133   4.68326   4.69164
  Beta virt. eigenvalues --    4.73451   4.73663   4.80581   4.87161   4.99865
  Beta virt. eigenvalues --    5.12425   5.13852   5.18608   5.42986   5.56476
  Beta virt. eigenvalues --    5.76326   5.80722   5.89585   5.93903   5.97323
  Beta virt. eigenvalues --    6.07136   6.44594  25.16075  25.19789  25.96427
          Condensed to atoms (all electrons):
               1          2          3          4          5          6
     1  C    4.790756   0.672882  -0.006048  -0.025431   0.411885   0.435895
     2  C    0.672882   4.871079   0.151342   0.431797  -0.020365  -0.052318
     3  C   -0.006048   0.151342   4.906574  -0.060818   0.006118  -0.000923
     4  H   -0.025431   0.431797  -0.060818   0.536660  -0.005288   0.002204
     5  H    0.411885  -0.020365   0.006118  -0.005288   0.548567  -0.024791
     6  H    0.435895  -0.052318  -0.000923   0.002204  -0.024791   0.548553
     7  H    0.003205  -0.021073   0.334031  -0.004988  -0.000044   0.000168
     8  H   -0.000453  -0.041746   0.294494   0.004745  -0.000374  -0.000915
     9  H   -0.000454  -0.041744   0.294493   0.004745  -0.000374  -0.000915
    10  H    0.003206  -0.021076   0.334028  -0.004988  -0.000044   0.000168
               7          8          9         10
     1  C    0.003205  -0.000453  -0.000454   0.003206
     2  C   -0.021073  -0.041746  -0.041744  -0.021076
     3  C    0.334031   0.294494   0.294493   0.334028
     4  H   -0.004988   0.004745   0.004745  -0.004988
     5  H   -0.000044  -0.000374  -0.000374  -0.000044
     6  H    0.000168  -0.000915  -0.000915   0.000168
     7  H    1.111004  -0.320784   0.178125  -0.323444
     8  H   -0.320784   1.222015  -0.375589   0.178127
     9  H    0.178125  -0.375589   1.222018  -0.320787
    10  H   -0.323444   0.178127  -0.320787   1.111011
          Atomic-Atomic Spin Densities.
               1          2          3          4          5          6
     1  C   -0.344672   0.016841  -0.007668  -0.003331  -0.010076  -0.002956
     2  C    0.016841   0.334764   0.069988  -0.000354   0.006422   0.001466
     3  C   -0.007668   0.069988  -0.704767   0.004370   0.000790  -0.001452
     4  H   -0.003331  -0.000354   0.004370  -0.031351   0.001030  -0.000582
     5  H   -0.010076   0.006422   0.000790   0.001030   0.026355  -0.001159
     6  H   -0.002956   0.001466  -0.001452  -0.000582  -0.001159   0.023533
     7  H    0.006160   0.006560  -0.000649  -0.005265  -0.000367   0.000139
     8  H   -0.007047  -0.017386   0.015895   0.003879   0.000482  -0.000311
     9  H   -0.007047  -0.017384   0.015897   0.003879   0.000482  -0.000311
    10  H    0.006161   0.006556  -0.000651  -0.005264  -0.000367   0.000139
               7          8          9         10
     1  C    0.006160  -0.007047  -0.007047   0.006161
     2  C    0.006560  -0.017386  -0.017384   0.006556
     3  C   -0.000649   0.015895   0.015897  -0.000651
     4  H   -0.005265   0.003879   0.003879  -0.005264
     5  H   -0.000367   0.000482   0.000482  -0.000367
     6  H    0.000139  -0.000311  -0.000311   0.000139
     7  H    0.813181  -0.353531   0.190539  -0.319798
     8  H   -0.353531   0.991430  -0.388272   0.190539
     9  H    0.190539  -0.388272   0.991434  -0.353534
    10  H   -0.319798   0.190539  -0.353534   0.813190
 Mulliken charges and spin densities:
               1          2
     1  C   -0.285441  -0.353636
     2  C    0.071223   0.407474
     3  C   -0.253291  -0.608246
     4  H    0.121362  -0.032988
     5  H    0.084710   0.023591
     6  H    0.092874   0.018507
     7  H    0.043800   0.336967
     8  H    0.040482   0.435679
     9  H    0.040481   0.435681
    10  H    0.043799   0.336971
 Sum of Mulliken charges =  -0.00000   1.00000
 Mulliken charges and spin densities with hydrogens summed into heavy atoms:
               1          2
     1  C   -0.107856  -0.311539
     2  C    0.192585   0.374487
     3  C   -0.084729   0.937052
 Electronic spatial extent (au):  <R**2>=            216.7295
 Charge=             -0.0000 electrons
 Dipole moment (field-independent basis, Debye):
    X=             -0.1844    Y=              0.2145    Z=             -0.0000  Tot=              0.2829
 Quadrupole moment (field-independent basis, Debye-Ang):
   XX=            -20.9280   YY=            -21.2672   ZZ=            -24.5789
   XY=             -0.2308   XZ=              0.0000   YZ=              0.0000
 Traceless Quadrupole moment (field-independent basis, Debye-Ang):
   XX=              1.3301   YY=              0.9908   ZZ=             -2.3209
   XY=             -0.2308   XZ=              0.0000   YZ=              0.0000
 Octapole moment (field-independent basis, Debye-Ang**2):
  XXX=              5.8035  YYY=              2.1607  ZZZ=             -0.0000  XYY=              2.4348
  XXY=              0.5292  XXZ=             -0.0000  XZZ=             -0.7283  YZZ=              0.4925
  YYZ=             -0.0000  XYZ=             -0.0000
 Hexadecapole moment (field-independent basis, Debye-Ang**3):
 XXXX=           -203.2453 YYYY=            -66.2135 ZZZZ=            -48.0785 XXXY=              1.5828
 XXXZ=              0.0001 YYYX=             -2.3534 YYYZ=              0.0000 ZZZX=              0.0000
 ZZZY=              0.0000 XXYY=            -47.0608 XXZZ=            -46.3836 YYZZ=            -22.0805
 XXYZ=              0.0000 YYXZ=              0.0000 ZZXY=             -0.4495
 N-N= 7.644568669210D+01 E-N=-4.254144461204D+02  KE= 1.173933054540D+02
 Leave Link  601 at Sat Jun 26 11:38:22 2021, MaxMem=  3355443200 cpu:         0.3
 (Enter /Local/ce_dana/g09/l9999.exe)

 Test job not archived.
 1\1\GINC-TECH-WN018\SP\UMP2-FC\CBSB3\C3H7(2)\ALONGD\26-Jun-2021\0\\#P 
 Geom=AllCheck Guess=TCheck SCRF=Check Test MP2/CBSB3 CBSExtrap=(NMin=1
 0,MinPop)\\TS0\\0,2\C,0,-1.513972369,0.9993612747,-1.0287792362\C,0,-0
 .6320897408,0.0070391672,-1.0605594345\C,0,0.0049934853,-0.6049754989,
 0.1669627936\H,0,-0.3248599175,-0.417527581,-2.0121496937\H,0,-1.94426
 01682,1.406109721,-1.9366571951\H,0,-1.8376377857,1.4412221489,-0.0908
 983006\H,0,1.1478156598,-0.6942225385,-0.0850037267\H,0,0.3428287141,0
 .2896969098,0.9116741124\H,0,-0.8567830434,-0.7792871906,1.0013052326\
 H,0,-0.0547748346,-1.7658554125,0.0048454482\\Version=ES64L-G09RevD.01
 \State=2-A\HF=-117.5001076\MP2=-118.0185095\E2(CBS)=-0.5704151\CBS-Int
 =-0.5519532\OIii=4.5368441\PUHF=-117.5113668\PMP2-0=-118.0277557\S2=0.
 85837\S2-1=0.817876\S2A=0.758298\RMSD=9.805e-09\PG=C01 [X(C3H7)]\\@


      HUMANKIND PERIODICALLY GOES THROUGH A SPEEDUP OF ITS AFFAIRS, 
      THEREBY EXPERIENCING THE RACE BETWEEN THE RENEWABLE VITALITY
      OF THE LIVING, AND THE BECKONING VITIATION OF DECADENCE.
      IN THIS PERIODIC RACE, ANY PAUSE BECOMES A LUXURY.
      ONLY THEN CAN ONE REFLECT THAT ALL IS PERMITTED;
      ALL IS POSSIBLE.

                              -- THE APOCRYPHA OF MUAD'DIB
                                 CHILDREN OF DUNE, BY FRANK HERBERT
 Diagonal vibrational polarizability:
        0.0000000       0.0000000       0.0000000
    1 imaginary frequencies ignored.

 Complete Basis Set (CBS) Extrapolation:
 M. R. Nyden and G. A. Petersson, JCP 75, 1843 (1981)
 G. A. Petersson and M. A. Al-Laham, JCP 94, 6081 (1991)
 G. A. Petersson, T. Tensfeldt, and J. A. Montgomery, JCP 94, 6091 (1991)
 J. A. Montgomery, J. W. Ochterski, and G. A. Petersson, JCP 101, 5900 (1994)

 Temperature=               298.150000 Pressure=                       1.000000
 E(ZPE)=                      0.074256 E(Thermal)=                     0.078823
 E(SCF)=                   -117.500108 DE(MP2)=                       -0.518402
 DE(CBS)=                    -0.052013 DE(MP34)=                      -0.043621
 DE(CCSD)=                   -0.020739 DE(Int)=                        0.018462
 DE(Empirical)=              -0.027302
 CBS-QB3 (0 K)=            -118.069467 CBS-QB3 Energy=              -118.064899
 CBS-QB3 Enthalpy=         -118.063955 CBS-QB3 Free Energy=         -118.095751

 Test job not archived.
 1\1\GINC-TECH-WN018\Mixed\CBS-QB3\CBS-QB3\C3H7(2)\ALONGD\26-Jun-2021\0
 \\#P opt=(ts, calcfc, noeigentest, maxcycles=100, tight, maxstep=5) gu
 ess=read cbs-qb3 scf=(tight, direct) integral=(grid=ultrafine, Acc2E=1
 2) IOp(2/9=2000) scf=xqc\\TS0\\0,2\C,0,-1.513972369,0.9993612747,-1.02
 87792362\C,0,-0.6320897408,0.0070391672,-1.0605594345\C,0,0.0049934853
 ,-0.6049754989,0.1669627936\H,0,-0.3248599175,-0.417527581,-2.01214969
 37\H,0,-1.9442601682,1.406109721,-1.9366571951\H,0,-1.8376377857,1.441
 2221489,-0.0908983006\H,0,1.1478156598,-0.6942225385,-0.0850037267\H,0
 ,0.3428287141,0.2896969098,0.9116741124\H,0,-0.8567830434,-0.779287190
 6,1.0013052326\H,0,-0.0547748346,-1.7658554125,0.0048454482\\Version=E
 S64L-G09RevD.01\State=2-A\HF/CbsB3=-117.5001076\E2(CBS)/CbsB3=-0.57041
 51\CBS-Int/CbsB3=0.0184619\OIii/CbsB3=4.5368441\MP2/CbsB4=-117.912804\
 MP4(SDQ)/CbsB4=-117.9564249\MP4(SDQ)/6-31+G(d')=-117.8986822\QCISD(T)/
 6-31+G(d')=-117.9194207\CBSQB3=-118.0694667\FreqCoord=-2.8609931502,1.
 888519117,-1.9441110077,-1.1944765015,0.0133020982,-2.0041668788,0.009
 4363197,-1.14323801,0.3155139543,-0.6138962755,-0.7890127809,-3.802411
 8594,-3.674119249,2.6571622855,-3.6597517121,-3.4726321464,2.723515158
 ,-0.1717728941,2.1690572481,-1.3118904731,-0.1606337637,0.6478523802,0
 .547447821,1.7228143948,-1.6190853074,-1.4726393692,1.892192665,-0.103
 5094365,-3.3369831199,0.00915657\PG=C01 [X(C3H7)]\NImag=1\\0.43561918,
 -0.37010283,0.52093319,0.02328944,0.01812060,0.63188936,-0.27431972,0.
 25185923,0.00685994,0.44723298,0.25181030,-0.33404435,-0.01263670,-0.3
 4495969,0.53275093,0.00627598,-0.01198137,-0.10929656,-0.01636394,0.05
 451442,0.57220032,-0.00807934,0.01260941,-0.02106493,-0.09501816,0.026
 50320,-0.04589170,0.22386445,0.01405467,-0.00907536,0.02344866,0.02694
 730,-0.09459637,0.04312792,-0.07579470,0.22733275,-0.00382796,0.004105
 23,0.00245811,-0.04059369,0.03718261,-0.16782080,0.09017773,-0.0871744
 6,0.31682487,-0.00154359,0.01084987,0.01996893,-0.06591052,0.03979051,
 0.06614740,0.00644632,-0.00198857,-0.01254844,0.06307597,0.00909594,-0
 .00548898,-0.02282775,0.03988344,-0.08799358,-0.09350509,-0.00039261,0
 .00706717,0.01210126,-0.05021868,0.08843002,-0.00094843,0.00064589,0.0
 0164219,0.06725535,-0.09474841,-0.26525798,0.00648566,-0.00925895,-0.0
 1801043,-0.07070331,0.10095611,0.28135863,-0.08548755,0.05093059,-0.09
 146093,-0.00484066,0.00766225,-0.01944176,0.00506508,0.00762532,0.0010
 3365,-0.00382473,-0.00430606,0.00046175,0.08397479,0.05065068,-0.08307
 878,0.08385910,0.00949620,-0.00538729,0.02182048,0.00754433,0.00314628
 ,-0.00202942,-0.00433323,-0.00281457,0.00022671,-0.05961299,0.08220149
 ,-0.09479914,0.08760527,-0.25723450,0.00243027,-0.00272452,0.00347267,
 0.00006757,-0.00094527,0.00141371,0.00013783,0.00059022,0.00118731,0.1
 0224116,-0.09435129,0.26632663,-0.06708019,0.04235008,0.06617357,-0.00
 161633,0.01008554,0.01997300,-0.00291944,-0.00355007,0.00150659,0.0040
 5421,0.00811705,-0.00071742,0.00527217,-0.00455107,-0.01009806,0.06283
 149,0.04259550,-0.08992781,-0.09350499,0.00835125,-0.00541107,-0.02287
 154,-0.00371565,-0.00211421,-0.00105485,0.00812046,0.00222675,-0.00001
 562,-0.00304157,0.00621019,0.00984747,-0.05129641,0.08926985,0.0691006
 1,-0.09678975,-0.26379886,-0.00071082,0.00034003,0.00042046,-0.0004678
 1,0.00116085,0.00138807,-0.00067695,-0.00006103,0.00155302,0.00790463,
 -0.01035532,-0.01573527,-0.07587042,0.10631411,0.27528686,-0.00056783,
 0.00150812,0.00069711,-0.00839992,-0.00314452,-0.00046321,-0.09980868,
 0.01560827,-0.01977596,0.00008880,-0.00093973,-0.00005751,0.00074232,0
 .00089891,-0.00010396,-0.00045071,-0.00102482,0.00002014,0.13200457,0.
 00072119,-0.00064769,0.00095643,0.01071383,-0.00285343,-0.00085027,0.0
 0616593,-0.00488765,0.01789682,-0.00035555,0.00054627,-0.00038083,-0.0
 0044808,-0.00105123,0.00030695,0.00046190,0.00069433,-0.00002362,-0.00
 651422,0.04725231,-0.00042360,0.00131373,-0.00319381,-0.02350938,0.001
 44576,0.00335113,0.02747850,0.01499471,-0.03208743,0.00005520,-0.00044
 858,0.00045839,0.00081189,0.00155832,0.00002814,-0.00057346,-0.0001598
 3,0.00007663,-0.00921059,0.01092089,0.03161286,0.00097300,-0.00077428,
 -0.00150407,-0.00320041,-0.00301550,-0.00593761,-0.00316010,0.01417413
 ,-0.02107600,-0.00123035,-0.00069358,-0.00008001,0.00017573,0.00024291
 ,0.00034861,-0.00053894,0.00024225,0.00031772,-0.00200882,0.01601284,0
 .01456544,0.04725367,0.00045948,0.00121223,0.00175290,0.00457180,0.007
 53243,0.00294525,0.00626597,-0.02235738,-0.02217498,-0.00035384,-0.001
 39286,0.00214294,0.00000241,0.00005082,0.00001851,-0.00067093,-0.00016
 783,-0.00037627,0.04402957,-0.01287224,-0.04590942,0.01028519,0.039607
 48,0.00225592,-0.00094047,0.00018084,-0.00427386,-0.00854452,-0.018711
 77,-0.01164786,0.02343706,-0.03638729,-0.00368290,-0.00033369,-0.00156
 889,0.00032786,0.00021245,0.00012076,-0.00070878,0.00006366,0.00043160
 ,0.02816356,-0.02122713,-0.02331174,-0.00169127,0.02217796,0.05753529,
 0.00109372,0.00011728,-0.00166326,0.00794499,0.00327962,-0.00474109,-0
 .01976339,0.01097445,0.02225034,-0.00162153,-0.00017787,-0.00210883,0.
 00005464,-0.00001573,-0.00005079,-0.00018626,-0.00061452,0.00043674,0.
 01038087,0.00382922,-0.01833828,-0.03531509,-0.07186793,-0.01366979,0.
 03847649,-0.00060695,0.00096061,0.00169876,-0.00318334,-0.00261876,0.0
 0533279,0.01574444,-0.00357757,0.01462111,-0.00057647,-0.00082108,0.00
 032562,0.00020565,0.00009759,-0.00036065,0.00018049,-0.00045267,-0.000
 31035,-0.00707147,-0.00352704,-0.00168707,-0.03028105,-0.02252641,-0.0
 0197779,0.00964973,0.04544377,0.00065337,-0.00242708,0.00031179,0.0070
 0289,0.00177620,-0.01970565,-0.02461198,0.01101918,-0.03856210,0.00079
 243,0.00358967,-0.00174944,-0.00025823,-0.00029855,0.00019505,0.000054
 16,0.00083100,0.00036372,0.01237565,-0.00609143,0.00645217,0.01007530,
 0.02228898,0.01637061,-0.02103586,0.00440231,0.06047390,-0.00060768,0.
 00065254,-0.00129580,-0.00187222,0.01198829,0.00044293,-0.00662674,-0.
 00805080,-0.01714627,0.00046543,-0.00036791,0.00041275,-0.00113176,-0.
 00032000,-0.00017348,0.00063401,0.00038351,-0.00005385,-0.03198058,-0.
 03058707,0.00914428,-0.00294868,0.00727828,0.00492711,-0.00106442,0.01
 593897,0.01495227,0.04513265,0.00132202,-0.00084306,-0.00086701,-0.003
 68004,-0.00737850,0.00146742,0.00506968,-0.10093766,0.02652667,-0.0009
 3449,0.00024086,0.00010654,0.00098248,0.00062549,0.00001332,-0.0011265
 8,-0.00032753,0.00010134,-0.04335010,-0.02265363,0.01797149,-0.0061929
 1,0.01091376,-0.01286754,0.04482573,-0.01297843,-0.03509029,0.00308420
 ,0.13333871,-0.00157619,0.00034797,-0.00295857,0.00190324,0.02339512,0
 .00134817,-0.02052516,-0.01980971,-0.02921672,0.00050982,-0.00006111,0
 .00038719,-0.00162003,-0.00064247,0.00022550,0.00026081,0.00055058,0.0
 0001376,-0.01164524,-0.00150781,0.01661366,0.00498188,0.01713412,0.005
 34057,0.03892081,-0.02204473,-0.02415007,-0.01120994,0.00263805,0.0323
 9650\\0.00000018,-0.00000020,-0.00000008,0.00000007,-0.00000010,-0.000
 00005,0.00000027,-0.00000023,0.00000013,0.00000014,-0.00000016,0.,0.00
 000005,-0.00000007,-0.00000018,-0.00000004,0.00000004,-0.00000004,-0.0
 0000033,0.00000012,0.00000008,-0.00000014,-0.00000002,-0.00000005,-0.0
 0000013,0.00000010,0.00000009,-0.00000006,0.00000051,0.00000010\\\@
 Job cpu time:       0 days  0 hours  1 minutes 56.4 seconds.
 File lengths (MBytes):  RWF=    610 Int=      0 D2E=      0 Chk=      4 Scr=      1
 Normal termination of Gaussian 09 at Sat Jun 26 11:38:22 2021.
