 Entering Gaussian System, Link 0=/Local/ce_dana/g09/g09
 Initial command:
 /Local/ce_dana/g09/l1.exe "/storage/ce_dana/alongd/scratch/g09/Gau-47521.inp" -scrdir="/storage/ce_dana/alongd/scratch/g09/"
 Entering Link 1 = /Local/ce_dana/g09/l1.exe PID=     47522.
  
 Copyright (c) 1988,1990,1992,1993,1995,1998,2003,2009,2013,
            Gaussian, Inc.  All Rights Reserved.
  
 This is part of the Gaussian(R) 09 program.  It is based on
 the Gaussian(R) 03 system (copyright 2003, Gaussian, Inc.),
 the Gaussian(R) 98 system (copyright 1998, Gaussian, Inc.),
 the Gaussian(R) 94 system (copyright 1995, Gaussian, Inc.),
 the Gaussian 92(TM) system (copyright 1992, Gaussian, Inc.),
 the Gaussian 90(TM) system (copyright 1990, Gaussian, Inc.),
 the Gaussian 88(TM) system (copyright 1988, Gaussian, Inc.),
 the Gaussian 86(TM) system (copyright 1986, Carnegie Mellon
 University), and the Gaussian 82(TM) system (copyright 1983,
 Carnegie Mellon University). Gaussian is a federally registered
 trademark of Gaussian, Inc.
  
 This software contains proprietary and confidential information,
 including trade secrets, belonging to Gaussian, Inc.
  
 This software is provided under written license and may be
 used, copied, transmitted, or stored only in accord with that
 written license.
  
 The following legend is applicable only to US Government
 contracts under FAR:
  
                    RESTRICTED RIGHTS LEGEND
  
 Use, reproduction and disclosure by the US Government is
 subject to restrictions as set forth in subparagraphs (a)
 and (c) of the Commercial Computer Software - Restricted
 Rights clause in FAR 52.227-19.
  
 Gaussian, Inc.
 340 Quinnipiac St., Bldg. 40, Wallingford CT 06492
  
  
 ---------------------------------------------------------------
 Warning -- This program may not be used in any manner that
 competes with the business of Gaussian, Inc. or will provide
 assistance to any competitor of Gaussian, Inc.  The licensee
 of this program is prohibited from giving any competitor of
 Gaussian, Inc. access to this program.  By using this program,
 the user acknowledges that Gaussian, Inc. is engaged in the
 business of creating and licensing software in the field of
 computational chemistry and represents and warrants to the
 licensee that it is not a competitor of Gaussian, Inc. and that
 it will not use this program in any manner prohibited above.
 ---------------------------------------------------------------
  

 Cite this work as:
 Gaussian 09, Revision D.01,
 M. J. Frisch, G. W. Trucks, H. B. Schlegel, G. E. Scuseria, 
 M. A. Robb, J. R. Cheeseman, G. Scalmani, V. Barone, B. Mennucci, 
 G. A. Petersson, H. Nakatsuji, M. Caricato, X. Li, H. P. Hratchian, 
 A. F. Izmaylov, J. Bloino, G. Zheng, J. L. Sonnenberg, M. Hada, 
 M. Ehara, K. Toyota, R. Fukuda, J. Hasegawa, M. Ishida, T. Nakajima, 
 Y. Honda, O. Kitao, H. Nakai, T. Vreven, J. A. Montgomery, Jr., 
 J. E. Peralta, F. Ogliaro, M. Bearpark, J. J. Heyd, E. Brothers, 
 K. N. Kudin, V. N. Staroverov, T. Keith, R. Kobayashi, J. Normand, 
 K. Raghavachari, A. Rendell, J. C. Burant, S. S. Iyengar, J. Tomasi, 
 M. Cossi, N. Rega, J. M. Millam, M. Klene, J. E. Knox, J. B. Cross, 
 V. Bakken, C. Adamo, J. Jaramillo, R. Gomperts, R. E. Stratmann, 
 O. Yazyev, A. J. Austin, R. Cammi, C. Pomelli, J. W. Ochterski, 
 R. L. Martin, K. Morokuma, V. G. Zakrzewski, G. A. Voth, 
 P. Salvador, J. J. Dannenberg, S. Dapprich, A. D. Daniels, 
 O. Farkas, J. B. Foresman, J. V. Ortiz, J. Cioslowski, 
 and D. J. Fox, Gaussian, Inc., Wallingford CT, 2013.
 
 ******************************************
 Gaussian 09:  ES64L-G09RevD.01 24-Apr-2013
                22-Jun-2021 
 ******************************************
 %chk=check.chk
 %mem=25600mb
 %NProcShared=10
 Will use up to   10 processors via shared memory.
 ----------------------------------------------------------------------
 #P opt=(ts, calcfc, noeigentest, maxcycles=100, tight, maxstep=5) gues
 s=read cbs-qb3 scf=(tight, direct) integral=(grid=ultrafine, Acc2E=12)
  IOp(2/9=2000) scf=xqc
 ----------------------------------------------------------------------
 1/5=1,6=100,7=10,8=5,10=4,11=1,14=-1,18=20,26=4,38=1/1,3;
 2/9=2000,12=2,17=6,18=5,40=1/2;
 3/5=4,6=6,7=700,11=2,16=1,25=1,30=1,71=2,74=-5,75=-5,116=-2,140=1/1,2,3;
 4/5=1/1;
 5/5=2,8=3,13=1,32=2,38=6,87=12/2,8;
 8/6=4,10=90,11=11,87=12/1;
 11/6=1,8=1,9=11,15=111,16=1,87=12/1,2,10;
 10/6=1,13=1,87=12/2;
 6/7=2,8=2,9=2,10=2,28=1/1;
 7/10=1,18=20,25=1,87=12/1,2,3,16;
 1/5=1,6=100,7=10,8=5,10=4,11=1,14=-1,18=20,26=4/3(2);
 2/9=2000/2;
 99//99;
 2/9=2000/2;
 3/5=4,6=6,7=700,11=2,16=1,25=1,30=1,71=1,74=-5,75=-5/1,2,3;
 4/5=5,16=3,69=1/1;
 5/5=2,8=3,13=1,32=2,38=5,87=12/2,8;
 7/87=12/1,2,3,16;
 1/5=1,6=100,7=10,8=5,11=1,14=-1,18=20,26=4/3(-5);
 2/9=2000/2;
 6/7=2,8=2,9=2,10=2,19=2,28=1/1;
 99/9=1/99;
 Leave Link    1 at Tue Jun 22 09:22:40 2021, MaxMem=  3355443200 cpu:         0.1
 (Enter /Local/ce_dana/g09/l101.exe)
 ---
 TS0
 ---
 Symbolic Z-matrix:
 Charge =  0 Multiplicity = 2
 C                     0.52124  -0.93807  -0.55302 
 C                     0.15388   0.18173   0.37123 
 C                    -0.89554   1.16841  -0.01363 
 H                     0.33998   0.06425   1.44287 
 H                     1.49602  -1.3786   -0.29763 
 H                     0.57222  -0.59291  -1.59851 
 H                     0.39007   1.39858  -0.0139 
 H                    -0.23302  -1.74751  -0.52205 
 H                    -1.43671   1.71248   0.76259 
 H                    -1.32791   1.11411  -1.01555 
 
 NAtoms=     10 NQM=       10 NQMF=       0 NMMI=      0 NMMIF=      0
                NMic=       0 NMicF=      0.
                    Isotopes and Nuclear Properties:
 (Nuclear quadrupole moments (NQMom) in fm**2, nuclear magnetic moments (NMagM)
  in nuclear magnetons)

  Atom         1           2           3           4           5           6           7           8           9          10
 IAtWgt=          12          12          12           1           1           1           1           1           1           1
 AtmWgt=  12.0000000  12.0000000  12.0000000   1.0078250   1.0078250   1.0078250   1.0078250   1.0078250   1.0078250   1.0078250
 NucSpn=           0           0           0           1           1           1           1           1           1           1
 AtZEff=   0.0000000   0.0000000   0.0000000   0.0000000   0.0000000   0.0000000   0.0000000   0.0000000   0.0000000   0.0000000
 NQMom=    0.0000000   0.0000000   0.0000000   0.0000000   0.0000000   0.0000000   0.0000000   0.0000000   0.0000000   0.0000000
 NMagM=    0.0000000   0.0000000   0.0000000   2.7928460   2.7928460   2.7928460   2.7928460   2.7928460   2.7928460   2.7928460
 AtZNuc=   6.0000000   6.0000000   6.0000000   1.0000000   1.0000000   1.0000000   1.0000000   1.0000000   1.0000000   1.0000000
 Leave Link  101 at Tue Jun 22 09:22:41 2021, MaxMem=  3355443200 cpu:         0.3
 (Enter /Local/ce_dana/g09/l103.exe)

 GradGradGradGradGradGradGradGradGradGradGradGradGradGradGradGradGradGrad
 Berny optimization.
 Initialization pass.
                           ----------------------------
                           !    Initial Parameters    !
                           ! (Angstroms and Degrees)  !
 --------------------------                            --------------------------
 ! Name  Definition              Value          Derivative Info.                !
 --------------------------------------------------------------------------------
 ! R1    R(1,2)                  1.4977         calculate D2E/DX2 analytically  !
 ! R2    R(1,5)                  1.0998         calculate D2E/DX2 analytically  !
 ! R3    R(1,6)                  1.1022         calculate D2E/DX2 analytically  !
 ! R4    R(1,8)                  1.1068         calculate D2E/DX2 analytically  !
 ! R5    R(2,3)                  1.4909         calculate D2E/DX2 analytically  !
 ! R6    R(2,4)                  1.094          calculate D2E/DX2 analytically  !
 ! R7    R(2,7)                  1.298          calculate D2E/DX2 analytically  !
 ! R8    R(3,9)                  1.0915         calculate D2E/DX2 analytically  !
 ! R9    R(3,10)                 1.0926         calculate D2E/DX2 analytically  !
 ! A1    A(2,1,5)              111.9378         calculate D2E/DX2 analytically  !
 ! A2    A(2,1,6)              111.2579         calculate D2E/DX2 analytically  !
 ! A3    A(2,1,8)              111.246          calculate D2E/DX2 analytically  !
 ! A4    A(5,1,6)              107.7415         calculate D2E/DX2 analytically  !
 ! A5    A(5,1,8)              107.7327         calculate D2E/DX2 analytically  !
 ! A6    A(6,1,8)              106.6832         calculate D2E/DX2 analytically  !
 ! A7    A(1,2,3)              120.5405         calculate D2E/DX2 analytically  !
 ! A8    A(1,2,4)              118.8471         calculate D2E/DX2 analytically  !
 ! A9    A(1,2,7)              118.2418         calculate D2E/DX2 analytically  !
 ! A10   A(3,2,4)              116.3372         calculate D2E/DX2 analytically  !
 ! A11   A(3,2,7)               55.3258         calculate D2E/DX2 analytically  !
 ! A12   A(4,2,7)              111.1222         calculate D2E/DX2 analytically  !
 ! A13   A(2,3,9)              119.688          calculate D2E/DX2 analytically  !
 ! A14   A(2,3,10)             118.8396         calculate D2E/DX2 analytically  !
 ! A15   A(9,3,10)             118.7312         calculate D2E/DX2 analytically  !
 ! D1    D(5,1,2,3)            161.8265         calculate D2E/DX2 analytically  !
 ! D2    D(5,1,2,4)            -42.2397         calculate D2E/DX2 analytically  !
 ! D3    D(5,1,2,7)             97.478          calculate D2E/DX2 analytically  !
 ! D4    D(6,1,2,3)             41.2169         calculate D2E/DX2 analytically  !
 ! D5    D(6,1,2,4)           -162.8493         calculate D2E/DX2 analytically  !
 ! D6    D(6,1,2,7)            -23.1316         calculate D2E/DX2 analytically  !
 ! D7    D(8,1,2,3)            -77.5835         calculate D2E/DX2 analytically  !
 ! D8    D(8,1,2,4)             78.3504         calculate D2E/DX2 analytically  !
 ! D9    D(8,1,2,7)           -141.932          calculate D2E/DX2 analytically  !
 ! D10   D(1,2,3,9)            155.6159         calculate D2E/DX2 analytically  !
 ! D11   D(1,2,3,10)            -5.401          calculate D2E/DX2 analytically  !
 ! D12   D(4,2,3,9)             -0.896          calculate D2E/DX2 analytically  !
 ! D13   D(4,2,3,10)          -161.9129         calculate D2E/DX2 analytically  !
 ! D14   D(7,2,3,9)            -99.3189         calculate D2E/DX2 analytically  !
 ! D15   D(7,2,3,10)            99.6642         calculate D2E/DX2 analytically  !
 --------------------------------------------------------------------------------
 Trust Radius=5.00D-02 FncErr=1.00D-07 GrdErr=1.00D-06
 Number of steps in this run=    100 maximum allowed number of steps=    100.
 Search for a saddle point of order  1.
 GradGradGradGradGradGradGradGradGradGradGradGradGradGradGradGradGradGrad

 Leave Link  103 at Tue Jun 22 09:22:41 2021, MaxMem=  3355443200 cpu:         0.0
 (Enter /Local/ce_dana/g09/l202.exe)
                          Input orientation:                          
 ---------------------------------------------------------------------
 Center     Atomic      Atomic             Coordinates (Angstroms)
 Number     Number       Type             X           Y           Z
 ---------------------------------------------------------------------
      1          6           0        0.521239   -0.938069   -0.553017
      2          6           0        0.153875    0.181731    0.371229
      3          6           0       -0.895540    1.168407   -0.013628
      4          1           0        0.339977    0.064248    1.442871
      5          1           0        1.496022   -1.378602   -0.297632
      6          1           0        0.572217   -0.592905   -1.598505
      7          1           0        0.390068    1.398579   -0.013896
      8          1           0       -0.233022   -1.747511   -0.522054
      9          1           0       -1.436707    1.712483    0.762589
     10          1           0       -1.327910    1.114106   -1.015549
 ---------------------------------------------------------------------
                    Distance matrix (angstroms):
                    1          2          3          4          5
     1  C    0.000000
     2  C    1.497711   0.000000
     3  C    2.595273   1.490945   0.000000
     4  H    2.240773   1.094008   2.206141   0.000000
     5  H    1.099769   2.164110   3.505350   2.539214   0.000000
     6  H    1.102172   2.157527   2.787179   3.120217   1.778484
     7  H    2.401621   1.298009   1.306050   1.976137   3.002728
     8  H    1.106826   2.160930   3.033151   2.733446   1.782148
     9  H    3.548210   2.241945   1.091510   2.517155   4.390874
    10  H    2.800841   2.233420   1.092583   3.150853   3.834526
                    6          7          8          9         10
     6  H    0.000000
     7  H    2.551504   0.000000
     8  H    1.772081   3.247206   0.000000
     9  H    3.863335   2.009620   3.882103   0.000000
    10  H    2.619963   2.008901   3.103412   1.879273   0.000000
 Stoichiometry    C3H7(2)
 Framework group  C1[X(C3H7)]
 Deg. of freedom    24
 Full point group                 C1      NOp   1
 Largest Abelian subgroup         C1      NOp   1
 Largest concise Abelian subgroup C1      NOp   1
                         Standard orientation:                         
 ---------------------------------------------------------------------
 Center     Atomic      Atomic             Coordinates (Angstroms)
 Number     Number       Type             X           Y           Z
 ---------------------------------------------------------------------
      1          6           0       -1.278012   -0.190724   -0.025183
      2          6           0        0.041522    0.515907    0.026225
      3          6           0        1.316457   -0.254613   -0.035061
      4          1           0        0.091907    1.563260   -0.285810
      5          1           0       -2.097896    0.442595    0.343854
      6          1           0       -1.263271   -1.109504    0.583429
      7          1           0        0.818808    0.292397    1.041458
      8          1           0       -1.528388   -0.498101   -1.058573
      9          1           0        2.225721    0.232255   -0.392262
     10          1           0        1.273321   -1.346321   -0.027982
 ---------------------------------------------------------------------
 Rotational constants (GHZ):     37.5158075      8.5550428      7.5829075
 Leave Link  202 at Tue Jun 22 09:22:41 2021, MaxMem=  3355443200 cpu:         0.0
 (Enter /Local/ce_dana/g09/l301.exe)
 Standard basis: 6-311G(2d,d,p) (5D, 7F)
 Ernie: Thresh=  0.10000D-02 Tol=  0.10000D-05 Strict=F.
 There are    99 symmetry adapted cartesian basis functions of A   symmetry.
 There are    96 symmetry adapted basis functions of A   symmetry.
    96 basis functions,   152 primitive gaussians,    99 cartesian basis functions
    13 alpha electrons       12 beta electrons
       nuclear repulsion energy        75.9822365482 Hartrees.
 IExCor=  402 DFT=T Ex+Corr=B3LYP ExCW=0 ScaHFX=  0.200000
 ScaDFX=  0.800000  0.720000  1.000000  0.810000 ScalE2=  1.000000  1.000000
 IRadAn=      5 IRanWt=     -1 IRanGd=            0 ICorTp=0 IEmpDi=  4
 NAtoms=   10 NActive=   10 NUniq=   10 SFac= 1.00D+00 NAtFMM=   60 NAOKFM=F Big=F
 Integral buffers will be    131072 words long.
 Raffenetti 2 integral format.
 Two-electron integral symmetry is turned on.
 Leave Link  301 at Tue Jun 22 09:22:41 2021, MaxMem=  3355443200 cpu:         0.1
 (Enter /Local/ce_dana/g09/l302.exe)
 NPDir=0 NMtPBC=     1 NCelOv=     1 NCel=       1 NClECP=     1 NCelD=      1
         NCelK=      1 NCelE2=     1 NClLst=     1 CellRange=     0.0.
 One-electron integrals computed using PRISM.
 NBasis=    96 RedAO= T EigKep=  3.06D-03  NBF=    96
 NBsUse=    96 1.00D-06 EigRej= -1.00D+00 NBFU=    96
 Precomputing XC quadrature grid using
 IXCGrd= 4 IRadAn=           5 IRanWt=          -1 IRanGd=           0 AccXCQ= 0.00D+00.
 Generated NRdTot=       0 NPtTot=           0 NUsed=           0 NTot=          32
 NSgBfM=    99    99    99    99    99 MxSgAt=    10 MxSgA2=    10.
 Leave Link  302 at Tue Jun 22 09:22:41 2021, MaxMem=  3355443200 cpu:         1.2
 (Enter /Local/ce_dana/g09/l303.exe)
 DipDrv:  MaxL=1.
 Leave Link  303 at Tue Jun 22 09:22:41 2021, MaxMem=  3355443200 cpu:         0.1
 (Enter /Local/ce_dana/g09/l401.exe)
 Initial guess from the checkpoint file:  "check.chk"
 B after Tr=    -0.000000   -0.000000   -0.000000
         Rot=    0.939517    0.333727    0.016381    0.075273 Ang=  40.06 deg.
 Guess basis will be translated and rotated to current coordinates.
 JPrj=2 DoOrth=T DoCkMO=T.
 Initial guess <Sx>= 0.0000 <Sy>= 0.0000 <Sz>= 0.5000 <S**2>= 1.0022 S= 0.6190
 Leave Link  401 at Tue Jun 22 09:22:41 2021, MaxMem=  3355443200 cpu:         0.3
 (Enter /Local/ce_dana/g09/l502.exe)
 UHF open shell SCF:
 Using DIIS extrapolation, IDIIS=  1040.
 Integral symmetry usage will be decided dynamically.
 Keep R1 and R2 ints in memory in canonical form, NReq=22641738.
 IVT=       37088 IEndB=       37088 NGot=  3355443200 MDV=  3333723121
 LenX=  3333723121 LenY=  3333712879
 Requested convergence on RMS density matrix=1.00D-08 within  64 cycles.
 Requested convergence on MAX density matrix=1.00D-06.
 Requested convergence on             energy=1.00D-06.
 No special actions if energy rises.
 FoFCou: FMM=F IPFlag=           0 FMFlag=           0 FMFlg1=           0
         NFxFlg=           0 DoJE=F BraDBF=F KetDBF=F FulRan=T
         wScrn=  0.000000 ICntrl=     600 IOpCl=  0 I1Cent=           0 NGrid=           0
         NMat0=    1 NMatS0=   4656 NMatT0=    0 NMatD0=    1 NMtDS0=    0 NMtDT0=    0
 Symmetry not used in FoFCou.

 Cycle   1  Pass 1  IDiag  1:
 E= -117.216241046401    
 DIIS: error= 6.42D-02 at cycle   1 NSaved=   1.
 NSaved= 1 IEnMin= 1 EnMin= -117.216241046401     IErMin= 1 ErrMin= 6.42D-02
 ErrMax= 6.42D-02  0.00D+00 EMaxC= 1.00D-01 BMatC= 1.75D+00 BMatP= 1.75D+00
 IDIUse=3 WtCom= 3.58D-01 WtEn= 6.42D-01
 Coeff-Com:  0.100D+01
 Coeff-En:   0.100D+01
 Coeff:      0.100D+01
 Gap=     2.107 Goal=   None    Shift=    0.000
 Gap=     2.253 Goal=   None    Shift=    0.000
 GapD=    2.107 DampG=2.000 DampE=0.500 DampFc=1.0000 IDamp=-1.
 RMSDP=1.65D-02 MaxDP=2.19D-01              OVMax= 7.17D-01

 Cycle   2  Pass 1  IDiag  1:
 E= -118.370183274382     Delta-E=       -1.153942227981 Rises=F Damp=F
 DIIS: error= 2.60D-02 at cycle   2 NSaved=   2.
 NSaved= 2 IEnMin= 2 EnMin= -118.370183274382     IErMin= 2 ErrMin= 2.60D-02
 ErrMax= 2.60D-02  0.00D+00 EMaxC= 1.00D-01 BMatC= 2.33D-01 BMatP= 1.75D+00
 IDIUse=3 WtCom= 7.40D-01 WtEn= 2.60D-01
 Coeff-Com:  0.107D+00 0.893D+00
 Coeff-En:   0.000D+00 0.100D+01
 Coeff:      0.792D-01 0.921D+00
 Gap=     0.234 Goal=   None    Shift=    0.000
 Gap=     0.272 Goal=   None    Shift=    0.000
 RMSDP=5.44D-03 MaxDP=1.08D-01 DE=-1.15D+00 OVMax= 1.88D-01

 Cycle   3  Pass 1  IDiag  1:
 E= -118.377350340297     Delta-E=       -0.007167065914 Rises=F Damp=F
 DIIS: error= 3.01D-02 at cycle   3 NSaved=   3.
 NSaved= 3 IEnMin= 3 EnMin= -118.377350340297     IErMin= 2 ErrMin= 2.60D-02
 ErrMax= 3.01D-02  0.00D+00 EMaxC= 1.00D-01 BMatC= 2.72D-01 BMatP= 2.33D-01
 IDIUse=2 WtCom= 0.00D+00 WtEn= 1.00D+00
 Coeff-En:   0.000D+00 0.471D+00 0.529D+00
 Coeff:      0.000D+00 0.471D+00 0.529D+00
 Gap=     0.182 Goal=   None    Shift=    0.000
 Gap=     0.282 Goal=   None    Shift=    0.000
 RMSDP=2.85D-03 MaxDP=7.30D-02 DE=-7.17D-03 OVMax= 1.20D-01

 Cycle   4  Pass 1  IDiag  1:
 E= -118.438761460374     Delta-E=       -0.061411120078 Rises=F Damp=F
 DIIS: error= 9.00D-03 at cycle   4 NSaved=   4.
 NSaved= 4 IEnMin= 4 EnMin= -118.438761460374     IErMin= 4 ErrMin= 9.00D-03
 ErrMax= 9.00D-03  0.00D+00 EMaxC= 1.00D-01 BMatC= 1.74D-02 BMatP= 2.33D-01
 IDIUse=3 WtCom= 9.10D-01 WtEn= 9.00D-02
 Coeff-Com: -0.115D-01 0.809D-01 0.223D+00 0.708D+00
 Coeff-En:   0.000D+00 0.000D+00 0.000D+00 0.100D+01
 Coeff:     -0.105D-01 0.736D-01 0.203D+00 0.734D+00
 Gap=     0.179 Goal=   None    Shift=    0.000
 Gap=     0.278 Goal=   None    Shift=    0.000
 RMSDP=1.01D-03 MaxDP=2.47D-02 DE=-6.14D-02 OVMax= 4.13D-02

 Cycle   5  Pass 1  IDiag  1:
 E= -118.442810992013     Delta-E=       -0.004049531639 Rises=F Damp=F
 DIIS: error= 3.58D-03 at cycle   5 NSaved=   5.
 NSaved= 5 IEnMin= 5 EnMin= -118.442810992013     IErMin= 5 ErrMin= 3.58D-03
 ErrMax= 3.58D-03  0.00D+00 EMaxC= 1.00D-01 BMatC= 3.02D-03 BMatP= 1.74D-02
 IDIUse=3 WtCom= 9.64D-01 WtEn= 3.58D-02
 Coeff-Com: -0.240D-02-0.286D-01 0.239D-01 0.367D+00 0.640D+00
 Coeff-En:   0.000D+00 0.000D+00 0.000D+00 0.413D-01 0.959D+00
 Coeff:     -0.231D-02-0.276D-01 0.230D-01 0.356D+00 0.651D+00
 Gap=     0.181 Goal=   None    Shift=    0.000
 Gap=     0.278 Goal=   None    Shift=    0.000
 RMSDP=2.97D-04 MaxDP=6.53D-03 DE=-4.05D-03 OVMax= 1.68D-02

 Cycle   6  Pass 1  IDiag  1:
 E= -118.443610026235     Delta-E=       -0.000799034221 Rises=F Damp=F
 DIIS: error= 8.63D-04 at cycle   6 NSaved=   6.
 NSaved= 6 IEnMin= 6 EnMin= -118.443610026235     IErMin= 6 ErrMin= 8.63D-04
 ErrMax= 8.63D-04  0.00D+00 EMaxC= 1.00D-01 BMatC= 3.08D-04 BMatP= 3.02D-03
 IDIUse=3 WtCom= 9.91D-01 WtEn= 8.63D-03
 Coeff-Com:  0.118D-02-0.294D-01-0.343D-01 0.190D-01 0.282D+00 0.762D+00
 Coeff-En:   0.000D+00 0.000D+00 0.000D+00 0.000D+00 0.000D+00 0.100D+01
 Coeff:      0.117D-02-0.292D-01-0.340D-01 0.188D-01 0.279D+00 0.764D+00
 Gap=     0.180 Goal=   None    Shift=    0.000
 Gap=     0.279 Goal=   None    Shift=    0.000
 RMSDP=1.24D-04 MaxDP=2.94D-03 DE=-7.99D-04 OVMax= 4.53D-03

 Cycle   7  Pass 1  IDiag  1:
 E= -118.443712169942     Delta-E=       -0.000102143707 Rises=F Damp=F
 DIIS: error= 2.05D-04 at cycle   7 NSaved=   7.
 NSaved= 7 IEnMin= 7 EnMin= -118.443712169942     IErMin= 7 ErrMin= 2.05D-04
 ErrMax= 2.05D-04  0.00D+00 EMaxC= 1.00D-01 BMatC= 1.45D-05 BMatP= 3.08D-04
 IDIUse=3 WtCom= 9.98D-01 WtEn= 2.05D-03
 Coeff-Com:  0.156D-03 0.755D-03-0.420D-02-0.391D-01-0.509D-01 0.834D-01
 Coeff-Com:  0.101D+01
 Coeff-En:   0.000D+00 0.000D+00 0.000D+00 0.000D+00 0.000D+00 0.000D+00
 Coeff-En:   0.100D+01
 Coeff:      0.156D-03 0.754D-03-0.420D-02-0.390D-01-0.508D-01 0.832D-01
 Coeff:      0.101D+01
 Gap=     0.181 Goal=   None    Shift=    0.000
 Gap=     0.279 Goal=   None    Shift=    0.000
 RMSDP=4.85D-05 MaxDP=1.18D-03 DE=-1.02D-04 OVMax= 2.29D-03

 Cycle   8  Pass 1  IDiag  1:
 E= -118.443720777256     Delta-E=       -0.000008607314 Rises=F Damp=F
 DIIS: error= 6.67D-05 at cycle   8 NSaved=   8.
 NSaved= 8 IEnMin= 8 EnMin= -118.443720777256     IErMin= 8 ErrMin= 6.67D-05
 ErrMax= 6.67D-05  0.00D+00 EMaxC= 1.00D-01 BMatC= 1.93D-06 BMatP= 1.45D-05
 IDIUse=1 WtCom= 1.00D+00 WtEn= 0.00D+00
 Coeff-Com: -0.568D-04 0.291D-02 0.182D-02-0.144D-01-0.427D-01-0.556D-01
 Coeff-Com:  0.303D+00 0.805D+00
 Coeff:     -0.568D-04 0.291D-02 0.182D-02-0.144D-01-0.427D-01-0.556D-01
 Coeff:      0.303D+00 0.805D+00
 Gap=     0.181 Goal=   None    Shift=    0.000
 Gap=     0.279 Goal=   None    Shift=    0.000
 RMSDP=2.49D-05 MaxDP=8.91D-04 DE=-8.61D-06 OVMax= 9.32D-04

 Cycle   9  Pass 1  IDiag  1:
 E= -118.443721835807     Delta-E=       -0.000001058551 Rises=F Damp=F
 DIIS: error= 1.68D-05 at cycle   9 NSaved=   9.
 NSaved= 9 IEnMin= 9 EnMin= -118.443721835807     IErMin= 9 ErrMin= 1.68D-05
 ErrMax= 1.68D-05  0.00D+00 EMaxC= 1.00D-01 BMatC= 1.20D-07 BMatP= 1.93D-06
 IDIUse=1 WtCom= 1.00D+00 WtEn= 0.00D+00
 Coeff-Com: -0.160D-04 0.191D-03 0.338D-03 0.240D-02 0.196D-02-0.110D-01
 Coeff-Com: -0.756D-01 0.506D-01 0.103D+01
 Coeff:     -0.160D-04 0.191D-03 0.338D-03 0.240D-02 0.196D-02-0.110D-01
 Coeff:     -0.756D-01 0.506D-01 0.103D+01
 Gap=     0.181 Goal=   None    Shift=    0.000
 Gap=     0.279 Goal=   None    Shift=    0.000
 RMSDP=7.80D-06 MaxDP=2.44D-04 DE=-1.06D-06 OVMax= 3.79D-04

 Cycle  10  Pass 1  IDiag  1:
 E= -118.443721933965     Delta-E=       -0.000000098158 Rises=F Damp=F
 DIIS: error= 7.58D-06 at cycle  10 NSaved=  10.
 NSaved=10 IEnMin=10 EnMin= -118.443721933965     IErMin=10 ErrMin= 7.58D-06
 ErrMax= 7.58D-06  0.00D+00 EMaxC= 1.00D-01 BMatC= 1.32D-08 BMatP= 1.20D-07
 IDIUse=1 WtCom= 1.00D+00 WtEn= 0.00D+00
 Coeff-Com:  0.573D-05-0.264D-03-0.176D-03 0.185D-02 0.440D-02 0.406D-02
 Coeff-Com: -0.459D-01-0.654D-01 0.198D+00 0.903D+00
 Coeff:      0.573D-05-0.264D-03-0.176D-03 0.185D-02 0.440D-02 0.406D-02
 Coeff:     -0.459D-01-0.654D-01 0.198D+00 0.903D+00
 Gap=     0.181 Goal=   None    Shift=    0.000
 Gap=     0.279 Goal=   None    Shift=    0.000
 RMSDP=2.49D-06 MaxDP=7.20D-05 DE=-9.82D-08 OVMax= 1.10D-04

 Cycle  11  Pass 1  IDiag  1:
 E= -118.443721943080     Delta-E=       -0.000000009115 Rises=F Damp=F
 DIIS: error= 1.57D-06 at cycle  11 NSaved=  11.
 NSaved=11 IEnMin=11 EnMin= -118.443721943080     IErMin=11 ErrMin= 1.57D-06
 ErrMax= 1.57D-06  0.00D+00 EMaxC= 1.00D-01 BMatC= 9.85D-10 BMatP= 1.32D-08
 IDIUse=1 WtCom= 1.00D+00 WtEn= 0.00D+00
 Coeff-Com:  0.226D-05-0.655D-04-0.571D-04 0.130D-03 0.611D-03 0.168D-02
 Coeff-Com: -0.242D-02-0.156D-01-0.481D-01 0.156D+00 0.908D+00
 Coeff:      0.226D-05-0.655D-04-0.571D-04 0.130D-03 0.611D-03 0.168D-02
 Coeff:     -0.242D-02-0.156D-01-0.481D-01 0.156D+00 0.908D+00
 Gap=     0.181 Goal=   None    Shift=    0.000
 Gap=     0.279 Goal=   None    Shift=    0.000
 RMSDP=6.85D-07 MaxDP=2.13D-05 DE=-9.12D-09 OVMax= 3.13D-05

 Cycle  12  Pass 1  IDiag  1:
 E= -118.443721943761     Delta-E=       -0.000000000682 Rises=F Damp=F
 DIIS: error= 4.38D-07 at cycle  12 NSaved=  12.
 NSaved=12 IEnMin=12 EnMin= -118.443721943761     IErMin=12 ErrMin= 4.38D-07
 ErrMax= 4.38D-07  0.00D+00 EMaxC= 1.00D-01 BMatC= 7.25D-11 BMatP= 9.85D-10
 IDIUse=1 WtCom= 1.00D+00 WtEn= 0.00D+00
 Coeff-Com: -0.114D-06 0.157D-04 0.929D-05-0.149D-03-0.327D-03-0.266D-03
 Coeff-Com:  0.374D-02 0.442D-02-0.167D-01-0.730D-01 0.349D-01 0.105D+01
 Coeff:     -0.114D-06 0.157D-04 0.929D-05-0.149D-03-0.327D-03-0.266D-03
 Coeff:      0.374D-02 0.442D-02-0.167D-01-0.730D-01 0.349D-01 0.105D+01
 Gap=     0.181 Goal=   None    Shift=    0.000
 Gap=     0.279 Goal=   None    Shift=    0.000
 RMSDP=2.07D-07 MaxDP=6.62D-06 DE=-6.82D-10 OVMax= 9.65D-06

 Cycle  13  Pass 1  IDiag  1:
 E= -118.443721943821     Delta-E=       -0.000000000060 Rises=F Damp=F
 DIIS: error= 1.46D-07 at cycle  13 NSaved=  13.
 NSaved=13 IEnMin=13 EnMin= -118.443721943821     IErMin=13 ErrMin= 1.46D-07
 ErrMax= 1.46D-07  0.00D+00 EMaxC= 1.00D-01 BMatC= 1.10D-11 BMatP= 7.25D-11
 IDIUse=1 WtCom= 1.00D+00 WtEn= 0.00D+00
 Coeff-Com: -0.299D-06 0.874D-05 0.637D-05-0.472D-04-0.130D-03-0.182D-03
 Coeff-Com:  0.112D-02 0.228D-02-0.864D-03-0.293D-01-0.585D-01 0.254D+00
 Coeff-Com:  0.832D+00
 Coeff:     -0.299D-06 0.874D-05 0.637D-05-0.472D-04-0.130D-03-0.182D-03
 Coeff:      0.112D-02 0.228D-02-0.864D-03-0.293D-01-0.585D-01 0.254D+00
 Coeff:      0.832D+00
 Gap=     0.181 Goal=   None    Shift=    0.000
 Gap=     0.279 Goal=   None    Shift=    0.000
 RMSDP=3.88D-08 MaxDP=9.57D-07 DE=-5.98D-11 OVMax= 1.77D-06

 Cycle  14  Pass 1  IDiag  1:
 E= -118.443721943826     Delta-E=       -0.000000000005 Rises=F Damp=F
 DIIS: error= 9.33D-08 at cycle  14 NSaved=  14.
 NSaved=14 IEnMin=14 EnMin= -118.443721943826     IErMin=14 ErrMin= 9.33D-08
 ErrMax= 9.33D-08  0.00D+00 EMaxC= 1.00D-01 BMatC= 3.47D-12 BMatP= 1.10D-11
 IDIUse=1 WtCom= 1.00D+00 WtEn= 0.00D+00
 Coeff-Com: -0.118D-06 0.181D-05 0.154D-05 0.325D-05-0.656D-05-0.431D-04
 Coeff-Com: -0.129D-03 0.347D-03 0.260D-02-0.106D-02-0.340D-01-0.606D-01
 Coeff-Com:  0.379D+00 0.714D+00
 Coeff:     -0.118D-06 0.181D-05 0.154D-05 0.325D-05-0.656D-05-0.431D-04
 Coeff:     -0.129D-03 0.347D-03 0.260D-02-0.106D-02-0.340D-01-0.606D-01
 Coeff:      0.379D+00 0.714D+00
 Gap=     0.181 Goal=   None    Shift=    0.000
 Gap=     0.279 Goal=   None    Shift=    0.000
 RMSDP=1.80D-08 MaxDP=5.51D-07 DE=-5.20D-12 OVMax= 6.32D-07

 Cycle  15  Pass 1  IDiag  1:
 E= -118.443721943828     Delta-E=       -0.000000000001 Rises=F Damp=F
 DIIS: error= 2.01D-08 at cycle  15 NSaved=  15.
 NSaved=15 IEnMin=15 EnMin= -118.443721943828     IErMin=15 ErrMin= 2.01D-08
 ErrMax= 2.01D-08  0.00D+00 EMaxC= 1.00D-01 BMatC= 1.67D-13 BMatP= 3.47D-12
 IDIUse=1 WtCom= 1.00D+00 WtEn= 0.00D+00
 Coeff-Com:  0.551D-09-0.638D-06-0.463D-06 0.653D-05 0.148D-04 0.128D-04
 Coeff-Com: -0.167D-03-0.203D-03 0.650D-03 0.341D-02 0.200D-03-0.427D-01
 Coeff-Com: -0.319D-01 0.157D+00 0.914D+00
 Coeff:      0.551D-09-0.638D-06-0.463D-06 0.653D-05 0.148D-04 0.128D-04
 Coeff:     -0.167D-03-0.203D-03 0.650D-03 0.341D-02 0.200D-03-0.427D-01
 Coeff:     -0.319D-01 0.157D+00 0.914D+00
 Gap=     0.181 Goal=   None    Shift=    0.000
 Gap=     0.279 Goal=   None    Shift=    0.000
 RMSDP=3.84D-09 MaxDP=7.06D-08 DE=-1.19D-12 OVMax= 1.52D-07

 SCF Done:  E(UB3LYP) =  -118.443721944     A.U. after   15 cycles
            NFock= 15  Conv=0.38D-08     -V/T= 2.0056
 <Sx>= 0.0000 <Sy>= 0.0000 <Sz>= 0.5000 <S**2>= 0.7579 S= 0.5040
 <L.S>=  0.00000000000    
 KE= 1.177889064934D+02 PE=-4.256288147613D+02 EE= 1.134139497758D+02
 Annihilation of the first spin contaminant:
 S**2 before annihilation     0.7579,   after     0.7500
 Leave Link  502 at Tue Jun 22 09:22:50 2021, MaxMem=  3355443200 cpu:        78.3
 (Enter /Local/ce_dana/g09/l508.exe)
 QCSCF skips out because SCF is already converged.
 Leave Link  508 at Tue Jun 22 09:22:50 2021, MaxMem=  3355443200 cpu:         0.0
 (Enter /Local/ce_dana/g09/l801.exe)
 DoSCS=F DFT=T ScalE2(SS,OS)=  1.000000  1.000000
 Range of M.O.s used for correlation:     1    96
 NBasis=    96 NAE=    13 NBE=    12 NFC=     0 NFV=     0
 NROrb=     96 NOA=    13 NOB=    12 NVA=    83 NVB=    84
 Leave Link  801 at Tue Jun 22 09:22:50 2021, MaxMem=  3355443200 cpu:         0.1
 (Enter /Local/ce_dana/g09/l1101.exe)
 Using compressed storage, NAtomX=    10.
 Will process     11 centers per pass.
 Leave Link 1101 at Tue Jun 22 09:22:50 2021, MaxMem=  3355443200 cpu:         4.0
 (Enter /Local/ce_dana/g09/l1102.exe)
 Symmetrizing basis deriv contribution to polar:
 IMax=3 JMax=2 DiffMx= 0.00D+00
 Leave Link 1102 at Tue Jun 22 09:22:50 2021, MaxMem=  3355443200 cpu:         0.1
 (Enter /Local/ce_dana/g09/l1110.exe)
 Forming Gx(P) for the SCF density, NAtomX=    10.
 Integral derivatives from FoFJK, PRISM(SPDF).
 Do as many integral derivatives as possible in FoFJK.
 G2DrvN: MDV=    3355443016.
 G2DrvN: will do    11 centers at a time, making    1 passes.
 Calling FoFCou, ICntrl=  3107 FMM=F I1Cent=   0 AccDes= 1.00D-12.
 FoFJK:  IHMeth= 1 ICntrl=    3107 DoSepK=F KAlg= 0 I1Cent=   0 FoldK=F
 IRaf=         0 NMat=   1 IRICut=       1 DoRegI=T DoRafI=F ISym2E= 0.
 FoFCou: FMM=F IPFlag=           0 FMFlag=      100000 FMFlg1=           0
         NFxFlg=           0 DoJE=F BraDBF=F KetDBF=F FulRan=T
         wScrn=  0.000000 ICntrl=    3107 IOpCl=  1 I1Cent=           0 NGrid=           0
         NMat0=    1 NMatS0=      1 NMatT0=    0 NMatD0=    1 NMtDS0=    0 NMtDT0=    0
 Symmetry not used in FoFCou.
 End of G2Drv F.D. properties file   721 does not exist.
 End of G2Drv F.D. properties file   722 does not exist.
 End of G2Drv F.D. properties file   788 does not exist.
 Leave Link 1110 at Tue Jun 22 09:23:00 2021, MaxMem=  3355443200 cpu:        98.6
 (Enter /Local/ce_dana/g09/l1002.exe)
 Minotr:  UHF open shell wavefunction.
          IDoAtm=1111111111
          Direct CPHF calculation.
          Differentiating once with respect to nuclear coordinates.
          Requested convergence is 1.0D-08 RMS, and 1.0D-07 maximum.
          Secondary convergence is 1.0D-12 RMS, and 1.0D-12 maximum.
          NewPWx=T KeepS1=F KeepF1=F KeepIn=T MapXYZ=F SortEE=F KeepMc=T.
          MDV=    3355442904 using IRadAn=       1.
 Generate precomputed XC quadrature information.
 Keep R1 and R2 ints in memory in canonical form, NReq=22605689.
 FoFCou: FMM=F IPFlag=           0 FMFlag=           0 FMFlg1=           0
         NFxFlg=           0 DoJE=F BraDBF=F KetDBF=F FulRan=T
         wScrn=  0.000000 ICntrl=     600 IOpCl=  0 I1Cent=           0 NGrid=           0
         NMat0=    1 NMatS0=   4656 NMatT0=    0 NMatD0=    1 NMtDS0=    0 NMtDT0=    0
 Symmetry not used in FoFCou.
          Solving linear equations simultaneously, MaxMat=       0.
          There are    33 degrees of freedom in the 1st order CPHF.  IDoFFX=6 NUNeed=     0.
     27 vectors produced by pass  0 Test12= 6.32D-15 3.03D-09 XBig12= 1.62D-01 1.64D-01.
 AX will form    27 AO Fock derivatives at one time.
     27 vectors produced by pass  1 Test12= 6.32D-15 3.03D-09 XBig12= 9.06D-03 2.67D-02.
     27 vectors produced by pass  2 Test12= 6.32D-15 3.03D-09 XBig12= 1.74D-04 2.53D-03.
     27 vectors produced by pass  3 Test12= 6.32D-15 3.03D-09 XBig12= 2.57D-06 1.88D-04.
     27 vectors produced by pass  4 Test12= 6.32D-15 3.03D-09 XBig12= 1.53D-08 1.71D-05.
     27 vectors produced by pass  5 Test12= 6.32D-15 3.03D-09 XBig12= 7.00D-11 1.06D-06.
     12 vectors produced by pass  6 Test12= 6.32D-15 3.03D-09 XBig12= 1.96D-13 5.02D-08.
      2 vectors produced by pass  7 Test12= 6.32D-15 3.03D-09 XBig12= 7.05D-16 4.02D-09.
 InvSVY:  IOpt=1 It=  1 EMax= 2.44D-15
 Solved reduced A of dimension   176 with    27 vectors.
 End of Minotr F.D. properties file   721 does not exist.
 End of Minotr F.D. properties file   722 does not exist.
 End of Minotr F.D. properties file   788 does not exist.
 Leave Link 1002 at Tue Jun 22 09:23:15 2021, MaxMem=  3355443200 cpu:       140.4
 (Enter /Local/ce_dana/g09/l601.exe)
 Copying SCF densities to generalized density rwf, IOpCl= 1 IROHF=0.

 **********************************************************************

            Population analysis using the SCF density.

 **********************************************************************

 Orbital symmetries:
 Alpha Orbitals:
       Occupied  (A) (A) (A) (A) (A) (A) (A) (A) (A) (A) (A) (A)
                 (A)
       Virtual   (A) (A) (A) (A) (A) (A) (A) (A) (A) (A) (A) (A)
                 (A) (A) (A) (A) (A) (A) (A) (A) (A) (A) (A) (A)
                 (A) (A) (A) (A) (A) (A) (A) (A) (A) (A) (A) (A)
                 (A) (A) (A) (A) (A) (A) (A) (A) (A) (A) (A) (A)
                 (A) (A) (A) (A) (A) (A) (A) (A) (A) (A) (A) (A)
                 (A) (A) (A) (A) (A) (A) (A) (A) (A) (A) (A) (A)
                 (A) (A) (A) (A) (A) (A) (A) (A) (A) (A) (A)
 Beta  Orbitals:
       Occupied  (A) (A) (A) (A) (A) (A) (A) (A) (A) (A) (A) (A)
       Virtual   (A) (A) (A) (A) (A) (A) (A) (A) (A) (A) (A) (A)
                 (A) (A) (A) (A) (A) (A) (A) (A) (A) (A) (A) (A)
                 (A) (A) (A) (A) (A) (A) (A) (A) (A) (A) (A) (A)
                 (A) (A) (A) (A) (A) (A) (A) (A) (A) (A) (A) (A)
                 (A) (A) (A) (A) (A) (A) (A) (A) (A) (A) (A) (A)
                 (A) (A) (A) (A) (A) (A) (A) (A) (A) (A) (A) (A)
                 (A) (A) (A) (A) (A) (A) (A) (A) (A) (A) (A) (A)
 The electronic state is 2-A.
 Alpha  occ. eigenvalues --  -10.18222 -10.17306 -10.16720  -0.80927  -0.69678
 Alpha  occ. eigenvalues --   -0.56862  -0.47954  -0.44650  -0.41593  -0.38671
 Alpha  occ. eigenvalues --   -0.36238  -0.32192  -0.13889
 Alpha virt. eigenvalues --    0.04168   0.07617   0.07979   0.08984   0.11883
 Alpha virt. eigenvalues --    0.12629   0.13085   0.21556   0.25290   0.26829
 Alpha virt. eigenvalues --    0.30019   0.31135   0.34361   0.36621   0.40678
 Alpha virt. eigenvalues --    0.46294   0.48922   0.53376   0.55947   0.56976
 Alpha virt. eigenvalues --    0.58248   0.59351   0.59810   0.64452   0.66696
 Alpha virt. eigenvalues --    0.71478   0.76349   0.84588   0.96066   1.10237
 Alpha virt. eigenvalues --    1.18544   1.22876   1.33980   1.36161   1.40633
 Alpha virt. eigenvalues --    1.41489   1.42732   1.45701   1.49342   1.50437
 Alpha virt. eigenvalues --    1.53333   1.59490   1.61095   1.69059   1.71100
 Alpha virt. eigenvalues --    1.73361   1.77010   1.88216   1.93308   1.98547
 Alpha virt. eigenvalues --    1.98955   2.05028   2.07548   2.12109   2.15468
 Alpha virt. eigenvalues --    2.18463   2.26198   2.35186   2.40129   2.42200
 Alpha virt. eigenvalues --    2.46016   2.46562   2.49584   2.51468   2.54202
 Alpha virt. eigenvalues --    2.56408   2.65575   2.67316   2.72774   2.80648
 Alpha virt. eigenvalues --    2.87806   2.94444   3.10495   3.20909   3.65165
 Alpha virt. eigenvalues --    3.71147   3.77725   3.81878   4.03728   4.39917
 Alpha virt. eigenvalues --   23.79543  23.84661  23.91772
  Beta  occ. eigenvalues --  -10.17388 -10.16751 -10.16494  -0.79229  -0.68861
  Beta  occ. eigenvalues --   -0.55051  -0.46847  -0.43647  -0.40880  -0.38207
  Beta  occ. eigenvalues --   -0.35738  -0.30025
  Beta virt. eigenvalues --   -0.02148   0.04604   0.07855   0.08432   0.09722
  Beta virt. eigenvalues --    0.12085   0.13054   0.13295   0.22192   0.25736
  Beta virt. eigenvalues --    0.27237   0.30258   0.31443   0.34948   0.37459
  Beta virt. eigenvalues --    0.41890   0.48940   0.51236   0.54558   0.56680
  Beta virt. eigenvalues --    0.57417   0.58471   0.59918   0.60322   0.65074
  Beta virt. eigenvalues --    0.67607   0.72568   0.77922   0.85120   0.97139
  Beta virt. eigenvalues --    1.11202   1.18963   1.24119   1.34714   1.37165
  Beta virt. eigenvalues --    1.40916   1.42262   1.43193   1.45968   1.50049
  Beta virt. eigenvalues --    1.52490   1.53696   1.59921   1.61643   1.69537
  Beta virt. eigenvalues --    1.71496   1.73649   1.78518   1.89267   1.94245
  Beta virt. eigenvalues --    1.99218   2.00004   2.05390   2.09305   2.12922
  Beta virt. eigenvalues --    2.16367   2.19474   2.26532   2.35664   2.41238
  Beta virt. eigenvalues --    2.42411   2.46373   2.46966   2.50061   2.51817
  Beta virt. eigenvalues --    2.54542   2.56765   2.66039   2.68091   2.74647
  Beta virt. eigenvalues --    2.81032   2.88434   2.94754   3.13557   3.21393
  Beta virt. eigenvalues --    3.66029   3.72216   3.78054   3.82079   4.04688
  Beta virt. eigenvalues --    4.40938  23.80461  23.85471  23.91873
          Condensed to atoms (all electrons):
               1          2          3          4          5          6
     1  C    4.796830   0.360353  -0.049442  -0.027432   0.404651   0.406881
     2  C    0.360353   5.422469   0.097389   0.389425  -0.034011  -0.046704
     3  C   -0.049442   0.097389   5.400933  -0.027111   0.007489   0.003909
     4  H   -0.027432   0.389425  -0.027111   0.555443  -0.006280   0.007704
     5  H    0.404651  -0.034011   0.007489  -0.006280   0.583268  -0.029149
     6  H    0.406881  -0.046704   0.003909   0.007704  -0.029149   0.602717
     7  H   -0.011844   0.166642   0.112869  -0.005503  -0.005324  -0.005557
     8  H    0.388712  -0.048162  -0.004456  -0.004312  -0.031365  -0.042335
     9  H    0.004735  -0.024989   0.392743  -0.008445  -0.000332  -0.000299
    10  H   -0.006060  -0.031742   0.397399   0.005074  -0.000048   0.001810
               7          8          9         10
     1  C   -0.011844   0.388712   0.004735  -0.006060
     2  C    0.166642  -0.048162  -0.024989  -0.031742
     3  C    0.112869  -0.004456   0.392743   0.397399
     4  H   -0.005503  -0.004312  -0.008445   0.005074
     5  H   -0.005324  -0.031365  -0.000332  -0.000048
     6  H   -0.005557  -0.042335  -0.000299   0.001810
     7  H    0.582280   0.005754   0.000539  -0.001490
     8  H    0.005754   0.625111   0.000463   0.002394
     9  H    0.000539   0.000463   0.538462  -0.027741
    10  H   -0.001490   0.002394  -0.027741   0.538886
          Atomic-Atomic Spin Densities.
               1          2          3          4          5          6
     1  C   -0.024358  -0.025161   0.010841   0.005627   0.004355   0.007848
     2  C   -0.025161   0.908207  -0.346366  -0.017905  -0.002865  -0.016319
     3  C    0.010841  -0.346366   0.915624   0.011138  -0.000213   0.008361
     4  H    0.005627  -0.017905   0.011138  -0.008473   0.000568   0.001324
     5  H    0.004355  -0.002865  -0.000213   0.000568  -0.000655   0.000957
     6  H    0.007848  -0.016319   0.008361   0.001324   0.000957   0.028741
     7  H   -0.003814   0.043475  -0.000154  -0.002477   0.001040  -0.001151
     8  H   -0.010518  -0.019981   0.003185  -0.004940  -0.001676  -0.017498
     9  H   -0.000927   0.005974  -0.011946  -0.001490   0.000014  -0.000358
    10  H    0.000009   0.005391  -0.010245  -0.001298  -0.000018  -0.002169
               7          8          9         10
     1  C   -0.003814  -0.010518  -0.000927   0.000009
     2  C    0.043475  -0.019981   0.005974   0.005391
     3  C   -0.000154   0.003185  -0.011946  -0.010245
     4  H   -0.002477  -0.004940  -0.001490  -0.001298
     5  H    0.001040  -0.001676   0.000014  -0.000018
     6  H   -0.001151  -0.017498  -0.000358  -0.002169
     7  H   -0.113560   0.000305  -0.000056   0.000318
     8  H    0.000305   0.092682   0.000739   0.002055
     9  H   -0.000056   0.000739  -0.015274   0.004476
    10  H    0.000318   0.002055   0.004476  -0.019847
 Mulliken charges and spin densities:
               1          2
     1  C   -0.267385  -0.036098
     2  C   -0.250669   0.534451
     3  C   -0.331722   0.580226
     4  H    0.121438  -0.017926
     5  H    0.111102   0.001507
     6  H    0.101024   0.009736
     7  H    0.161634  -0.076073
     8  H    0.108196   0.044353
     9  H    0.124863  -0.018849
    10  H    0.121517  -0.021328
 Sum of Mulliken charges =  -0.00000   1.00000
 Mulliken charges and spin densities with hydrogens summed into heavy atoms:
               1          2
     1  C    0.052938   0.019499
     2  C    0.032403   0.440452
     3  C   -0.085342   0.540048
 APT charges:
               1
     1  C   -0.996013
     2  C   -0.473448
     3  C   -0.864318
     4  H    0.362758
     5  H    0.402020
     6  H    0.291048
     7  H    0.204361
     8  H    0.309365
     9  H    0.451692
    10  H    0.312536
 Sum of APT charges =  -0.00000
 APT charges with hydrogens summed into heavy atoms:
               1
     1  C    0.006420
     2  C    0.093670
     3  C   -0.100090
 Electronic spatial extent (au):  <R**2>=            215.7649
 Charge=              0.0000 electrons
 Dipole moment (field-independent basis, Debye):
    X=             -0.1497    Y=              0.1050    Z=              0.0626  Tot=              0.1933
 Quadrupole moment (field-independent basis, Debye-Ang):
   XX=            -21.5824   YY=            -20.5923   ZZ=            -22.3527
   XY=              0.4013   XZ=             -0.2878   YZ=             -0.4152
 Traceless Quadrupole moment (field-independent basis, Debye-Ang):
   XX=             -0.0732   YY=              0.9168   ZZ=             -0.8436
   XY=              0.4013   XZ=             -0.2878   YZ=             -0.4152
 Octapole moment (field-independent basis, Debye-Ang**2):
  XXX=             -0.7493  YYY=             -0.1137  ZZZ=             -0.2100  XYY=              0.3076
  XXY=              1.8022  XXZ=             -1.4422  XZZ=             -1.2149  YZZ=             -0.0748
  YYZ=             -0.5326  XYZ=              0.0649
 Hexadecapole moment (field-independent basis, Debye-Ang**3):
 XXXX=           -204.9228 YYYY=            -59.0640 ZZZZ=            -39.1817 XXXY=              1.1992
 XXXZ=             -6.3399 YYYX=             -0.9040 YYYZ=             -2.3015 ZZZX=              0.7641
 ZZZY=             -0.2330 XXYY=            -44.2353 XXZZ=            -42.8347 YYZZ=            -17.9009
 XXYZ=              0.3408 YYXZ=             -0.8885 ZZXY=              1.3821
 N-N= 7.598223654824D+01 E-N=-4.256288160908D+02  KE= 1.177889064934D+02
  Exact polarizability:   0.000   0.000   0.000   0.000   0.000   0.000
 Approx polarizability:  58.088  -4.610  48.756   1.031   1.155  44.732
                          Isotropic Fermi Contact Couplings
        Atom                 a.u.       MegaHertz       Gauss      10(-4) cm-1
     1  C(13)             -0.00447      -5.02007      -1.79129      -1.67452
     2  C(13)              0.07029      79.02204      28.19703      26.35892
     3  C(13)              0.06776      76.17269      27.18031      25.40848
     4  H(1)              -0.00372     -16.62447      -5.93202      -5.54533
     5  H(1)               0.00136       6.07163       2.16651       2.02528
     6  H(1)               0.00491      21.94477       7.83044       7.31999
     7  H(1)              -0.03004    -134.27931     -47.91419     -44.79076
     8  H(1)               0.01594      71.24847      25.42322      23.76593
     9  H(1)              -0.00406     -18.14140      -6.47330      -6.05132
    10  H(1)              -0.00537     -24.00433      -8.56534      -8.00698
 --------------------------------------------------------
       Center         ----  Spin Dipole Couplings  ----
                      3XX-RR        3YY-RR        3ZZ-RR
 --------------------------------------------------------
     1   Atom        0.017691     -0.001654     -0.016038
     2   Atom       -0.329723     -0.324902      0.654625
     3   Atom       -0.314888     -0.307419      0.622307
     4   Atom       -0.039632      0.039111      0.000521
     5   Atom        0.013464     -0.007722     -0.005742
     6   Atom        0.003913      0.002333     -0.006247
     7   Atom        0.052047     -0.037745     -0.014302
     8   Atom        0.006157     -0.003186     -0.002971
     9   Atom        0.019188     -0.021933      0.002745
    10   Atom       -0.040519      0.043313     -0.002794
 --------------------------------------------------------
                        XY            XZ            YZ
 --------------------------------------------------------
     1   Atom        0.014815      0.003285      0.002529
     2   Atom        0.006040      0.086559      0.122591
     3   Atom        0.013296      0.110898      0.150705
     4   Atom        0.003315      0.003395     -0.016591
     5   Atom        0.001045     -0.001333      0.000221
     6   Atom        0.009679     -0.002888     -0.002001
     7   Atom       -0.081295      0.006951      0.014437
     8   Atom        0.005613      0.004795      0.002427
     9   Atom        0.033031     -0.016594     -0.003387
    10   Atom        0.003337      0.002980      0.002993
 --------------------------------------------------------


 ---------------------------------------------------------------------------------
              Anisotropic Spin Dipole Couplings in Principal Axis System
 ---------------------------------------------------------------------------------

       Atom             a.u.   MegaHertz   Gauss  10(-4) cm-1        Axes

              Baa    -0.0165    -2.214    -0.790    -0.738 -0.0389 -0.1300  0.9908
     1 C(13)  Bbb    -0.0096    -1.290    -0.460    -0.430 -0.4836  0.8701  0.0952
              Bcc     0.0261     3.504     1.250     1.169  0.8744  0.4754  0.0967
 
              Baa    -0.3434   -46.079   -16.442   -15.370  0.5913  0.7926 -0.1486
     2 C(13)  Bbb    -0.3338   -44.793   -15.983   -14.941  0.8018 -0.5975  0.0039
              Bcc     0.6772    90.873    32.426    30.312  0.0857  0.1215  0.9889
 
              Baa    -0.3340   -44.816   -15.992   -14.949  0.5470  0.8148 -0.1919
     3 C(13)  Bbb    -0.3249   -43.604   -15.559   -14.545  0.8293 -0.5587 -0.0082
              Bcc     0.6589    88.421    31.551    29.494  0.1139  0.1546  0.9814
 
              Baa    -0.0402   -21.459    -7.657    -7.158  0.9920 -0.0642 -0.1088
     4 H(1)   Bbb    -0.0051    -2.715    -0.969    -0.906  0.1243  0.3405  0.9320
              Bcc     0.0453    24.174     8.626     8.063  0.0228  0.9380 -0.3458
 
              Baa    -0.0078    -4.170    -1.488    -1.391 -0.0574  0.9881 -0.1424
     5 H(1)   Bbb    -0.0058    -3.090    -1.102    -1.031  0.0604  0.1458  0.9875
              Bcc     0.0136     7.259     2.590     2.421  0.9965  0.0481 -0.0681
 
              Baa    -0.0072    -3.854    -1.375    -1.286  0.5086 -0.3505  0.7865
     6 H(1)   Bbb    -0.0062    -3.322    -1.185    -1.108 -0.4614  0.6602  0.5926
              Bcc     0.0134     7.176     2.561     2.394  0.7269  0.6643 -0.1741
 
              Baa    -0.0891   -47.553   -16.968   -15.862  0.4957  0.8430 -0.2087
     7 H(1)   Bbb    -0.0109    -5.821    -2.077    -1.942  0.1163  0.1737  0.9779
              Bcc     0.1000    53.374    19.045    17.804  0.8606 -0.5091 -0.0120
 
              Baa    -0.0058    -3.119    -1.113    -1.040 -0.3582  0.9168 -0.1766
     8 H(1)   Bbb    -0.0050    -2.682    -0.957    -0.895 -0.4021  0.0192  0.9154
              Bcc     0.0109     5.801     2.070     1.935  0.8426  0.3989  0.3618
 
              Baa    -0.0409   -21.835    -7.791    -7.283 -0.5041  0.8545 -0.1253
     9 H(1)   Bbb    -0.0030    -1.598    -0.570    -0.533  0.2599  0.2884  0.9216
              Bcc     0.0439    23.433     8.361     7.816  0.8236  0.4320 -0.3675
 
              Baa    -0.0409   -21.805    -7.780    -7.273  0.9965 -0.0368 -0.0751
    10 H(1)   Bbb    -0.0028    -1.487    -0.531    -0.496  0.0724 -0.0698  0.9949
              Bcc     0.0437    23.292     8.311     7.769  0.0419  0.9969  0.0669
 

 ---------------------------------------------------------------------------------

 No NMR shielding tensors so no spin-rotation constants.
 Leave Link  601 at Tue Jun 22 09:23:15 2021, MaxMem=  3355443200 cpu:         2.4
 (Enter /Local/ce_dana/g09/l701.exe)
 Compute integral second derivatives.
 ... and contract with generalized density number  0.
 Leave Link  701 at Tue Jun 22 09:23:15 2021, MaxMem=  3355443200 cpu:         4.3
 (Enter /Local/ce_dana/g09/l702.exe)
 L702 exits ... SP integral derivatives will be done elsewhere.
 Leave Link  702 at Tue Jun 22 09:23:15 2021, MaxMem=  3355443200 cpu:         0.0
 (Enter /Local/ce_dana/g09/l703.exe)
 Compute integral second derivatives, UseDBF=F ICtDFT=           0.
 Integral derivatives from FoFJK, PRISM(SPDF).
 Calling FoFJK, ICntrl=    100147 FMM=F ISym2X=0 I1Cent= 0 IOpClX= 1 NMat=1 NMatS=1 NMatT=0.
 FoFJK:  IHMeth= 1 ICntrl=  100147 DoSepK=F KAlg= 0 I1Cent=   0 FoldK=F
 IRaf=         0 NMat=   1 IRICut=       1 DoRegI=T DoRafI=F ISym2E= 0.
 FoFCou: FMM=F IPFlag=           0 FMFlag=      100000 FMFlg1=         800
         NFxFlg=           0 DoJE=F BraDBF=F KetDBF=F FulRan=T
         wScrn=  0.000000 ICntrl=  100147 IOpCl=  1 I1Cent=           0 NGrid=           0
         NMat0=    1 NMatS0=      1 NMatT0=    0 NMatD0=    1 NMtDS0=    0 NMtDT0=    0
 Symmetry not used in FoFCou.
 Leave Link  703 at Tue Jun 22 09:23:24 2021, MaxMem=  3355443200 cpu:        84.2
 (Enter /Local/ce_dana/g09/l716.exe)
 Dipole        =-5.88903109D-02 4.13144808D-02 2.46234665D-02
 Polarizability= 0.00000000D+00 0.00000000D+00 0.00000000D+00
                 0.00000000D+00 0.00000000D+00 0.00000000D+00
 ***** Axes restored to original set *****
 -------------------------------------------------------------------
 Center     Atomic                   Forces (Hartrees/Bohr)
 Number     Number              X              Y              Z
 -------------------------------------------------------------------
      1        6           0.001746119   -0.003099859   -0.002820559
      2        6           0.002312609   -0.000622664    0.006302968
      3        6          -0.007254637    0.003207636   -0.001606111
      4        1          -0.000973219    0.000773396   -0.005951557
      5        1          -0.003913750    0.001633628   -0.001220029
      6        1          -0.000096144   -0.001568047    0.004038261
      7        1          -0.000118970   -0.000506424    0.000341497
      8        1           0.002442211    0.002400392   -0.000349098
      9        1           0.003245140   -0.002885983   -0.004798218
     10        1           0.002610640    0.000667924    0.006062845
 -------------------------------------------------------------------
 Cartesian Forces:  Max     0.007254637 RMS     0.003188153
 Force constants in Cartesian coordinates: 
                1             2             3             4             5 
      1  0.526012D+00
      2 -0.199167D-01  0.481163D+00
      3  0.123424D-01 -0.299415D-01  0.511319D+00
      4 -0.760139D-01  0.387708D-01  0.240485D-01  0.289771D+00
      5  0.352510D-01 -0.145208D+00 -0.599454D-01 -0.187310D+00  0.303112D+00
      6  0.152443D-01 -0.693961D-01 -0.140696D+00  0.743486D-01  0.607190D-01
      7 -0.599946D-02  0.143110D-02 -0.918671D-02 -0.106658D+00  0.264943D+00
      8  0.185743D-01 -0.140093D-01  0.687057D-02  0.134472D+00 -0.859708D-01
      9  0.212863D-01 -0.550248D-02  0.569445D-02 -0.524270D-01  0.161519D-01
     10  0.154647D-02 -0.170955D-02  0.617837D-02 -0.413452D-01  0.206685D-01
     11 -0.240028D-02  0.623905D-02 -0.234900D-01  0.112930D-01 -0.484719D-01
     12 -0.174807D-02  0.495751D-02 -0.117612D-01 -0.482070D-01  0.226002D-01
     13 -0.242319D+00  0.859328D-01 -0.533070D-01 -0.510365D-02  0.306853D-02
     14  0.842638D-01 -0.839130D-01  0.232551D-01  0.208435D-01 -0.134289D-01
     15 -0.543616D-01  0.241739D-01 -0.641219D-01  0.201551D-01 -0.922827D-02
     16 -0.479263D-01 -0.134588D-02  0.109343D-01 -0.879392D-03 -0.280428D-02
     17 -0.132736D-02 -0.726599D-01  0.754452D-01  0.462904D-03  0.800067D-02
     18  0.997746D-02  0.745290D-01 -0.260430D+00 -0.174955D-02  0.133896D-02
     19  0.764738D-03  0.797500D-02  0.374052D-02 -0.465368D-01 -0.146710D+00
     20 -0.462704D-02 -0.111544D-01 -0.591442D-02 -0.112105D-01  0.160298D-01
     21 -0.833247D-02 -0.654161D-02  0.480475D-02  0.399322D-02 -0.186089D-01
     22 -0.156564D+00 -0.109450D+00  0.965810D-02  0.795950D-02  0.453784D-02
     23 -0.114401D+00 -0.161543D+00  0.117680D-01 -0.150499D-01 -0.254571D-01
     24  0.562908D-02  0.754344D-02 -0.450228D-01 -0.149946D-01 -0.200705D-01
     25 -0.142279D-02 -0.210563D-02 -0.282663D-02 -0.109308D-01  0.761355D-02
     26  0.568698D-02 -0.106070D-02  0.138541D-02  0.318311D-02 -0.108033D-01
     27 -0.126897D-02  0.977022D-03 -0.516708D-03 -0.589573D-02  0.794179D-02
     28  0.192287D-02  0.418024D-03 -0.158195D-02 -0.102625D-01  0.741401D-03
     29 -0.110360D-02  0.214721D-02  0.566990D-03  0.454471D-02  0.219761D-02
     30  0.123156D-02 -0.799247D-03  0.730461D-03  0.728317D-03 -0.898790D-03
                6             7             8             9            10 
      6  0.561811D+00
      7 -0.889457D-01  0.276268D+00
      8  0.105138D-01 -0.235354D+00  0.289934D+00
      9 -0.853253D-01  0.582925D-01  0.982592D-01  0.582461D+00
     10 -0.411491D-01 -0.508750D-02 -0.154507D-02 -0.264004D-01  0.423183D-01
     11  0.266011D-01  0.560370D-02 -0.545748D-02  0.142128D-01 -0.211207D-01
     12 -0.304960D+00 -0.790550D-03  0.610485D-03 -0.256722D-02  0.508367D-01
     13 -0.155924D-02  0.892080D-03 -0.211563D-03  0.198368D-02  0.260466D-03
     14  0.776758D-02  0.200965D-02 -0.146777D-02 -0.504732D-02 -0.699175D-03
     15  0.616975D-02 -0.210896D-04 -0.161897D-02 -0.275048D-02 -0.128866D-03
     16  0.538485D-02  0.134191D-03 -0.609419D-03  0.101273D-02  0.243103D-03
     17 -0.264451D-01 -0.153506D-02  0.114477D-02  0.139110D-03  0.186342D-02
     18 -0.204894D-01  0.144511D-02  0.569555D-03  0.545236D-03  0.227947D-02
     19  0.463215D-01  0.212717D-01  0.289426D-02  0.119138D-02  0.274850D-02
     20 -0.891801D-02 -0.134832D+00 -0.506334D-01  0.338800D-02 -0.133398D-02
     21 -0.188490D-01  0.465943D-01  0.967641D-02 -0.239880D-01  0.957978D-02
     22 -0.440596D-02  0.234634D-02 -0.238044D-02  0.630510D-03  0.956808D-04
     23 -0.605831D-02  0.337825D-02  0.413568D-03  0.249862D-02  0.358180D-03
     24 -0.705612D-03  0.318849D-02 -0.150808D-04  0.132567D-02  0.267335D-03
     25  0.699269D-02 -0.103569D+00  0.782347D-01  0.954049D-01  0.139336D-02
     26 -0.196657D-01  0.820666D-01 -0.986902D-01 -0.967599D-01 -0.116405D-02
     27  0.965407D-02  0.892906D-01 -0.106696D+00 -0.195643D+00  0.523757D-03
     28 -0.122320D-01 -0.795982D-01  0.592523D-02 -0.100975D+00 -0.217318D-02
     29  0.248817D-01  0.122886D-01 -0.352633D-01 -0.273399D-01  0.468246D-02
     30 -0.660910D-02 -0.998670D-01 -0.181699D-01 -0.279752D+00 -0.198704D-02
               11            12            13            14            15 
     11  0.483301D-01
     12 -0.250933D-01  0.320318D+00
     13 -0.109876D-04  0.392113D-03  0.263030D+00
     14  0.791657D-03 -0.159161D-04 -0.956183D-01  0.932329D-01
     15  0.838724D-03  0.582694D-03  0.586926D-01 -0.228030D-01  0.656956D-01
     16  0.861457D-03  0.561368D-03  0.257462D-02  0.869458D-02 -0.271911D-01
     17 -0.318797D-02 -0.306522D-02 -0.161784D-02 -0.486946D-02  0.108063D-01
     18 -0.257948D-02 -0.994721D-03  0.364952D-05  0.217475D-02 -0.623177D-02
     19  0.423910D-02 -0.996737D-03  0.451422D-03  0.179518D-03 -0.870105D-04
     20  0.250225D-02 -0.969562D-03  0.397325D-03  0.986659D-03 -0.272573D-03
     21  0.926599D-02 -0.269163D-02 -0.108525D-03  0.415580D-03  0.289848D-03
     22 -0.307718D-03 -0.294888D-03 -0.198746D-01 -0.201337D-01  0.230378D-02
     23  0.562122D-03 -0.273275D-03  0.798494D-02  0.976942D-02 -0.800827D-03
     24  0.723264D-03 -0.133678D-03 -0.595155D-02 -0.609092D-02 -0.202438D-03
     25  0.148901D-02 -0.832240D-03 -0.163500D-05  0.756212D-03  0.382104D-03
     26  0.122156D-02 -0.115960D-03  0.388412D-03 -0.130369D-02 -0.968765D-03
     27 -0.254816D-03  0.117110D-02 -0.246361D-03  0.344487D-03  0.472140D-03
     28  0.353408D-03  0.107927D-02  0.909802D-04 -0.296148D-03  0.256062D-03
     29 -0.252935D-02  0.136501D-02 -0.313342D-03  0.202248D-03 -0.126519D-03
     30 -0.224384D-03  0.103632D-02  0.100630D-03  0.000000D+00  0.966314D-04
               16            17            18            19            20 
     16  0.471120D-01
     17  0.296169D-02  0.799085D-01
     18 -0.116686D-01 -0.790459D-01  0.288683D+00
     19  0.653323D-03  0.116560D-03 -0.215353D-02  0.215064D-01
     20  0.102597D-03 -0.580194D-04  0.158742D-02  0.139806D+00  0.348142D-01
     21 -0.299103D-03 -0.114197D-03 -0.470234D-03 -0.487242D-01  0.113197D-01
     22 -0.164064D-02 -0.813546D-03  0.804706D-03 -0.644599D-03  0.262825D-02
     23 -0.795586D-02 -0.843267D-02  0.154909D-02 -0.163113D-02  0.210430D-02
     24  0.216315D-01  0.218449D-01 -0.152399D-02 -0.171703D-02  0.954508D-03
     25  0.644393D-04 -0.345489D-03  0.413624D-03 -0.498455D-03  0.734242D-02
     26 -0.859544D-04 -0.237773D-04  0.201114D-03 -0.395769D-02  0.573385D-02
     27 -0.303106D-03  0.198003D-03  0.287362D-03  0.102329D-02 -0.952516D-03
     28 -0.335355D-03  0.234715D-03  0.647634D-03  0.283663D-03  0.172625D-02
     29  0.181068D-03  0.177878D-03 -0.324541D-03 -0.291231D-02 -0.325251D-03
     30 -0.629355D-04  0.236965D-03  0.625045D-03  0.140184D-02 -0.222536D-03
               21            22            23            24            25 
     21  0.418766D-01
     22  0.400649D-03  0.167835D+00
     23 -0.349011D-02  0.126225D+00  0.182370D+00
     24 -0.200252D-02 -0.885872D-02 -0.553031D-02  0.481839D-01
     25  0.702452D-02  0.128727D-03  0.292349D-03  0.287911D-03  0.106302D+00
     26  0.676595D-02 -0.230877D-03  0.304579D-03  0.344549D-03 -0.862407D-01
     27 -0.174854D-02  0.130672D-03  0.110496D-03 -0.619267D-04 -0.974716D-01
     28 -0.101282D-01  0.358546D-03  0.799369D-03  0.517532D-03  0.853403D-02
     29 -0.868878D-02 -0.747634D-04 -0.914807D-04  0.296175D-03 -0.703637D-02
     30  0.277873D-02 -0.368853D-03  0.226641D-03  0.143470D-03 -0.937528D-02
               26            27            28            29            30 
     26  0.105046D+00
     27  0.107788D+00  0.197434D+00
     28  0.354229D-03  0.142174D-01  0.811791D-01
     29 -0.424302D-03 -0.945597D-02 -0.102565D-01  0.339088D-01
     30  0.102576D-02 -0.110483D-01  0.108199D+00  0.188258D-01  0.291999D+00
 FormGI is forming the generalized inverse of G from B-inverse, IUseBI=4.
 Force constants in internal coordinates: 
                1             2             3             4             5 
      1  0.303032D+00
      2  0.644032D-02  0.321444D+00
      3  0.748393D-02  0.279594D-02  0.315766D+00
      4  0.140648D-01  0.388547D-02  0.427955D-02  0.301892D+00
      5  0.539511D-02 -0.609451D-03  0.231654D-02  0.509528D-02  0.314599D+00
      6  0.399301D-02  0.575282D-03 -0.416815D-03  0.353945D-03  0.524354D-02
      7  0.555903D-02  0.146603D-04 -0.116000D-02 -0.346756D-02  0.568496D-01
      8 -0.959288D-03  0.251419D-03 -0.128630D-04 -0.463499D-05  0.389116D-02
      9  0.693524D-03 -0.185451D-03  0.678967D-03  0.233767D-03  0.429114D-02
     10  0.166744D-01  0.877528D-03 -0.552222D-02 -0.534923D-02  0.450837D-02
     11  0.165024D-01 -0.531996D-02  0.220174D-02 -0.570605D-02 -0.332340D-02
     12  0.146338D-01 -0.593124D-02 -0.639431D-02 -0.516953D-03  0.181745D-02
     13 -0.166053D-01  0.509835D-02  0.470171D-02  0.281300D-04 -0.421879D-03
     14 -0.170230D-01  0.558950D-02  0.506283D-03  0.576618D-02 -0.207499D-02
     15 -0.176210D-01  0.286310D-03  0.527334D-02  0.667706D-02 -0.781924D-03
     16  0.113145D-01  0.350492D-02 -0.336532D-02 -0.244122D-02  0.176150D-01
     17  0.562732D-02 -0.156483D-02  0.313743D-02  0.899080D-03 -0.225024D-01
     18  0.585847D-02  0.680109D-03 -0.207844D-02 -0.730940D-03  0.176020D-01
     19 -0.153909D-01 -0.173103D-02 -0.192886D-03  0.103876D-02  0.888527D-02
     20 -0.743895D-02 -0.329268D-03  0.255078D-02  0.233012D-02 -0.283130D-01
     21 -0.771591D-02  0.112166D-03 -0.857927D-03 -0.485387D-03  0.860418D-02
     22  0.325009D-02  0.113290D-02  0.985858D-04 -0.785843D-04  0.104417D-01
     23 -0.340761D-02 -0.984369D-03  0.483259D-03  0.636801D-03  0.104498D-01
     24  0.385942D-03 -0.964562D-04 -0.598431D-03 -0.625429D-03 -0.211147D-01
     25 -0.596671D-03  0.491740D-03  0.427488D-02 -0.282481D-02 -0.111858D-01
     26 -0.121050D-03  0.619421D-03  0.313029D-02 -0.391150D-02  0.145261D-02
     27  0.248863D-02 -0.477434D-03  0.308379D-02 -0.457374D-02  0.103724D-01
     28 -0.237107D-02 -0.292655D-02  0.530975D-03  0.481541D-02 -0.114377D-01
     29 -0.189544D-02 -0.279886D-02 -0.613619D-03  0.372871D-02  0.120070D-02
     30  0.714239D-03 -0.389572D-02 -0.660113D-03  0.306647D-02  0.101205D-01
     31 -0.671678D-03  0.411230D-02 -0.334758D-02  0.504623D-03 -0.946371D-02
     32 -0.196057D-03  0.423998D-02 -0.449217D-02 -0.582071D-03  0.317471D-02
     33  0.241363D-02  0.314313D-02 -0.453867D-02 -0.124431D-02  0.120945D-01
     34  0.411702D-02  0.647985D-03 -0.435002D-03 -0.908715D-03 -0.114390D-02
     35  0.328867D-02  0.495283D-03 -0.265965D-03 -0.565383D-03  0.362890D-02
     36 -0.100379D-02  0.525929D-03 -0.113780D-03  0.156920D-03 -0.614359D-02
     37 -0.183213D-02  0.373227D-03  0.552575D-04  0.500252D-03 -0.137078D-02
     38  0.219409D-02 -0.570168D-03 -0.152087D-03  0.500813D-03 -0.321158D-03
     39  0.136574D-02 -0.722870D-03  0.169497D-04  0.844146D-03  0.445165D-02
                6             7             8             9            10 
      6  0.332130D+00
      7 -0.936619D-03  0.816584D-01
      8  0.104383D-02 -0.114935D-02  0.339854D+00
      9 -0.101955D-02 -0.122210D-02  0.248141D-03  0.338189D+00
     10 -0.102349D-02 -0.286704D-03  0.129809D-02 -0.216187D-03  0.100898D+00
     11  0.362866D-02 -0.115976D-03 -0.723948D-03  0.681112D-03 -0.207173D-01
     12 -0.395407D-03 -0.118125D-02 -0.299754D-03  0.774212D-03 -0.203483D-01
     13 -0.109354D-02 -0.919183D-04 -0.730938D-04 -0.369787D-03 -0.392520D-01
     14  0.145271D-03  0.767274D-03 -0.434303D-03 -0.339838D-03 -0.396097D-01
     15 -0.139613D-02  0.102480D-02  0.195243D-03 -0.608756D-03  0.137967D-01
     16 -0.655562D-02 -0.476483D-01  0.369978D-02 -0.382985D-02  0.137416D-01
     17  0.358249D-02  0.236571D-01 -0.739673D-03  0.837570D-04 -0.790975D-02
     18 -0.335602D-02 -0.587295D-01 -0.816622D-04  0.564388D-03  0.332818D-02
     19  0.340756D-02  0.811218D-02 -0.257129D-02  0.381883D-02 -0.480448D-02
     20  0.542352D-03  0.122444D+00 -0.132579D-02 -0.418683D-03 -0.340430D-02
     21  0.211754D-03 -0.885194D-02  0.681801D-03 -0.322405D-03  0.199332D-02
     22 -0.202747D-02  0.189300D-04  0.285769D-02 -0.899682D-02  0.340960D-02
     23  0.284278D-02 -0.916466D-03 -0.833363D-02  0.392086D-02 -0.162329D-02
     24 -0.595784D-03  0.238648D-02  0.605420D-02  0.562157D-02 -0.141962D-02
     25 -0.111152D-02  0.493665D-01 -0.199504D-03 -0.940380D-03  0.592943D-03
     26  0.901620D-03  0.909658D-02  0.212507D-03  0.176442D-03  0.211205D-02
     27  0.161602D-02 -0.596799D-01  0.270734D-03  0.536168D-03 -0.928147D-03
     28 -0.153842D-02  0.497631D-01 -0.496602D-03 -0.793276D-03 -0.434670D-02
     29  0.474725D-03  0.949313D-02 -0.845914D-04  0.323546D-03 -0.282759D-02
     30  0.118912D-02 -0.592833D-01 -0.263650D-04  0.683272D-03 -0.586779D-02
     31 -0.190744D-02  0.493265D-01 -0.691224D-04 -0.984248D-03  0.529647D-02
     32  0.105702D-03  0.905662D-02  0.342889D-03  0.132574D-03  0.681558D-02
     33  0.820101D-03 -0.597198D-01  0.401115D-03  0.492300D-03  0.377538D-02
     34  0.380772D-03 -0.987090D-02  0.296851D-02  0.430344D-03  0.254166D-02
     35 -0.249412D-03 -0.153149D-01 -0.105491D-03 -0.249097D-02  0.159138D-02
     36 -0.170255D-02  0.253952D-01  0.219152D-02  0.145131D-03  0.192331D-02
     37 -0.233273D-02  0.199513D-01 -0.882487D-03 -0.277618D-02  0.973032D-03
     38 -0.561722D-04 -0.693428D-02  0.237221D-03  0.311488D-02 -0.227973D-02
     39 -0.686356D-03 -0.123782D-01 -0.283678D-02  0.193570D-03 -0.323001D-02
               11            12            13            14            15 
     11  0.101888D+00
     12 -0.179192D-01  0.985898D-01
     13 -0.403382D-01  0.135272D-01  0.514260D-01
     14  0.133895D-01 -0.391673D-01  0.965074D-02  0.513378D-01
     15 -0.403252D-01 -0.384951D-01  0.980396D-02  0.917136D-02  0.504720D-01
     16 -0.794058D-02 -0.650935D-02 -0.215326D-02 -0.245006D-02  0.517760D-02
     17  0.105213D-01 -0.203938D-03 -0.976507D-03  0.252031D-02 -0.401027D-02
     18 -0.455506D-02  0.144980D-02  0.383067D-03 -0.193452D-02  0.127344D-02
     19 -0.269365D-02  0.509383D-02  0.282984D-02  0.252352D-03 -0.451012D-03
     20  0.196311D-02  0.387026D-02  0.218546D-03 -0.281658D-03 -0.248585D-02
     21 -0.321947D-02 -0.104142D-02  0.674691D-03  0.374181D-04  0.167957D-02
     22 -0.475889D-03 -0.111236D-02 -0.115117D-02 -0.106663D-02  0.227415D-03
     23  0.460089D-03  0.579886D-03  0.263028D-03  0.514305D-03 -0.130660D-03
     24  0.124978D-04  0.222499D-03  0.752185D-03  0.504984D-03  0.249831D-04
     25  0.406860D-02 -0.256119D-02  0.531552D-02 -0.676563D-02 -0.801199D-03
     26  0.320444D-02 -0.566022D-02  0.518908D-02 -0.582172D-02  0.970321D-03
     27  0.599614D-02 -0.575537D-02  0.557378D-02 -0.489410D-02  0.646592D-04
     28 -0.112345D-02  0.667880D-02 -0.525904D-02 -0.112465D-02  0.527694D-02
     29 -0.198762D-02  0.357977D-02 -0.538548D-02 -0.180749D-03  0.704846D-02
     30  0.804080D-03  0.348462D-02 -0.500077D-02  0.746872D-03  0.614279D-02
     31 -0.558737D-02  0.206394D-02  0.309021D-04  0.428946D-02 -0.640588D-02
     32 -0.645153D-02 -0.103509D-02 -0.955405D-04  0.523337D-02 -0.463436D-02
     33 -0.365983D-02 -0.113024D-02  0.289167D-03  0.616099D-02 -0.554002D-02
     34  0.104291D-02 -0.439989D-02 -0.124838D-02  0.857491D-03  0.122596D-02
     35  0.105008D-02 -0.340608D-02 -0.938372D-03  0.917346D-03  0.813745D-03
     36 -0.121418D-02 -0.239812D-03 -0.282829D-03 -0.609952D-03  0.365137D-03
     37 -0.120702D-02  0.754001D-03  0.271813D-04 -0.550097D-03 -0.470818D-04
     38  0.437339D-03  0.274102D-02  0.538467D-03 -0.387750D-03 -0.107672D-02
     39  0.444503D-03  0.373483D-02  0.848478D-03 -0.327895D-03 -0.148894D-02
               16            17            18            19            20 
     16  0.768632D-01
     17 -0.285081D-01  0.504706D-01
     18  0.119763D-01 -0.157659D-01  0.166277D-01
     19 -0.457376D-01 -0.224626D-01  0.203950D-02  0.662846D-01
     20 -0.661257D-02  0.576573D-02  0.358490D-02  0.403113D-02 -0.216139D-01
     21  0.421606D-02 -0.196510D-01 -0.625305D-02  0.150688D-01  0.173357D-02
     22  0.127980D-01 -0.161294D-02  0.313946D-02 -0.101900D-01 -0.446961D-02
     23 -0.996166D-02 -0.170302D-02 -0.851806D-03  0.114952D-01  0.287060D-03
     24 -0.182237D-02  0.264707D-02 -0.156199D-02 -0.130962D-02  0.254855D-02
     25  0.864398D-02  0.101832D-03  0.580636D-02 -0.739238D-02 -0.119775D-01
     26  0.435916D-02 -0.623489D-02  0.149100D-02  0.330165D-02 -0.244851D-02
     27 -0.121762D-01  0.833076D-02 -0.884089D-02  0.124607D-02  0.146561D-01
     28  0.745813D-02 -0.533218D-03  0.619856D-02 -0.581784D-02 -0.112778D-01
     29  0.317331D-02 -0.686994D-02  0.188320D-02  0.487618D-02 -0.174878D-02
     30 -0.133620D-01  0.769571D-02 -0.844869D-02  0.282060D-02  0.153558D-01
     31  0.104449D-01 -0.227065D-02  0.663767D-02 -0.682924D-02 -0.119857D-01
     32  0.616007D-02 -0.860738D-02  0.232231D-02  0.386479D-02 -0.245676D-02
     33 -0.103753D-01  0.595828D-02 -0.800958D-02  0.180921D-02  0.146478D-01
     34  0.118567D-01  0.334753D-02 -0.367664D-02 -0.137739D-01  0.252185D-03
     35  0.884255D-02  0.508505D-02 -0.580463D-02 -0.135448D-01  0.523545D-02
     36  0.130105D-01 -0.740011D-02  0.473497D-02 -0.454297D-02 -0.953271D-02
     37  0.999638D-02 -0.566259D-02  0.260697D-02 -0.431386D-02 -0.454945D-02
     38 -0.183839D-01  0.138548D-02  0.125853D-01  0.160678D-01 -0.624786D-03
     39 -0.213981D-01  0.312300D-02  0.104573D-01  0.162969D-01  0.435848D-02
               21            22            23            24            25 
     21  0.187033D-01
     22 -0.124718D-02  0.773353D-01
     23  0.245240D-02 -0.410769D-01  0.780920D-01
     24 -0.100795D-02 -0.337008D-01 -0.346356D-01  0.646058D-01
     25 -0.648328D-03  0.629227D-04 -0.196746D-02  0.117008D-02  0.337641D-02
     26  0.184656D-02  0.248323D-03  0.340336D-03 -0.419560D-03  0.520902D-02
     27 -0.157073D-02  0.192496D-03  0.113846D-02 -0.705331D-03  0.127741D-01
     28 -0.640404D-03 -0.484864D-03 -0.150481D-02  0.117843D-02 -0.667793D-02
     29  0.185448D-02 -0.299464D-03  0.802988D-03 -0.411211D-03 -0.484532D-02
     30 -0.156280D-02 -0.355290D-03  0.160112D-02 -0.696982D-03  0.271979D-02
     31  0.478428D-04  0.273468D-03 -0.202430D-02  0.992437D-03 -0.666050D-02
     32  0.254273D-02  0.458868D-03  0.283493D-03 -0.597206D-03 -0.482789D-02
     33 -0.874555D-03  0.403042D-03  0.108162D-02 -0.882977D-03  0.273722D-02
     34 -0.137445D-02  0.566011D-02 -0.318461D-02 -0.425471D-03  0.106203D-02
     35 -0.184952D-02  0.370429D-02 -0.475188D-02 -0.234563D-03  0.330400D-02
     36  0.414351D-02  0.367364D-02 -0.254957D-02  0.205933D-03 -0.233583D-02
     37  0.366844D-02  0.171783D-02 -0.411684D-02  0.396841D-03 -0.938623D-04
     38 -0.110429D-01  0.669219D-03  0.139461D-02 -0.338623D-03 -0.136695D-02
     39 -0.115180D-01 -0.128659D-02 -0.172661D-03 -0.147715D-03  0.875022D-03
               26            27            28            29            30 
     26  0.976367D-02
     27  0.619949D-02  0.246296D-02
     28 -0.512881D-02  0.209352D-02  0.383923D-02
     29 -0.574156D-03 -0.448112D-02  0.538836D-02  0.965953D-02
     30 -0.413833D-02 -0.821766D-02  0.126107D-01  0.575256D-02  0.167324D-02
     31 -0.473430D-02  0.185464D-02 -0.645551D-02 -0.452931D-02  0.205963D-02
     32 -0.179647D-03 -0.471999D-02 -0.490638D-02 -0.258143D-03 -0.479849D-02
     33 -0.374382D-02 -0.845653D-02  0.231594D-02 -0.416511D-02 -0.887782D-02
     34  0.158686D-02 -0.148875D-02  0.177494D-03  0.702332D-03 -0.237328D-02
     35  0.109991D-02 -0.345279D-02  0.267359D-02  0.469510D-03 -0.408319D-02
     36 -0.642220D-03  0.318249D-02 -0.245379D-02 -0.760176D-03  0.306453D-02
     37 -0.112917D-02  0.121845D-02  0.423119D-04 -0.992998D-03  0.135462D-02
     38  0.366024D-04  0.139015D-03 -0.787863D-03  0.615686D-03  0.718098D-03
     39 -0.450350D-03 -0.182503D-02  0.170824D-02  0.382864D-03 -0.991816D-03
               31            32            33            34            35 
     31  0.392263D-02
     32  0.584883D-02  0.104971D-01
     33  0.124378D-01  0.595672D-02  0.124401D-02
     34  0.842695D-03  0.136753D-02 -0.170808D-02  0.961099D-02
     35  0.319922D-02  0.995131D-03 -0.355757D-02  0.283530D-02  0.719122D-02
     36 -0.195718D-02 -0.263570D-03  0.356114D-02  0.533588D-02  0.848884D-03
     37  0.399339D-03 -0.635971D-03  0.171165D-02 -0.143981D-02  0.520481D-02
     38 -0.152319D-02 -0.119639D-03 -0.172272D-04 -0.162852D-02 -0.734762D-02
     39  0.833332D-03 -0.492040D-03 -0.186672D-02 -0.840421D-02 -0.299170D-02
               36            37            38            39 
     36  0.448199D-02
     37 -0.499996D-05  0.663962D-02
     38  0.130764D-03 -0.558834D-02  0.245666D-01
     39 -0.435623D-02  0.105628D-02  0.188475D-01  0.242601D-01
 Leave Link  716 at Tue Jun 22 09:23:24 2021, MaxMem=  3355443200 cpu:         0.1
 (Enter /Local/ce_dana/g09/l103.exe)

 GradGradGradGradGradGradGradGradGradGradGradGradGradGradGradGradGradGrad
 Berny optimization.
 Red2BG is reusing G-inverse.
 Internal  Forces:  Max     0.006626295 RMS     0.002131949
 Search for a saddle point.
 Step number   1 out of a maximum of  100
 All quantities printed in internal units (Hartrees-Bohrs-Radians)
 Swapping is turned off.
 Second derivative matrix not updated -- analytic derivatives used.
 ITU=  0
     Eigenvalues ---   -0.21712   0.00165   0.00711   0.01245   0.01810
     Eigenvalues ---    0.04402   0.04488   0.05139   0.08479   0.09696
     Eigenvalues ---    0.10438   0.12066   0.13442   0.14898   0.16678
     Eigenvalues ---    0.22991   0.29665   0.31117   0.31701   0.32695
     Eigenvalues ---    0.33041   0.33796   0.34006   0.34416
 Eigenvectors required to have negative eigenvalues:
                          R7        A11       D9        D6        D3
   1                    0.57205  -0.48417   0.25332   0.25323   0.25148
                          D1        D4        D7        A9        A7
   1                   -0.20884  -0.20710  -0.20700   0.19995   0.13614
 RFO step:  Lambda0=2.011868787D-06 Lambda=-5.58900324D-04.
 Linear search not attempted -- option 19 set.
 Iteration  1 RMS(Cart)=  0.00799526 RMS(Int)=  0.00006741
 Iteration  2 RMS(Cart)=  0.00005434 RMS(Int)=  0.00002958
 Iteration  3 RMS(Cart)=  0.00000000 RMS(Int)=  0.00002958
 ITry= 1 IFail=0 DXMaxC= 1.88D-02 DCOld= 1.00D+10 DXMaxT= 5.00D-02 DXLimC= 3.00D+00 Rises=F
 Variable       Old X    -DE/DX   Delta X   Delta X   Delta X     New X
                                 (Linear)    (Quad)   (Total)
    R1        2.83026   0.00073   0.00000   0.00300   0.00300   2.83326
    R2        2.07826  -0.00441   0.00000  -0.01345  -0.01345   2.06481
    R3        2.08280  -0.00433   0.00000  -0.01327  -0.01327   2.06953
    R4        2.09160  -0.00343   0.00000  -0.01104  -0.01104   2.08055
    R5        2.81748   0.00173   0.00000   0.00619   0.00619   2.82366
    R6        2.06737  -0.00608   0.00000  -0.01862  -0.01862   2.04875
    R7        2.45288  -0.00060   0.00000   0.00024   0.00024   2.45312
    R8        2.06265  -0.00646   0.00000  -0.01931  -0.01931   2.04335
    R9        2.06468  -0.00663   0.00000  -0.02010  -0.02010   2.04459
    A1        1.95368   0.00021   0.00000  -0.00024  -0.00024   1.95345
    A2        1.94182   0.00021   0.00000   0.00091   0.00091   1.94272
    A3        1.94161   0.00031   0.00000   0.00143   0.00143   1.94304
    A4        1.88044  -0.00027   0.00000  -0.00135  -0.00135   1.87909
    A5        1.88029  -0.00024   0.00000   0.00009   0.00009   1.88038
    A6        1.86197  -0.00028   0.00000  -0.00097  -0.00098   1.86100
    A7        2.10383   0.00014   0.00000  -0.00060  -0.00060   2.10322
    A8        2.07427  -0.00002   0.00000   0.00269   0.00269   2.07696
    A9        2.06371   0.00013   0.00000   0.00154   0.00153   2.06524
   A10        2.03047  -0.00010   0.00000  -0.00084  -0.00084   2.02962
   A11        0.96562  -0.00004   0.00000  -0.00382  -0.00382   0.96180
   A12        1.93945  -0.00011   0.00000  -0.00281  -0.00281   1.93664
   A13        2.08895   0.00025   0.00000   0.00211   0.00200   2.09095
   A14        2.07414   0.00023   0.00000   0.00285   0.00275   2.07689
   A15        2.07225  -0.00035   0.00000   0.00277   0.00266   2.07491
    D1        2.82440   0.00000   0.00000   0.00898   0.00898   2.83338
    D2       -0.73722   0.00001   0.00000   0.01214   0.01214  -0.72508
    D3        1.70131  -0.00005   0.00000   0.01315   0.01315   1.71447
    D4        0.71937   0.00005   0.00000   0.01024   0.01024   0.72961
    D5       -2.84226   0.00005   0.00000   0.01340   0.01340  -2.82885
    D6       -0.40372  -0.00000   0.00000   0.01441   0.01441  -0.38931
    D7       -1.35409   0.00006   0.00000   0.00993   0.00993  -1.34416
    D8        1.36747   0.00006   0.00000   0.01309   0.01309   1.38056
    D9       -2.47718   0.00001   0.00000   0.01410   0.01411  -2.46307
   D10        2.71601   0.00018   0.00000   0.01251   0.01252   2.72853
   D11       -0.09427  -0.00017   0.00000  -0.01391  -0.01392  -0.10819
   D12       -0.01564   0.00016   0.00000   0.00861   0.00862  -0.00701
   D13       -2.82591  -0.00020   0.00000  -0.01780  -0.01781  -2.84373
   D14       -1.73344   0.00025   0.00000   0.01320   0.01321  -1.72023
   D15        1.73947  -0.00010   0.00000  -0.01322  -0.01322   1.72625
         Item               Value     Threshold  Converged?
 Maximum Force            0.006626     0.000015     NO 
 RMS     Force            0.002132     0.000010     NO 
 Maximum Displacement     0.018775     0.000060     NO 
 RMS     Displacement     0.008009     0.000040     NO 
 Predicted change in Energy=-2.796044D-04
 Lowest energy point so far.  Saving SCF results.
 GradGradGradGradGradGradGradGradGradGradGradGradGradGradGradGradGradGrad

 Leave Link  103 at Tue Jun 22 09:23:24 2021, MaxMem=  3355443200 cpu:         0.0
 (Enter /Local/ce_dana/g09/l202.exe)
                          Input orientation:                          
 ---------------------------------------------------------------------
 Center     Atomic      Atomic             Coordinates (Angstroms)
 Number     Number       Type             X           Y           Z
 ---------------------------------------------------------------------
      1          6           0        0.522319   -0.940353   -0.553176
      2          6           0        0.154091    0.180132    0.372467
      3          6           0       -0.902107    1.164965   -0.011250
      4          1           0        0.343996    0.068892    1.434047
      5          1           0        1.488888   -1.380578   -0.296589
      6          1           0        0.578847   -0.596600   -1.591440
      7          1           0        0.380133    1.398438   -0.014571
      8          1           0       -0.229652   -1.744134   -0.527935
      9          1           0       -1.430840    1.712532    0.756738
     10          1           0       -1.325455    1.119174   -1.005881
 ---------------------------------------------------------------------
                    Distance matrix (angstroms):
                    1          2          3          4          5
     1  C    0.000000
     2  C    1.499299   0.000000
     3  C    2.599046   1.494218   0.000000
     4  H    2.235941   1.084154   2.200689   0.000000
     5  H    1.092653   2.159892   3.504007   2.531174   0.000000
     6  H    1.095150   2.154220   2.791655   3.106704   1.766192
     7  H    2.404216   1.298138   1.303326   1.966593   3.005295
     8  H    1.100982   2.158885   3.030184   2.732309   1.771743
     9  H    3.545210   2.237839   1.081293   2.512040   4.381968
    10  H    2.803723   2.229506   1.081948   3.137420   3.830454
                    6          7          8          9         10
     6  H    0.000000
     7  H    2.550722   0.000000
     8  H    1.761121   3.242088   0.000000
     9  H    3.858092   1.993288   3.878374   0.000000
[...]
 Alpha virt. eigenvalues --    0.09029   0.09449   0.13772   0.14328   0.16072
 Alpha virt. eigenvalues --    0.17282   0.18185   0.18782   0.19218   0.19712
 Alpha virt. eigenvalues --    0.20894   0.21673   0.22559   0.24694   0.28486
 Alpha virt. eigenvalues --    0.29363   0.30712   0.31439   0.34332   0.37062
 Alpha virt. eigenvalues --    0.39292   0.43609   0.46740   0.52814   0.56775
 Alpha virt. eigenvalues --    0.57370   0.59406   0.60233   0.65088   0.67901
 Alpha virt. eigenvalues --    0.71033   0.72256   0.72438   0.73024   0.74000
 Alpha virt. eigenvalues --    0.76119   0.77046   0.79351   0.81433   0.82952
 Alpha virt. eigenvalues --    0.85993   0.89090   0.90040   0.95250   0.96702
 Alpha virt. eigenvalues --    1.03871   1.05238   1.11170   1.13309   1.13485
 Alpha virt. eigenvalues --    1.16200   1.17970   1.22928   1.32434   1.32825
 Alpha virt. eigenvalues --    1.34433   1.35208   1.40906   1.41957   1.45899
 Alpha virt. eigenvalues --    1.47877   1.51600   1.53402   1.55420   1.56933
 Alpha virt. eigenvalues --    1.59246   1.61818   1.62588   1.67321   1.68000
 Alpha virt. eigenvalues --    1.70101   1.73163   1.73817   1.75687   1.80599
 Alpha virt. eigenvalues --    1.85627   1.88469   2.03270   2.70927   2.76101
 Alpha virt. eigenvalues --    2.80991   2.84026   2.90295   2.95174   2.96392
 Alpha virt. eigenvalues --    3.00261   3.05419   3.13363   3.17413   3.20639
 Alpha virt. eigenvalues --    3.24213   3.26688   3.27283   3.33709   3.37999
 Alpha virt. eigenvalues --    3.39117   3.42773   3.44206   3.46433   3.50157
 Alpha virt. eigenvalues --    3.53097   3.56488   3.58798   3.62339   3.64952
 Alpha virt. eigenvalues --    3.67409   3.68157   3.72767   3.76022   3.79001
 Alpha virt. eigenvalues --    3.82465   3.88786   3.93425   3.99315   4.03630
 Alpha virt. eigenvalues --    4.04935   4.10252   4.12993   4.21651   4.24880
 Alpha virt. eigenvalues --    4.25448   4.29698   4.33140   4.41020   4.42125
 Alpha virt. eigenvalues --    4.47081   4.50256   4.54212   4.56001   4.59974
 Alpha virt. eigenvalues --    4.63532   4.67526   4.68982   4.70675   4.73103
 Alpha virt. eigenvalues --    4.77581   4.84679   4.92067   4.94513   5.06596
 Alpha virt. eigenvalues --    5.13885   5.31734   5.38043   5.41004   5.55973
 Alpha virt. eigenvalues --    5.68952   5.96618   6.01816   6.06850   6.10054
 Alpha virt. eigenvalues --    6.16349  25.29877  25.41729  25.56736
  Beta  occ. eigenvalues --  -11.22375 -11.22041 -11.21604  -1.05277  -0.92838
  Beta  occ. eigenvalues --   -0.74545  -0.63057  -0.58880  -0.56018  -0.52883
  Beta  occ. eigenvalues --   -0.50092  -0.41142
  Beta virt. eigenvalues --    0.04307   0.05853   0.06100   0.06952   0.08300
  Beta virt. eigenvalues --    0.09107   0.09400   0.11109   0.14037   0.15476
  Beta virt. eigenvalues --    0.17183   0.17954   0.18379   0.19083   0.19788
  Beta virt. eigenvalues --    0.21151   0.21765   0.22461   0.22984   0.25384
  Beta virt. eigenvalues --    0.29384   0.29924   0.31256   0.31916   0.35244
  Beta virt. eigenvalues --    0.38178   0.39786   0.44958   0.47486   0.52981
  Beta virt. eigenvalues --    0.56848   0.57745   0.59684   0.60763   0.67203
  Beta virt. eigenvalues --    0.69270   0.72475   0.73102   0.74306   0.74803
  Beta virt. eigenvalues --    0.76660   0.77777   0.79964   0.81135   0.82405
  Beta virt. eigenvalues --    0.84065   0.86794   0.90588   0.91311   0.95829
  Beta virt. eigenvalues --    0.97213   1.04237   1.05792   1.11631   1.14222
  Beta virt. eigenvalues --    1.14475   1.17096   1.18761   1.23705   1.32789
  Beta virt. eigenvalues --    1.33764   1.35165   1.35553   1.41762   1.42578
  Beta virt. eigenvalues --    1.45961   1.48477   1.52360   1.54414   1.56331
  Beta virt. eigenvalues --    1.58231   1.60059   1.62994   1.63544   1.67882
  Beta virt. eigenvalues --    1.68803   1.70681   1.73589   1.74464   1.76227
  Beta virt. eigenvalues --    1.80848   1.86573   1.89241   2.03968   2.71545
  Beta virt. eigenvalues --    2.76453   2.81757   2.84931   2.90670   2.96136
  Beta virt. eigenvalues --    2.97534   3.02198   3.07045   3.14065   3.19170
  Beta virt. eigenvalues --    3.21652   3.24797   3.27703   3.30266   3.35657
  Beta virt. eigenvalues --    3.39657   3.40309   3.44091   3.45214   3.47322
  Beta virt. eigenvalues --    3.50822   3.54238   3.57383   3.59713   3.63914
  Beta virt. eigenvalues --    3.66776   3.68420   3.70005   3.73623   3.77547
  Beta virt. eigenvalues --    3.79875   3.83937   3.89816   3.95111   4.00442
  Beta virt. eigenvalues --    4.04608   4.06126   4.10758   4.14089   4.21765
  Beta virt. eigenvalues --    4.24996   4.25872   4.29908   4.33611   4.41161
  Beta virt. eigenvalues --    4.42863   4.47643   4.50746   4.54677   4.56392
  Beta virt. eigenvalues --    4.60365   4.63946   4.67885   4.69750   4.71379
  Beta virt. eigenvalues --    4.73567   4.77838   4.85150   4.92378   4.95164
  Beta virt. eigenvalues --    5.07119   5.14128   5.32383   5.38522   5.41089
  Beta virt. eigenvalues --    5.56244   5.69416   5.96898   6.02104   6.07068
  Beta virt. eigenvalues --    6.10193   6.16581  25.30744  25.42315  25.57152
          Condensed to atoms (all electrons):
               1          2          3          4          5          6
     1  C    4.735805   0.170433   0.075141  -0.023288   0.435078   0.439862
     2  C    0.170433   5.760676  -0.389212   0.358309  -0.047494  -0.101914
     3  C    0.075141  -0.389212   5.737341   0.002583   0.007701   0.032379
     4  H   -0.023288   0.358309   0.002583   0.581039  -0.005509   0.005835
     5  H    0.435078  -0.047494   0.007701  -0.005509   0.624686  -0.027898
     6  H    0.439862  -0.101914   0.032379   0.005835  -0.027898   0.645827
     7  H    0.000448   0.183443   0.136598  -0.007768  -0.003974   0.000241
     8  H    0.420240   0.008330  -0.027850  -0.001636  -0.043098  -0.044496
     9  H    0.006623   0.009092   0.383110  -0.004078  -0.000341  -0.000034
    10  H   -0.006072   0.019151   0.355554  -0.000027  -0.001075  -0.007107
               7          8          9         10
     1  C    0.000448   0.420240   0.006623  -0.006072
     2  C    0.183443   0.008330   0.009092   0.019151
     3  C    0.136598  -0.027850   0.383110   0.355554
     4  H   -0.007768  -0.001636  -0.004078  -0.000027
     5  H   -0.003974  -0.043098  -0.000341  -0.001075
     6  H    0.000241  -0.044496  -0.000034  -0.007107
     7  H    0.587003   0.000413  -0.003327  -0.006437
     8  H    0.000413   0.642722   0.000211   0.005735
     9  H   -0.003327   0.000211   0.542963  -0.010800
    10  H   -0.006437   0.005735  -0.010800   0.555786
          Atomic-Atomic Spin Densities.
               1          2          3          4          5          6
     1  C   -0.016155  -0.124603   0.077080   0.009608   0.013373   0.009969
     2  C   -0.124603   1.603405  -0.876654  -0.058565  -0.021927  -0.059552
     3  C    0.077080  -0.876654   1.464204   0.051850   0.003413   0.041468
     4  H    0.009608  -0.058565   0.051850  -0.027092   0.001944   0.002314
     5  H    0.013373  -0.021927   0.003413   0.001944   0.001227   0.003738
     6  H    0.009969  -0.059552   0.041468   0.002314   0.003738   0.034422
     7  H   -0.021915   0.090672   0.038104  -0.004470   0.003897  -0.002487
     8  H   -0.007783   0.022592  -0.019849  -0.004459  -0.003134  -0.014511
     9  H   -0.001816   0.028828  -0.029236  -0.002503  -0.000113  -0.000516
    10  H    0.003211   0.039654  -0.049178  -0.004685  -0.000695  -0.006993
               7          8          9         10
     1  C   -0.021915  -0.007783  -0.001816   0.003211
     2  C    0.090672   0.022592   0.028828   0.039654
     3  C    0.038104  -0.019849  -0.029236  -0.049178
     4  H   -0.004470  -0.004459  -0.002503  -0.004685
     5  H    0.003897  -0.003134  -0.000113  -0.000695
     6  H   -0.002487  -0.014511  -0.000516  -0.006993
     7  H   -0.322183  -0.002460  -0.005330   0.000451
     8  H   -0.002460   0.068397   0.000749   0.004488
     9  H   -0.005330   0.000749  -0.031459   0.005813
    10  H    0.000451   0.004488   0.005813  -0.034330
 Mulliken charges and spin densities:
               1          2
     1  C   -0.254270  -0.059031
     2  C    0.029185   0.643851
     3  C   -0.313345   0.701201
     4  H    0.094541  -0.036058
     5  H    0.061924   0.001723
     6  H    0.057304   0.007851
     7  H    0.113360  -0.225721
     8  H    0.039430   0.044031
     9  H    0.076581  -0.035583
    10  H    0.095291  -0.042264
 Sum of Mulliken charges =  -0.00000   1.00000
 Mulliken charges and spin densities with hydrogens summed into heavy atoms:
               1          2
     1  C   -0.095612  -0.005427
     2  C    0.237086   0.382072
     3  C   -0.141474   0.623355
 Electronic spatial extent (au):  <R**2>=            216.0877
 Charge=             -0.0000 electrons
 Dipole moment (field-independent basis, Debye):
    X=             -0.2191    Y=              0.1000    Z=             -0.0287  Tot=              0.2425
 Quadrupole moment (field-independent basis, Debye-Ang):
   XX=            -21.7181   YY=            -20.7321   ZZ=            -22.6733
   XY=              0.4289   XZ=             -0.3476   YZ=             -0.5014
 Traceless Quadrupole moment (field-independent basis, Debye-Ang):
   XX=             -0.0103   YY=              0.9757   ZZ=             -0.9654
   XY=              0.4289   XZ=             -0.3476   YZ=             -0.5014
 Octapole moment (field-independent basis, Debye-Ang**2):
  XXX=             -1.6174  YYY=             -0.2047  ZZZ=             -0.7185  XYY=              0.0743
  XXY=              1.8733  XXZ=             -1.7427  XZZ=             -1.8283  YZZ=             -0.1258
  YYZ=             -0.6541  XYZ=              0.0472
 Hexadecapole moment (field-independent basis, Debye-Ang**3):
 XXXX=           -205.8407 YYYY=            -58.9398 ZZZZ=            -40.9717 XXXY=              1.6776
 XXXZ=             -6.9598 YYYX=             -0.6233 YYYZ=             -2.8847 ZZZX=              0.5716
 ZZZY=             -0.6786 XXYY=            -44.2949 XXZZ=            -43.9353 YYZZ=            -18.5291
 XXYZ=              0.2258 YYXZ=             -0.9365 ZZXY=              1.8109
 N-N= 7.609799661911D+01 E-N=-4.251288647120D+02  KE= 1.174780455328D+02
 Leave Link  601 at Tue Jun 22 09:26:09 2021, MaxMem=  3355443200 cpu:         0.2
 (Enter /Local/ce_dana/g09/l9999.exe)

 Test job not archived.
 1\1\GINC-TECH-WN081\SP\UMP2-FC\CBSB3\C3H7(2)\ALONGD\22-Jun-2021\0\\#P 
 Geom=AllCheck Guess=TCheck SCRF=Check Test MP2/CBSB3 CBSExtrap=(NMin=1
 0,MinPop)\\TS0\\0,2\C,0,0.522430208,-0.940296794,-0.5532263397\C,0,0.1
 546275517,0.1804657227,0.3722358666\C,0,-0.9026228909,1.1644009892,-0.
 0108550171\H,0,0.345927769,0.0699969376,1.4339046351\H,0,1.4876621371,
 -1.3826260017,-0.2947471284\H,0,0.5819462613,-0.5961816625,-1.59135310
 21\H,0,0.3794361865,1.3987670827,-0.0156488419\H,0,-0.2313266072,-1.74
 25821725,-0.5300053328\H,0,-1.4309289348,1.7124304126,0.7574968807\H,0
 ,-1.3269326808,1.118092486,-1.0053936204\\Version=ES64L-G09RevD.01\Sta
 te=2-A\HF=-117.5891906\MP2=-118.0992595\E2(CBS)=-0.5604659\CBS-Int=-0.
 5425426\OIii=4.6253951\PUHF=-117.5960489\PMP2-0=-118.1042484\S2=0.7934
 81\S2-1=0.769579\S2A=0.750607\RMSD=7.001e-09\PG=C01 [X(C3H7)]\\@


 LIFE IS A CONTINUAL STRUGGLE AGAINST THE TENDENCY TO PRODUCE ENTROPY.
 Diagonal vibrational polarizability:
        0.0000000       0.0000000       0.0000000
    1 imaginary frequencies ignored.

 Complete Basis Set (CBS) Extrapolation:
 M. R. Nyden and G. A. Petersson, JCP 75, 1843 (1981)
 G. A. Petersson and M. A. Al-Laham, JCP 94, 6081 (1991)
 G. A. Petersson, T. Tensfeldt, and J. A. Montgomery, JCP 94, 6091 (1991)
 J. A. Montgomery, J. W. Ochterski, and G. A. Petersson, JCP 101, 5900 (1994)

 Temperature=               298.150000 Pressure=                       1.000000
 E(ZPE)=                      0.083112 E(Thermal)=                     0.087643
 E(SCF)=                   -117.589191 DE(MP2)=                       -0.510069
 DE(CBS)=                    -0.050397 DE(MP34)=                      -0.044213
 DE(CCSD)=                   -0.015260 DE(Int)=                        0.017923
 DE(Empirical)=              -0.027196
 CBS-QB3 (0 K)=            -118.135290 CBS-QB3 Energy=              -118.130759
 CBS-QB3 Enthalpy=         -118.129815 CBS-QB3 Free Energy=         -118.161402

 Test job not archived.
 1\1\GINC-TECH-WN081\Mixed\CBS-QB3\CBS-QB3\C3H7(2)\ALONGD\22-Jun-2021\0
 \\#P opt=(ts, calcfc, noeigentest, maxcycles=100, tight, maxstep=5) gu
 ess=read cbs-qb3 scf=(tight, direct) integral=(grid=ultrafine, Acc2E=1
 2) IOp(2/9=2000) scf=xqc\\TS0\\0,2\C,0,0.522430208,-0.940296794,-0.553
 2263397\C,0,0.1546275517,0.1804657227,0.3722358666\C,0,-0.9026228909,1
 .1644009892,-0.0108550171\H,0,0.345927769,0.0699969376,1.4339046351\H,
 0,1.4876621371,-1.3826260017,-0.2947471284\H,0,0.5819462613,-0.5961816
 625,-1.5913531021\H,0,0.3794361865,1.3987670827,-0.0156488419\H,0,-0.2
 313266072,-1.7425821725,-0.5300053328\H,0,-1.4309289348,1.7124304126,0
 .7574968807\H,0,-1.3269326808,1.118092486,-1.0053936204\\Version=ES64L
 -G09RevD.01\State=2-A\HF/CbsB3=-117.5891906\E2(CBS)/CbsB3=-0.5604659\C
 BS-Int/CbsB3=0.0179233\OIii/CbsB3=4.6253951\MP2/CbsB4=-117.9976202\MP4
 (SDQ)/CbsB4=-118.0418334\MP4(SDQ)/6-31+G(d')=-117.9821878\QCISD(T)/6-3
 1+G(d')=-117.9974474\CBSQB3=-118.13529\FreqCoord=0.9872500167,-1.77690
 34243,-1.0454462715,0.2922037254,0.3410307922,0.7034238447,-1.70571006
 5,2.2003989785,-0.0205130096,0.6537087452,0.1322750421,2.7096870609,2.
 8112740174,-2.6127844875,-0.5569913511,1.0997190579,-1.1266200677,-3.0
 072215437,0.7170304774,2.64328671,-0.0295720254,-0.4371439348,-3.29300
 307,-1.0015649279,-2.7040638025,3.2360245015,1.4314616511,-2.507539363
 5,2.1128885899,-1.8999185983\PG=C01 [X(C3H7)]\NImag=1\\0.53929471,-0.0
 1854075,0.48615804,0.01513341,-0.03661731,0.52049199,-0.07606131,0.038
 23716,0.02327262,0.28635241,0.03485737,-0.14430926,-0.05879888,-0.1851
 0309,0.29728967,0.01477210,-0.06857622,-0.14054063,0.07976210,0.060667
 90,0.58006303,-0.00589335,0.00153029,-0.00932140,-0.10640719,0.2626599
 2,-0.08864005,0.27721326,0.01864920,-0.01377028,0.00686836,0.13178846,
 -0.08227319,0.00868807,-0.24034352,0.28913260,0.02141797,-0.00542888,0
 .00581014,-0.05165672,0.01361197,-0.08587401,0.05984421,0.10932638,0.6
 1071090,0.00161555,-0.00168428,0.00639156,-0.03989839,0.02153213,-0.04
 680122,-0.00546220,-0.00155014,-0.02671943,0.04116975,-0.00251895,0.00
 618784,-0.02368251,0.01202445,-0.04605660,0.02703180,0.00553742,-0.005
 34468,0.01434202,-0.02183484,0.04610892,-0.00180738,0.00489361,-0.0114
 9160,-0.05379331,0.02329206,-0.32341815,-0.00061395,0.00048366,-0.0022
 1777,0.05638604,-0.02568169,0.33832976,-0.25107024,0.09169565,-0.05727
 000,-0.00505916,0.00292637,-0.00155454,0.00091806,-0.00016730,0.001938
 07,0.00026595,-0.00002115,0.00039105,0.27163789,0.09014590,-0.08586001
 ,0.02538429,0.02081531,-0.01344698,0.00793827,0.00194806,-0.00152171,-
 0.00504490,-0.00070880,0.00083333,-0.00000322,-0.10144726,0.09507923,-
 0.05816239,0.02624958,-0.06410651,0.02028826,-0.00940929,0.00628410,0.
 00002885,-0.00170951,-0.00279367,-0.00014140,0.00087223,0.00059942,0.0
 6280391,-0.02500781,0.06588961,-0.04685254,-0.00225590,0.01356614,-0.0
 0092519,-0.00279448,0.00543509,0.00012762,-0.00062934,0.00096420,0.000
 20761,0.00083742,0.00053901,0.00284431,0.00889318,-0.02759967,0.046026
 74,-0.00214852,-0.07286240,0.07982306,0.00061884,0.00806206,-0.0268326
 6,-0.00157294,0.00114360,0.00019995,0.00189569,-0.00324635,-0.00304606
 ,-0.00177123,-0.00498772,0.01111507,0.00395671,0.08035498,0.01245254,0
 .07924451,-0.27128182,-0.00174266,0.00121743,-0.02037066,0.00155739,0.
 00057318,0.00053975,0.00234209,-0.00254389,-0.00099242,0.00013095,0.00
 226465,-0.00647639,-0.01434178,-0.08367504,0.29947957,0.00063798,0.007
 79982,0.00368202,-0.04513771,-0.14631479,0.04634838,0.02090719,0.00356
 271,0.00083770,0.00287897,0.00443460,-0.00108325,0.00042622,0.00023347
 ,-0.00005534,0.00068093,0.00011814,-0.00217871,0.02159208,-0.00458236,
 -0.01086344,-0.00587216,-0.01096729,0.01506281,-0.00842485,-0.13529699
 ,-0.05146842,0.00399049,-0.00152862,0.00239322,-0.00093868,0.00039745,
 0.00096332,-0.00026140,0.00010956,-0.00006503,0.00160025,0.13931142,0.
 03616678,-0.00819565,-0.00661706,0.00478364,0.00396651,-0.01775195,-0.
 01887610,0.04655970,0.00989863,-0.02452467,0.00955571,0.00945460,-0.00
 278512,-0.00010816,0.00039834,0.00027337,-0.00029185,-0.00010656,-0.00
 045063,-0.04844838,0.01026679,0.04258153,-0.16209493,-0.11513155,0.008
 79525,0.00812738,0.00477435,-0.00430952,0.00232541,-0.00236949,0.00057
 593,0.00006734,-0.00033594,-0.00026575,-0.02005715,-0.02033406,0.00220
 601,-0.00184620,-0.00100011,0.00076508,-0.00062042,0.00259266,0.000436
 49,0.17361982,-0.12029742,-0.16573594,0.01089999,-0.01499440,-0.025133
 61,-0.00618186,0.00332350,0.00047798,0.00246236,0.00031010,0.00048008,
 -0.00024924,0.00831951,0.01002522,-0.00074522,-0.00821597,-0.00855825,
 0.00147585,-0.00156347,0.00200181,-0.00341062,0.13210047,0.18628650,0.
 00463342,0.00662254,-0.04387776,-0.01510501,-0.02014028,-0.00093553,0.
 00323284,0.00009323,0.00134836,0.00026210,0.00067764,-0.00017084,-0.00
 618264,-0.00630538,-0.00024395,0.02209278,0.02208163,-0.00131123,-0.00
 171213,0.00096675,-0.00198959,-0.00797390,-0.00458654,0.04710782,-0.00
 142681,-0.00204190,-0.00279709,-0.01086490,0.00727608,0.00723840,-0.10
 411281,0.08411749,0.10111934,0.00134446,0.00140500,-0.00079957,0.00001
 245,0.00075005,0.00038428,0.00006490,-0.00034076,0.00040011,-0.0010675
 1,0.00791218,0.00718795,0.00012083,0.00028501,0.00026795,0.10732044,0.
 00565345,-0.00109935,0.00142521,0.00293528,-0.01103945,-0.01949734,0.0
 8871048,-0.10403753,-0.10700391,-0.00118990,0.00120394,-0.00006100,0.0
 0038692,-0.00129322,-0.00098506,-0.00008218,-0.00002000,0.00019090,-0.
 00429202,0.00598413,0.00678483,-0.00023544,0.00030347,0.00033385,-0.09
 208220,0.11031173,-0.00136869,0.00099904,-0.00055162,-0.00602231,0.008
 22000,0.00990436,0.09521208,-0.11609061,-0.20471848,0.00060993,-0.0002
 6593,0.00110199,-0.00025058,0.00037398,0.00048475,-0.00029834,0.000189
 19,0.00027877,0.00113138,-0.00109815,-0.00179936,0.00013496,0.00011152
 ,-0.00006046,-0.10354169,0.11751833,0.20656764,0.00185094,0.00039146,-
 0.00145251,-0.01012595,0.00018615,-0.01225075,-0.07961599,0.00694192,-
 0.10832128,-0.00218905,0.00047198,0.00104712,0.00008168,-0.00029586,0.
 00024750,-0.00032819,0.00024418,0.00061498,-0.00029772,0.00205199,-0.0
 1066232,0.00035791,0.00073266,0.00048460,0.00860895,0.00019561,0.01439
 325,0.08165743,-0.00121794,0.00215481,0.00056996,0.00464528,0.00184453
 ,0.02518689,0.01350379,-0.03233838,-0.02645548,0.00475866,-0.00255970,
 0.00131056,-0.00031896,0.00020854,-0.00011859,0.00018100,0.00017910,-0
 .00034784,-0.00328989,-0.00017518,-0.00891699,-0.00006089,-0.00014727,
 0.00025656,-0.00728095,-0.00031370,-0.00995737,-0.01092010,0.03114725,
 0.00112467,-0.00076981,0.00076417,0.00103050,-0.00090895,-0.00623642,-
 0.10785967,-0.01813138,-0.29828056,-0.00188538,-0.00020426,0.00104473,
 0.00010194,0.00000177,0.00008926,-0.00006558,0.00025142,0.00058505,0.0
 0147834,-0.00022904,0.00278694,-0.00036455,0.00022376,0.00013319,-0.00
 945967,0.00129419,-0.01120758,0.11589939,0.01847230,0.31032122\\0.0000
 0003,0.00000011,-0.00000030,-0.00000001,-0.00000008,0.00000012,-0.0000
 0019,0.,0.00000021,-0.00000009,-0.00000048,-0.00000008,0.00000002,0.00
 000003,-0.00000037,0.00000007,0.00000044,-0.00000019,0.00000007,-0.000
 00008,0.00000043,0.,0.00000011,-0.00000056,0.00000002,-0.00000034,0.00
 000032,0.00000010,0.00000027,0.00000042\\\@
 Job cpu time:       0 days  0 hours  1 minutes 12.6 seconds.
 File lengths (MBytes):  RWF=    610 Int=      0 D2E=      0 Chk=      4 Scr=      1
 Normal termination of Gaussian 09 at Tue Jun 22 09:26:10 2021.
