 Entering Gaussian System, Link 0=g16
 Initial command:
 /opt/g16/l1.exe "/scratch/alongd/g16/a4382-34556/Gau-14112.inp" -scrdir="/scratch/alongd/g16/a4382-34556/"
 Entering Link 1 = /opt/g16/l1.exe PID=     14114.
  
 Copyright (c) 1988-2017, Gaussian, Inc.  All Rights Reserved.
  
 This is part of the Gaussian(R) 16 program.  It is based on
 the Gaussian(R) 09 system (copyright 2009, Gaussian, Inc.),
 the Gaussian(R) 03 system (copyright 2003, Gaussian, Inc.),
 the Gaussian(R) 98 system (copyright 1998, Gaussian, Inc.),
 the Gaussian(R) 94 system (copyright 1995, Gaussian, Inc.),
 the Gaussian 92(TM) system (copyright 1992, Gaussian, Inc.),
 the Gaussian 90(TM) system (copyright 1990, Gaussian, Inc.),
 the Gaussian 88(TM) system (copyright 1988, Gaussian, Inc.),
 the Gaussian 86(TM) system (copyright 1986, Carnegie Mellon
 University), and the Gaussian 82(TM) system (copyright 1983,
 Carnegie Mellon University). Gaussian is a federally registered
 trademark of Gaussian, Inc.
  
 This software contains proprietary and confidential information,
 including trade secrets, belonging to Gaussian, Inc.
  
 This software is provided under written license and may be
 used, copied, transmitted, or stored only in accord with that
 written license.
  
 The following legend is applicable only to US Government
 contracts under FAR:
  
                    RESTRICTED RIGHTS LEGEND
  
 Use, reproduction and disclosure by the US Government is
 subject to restrictions as set forth in subparagraphs (a)
 and (c) of the Commercial Computer Software - Restricted
 Rights clause in FAR 52.227-19.
  
 Gaussian, Inc.
 340 Quinnipiac St., Bldg. 40, Wallingford CT 06492
  
  
 ---------------------------------------------------------------
 Warning -- This program may not be used in any manner that
 competes with the business of Gaussian, Inc. or will provide
 assistance to any competitor of Gaussian, Inc.  The licensee
 of this program is prohibited from giving any competitor of
 Gaussian, Inc. access to this program.  By using this program,
 the user acknowledges that Gaussian, Inc. is engaged in the
 business of creating and licensing software in the field of
 computational chemistry and represents and warrants to the
 licensee that it is not a competitor of Gaussian, Inc. and that
 it will not use this program in any manner prohibited above.
 ---------------------------------------------------------------
  

 Cite this work as:
 Gaussian 16, Revision B.01,
 M. J. Frisch, G. W. Trucks, H. B. Schlegel, G. E. Scuseria, 
 M. A. Robb, J. R. Cheeseman, G. Scalmani, V. Barone, 
 G. A. Petersson, H. Nakatsuji, X. Li, M. Caricato, A. V. Marenich, 
 J. Bloino, B. G. Janesko, R. Gomperts, B. Mennucci, H. P. Hratchian, 
 J. V. Ortiz, A. F. Izmaylov, J. L. Sonnenberg, D. Williams-Young, 
 F. Ding, F. Lipparini, F. Egidi, J. Goings, B. Peng, A. Petrone, 
 T. Henderson, D. Ranasinghe, V. G. Zakrzewski, J. Gao, N. Rega, 
 G. Zheng, W. Liang, M. Hada, M. Ehara, K. Toyota, R. Fukuda, 
 J. Hasegawa, M. Ishida, T. Nakajima, Y. Honda, O. Kitao, H. Nakai, 
 T. Vreven, K. Throssell, J. A. Montgomery, Jr., J. E. Peralta, 
 F. Ogliaro, M. J. Bearpark, J. J. Heyd, E. N. Brothers, K. N. Kudin, 
 V. N. Staroverov, T. A. Keith, R. Kobayashi, J. Normand, 
 K. Raghavachari, A. P. Rendell, J. C. Burant, S. S. Iyengar, 
 J. Tomasi, M. Cossi, J. M. Millam, M. Klene, C. Adamo, R. Cammi, 
 J. W. Ochterski, R. L. Martin, K. Morokuma, O. Farkas, 
 J. B. Foresman, and D. J. Fox, Gaussian, Inc., Wallingford CT, 2016.
 
 ******************************************
 Gaussian 16:  ES64L-G16RevB.01 20-Dec-2017
                 2-Mar-2020 
 ******************************************
 %chk=check.chk
 %mem=14336mb
 %NProcShared=36
 Will use up to   36 processors via shared memory.
 ----------------------------------------------------------------------
 #P opt=(tight) guess=read uwb97xd/def2tzvp scf=(tight, direct) integra
 l=(grid=ultrafine, Acc2E=12) scf=xqc iop(2/9=2000)
 ----------------------------------------------------------------------
 1/7=10,18=20,19=15,26=4,38=1/1,3;
 2/9=2000,12=2,17=6,18=5,40=1/2;
 3/5=44,7=101,11=2,25=1,27=12,30=1,71=1,74=-58,75=-5,116=2/1,2,3;
 4/5=1/1;
 5/5=2,8=3,13=1,32=2,38=6,87=12/2,8;
 6/7=2,8=2,9=2,10=2,28=1,87=12/1;
 7/87=12/1,2,3,16;
 1/7=10,18=20,19=15,26=4/3(2);
 2/9=2000/2;
 99//99;
 2/9=2000/2;
 3/5=44,7=101,11=2,25=1,27=12,30=1,71=1,74=-58,75=-5,116=2/1,2,3;
 4/5=5,16=3,69=1/1;
 5/5=2,8=3,13=1,32=2,38=5,87=12/2,8;
 7/87=12/1,2,3,16;
 1/7=10,18=20,19=15,26=4/3(-5);
 2/9=2000/2;
 6/7=2,8=2,9=2,10=2,19=2,28=1,87=12/1;
 99/9=1/99;
 Leave Link    1 at Mon Mar  2 00:27:42 2020, MaxMem=  1879048192 cpu:               7.3 elap:               0.2
 (Enter /opt/g16/l101.exe)
 ----
 name
 ----
 Symbolic Z-matrix:
 Charge =  0 Multiplicity = 3
 N                     2.29066   0.41722   0.1637 
 C                     0.99664   0.17849   0.07123 
 C                     0.06215   1.2524    0.00193 
 H                     0.4369    2.26681   0.02679 
 C                    -1.28339   0.98771  -0.09419 
 C                    -1.74744  -0.32737  -0.12486 
 C                    -0.84754  -1.39089  -0.05806 
 C                     0.50402  -1.15838   0.03855 
 H                    -1.98804   1.80784  -0.14647 
 H                    -2.80898  -0.52301  -0.20072 
 H                    -1.21523  -2.40878  -0.08241 
 H                     1.21381  -1.97295   0.09119 
 
 ITRead=  0  0  0  0  0  0  0  0  0  0  0  0
 MicOpt= -1 -1 -1 -1 -1 -1 -1 -1 -1 -1 -1 -1
 NAtoms=     12 NQM=       12 NQMF=       0 NMMI=      0 NMMIF=      0
                NMic=       0 NMicF=      0.
                    Isotopes and Nuclear Properties:
 (Nuclear quadrupole moments (NQMom) in fm**2, nuclear magnetic moments (NMagM)
  in nuclear magnetons)

  Atom         1           2           3           4           5           6           7           8           9          10
 IAtWgt=          14          12          12           1          12          12          12          12           1           1
 AtmWgt=  14.0030740  12.0000000  12.0000000   1.0078250  12.0000000  12.0000000  12.0000000  12.0000000   1.0078250   1.0078250
 NucSpn=           2           0           0           1           0           0           0           0           1           1
 AtZEff=  -0.0000000  -0.0000000  -0.0000000  -0.0000000  -0.0000000  -0.0000000  -0.0000000  -0.0000000  -0.0000000  -0.0000000
 NQMom=    2.0440000   0.0000000   0.0000000   0.0000000   0.0000000   0.0000000   0.0000000   0.0000000   0.0000000   0.0000000
 NMagM=    0.4037610   0.0000000   0.0000000   2.7928460   0.0000000   0.0000000   0.0000000   0.0000000   2.7928460   2.7928460
 AtZNuc=   7.0000000   6.0000000   6.0000000   1.0000000   6.0000000   6.0000000   6.0000000   6.0000000   1.0000000   1.0000000

  Atom        11          12
 IAtWgt=           1           1
 AtmWgt=   1.0078250   1.0078250
 NucSpn=           1           1
 AtZEff=  -0.0000000  -0.0000000
 NQMom=    0.0000000   0.0000000
 NMagM=    2.7928460   2.7928460
 AtZNuc=   1.0000000   1.0000000
 Leave Link  101 at Mon Mar  2 00:27:43 2020, MaxMem=  1879048192 cpu:              34.0 elap:               1.1
 (Enter /opt/g16/l103.exe)

 GradGradGradGradGradGradGradGradGradGradGradGradGradGradGradGradGradGrad
 Berny optimization.
 Initialization pass.
                           ----------------------------
                           !    Initial Parameters    !
                           ! (Angstroms and Degrees)  !
 --------------------------                            --------------------------
 ! Name  Definition              Value          Derivative Info.                !
 --------------------------------------------------------------------------------
 ! R1    R(1,2)                  1.3191         estimate D2E/DX2                !
 ! R2    R(2,3)                  1.4253         estimate D2E/DX2                !
 ! R3    R(2,8)                  1.4251         estimate D2E/DX2                !
 ! R4    R(3,4)                  1.0817         estimate D2E/DX2                !
 ! R5    R(3,5)                  1.3747         estimate D2E/DX2                !
 ! R6    R(5,6)                  1.3949         estimate D2E/DX2                !
 ! R7    R(5,9)                  1.0825         estimate D2E/DX2                !
 ! R8    R(6,7)                  1.3948         estimate D2E/DX2                !
 ! R9    R(6,10)                 1.0821         estimate D2E/DX2                !
 ! R10   R(7,8)                  1.3748         estimate D2E/DX2                !
 ! R11   R(7,11)                 1.0825         estimate D2E/DX2                !
 ! R12   R(8,12)                 1.0817         estimate D2E/DX2                !
 ! A1    A(1,2,3)              120.6805         estimate D2E/DX2                !
 ! A2    A(1,2,8)              120.6954         estimate D2E/DX2                !
 ! A3    A(3,2,8)              118.6242         estimate D2E/DX2                !
 ! A4    A(2,3,4)              118.5769         estimate D2E/DX2                !
 ! A5    A(2,3,5)              120.0058         estimate D2E/DX2                !
 ! A6    A(4,3,5)              121.4174         estimate D2E/DX2                !
 ! A7    A(3,5,6)              120.5764         estimate D2E/DX2                !
 ! A8    A(3,5,9)              119.6454         estimate D2E/DX2                !
 ! A9    A(6,5,9)              119.7782         estimate D2E/DX2                !
 ! A10   A(5,6,7)              120.211          estimate D2E/DX2                !
 ! A11   A(5,6,10)             119.8917         estimate D2E/DX2                !
 ! A12   A(7,6,10)             119.8973         estimate D2E/DX2                !
 ! A13   A(6,7,8)              120.577          estimate D2E/DX2                !
 ! A14   A(6,7,11)             119.7851         estimate D2E/DX2                !
 ! A15   A(8,7,11)             119.6379         estimate D2E/DX2                !
 ! A16   A(2,8,7)              120.0057         estimate D2E/DX2                !
 ! A17   A(2,8,12)             118.5855         estimate D2E/DX2                !
 ! A18   A(7,8,12)             121.4088         estimate D2E/DX2                !
 ! D1    D(1,2,3,4)              0.0001         estimate D2E/DX2                !
 ! D2    D(1,2,3,5)           -180.0            estimate D2E/DX2                !
 ! D3    D(8,2,3,4)           -180.0            estimate D2E/DX2                !
 ! D4    D(8,2,3,5)             -0.0001         estimate D2E/DX2                !
 ! D5    D(1,2,8,7)            180.0            estimate D2E/DX2                !
 ! D6    D(1,2,8,12)            -0.0001         estimate D2E/DX2                !
 ! D7    D(3,2,8,7)              0.0001         estimate D2E/DX2                !
 ! D8    D(3,2,8,12)           180.0            estimate D2E/DX2                !
 ! D9    D(2,3,5,6)              0.0            estimate D2E/DX2                !
 ! D10   D(2,3,5,9)           -180.0            estimate D2E/DX2                !
 ! D11   D(4,3,5,6)            180.0            estimate D2E/DX2                !
 ! D12   D(4,3,5,9)              0.0            estimate D2E/DX2                !
 ! D13   D(3,5,6,7)              0.0            estimate D2E/DX2                !
 ! D14   D(3,5,6,10)           180.0            estimate D2E/DX2                !
 ! D15   D(9,5,6,7)            180.0            estimate D2E/DX2                !
 ! D16   D(9,5,6,10)             0.0            estimate D2E/DX2                !
 ! D17   D(5,6,7,8)              0.0            estimate D2E/DX2                !
 ! D18   D(5,6,7,11)          -180.0            estimate D2E/DX2                !
 ! D19   D(10,6,7,8)          -180.0            estimate D2E/DX2                !
 ! D20   D(10,6,7,11)            0.0001         estimate D2E/DX2                !
 ! D21   D(6,7,8,2)              0.0            estimate D2E/DX2                !
 ! D22   D(6,7,8,12)          -180.0            estimate D2E/DX2                !
 ! D23   D(11,7,8,2)           179.9999         estimate D2E/DX2                !
 ! D24   D(11,7,8,12)            0.0            estimate D2E/DX2                !
 --------------------------------------------------------------------------------
 Trust Radius=3.00D-01 FncErr=1.00D-07 GrdErr=1.00D-06 EigMax=2.50D+02 EigMin=1.00D-04
 Number of steps in this run=     64 maximum allowed number of steps=    100.
 GradGradGradGradGradGradGradGradGradGradGradGradGradGradGradGradGradGrad

 Leave Link  103 at Mon Mar  2 00:27:43 2020, MaxMem=  1879048192 cpu:               2.4 elap:               0.1
 (Enter /opt/g16/l202.exe)
                          Input orientation:                          
 ---------------------------------------------------------------------
 Center     Atomic      Atomic             Coordinates (Angstroms)
 Number     Number       Type             X           Y           Z
 ---------------------------------------------------------------------
      1          7           0        2.290662    0.417215    0.163698
      2          6           0        0.996643    0.178494    0.071229
      3          6           0        0.062152    1.252395    0.001928
      4          1           0        0.436903    2.266808    0.026792
      5          6           0       -1.283390    0.987709   -0.094189
      6          6           0       -1.747440   -0.327371   -0.124859
      7          6           0       -0.847538   -1.390893   -0.058063
      8          6           0        0.504016   -1.158383    0.038551
      9          1           0       -1.988043    1.807842   -0.146467
     10          1           0       -2.808979   -0.523013   -0.200715
     11          1           0       -1.215231   -2.408780   -0.082414
     12          1           0        1.213805   -1.972950    0.091186
 ---------------------------------------------------------------------
                    Distance matrix (angstroms):
                    1          2          3          4          5
     1  N    0.000000
     2  C    1.319099   0.000000
     3  C    2.385362   1.425251   0.000000
     4  H    2.622243   2.162484   1.081707   0.000000
     5  C    3.628473   2.425024   1.374693   2.147123   0.000000
     6  C    4.116302   2.797202   2.405485   3.394719   1.394890
     7  C    3.628599   2.425015   2.796088   3.877598   2.418475
     8  C    2.385430   1.425128   2.451211   3.425869   2.796096
     9  H    4.509696   3.407421   2.129282   2.474072   1.082537
    10  H    5.198381   3.879281   3.381794   4.286095   2.149663
    11  H    4.509779   3.407342   3.878534   4.960100   3.397193
    12  H    2.622550   2.162468   3.425948   4.310832   3.877609
                    6          7          8          9         10
     6  C    0.000000
     7  C    1.394763   0.000000
     8  C    2.405481   1.374807   0.000000
     9  H    2.148835   3.397127   3.878541   0.000000
    10  H    1.082079   2.149608   3.381846   2.471794   0.000000
    11  H    2.148793   1.082536   2.129304   4.287335   2.471871
    12  H    3.394640   2.147138   1.081707   4.960111   4.286060
                   11         12
    11  H    0.000000
    12  H    2.473924   0.000000
 Stoichiometry    C6H5N(3)
 Framework group  CS[SG(C6H5N)]
 Deg. of freedom    21
 Full point group                 CS      NOp   2
 Largest Abelian subgroup         CS      NOp   2
 Largest concise Abelian subgroup C1      NOp   1
                         Standard orientation:                         
 ---------------------------------------------------------------------
 Center     Atomic      Atomic             Coordinates (Angstroms)
 Number     Number       Type             X           Y           Z
 ---------------------------------------------------------------------
      1          7           0        1.806970   -1.552296   -0.000000
      2          6           0        0.806314   -0.692812   -0.000000
      3          6           0        1.053304    0.710874   -0.000000
      4          1           0        2.078527    1.055848   -0.000000
      5          6           0        0.000000    1.594238   -0.000000
      6          6           0       -1.315381    1.130029    0.000000
      7          6           0       -1.576079   -0.240154    0.000000
      8          6           0       -0.544022   -1.148423    0.000000
      9          1           0        0.194301    2.659196   -0.000000
     10          1           0       -2.136113    1.835220    0.000000
     11          1           0       -2.599560   -0.592817    0.000000
     12          1           0       -0.730758   -2.213890    0.000000
 ---------------------------------------------------------------------
 Rotational constants (GHZ):           5.6296083           2.9351595           1.9292757
 Leave Link  202 at Mon Mar  2 00:27:43 2020, MaxMem=  1879048192 cpu:               5.0 elap:               0.2
 (Enter /opt/g16/l301.exe)
 Standard basis: def2TZVP (5D, 7F)
 Ernie: Thresh=  0.10000D-02 Tol=  0.10000D-05 Strict=F.
 There are   200 symmetry adapted cartesian basis functions of A'  symmetry.
 There are    82 symmetry adapted cartesian basis functions of A"  symmetry.
 There are   172 symmetry adapted basis functions of A'  symmetry.
 There are    75 symmetry adapted basis functions of A"  symmetry.
   247 basis functions,   397 primitive gaussians,   282 cartesian basis functions
    25 alpha electrons       23 beta electrons
       nuclear repulsion energy       252.1611763127 Hartrees.
 IExCor= 4639 DFT=T Ex+Corr=wB97XD ExCW=0 ScaHFX=  1.000000
 ScaDFX=  1.000000  1.000000  1.000000  1.000000 ScalE2=  1.000000  1.000000
 IRadAn=      5 IRanWt=     -1 IRanGd=            0 ICorTp=0 IEmpDi=121
 HFx  wShort=  0.000000 wLong=  0.200000 cFull=  0.222036 cShort=  0.000000 cLong=  0.777964
 DFx  wShort=  0.000000 wLong=  0.200000 cFull=  0.000000 cShort=  0.000000 cLong=  1.000000
 NAtoms=   12 NActive=   12 NUniq=   12 SFac= 1.00D+00 NAtFMM=   60 NAOKFM=F Big=F
 Integral buffers will be    131072 words long.
 Raffenetti 2 integral format.
 Two-electron integral symmetry is turned on.
 R6Disp:  Grimme-D2 Dispersion energy=       -0.0044059871 Hartrees.
 Nuclear repulsion after empirical dispersion term =      252.1567703257 Hartrees.
 Leave Link  301 at Mon Mar  2 00:27:43 2020, MaxMem=  1879048192 cpu:               3.2 elap:               0.1
 (Enter /opt/g16/l302.exe)
 NPDir=0 NMtPBC=     1 NCelOv=     1 NCel=       1 NClECP=     1 NCelD=      1
         NCelK=      1 NCelE2=     1 NClLst=     1 CellRange=     0.0.
 One-electron integrals computed using PRISM.
 One-electron integral symmetry used in STVInt
   2 Symmetry operations used in ECPInt.
 ECPInt:  NShTT=    4753 NPrTT=   14704 LenC2=    4702 LenP2D=   12041.
 LDataN:  DoStor=T MaxTD1= 6 Len=  172
 NBasis=   247 RedAO= T EigKep=  1.05D-05  NBF=   172    75
 NBsUse=   247 1.00D-06 EigRej= -1.00D+00 NBFU=   172    75
 Precomputing XC quadrature grid using
 IXCGrd= 4 IRadAn=           5 IRanWt=          -1 IRanGd=           0 AccXCQ= 1.00D-12.
 Generated NRdTot=       0 NPtTot=           0 NUsed=           0 NTot=          32
 NSgBfM=   281   281   281   281   281 MxSgAt=    12 MxSgA2=    12.
 Leave Link  302 at Mon Mar  2 00:27:49 2020, MaxMem=  1879048192 cpu:             180.3 elap:               5.3
 (Enter /opt/g16/l303.exe)
 DipDrv:  MaxL=1.
 Leave Link  303 at Mon Mar  2 00:27:49 2020, MaxMem=  1879048192 cpu:               2.9 elap:               0.1
 (Enter /opt/g16/l401.exe)
 Initial guess from the checkpoint file:  "check.chk"
 B after Tr=    -0.000000   -0.000000    0.000000
         Rot=    0.908764    0.000000    0.000000   -0.417310 Ang= -49.33 deg.
 Guess basis will be translated and rotated to current coordinates.
 JPrj=2 DoOrth=T DoCkMO=T.
 Initial guess orbital symmetries:
 Alpha Orbitals:
       Occupied  (A') (A') (A') (A') (A') (A') (A') (A') (A') (A')
                 (A') (A') (A') (A') (A') (A') (A') (A") (A') (A')
                 (A') (A") (A') (A") (A")
       Virtual   (A") (A") (A') (A') (A') (A') (A') (A') (A") (A')
                 (A') (A") (A') (A') (A') (A") (A') (A") (A') (A")
                 (A') (A") (A') (A') (A') (A') (A') (A") (A') (A')
                 (A') (A") (A') (A') (A') (A') (A') (A') (A") (A')
                 (A') (A") (A') (A') (A') (A') (A') (A") (A') (A')
                 (A") (A") (A') (A') (A") (A') (A') (A') (A') (A")
                 (A') (A') (A") (A") (A') (A") (A') (A') (A') (A")
                 (A') (A') (A') (A") (A') (A') (A") (A') (A') (A')
                 (A") (A") (A') (A") (A') (A') (A") (A') (A') (A")
                 (A') (A") (A') (A') (A") (A') (A") (A") (A') (A')
                 (A") (A") (A') (A') (A') (A') (A') (A') (A") (A')
                 (A') (A') (A") (A') (A') (A") (A') (A') (A') (A')
                 (A") (A') (A') (A') (A') (A") (A") (A') (A") (A")
                 (A') (A') (A") (A') (A') (A") (A') (A") (A') (A")
                 (A') (A") (A") (A') (A') (A") (A') (A") (A') (A')
                 (A") (A') (A') (A') (A") (A") (A") (A") (A') (A')
                 (A') (A') (A') (A") (A') (A") (A') (A') (A') (A")
                 (A') (A") (A') (A') (A") (A') (A') (A') (A") (A")
                 (A') (A') (A') (A') (A') (A") (A") (A') (A") (A')
                 (A') (A") (A') (A") (A') (A") (A') (A') (A") (A')
                 (A') (A") (A') (A') (A') (A') (A") (A') (A') (A')
                 (A') (A') (A') (A') (A') (A') (A') (A') (A') (A')
                 (A') (A')
 Beta  Orbitals:
       Occupied  (A') (A') (A') (A') (A') (A') (A') (A') (A') (A')
                 (A') (A') (A') (A') (A') (A') (A') (A") (A') (A')
                 (A') (A") (A")
       Virtual   (A") (A') (A") (A") (A') (A') (A') (A') (A') (A')
                 (A") (A') (A') (A') (A") (A') (A') (A") (A') (A")
                 (A') (A") (A') (A") (A') (A') (A') (A') (A") (A')
                 (A') (A') (A') (A') (A") (A') (A') (A') (A') (A')
                 (A") (A') (A') (A") (A') (A') (A') (A') (A') (A")
                 (A') (A') (A") (A") (A') (A') (A') (A") (A') (A')
                 (A') (A") (A') (A') (A") (A") (A') (A') (A") (A')
                 (A') (A") (A') (A') (A') (A") (A') (A') (A") (A')
                 (A') (A') (A") (A") (A') (A') (A") (A') (A") (A')
                 (A') (A") (A') (A") (A') (A') (A") (A') (A") (A")
                 (A') (A') (A") (A") (A') (A') (A') (A') (A') (A')
                 (A') (A') (A") (A') (A") (A') (A') (A") (A') (A')
                 (A') (A') (A") (A') (A') (A') (A') (A") (A") (A')
                 (A") (A") (A') (A') (A") (A') (A') (A") (A') (A")
                 (A') (A") (A') (A") (A") (A') (A') (A") (A') (A")
                 (A') (A') (A") (A') (A') (A') (A") (A") (A") (A")
                 (A') (A') (A') (A') (A') (A") (A') (A") (A') (A')
                 (A') (A") (A") (A') (A') (A') (A') (A") (A') (A")
                 (A') (A') (A") (A') (A') (A') (A') (A") (A") (A')
                 (A") (A') (A') (A") (A') (A') (A") (A') (A') (A")
                 (A") (A') (A') (A') (A") (A') (A') (A') (A') (A')
                 (A") (A') (A') (A') (A') (A') (A') (A') (A') (A')
                 (A') (A') (A') (A')
 The electronic state of the initial guess is 3-A".
 Initial guess <Sx>= 0.0000 <Sy>= 0.0000 <Sz>= 1.0000 <S**2>= 2.0723 S= 1.0239
 Leave Link  401 at Mon Mar  2 00:27:50 2020, MaxMem=  1879048192 cpu:              24.0 elap:               0.7
 (Enter /opt/g16/l502.exe)
 Keep R1 and R2 ints in memory in symmetry-blocked form, NReq=1418894295.
 FoFCou: FMM=F IPFlag=           0 FMFlag=           0 FMFlg1=           0
         NFxFlg=           0 DoJE=F BraDBF=F KetDBF=F FulRan=T
         wScrn=  0.000000 ICntrl=       600 IOpCl=  0 I1Cent=           0 NGrid=           0
         NMat0=    1 NMatS0=  30628 NMatT0=    0 NMatD0=    1 NMtDS0=    0 NMtDT0=    0
 Petite list used in FoFCou.
 UHF open shell SCF:
 Using DIIS extrapolation, IDIIS=  1040.
 NGot=  1879048192 LenX=  1398088733 LenY=  1398008768
 Requested convergence on RMS density matrix=1.00D-08 within  32 cycles.
 Requested convergence on MAX density matrix=1.00D-06.
 Requested convergence on             energy=1.00D-06.
 No special actions if energy rises.

 Cycle   1  Pass 1  IDiag  1:
 E= -286.301818154610    
 DIIS: error= 1.70D-05 at cycle   1 NSaved=   1.
 NSaved= 1 IEnMin= 1 EnMin= -286.301818154610     IErMin= 1 ErrMin= 1.70D-05
 ErrMax= 1.70D-05  0.00D+00 EMaxC= 1.00D-01 BMatC= 7.13D-08 BMatP= 7.13D-08
 IDIUse=1 WtCom= 1.00D+00 WtEn= 0.00D+00
 Coeff-Com:  0.100D+01
 Coeff:      0.100D+01
 Gap=     0.339 Goal=   None    Shift=    0.000
 Gap=     0.307 Goal=   None    Shift=    0.000
 RMSDP=2.15D-06 MaxDP=4.70D-05              OVMax= 3.65D-05

 Cycle   2  Pass 1  IDiag  1:
 E= -286.301818170118     Delta-E=       -0.000000015508 Rises=F Damp=F
 DIIS: error= 1.56D-06 at cycle   2 NSaved=   2.
 NSaved= 2 IEnMin= 2 EnMin= -286.301818170118     IErMin= 2 ErrMin= 1.56D-06
 ErrMax= 1.56D-06  0.00D+00 EMaxC= 1.00D-01 BMatC= 8.86D-10 BMatP= 7.13D-08
 IDIUse=1 WtCom= 1.00D+00 WtEn= 0.00D+00
 Coeff-Com: -0.102D+00 0.110D+01
 Coeff:     -0.102D+00 0.110D+01
 Gap=     0.339 Goal=   None    Shift=    0.000
 Gap=     0.307 Goal=   None    Shift=    0.000
 RMSDP=2.02D-07 MaxDP=3.62D-06 DE=-1.55D-08 OVMax= 5.89D-06

 Cycle   3  Pass 1  IDiag  1:
 E= -286.301818170412     Delta-E=       -0.000000000294 Rises=F Damp=F
 DIIS: error= 3.97D-07 at cycle   3 NSaved=   3.
 NSaved= 3 IEnMin= 3 EnMin= -286.301818170412     IErMin= 3 ErrMin= 3.97D-07
 ErrMax= 3.97D-07  0.00D+00 EMaxC= 1.00D-01 BMatC= 3.84D-11 BMatP= 8.86D-10
 IDIUse=1 WtCom= 1.00D+00 WtEn= 0.00D+00
 Coeff-Com: -0.162D-01 0.144D+00 0.872D+00
 Coeff:     -0.162D-01 0.144D+00 0.872D+00
 Gap=     0.339 Goal=   None    Shift=    0.000
 Gap=     0.307 Goal=   None    Shift=    0.000
 RMSDP=1.84D-08 MaxDP=3.96D-07 DE=-2.94D-10 OVMax= 1.10D-06

 Cycle   4  Pass 1  IDiag  1:
 E= -286.301818170411     Delta-E=        0.000000000000 Rises=F Damp=F
 DIIS: error= 2.00D-07 at cycle   4 NSaved=   4.
 NSaved= 4 IEnMin= 3 EnMin= -286.301818170412     IErMin= 4 ErrMin= 2.00D-07
 ErrMax= 2.00D-07  0.00D+00 EMaxC= 1.00D-01 BMatC= 1.56D-11 BMatP= 3.84D-11
 IDIUse=1 WtCom= 1.00D+00 WtEn= 0.00D+00
 Coeff-Com:  0.280D-02-0.468D-01 0.375D+00 0.669D+00
 Coeff:      0.280D-02-0.468D-01 0.375D+00 0.669D+00
 Gap=     0.339 Goal=   None    Shift=    0.000
 Gap=     0.307 Goal=   None    Shift=    0.000
 RMSDP=8.84D-09 MaxDP=2.41D-07 DE= 3.41D-13 OVMax= 1.16D-06

 SCF Done:  E(UwB97XD) =  -286.301818170     A.U. after    4 cycles
            NFock=  4  Conv=0.88D-08     -V/T= 2.0047
 <Sx>= 0.0000 <Sy>= 0.0000 <Sz>= 1.0000 <S**2>= 2.0723 S= 1.0239
 <L.S>= 0.000000000000E+00
 KE= 2.849758002082D+02 PE=-1.169372827057D+03 EE= 3.459384383527D+02
 Annihilation of the first spin contaminant:
 S**2 before annihilation     2.0723,   after     2.0024
 Leave Link  502 at Mon Mar  2 00:28:57 2020, MaxMem=  1879048192 cpu:            2066.2 elap:              67.9
 (Enter /opt/g16/l508.exe)
 QCSCF skips out because SCF is already converged.
 Leave Link  508 at Mon Mar  2 00:28:58 2020, MaxMem=  1879048192 cpu:               1.6 elap:               0.1
 (Enter /opt/g16/l601.exe)
 Copying SCF densities to generalized density rwf, IOpCl= 1 IROHF=0.

 **********************************************************************

            Population analysis using the SCF Density.

 **********************************************************************

 Orbital symmetries:
 Alpha Orbitals:
       Occupied  (A') (A') (A') (A') (A') (A') (A') (A') (A') (A')
                 (A') (A') (A') (A') (A') (A') (A') (A") (A') (A')
                 (A') (A") (A') (A") (A")
       Virtual   (A") (A") (A') (A') (A') (A') (A') (A') (A") (A')
                 (A') (A") (A') (A') (A') (A") (A') (A") (A') (A")
                 (A') (A") (A') (A') (A') (A') (A') (A") (A') (A')
                 (A') (A") (A') (A') (A') (A') (A') (A') (A") (A')
                 (A') (A") (A') (A') (A') (A') (A') (A") (A') (A')
                 (A") (A") (A') (A') (A") (A') (A') (A') (A') (A")
                 (A') (A') (A") (A") (A') (A") (A') (A') (A') (A")
                 (A') (A') (A') (A") (A') (A') (A") (A') (A') (A')
                 (A") (A") (A') (A") (A') (A') (A") (A') (A') (A")
                 (A') (A") (A') (A') (A") (A') (A") (A") (A') (A')
                 (A") (A") (A') (A') (A') (A') (A') (A') (A") (A')
                 (A') (A') (A") (A') (A') (A") (A') (A') (A') (A')
                 (A") (A') (A') (A') (A') (A") (A") (A') (A") (A")
                 (A') (A') (A") (A') (A') (A") (A') (A") (A') (A")
                 (A') (A") (A") (A') (A') (A") (A') (A") (A') (A')
                 (A") (A') (A') (A') (A") (A") (A") (A") (A') (A')
                 (A') (A') (A') (A") (A') (A") (A') (A') (A') (A")
                 (A') (A") (A') (A') (A") (A') (A') (A') (A") (A")
                 (A') (A') (A') (A') (A') (A") (A") (A') (A") (A')
                 (A') (A") (A') (A") (A') (A") (A') (A') (A") (A')
                 (A') (A") (A') (A') (A') (A') (A") (A') (A') (A')
                 (A') (A') (A') (A') (A') (A') (A') (A') (A') (A')
                 (A') (A')
 Beta  Orbitals:
       Occupied  (A') (A') (A') (A') (A') (A') (A') (A') (A') (A')
                 (A') (A') (A') (A') (A') (A') (A') (A") (A') (A')
                 (A') (A") (A")
       Virtual   (A") (A') (A") (A") (A') (A') (A') (A') (A') (A')
                 (A") (A') (A') (A') (A") (A') (A') (A") (A') (A")
                 (A') (A") (A') (A") (A') (A') (A') (A') (A") (A')
                 (A') (A') (A') (A') (A") (A') (A') (A') (A') (A')
                 (A") (A') (A') (A") (A') (A') (A') (A') (A') (A")
                 (A') (A') (A") (A") (A') (A') (A') (A") (A') (A')
                 (A') (A") (A') (A') (A") (A") (A') (A') (A") (A')
                 (A') (A") (A') (A') (A') (A") (A') (A') (A") (A')
                 (A') (A') (A") (A") (A') (A') (A") (A') (A") (A')
                 (A') (A") (A') (A") (A') (A') (A") (A') (A") (A")
                 (A') (A') (A") (A") (A') (A') (A') (A') (A') (A')
                 (A') (A') (A") (A') (A") (A') (A') (A") (A') (A')
                 (A') (A') (A") (A') (A') (A') (A') (A") (A") (A')
                 (A") (A") (A') (A') (A") (A') (A') (A") (A') (A")
                 (A') (A") (A') (A") (A") (A') (A') (A") (A') (A")
                 (A') (A') (A") (A') (A') (A') (A") (A") (A") (A")
                 (A') (A') (A') (A') (A') (A") (A') (A") (A') (A')
                 (A') (A") (A") (A') (A') (A') (A') (A") (A') (A")
                 (A') (A') (A") (A') (A') (A') (A') (A") (A") (A')
                 (A") (A') (A') (A") (A') (A') (A") (A') (A') (A")
                 (A") (A') (A') (A') (A") (A') (A') (A') (A') (A')
                 (A") (A') (A') (A') (A') (A') (A') (A') (A') (A')
                 (A') (A') (A') (A')
 The electronic state is 3-A".
 Alpha  occ. eigenvalues --  -14.47265 -10.33046 -10.31427 -10.31425 -10.31205
 Alpha  occ. eigenvalues --  -10.30675 -10.30671  -1.03092  -0.95616  -0.87407
 Alpha  occ. eigenvalues --   -0.82716  -0.72499  -0.69055  -0.61801  -0.57535
 Alpha  occ. eigenvalues --   -0.55405  -0.53172  -0.50684  -0.49481  -0.45715
 Alpha  occ. eigenvalues --   -0.44938  -0.43079  -0.36506  -0.36462  -0.30169
 Alpha virt. eigenvalues --    0.03726   0.06480   0.11870   0.14770   0.15665
 Alpha virt. eigenvalues --    0.17507   0.18543   0.19458   0.21118   0.24587
 Alpha virt. eigenvalues --    0.27145   0.27256   0.27312   0.29395   0.30343
 Alpha virt. eigenvalues --    0.31320   0.31950   0.32772   0.34647   0.39702
 Alpha virt. eigenvalues --    0.39944   0.40128   0.41078   0.42008   0.43130
 Alpha virt. eigenvalues --    0.44198   0.47054   0.47183   0.47993   0.48259
 Alpha virt. eigenvalues --    0.49163   0.49359   0.50332   0.53333   0.54546
 Alpha virt. eigenvalues --    0.55269   0.56523   0.57959   0.59499   0.59887
 Alpha virt. eigenvalues --    0.66746   0.69152   0.70062   0.71945   0.72088
 Alpha virt. eigenvalues --    0.74322   0.76720   0.80162   0.80655   0.82743
 Alpha virt. eigenvalues --    0.83227   0.87380   0.89059   0.93164   0.93480
 Alpha virt. eigenvalues --    0.93677   0.95425   1.06360   1.07468   1.07966
 Alpha virt. eigenvalues --    1.10133   1.10389   1.13368   1.16711   1.20027
 Alpha virt. eigenvalues --    1.25164   1.25563   1.27102   1.27630   1.29015
 Alpha virt. eigenvalues --    1.32832   1.33691   1.36497   1.37051   1.38636
 Alpha virt. eigenvalues --    1.44118   1.45942   1.46698   1.52607   1.53138
 Alpha virt. eigenvalues --    1.56671   1.56703   1.58206   1.62046   1.62447
 Alpha virt. eigenvalues --    1.65121   1.69220   1.69729   1.71777   1.73683
 Alpha virt. eigenvalues --    1.76994   1.78548   1.80046   1.82914   1.83269
 Alpha virt. eigenvalues --    1.88257   1.91858   1.97848   2.00619   2.01894
 Alpha virt. eigenvalues --    2.04701   2.10620   2.14032   2.14206   2.19472
 Alpha virt. eigenvalues --    2.20122   2.23748   2.24400   2.28937   2.30669
 Alpha virt. eigenvalues --    2.32515   2.38130   2.40223   2.52348   2.53035
 Alpha virt. eigenvalues --    2.53528   2.59221   2.59608   2.65217   2.65259
 Alpha virt. eigenvalues --    2.65886   2.72379   2.73237   2.74267   2.74383
 Alpha virt. eigenvalues --    2.74917   2.75059   2.78967   2.81491   2.81542
 Alpha virt. eigenvalues --    2.82850   2.86720   2.88456   2.90923   2.91019
 Alpha virt. eigenvalues --    2.93327   2.96078   2.96491   2.96609   3.04353
 Alpha virt. eigenvalues --    3.10546   3.13434   3.15776   3.16938   3.18934
 Alpha virt. eigenvalues --    3.19262   3.20642   3.21286   3.22525   3.25798
 Alpha virt. eigenvalues --    3.27829   3.28032   3.31082   3.31449   3.36307
 Alpha virt. eigenvalues --    3.40392   3.41725   3.42658   3.44937   3.46071
 Alpha virt. eigenvalues --    3.51581   3.52664   3.52906   3.54464   3.55817
 Alpha virt. eigenvalues --    3.56063   3.62071   3.65227   3.74277   3.75865
 Alpha virt. eigenvalues --    3.76394   3.76470   3.84305   3.87266   3.91606
 Alpha virt. eigenvalues --    3.99161   3.99568   4.04161   4.06449   4.08086
 Alpha virt. eigenvalues --    4.08734   4.11513   4.11723   4.21506   4.21720
 Alpha virt. eigenvalues --    4.26355   4.28000   4.28142   4.28662   4.31107
 Alpha virt. eigenvalues --    4.37802   4.44007   4.48698   4.64332   4.64531
 Alpha virt. eigenvalues --    4.67494   4.70261   4.70915   4.79771   4.83858
 Alpha virt. eigenvalues --    4.88518   4.90699   4.91127   4.94711   4.95395
 Alpha virt. eigenvalues --    5.16841   5.31486   5.31829   5.31982   5.37109
 Alpha virt. eigenvalues --    5.39077   5.61631   5.62952   5.66305   5.99201
 Alpha virt. eigenvalues --   22.17181  22.66861  22.69088  22.79133  22.95020
 Alpha virt. eigenvalues --   23.33970  32.05866
  Beta  occ. eigenvalues --  -14.44452 -10.33404 -10.30970 -10.30968 -10.30878
  Beta  occ. eigenvalues --  -10.30843 -10.30801  -0.99786  -0.92886  -0.86833
  Beta  occ. eigenvalues --   -0.79588  -0.71712  -0.67948  -0.60871  -0.56170
  Beta  occ. eigenvalues --   -0.54870  -0.52922  -0.48485  -0.47728  -0.44574
  Beta  occ. eigenvalues --   -0.42111  -0.37943  -0.35171
  Beta virt. eigenvalues --   -0.04469  -0.00585   0.04937   0.09807   0.11957
  Beta virt. eigenvalues --    0.14779   0.15795   0.17552   0.18939   0.19553
  Beta virt. eigenvalues --    0.21751   0.24687   0.27272   0.27336   0.27678
  Beta virt. eigenvalues --    0.29362   0.30403   0.31443   0.32337   0.33806
  Beta virt. eigenvalues --    0.34846   0.39983   0.40227   0.40433   0.41997
  Beta virt. eigenvalues --    0.43288   0.43484   0.44624   0.47325   0.47675
  Beta virt. eigenvalues --    0.48334   0.48696   0.49326   0.50816   0.51754
  Beta virt. eigenvalues --    0.53657   0.54802   0.55521   0.56719   0.58206
  Beta virt. eigenvalues --    0.60149   0.61961   0.66687   0.69837   0.70521
  Beta virt. eigenvalues --    0.72477   0.72995   0.74655   0.77318   0.80457
  Beta virt. eigenvalues --    0.81059   0.82704   0.84216   0.88291   0.89580
  Beta virt. eigenvalues --    0.93808   0.94093   0.94209   0.95553   1.07012
  Beta virt. eigenvalues --    1.07475   1.09533   1.11249   1.11357   1.14014
  Beta virt. eigenvalues --    1.19296   1.21644   1.25746   1.25878   1.27412
  Beta virt. eigenvalues --    1.27954   1.29581   1.33521   1.34756   1.37666
  Beta virt. eigenvalues --    1.39188   1.39740   1.44579   1.46648   1.47437
  Beta virt. eigenvalues --    1.52885   1.53767   1.57059   1.57490   1.58914
  Beta virt. eigenvalues --    1.62606   1.63679   1.66158   1.69476   1.70129
  Beta virt. eigenvalues --    1.74107   1.74131   1.77252   1.79505   1.80683
  Beta virt. eigenvalues --    1.83408   1.84326   1.89065   1.92195   1.98143
  Beta virt. eigenvalues --    2.01841   2.03791   2.05451   2.10829   2.14564
  Beta virt. eigenvalues --    2.14704   2.20244   2.20795   2.24715   2.26951
  Beta virt. eigenvalues --    2.31195   2.33764   2.33805   2.40754   2.40804
  Beta virt. eigenvalues --    2.53369   2.54070   2.54956   2.59642   2.60387
  Beta virt. eigenvalues --    2.65356   2.65735   2.66450   2.72674   2.73655
  Beta virt. eigenvalues --    2.74495   2.74790   2.75387   2.75658   2.80270
  Beta virt. eigenvalues --    2.81959   2.81983   2.83155   2.87486   2.88888
  Beta virt. eigenvalues --    2.91208   2.91803   2.93721   2.96297   2.97139
  Beta virt. eigenvalues --    2.98147   3.05054   3.11242   3.13747   3.16174
  Beta virt. eigenvalues --    3.17442   3.19582   3.19671   3.21038   3.21874
  Beta virt. eigenvalues --    3.22960   3.26334   3.28343   3.28343   3.31669
  Beta virt. eigenvalues --    3.31867   3.37512   3.41181   3.42237   3.43121
  Beta virt. eigenvalues --    3.45319   3.46606   3.52008   3.53350   3.53451
  Beta virt. eigenvalues --    3.55096   3.56770   3.56939   3.62536   3.65404
  Beta virt. eigenvalues --    3.74727   3.77234   3.77249   3.78307   3.85596
  Beta virt. eigenvalues --    3.88876   3.99818   4.00175   4.03496   4.07244
  Beta virt. eigenvalues --    4.07463   4.10255   4.10628   4.12784   4.13660
  Beta virt. eigenvalues --    4.22437   4.23937   4.27322   4.28829   4.28887
  Beta virt. eigenvalues --    4.30202   4.31636   4.38935   4.47354   4.52613
  Beta virt. eigenvalues --    4.68091   4.68837   4.70843   4.73623   4.75689
  Beta virt. eigenvalues --    4.82060   4.84680   4.92965   4.94183   4.96008
  Beta virt. eigenvalues --    4.96958   4.97604   5.18238   5.32629   5.33658
  Beta virt. eigenvalues --    5.34713   5.38147   5.41773   5.63323   5.64713
  Beta virt. eigenvalues --    5.68886   6.01623  22.17418  22.66921  22.69700
  Beta virt. eigenvalues --   22.79509  22.94860  23.33856  32.09869
          Condensed to atoms (all electrons):
               1          2          3          4          5          6
     1  N    6.809251   0.461308  -0.064832   0.003529   0.012479  -0.002881
     2  C    0.461308   4.883257   0.253332  -0.062242   0.076969  -0.087264
     3  C   -0.064832   0.253332   5.171628   0.446714   0.357891   0.039810
     4  H    0.003529  -0.062242   0.446714   0.514706  -0.056513   0.011492
     5  C    0.012479   0.076969   0.357891  -0.056513   4.989036   0.400827
     6  C   -0.002881  -0.087264   0.039810   0.011492   0.400827   4.950206
     7  C    0.012477   0.076974  -0.113576  -0.005491   0.047045   0.400972
     8  C   -0.064820   0.253432   0.125436   0.016271  -0.113576   0.039804
     9  H   -0.000237   0.007353  -0.043215  -0.006490   0.432977  -0.049729
    10  H    0.000007  -0.002960   0.009603  -0.000053  -0.051419   0.439961
    11  H   -0.000237   0.007354  -0.002210   0.000048   0.008355  -0.049725
    12  H    0.003520  -0.062236   0.016272   0.000078  -0.005492   0.011492
               7          8          9         10         11         12
     1  N    0.012477  -0.064820  -0.000237   0.000007  -0.000237   0.003520
     2  C    0.076974   0.253432   0.007353  -0.002960   0.007354  -0.062236
     3  C   -0.113576   0.125436  -0.043215   0.009603  -0.002210   0.016272
     4  H   -0.005491   0.016271  -0.006490  -0.000053   0.000048   0.000078
     5  C    0.047045  -0.113576   0.432977  -0.051419   0.008355  -0.005492
     6  C    0.400972   0.039804  -0.049729   0.439961  -0.049725   0.011492
     7  C    4.989004   0.357775   0.008355  -0.051425   0.432982  -0.056518
     8  C    0.357775   5.171646  -0.002210   0.009603  -0.043223   0.446710
     9  H    0.008355  -0.002210   0.528586  -0.006107  -0.000142   0.000048
    10  H   -0.051425   0.009603  -0.006107   0.525813  -0.006109  -0.000053
    11  H    0.432982  -0.043223  -0.000142  -0.006109   0.528585  -0.006489
    12  H   -0.056518   0.446710   0.000048  -0.000053  -0.006489   0.514715
          Atomic-Atomic Spin Densities.
               1          2          3          4          5          6
     1  N    1.716069  -0.076565  -0.032766   0.004760   0.003580   0.001623
     2  C   -0.076565  -0.223958   0.046001   0.002598  -0.009318   0.004969
     3  C   -0.032766   0.046001   0.345757  -0.009158  -0.008128  -0.031007
     4  H    0.004760   0.002598  -0.009158  -0.012198   0.005840  -0.000535
     5  C    0.003580  -0.009318  -0.008128   0.005840  -0.146171   0.015821
     6  C    0.001623   0.004969  -0.031007  -0.000535   0.015821   0.313494
     7  C    0.003573  -0.009319   0.017837   0.000135  -0.006478   0.015840
     8  C   -0.032754   0.045998  -0.024821  -0.000780   0.017838  -0.031020
     9  H   -0.000123   0.000549   0.003059  -0.000579  -0.002358  -0.001721
    10  H    0.000003   0.000151  -0.000579   0.000003   0.001946  -0.002157
    11  H   -0.000123   0.000549  -0.000516   0.000010   0.000257  -0.001721
    12  H    0.004761   0.002594  -0.000779  -0.000094   0.000134  -0.000535
               7          8          9         10         11         12
     1  N    0.003573  -0.032754  -0.000123   0.000003  -0.000123   0.004761
     2  C   -0.009319   0.045998   0.000549   0.000151   0.000549   0.002594
     3  C    0.017837  -0.024821   0.003059  -0.000579  -0.000516  -0.000779
     4  H    0.000135  -0.000780  -0.000579   0.000003   0.000010  -0.000094
     5  C   -0.006478   0.017838  -0.002358   0.001946   0.000257   0.000134
     6  C    0.015840  -0.031020  -0.001721  -0.002157  -0.001721  -0.000535
     7  C   -0.146223  -0.008110   0.000256   0.001949  -0.002353   0.005841
     8  C   -0.008110   0.345910  -0.000515  -0.000579   0.003054  -0.009157
     9  H    0.000256  -0.000515   0.009736   0.000117  -0.000038   0.000010
    10  H    0.001949  -0.000579   0.000117  -0.012974   0.000117   0.000003
    11  H   -0.002353   0.003054  -0.000038   0.000117   0.009733  -0.000579
    12  H    0.005841  -0.009157   0.000010   0.000003  -0.000579  -0.012203
 Mulliken charges and spin densities:
               1          2
     1  N   -0.169565   1.592037
     2  C    0.194723  -0.215750
     3  C   -0.196852   0.304901
     4  H    0.137952  -0.009997
     5  C   -0.098579  -0.127037
     6  C   -0.104966   0.283050
     7  C   -0.098575  -0.127051
     8  C   -0.196849   0.305064
     9  H    0.130809   0.008393
    10  H    0.133140  -0.012000
    11  H    0.130810   0.008391
    12  H    0.137951  -0.010002
 Sum of Mulliken charges =   0.00000   2.00000
 Mulliken charges and spin densities with hydrogens summed into heavy atoms:
               1          2
     1  N   -0.169565   1.592037
     2  C    0.194723  -0.215750
     3  C   -0.058900   0.294905
     5  C    0.032230  -0.118644
     6  C    0.028173   0.271050
     7  C    0.032235  -0.118661
     8  C   -0.058897   0.295063
 Electronic spatial extent (au):  <R**2>=            617.7195
 Charge=             -0.0000 electrons
 Dipole moment (field-independent basis, Debye):
    X=             -2.3109    Y=              1.9850    Z=             -0.0000  Tot=              3.0464
 Quadrupole moment (field-independent basis, Debye-Ang):
   XX=            -40.3713   YY=            -38.7845   ZZ=            -43.4924
   XY=              5.2006   XZ=             -0.0000   YZ=              0.0000
 Traceless Quadrupole moment (field-independent basis, Debye-Ang):
   XX=              0.5114   YY=              2.0982   ZZ=             -2.6096
   XY=              5.2006   XZ=             -0.0000   YZ=              0.0000
 Octapole moment (field-independent basis, Debye-Ang**2):
  XXX=            -16.2607  YYY=             10.6086  ZZZ=             -0.0000  XYY=            -11.4634
  XXY=             13.2067  XXZ=             -0.0000  XZZ=              1.4984  YZZ=             -1.2873
  YYZ=             -0.0000  XYZ=              0.0000
 Hexadecapole moment (field-independent basis, Debye-Ang**3):
 XXXX=           -409.0007 YYYY=           -365.1163 ZZZZ=            -48.8851 XXXY=             75.5100
 XXXZ=             -0.0000 YYYX=             68.3432 YYYZ=              0.0000 ZZZX=              0.0000
 ZZZY=              0.0000 XXYY=           -144.3113 XXZZ=            -83.2204 YYZZ=            -78.1979
 XXYZ=              0.0000 YYXZ=             -0.0000 ZZXY=             16.4644
 N-N= 2.521567703257D+02 E-N=-1.169372810314D+03  KE= 2.849758002082D+02
 Symmetry A'   KE= 2.767880476614D+02
 Symmetry A"   KE= 8.187752546773D+00
 Symmetry A'   SP= 1.000000000000D+00
 Symmetry A"   SP= 1.000000000000D+00
                          Isotropic Fermi Contact Couplings
        Atom                 a.u.       MegaHertz       Gauss      10(-4) cm-1
     1  N(14)              0.11434      18.47176       6.59118       6.16152
     2  C(13)             -0.07608     -42.76358     -15.25911     -14.26440
     3  C(13)              0.09123      51.27915      18.29768      17.10488
     4  H(1)              -0.00501     -11.19886      -3.99603      -3.73554
     5  C(13)             -0.01377      -7.74045      -2.76199      -2.58194
     6  C(13)              0.02074      11.65770       4.15976       3.88859
     7  C(13)             -0.01379      -7.75062      -2.76561      -2.58533
     8  C(13)              0.09121      51.26686      18.29329      17.10079
     9  H(1)               0.00311       6.96010       2.48354       2.32164
    10  H(1)              -0.00464     -10.37548      -3.70223      -3.46089
    11  H(1)               0.00311       6.95797       2.48278       2.32093
    12  H(1)              -0.00501     -11.20526      -3.99832      -3.73767
 --------------------------------------------------------
       Center         ----  Spin Dipole Couplings  ----
                      3XX-RR        3YY-RR        3ZZ-RR
 --------------------------------------------------------
     1   Atom       -0.476479      0.030690      0.445789
     2   Atom        0.141397      0.124400     -0.265797
     3   Atom       -0.198163     -0.080962      0.279125
     4   Atom        0.008619      0.007555     -0.016174
     5   Atom        0.086657      0.081234     -0.167891
     6   Atom       -0.172450     -0.175803      0.348252
     7   Atom        0.086157      0.081748     -0.167905
     8   Atom       -0.080004     -0.199382      0.279386
     9   Atom        0.007674     -0.000272     -0.007402
    10   Atom        0.004478     -0.003292     -0.001186
    11   Atom        0.001231      0.006172     -0.007403
    12   Atom        0.001851      0.014316     -0.016167
 --------------------------------------------------------
                        XY            XZ            YZ
 --------------------------------------------------------
     1   Atom        1.660046      0.000000     -0.000000
     2   Atom       -0.055555      0.000000     -0.000000
     3   Atom       -0.012681      0.000000      0.000000
     4   Atom        0.019166     -0.000000     -0.000000
     5   Atom       -0.016113      0.000000     -0.000000
     6   Atom       -0.011011      0.000000      0.000000
     7   Atom       -0.016180      0.000000     -0.000000
     8   Atom        0.005351      0.000000      0.000000
     9   Atom       -0.004433     -0.000000     -0.000000
    10   Atom       -0.025499      0.000000     -0.000000
    11   Atom       -0.005418      0.000000      0.000000
    12   Atom        0.018146      0.000000      0.000000
 --------------------------------------------------------


 ---------------------------------------------------------------------------------
              Anisotropic Spin Dipole Couplings in Principal Axis System
 ---------------------------------------------------------------------------------

       Atom             a.u.   MegaHertz   Gauss  10(-4) cm-1        Axes

              Baa    -1.9022   -73.364   -26.178   -24.471  0.7586 -0.6515  0.0000
     1 N(14)  Bbb     0.4458    17.193     6.135     5.735  0.0000  0.0000  1.0000
              Bcc     1.4564    56.170    20.043    18.736  0.6515  0.7586  0.0000
 
              Baa    -0.2658   -35.667   -12.727   -11.897  0.0000  0.0000  1.0000
     2 C(13)  Bbb     0.0767    10.292     3.672     3.433  0.6515  0.7587 -0.0000
              Bcc     0.1891    25.375     9.055     8.464  0.7587 -0.6515  0.0000
 
              Baa    -0.1995   -26.774    -9.553    -8.931  0.9943  0.1064 -0.0000
     3 C(13)  Bbb    -0.0796   -10.682    -3.812    -3.563 -0.1064  0.9943 -0.0000
              Bcc     0.2791    37.456    13.365    12.494  0.0000  0.0000  1.0000
 
              Baa    -0.0162    -8.630    -3.079    -2.879  0.0000  0.0000  1.0000
     4 H(1)   Bbb    -0.0111    -5.915    -2.111    -1.973 -0.6972  0.7168 -0.0000
              Bcc     0.0273    14.545     5.190     4.852  0.7168  0.6972 -0.0000
 
              Baa    -0.1679   -22.529    -8.039    -7.515  0.0000  0.0000  1.0000
     5 C(13)  Bbb     0.0676     9.072     3.237     3.026  0.6458  0.7635 -0.0000
              Bcc     0.1003    13.457     4.802     4.489  0.7635 -0.6458  0.0000
 
              Baa    -0.1853   -24.861    -8.871    -8.293  0.6517  0.7585 -0.0000
     6 C(13)  Bbb    -0.1630   -21.871    -7.804    -7.296  0.7585 -0.6517  0.0000
              Bcc     0.3483    46.732    16.675    15.588  0.0000  0.0000  1.0000
 
              Baa    -0.1679   -22.531    -8.040    -7.516  0.0000  0.0000  1.0000
     7 C(13)  Bbb     0.0676     9.074     3.238     3.027  0.6577  0.7533  0.0000
              Bcc     0.1003    13.457     4.802     4.489  0.7533 -0.6577  0.0000
 
              Baa    -0.1996   -26.787    -9.558    -8.935 -0.0447  0.9990 -0.0000
     8 C(13)  Bbb    -0.0798   -10.704    -3.819    -3.570  0.9990  0.0447  0.0000
              Bcc     0.2794    37.491    13.378    12.506  0.0000  0.0000  1.0000
 
              Baa    -0.0074    -3.950    -1.409    -1.317  0.0000  0.0000  1.0000
     9 H(1)   Bbb    -0.0023    -1.201    -0.429    -0.401  0.4078  0.9131 -0.0000
              Bcc     0.0097     5.151     1.838     1.718  0.9131 -0.4078  0.0000
 
              Baa    -0.0252   -13.445    -4.798    -4.485  0.6517  0.7585 -0.0000
    10 H(1)   Bbb    -0.0012    -0.633    -0.226    -0.211  0.0000  0.0000  1.0000
              Bcc     0.0264    14.078     5.024     4.696  0.7585 -0.6517  0.0000
 
              Baa    -0.0074    -3.950    -1.409    -1.318 -0.0000 -0.0000  1.0000
    11 H(1)   Bbb    -0.0023    -1.203    -0.429    -0.401  0.8411  0.5409  0.0000
              Bcc     0.0097     5.152     1.838     1.719 -0.5409  0.8411 -0.0000
 
              Baa    -0.0162    -8.626    -3.078    -2.877  0.0000  0.0000  1.0000
    12 H(1)   Bbb    -0.0111    -5.924    -2.114    -1.976  0.8139 -0.5810 -0.0000
              Bcc     0.0273    14.550     5.192     4.853  0.5810  0.8139 -0.0000
 

 ---------------------------------------------------------------------------------

 No NMR shielding tensors so no spin-rotation constants.
 Leave Link  601 at Mon Mar  2 00:29:07 2020, MaxMem=  1879048192 cpu:             269.2 elap:               8.7
 (Enter /opt/g16/l701.exe)
 ... and contract with generalized density number  0.
 Compute integral first derivatives.
 R6Disp: Adding Grimme-D2 dispersion energy 1st derivatives to the gradient.
   2 Symmetry operations used in ECPInt.
 ECPInt:  NShTT=    4753 NPrTT=   14704 LenC2=    4702 LenP2D=   12041.
 LDataN:  DoStor=T MaxTD1= 7 Len=  274
 Leave Link  701 at Mon Mar  2 00:29:09 2020, MaxMem=  1879048192 cpu:              60.9 elap:               2.0
 (Enter /opt/g16/l702.exe)
 L702 exits ... SP integral derivatives will be done elsewhere.
 Leave Link  702 at Mon Mar  2 00:29:09 2020, MaxMem=  1879048192 cpu:               2.2 elap:               0.1
 (Enter /opt/g16/l703.exe)
 Integral derivatives from FoFJK, PRISM(SPDF).
 Compute integral first derivatives, UseDBF=F ICtDFT=           0.
 Calling FoFJK, ICntrl=      2127 FMM=F ISym2X=1 I1Cent= 0 IOpClX= 1 NMat=1 NMatS=1 NMatT=0.
 FoFJK:  IHMeth= 1 ICntrl=    2127 DoSepK=T KAlg= 0 I1Cent=           0 FoldK=F
 IRaf=         1 NMat=       1 IRICut=       1 DoRegI=T DoRafI=F ISym2E= 1 IDoP0=0 IntGTp=1.
 FoFCou: FMM=F IPFlag=           0 FMFlag=      100000 FMFlg1=         800
         NFxFlg=           0 DoJE=F BraDBF=F KetDBF=F FulRan=T
         wScrn=  0.000000 ICntrl=      2527 IOpCl=  0 I1Cent=           0 NGrid=           0
         NMat0=    1 NMatS0=      1 NMatT0=    0 NMatD0=    1 NMtDS0=    0 NMtDT0=    0
 Petite list used in FoFCou.
 Leave Link  703 at Mon Mar  2 00:29:25 2020, MaxMem=  1879048192 cpu:             551.8 elap:              16.3
 (Enter /opt/g16/l716.exe)
 Dipole        =-9.09183098D-01 7.80965189D-01-1.85786767D-17
 ***** Axes restored to original set *****
 -------------------------------------------------------------------
 Center     Atomic                   Forces (Hartrees/Bohr)
 Number     Number              X              Y              Z
 -------------------------------------------------------------------
      1        7          -0.000184112   -0.000038813   -0.000013147
      2        6           0.000266624    0.000108789    0.000018932
      3        6          -0.000093998    0.000005042   -0.000006762
      4        1           0.000008060    0.000029181    0.000000520
      5        6           0.000050971   -0.000030883    0.000003724
      6        6          -0.000002051    0.000045444   -0.000000239
      7        6           0.000144364    0.000018469    0.000010333
      8        6          -0.000154356   -0.000102829   -0.000010879
      9        1          -0.000017040    0.000019003   -0.000001262
     10        1          -0.000018113   -0.000014062   -0.000001273
     11        1          -0.000021253   -0.000024121   -0.000001478
     12        1           0.000020904   -0.000015219    0.000001532
 -------------------------------------------------------------------
 Cartesian Forces:  Max     0.000266624 RMS     0.000073222
 Leave Link  716 at Mon Mar  2 00:29:25 2020, MaxMem=  1879048192 cpu:               3.4 elap:               0.1
 (Enter /opt/g16/l103.exe)

 GradGradGradGradGradGradGradGradGradGradGradGradGradGradGradGradGradGrad
 Berny optimization.
 FormGI is forming the generalized inverse of G from B-inverse, IUseBI=4.
 Internal  Forces:  Max     0.000188557 RMS     0.000035364
 Search for a local minimum.
 Step number   1 out of a maximum of   64
 All quantities printed in internal units (Hartrees-Bohrs-Radians)
 RMS Force = .35364D-04 SwitMx=.10000D-02 MixMth= 2
 Mixed Optimization -- En-DIIS/RFO-DIIS
 Second derivative matrix not updated -- first step.
 ITU=  0
     Eigenvalues ---    0.01756   0.01873   0.02055   0.02109   0.02157
     Eigenvalues ---    0.02222   0.02240   0.02301   0.02316   0.16000
     Eigenvalues ---    0.16000   0.16000   0.16000   0.16000   0.22000
     Eigenvalues ---    0.22000   0.23457   0.25000   0.35689   0.35690
     Eigenvalues ---    0.35744   0.35789   0.35789   0.39373   0.40570
     Eigenvalues ---    0.45076   0.45111   0.47986   0.50074   0.62156
 RFO step:  Lambda=-1.34282038D-07 EMin= 1.75555029D-02
 Linear search not attempted -- first point.
 Iteration  1 RMS(Cart)=  0.00007024 RMS(Int)=  0.00000001
 Iteration  2 RMS(Cart)=  0.00000001 RMS(Int)=  0.00000001
 ITry= 1 IFail=0 DXMaxC= 2.26D-04 DCOld= 1.00D+10 DXMaxT= 3.00D-01 DXLimC= 3.00D+00 Rises=F
 ClnCor:  largest displacement from symmetrization is 1.57D-08 for atom     9.
 Variable       Old X    -DE/DX   Delta X   Delta X   Delta X     New X
                                 (Linear)    (Quad)   (Total)
    R1        2.49274  -0.00019   0.00000  -0.00030  -0.00030   2.49243
    R2        2.69333   0.00005   0.00000   0.00013   0.00013   2.69347
    R3        2.69310   0.00011   0.00000   0.00026   0.00026   2.69336
    R4        2.04413   0.00003   0.00000   0.00008   0.00008   2.04421
    R5        2.59779  -0.00004   0.00000  -0.00008  -0.00008   2.59771
    R6        2.63596  -0.00001   0.00000  -0.00003  -0.00003   2.63593
    R7        2.04570   0.00003   0.00000   0.00007   0.00007   2.04577
    R8        2.63572   0.00004   0.00000   0.00007   0.00007   2.63579
    R9        2.04483   0.00002   0.00000   0.00006   0.00006   2.04489
   R10        2.59801  -0.00010   0.00000  -0.00020  -0.00020   2.59781
   R11        2.04570   0.00003   0.00000   0.00008   0.00008   2.04578
   R12        2.04413   0.00003   0.00000   0.00007   0.00007   2.04420
    A1        2.10627   0.00002   0.00000   0.00006   0.00006   2.10633
    A2        2.10653  -0.00000   0.00000  -0.00001  -0.00001   2.10652
    A3        2.07038  -0.00002   0.00000  -0.00005  -0.00005   2.07033
    A4        2.06956   0.00000   0.00000   0.00001   0.00001   2.06956
    A5        2.09450  -0.00001   0.00000  -0.00001  -0.00001   2.09448
    A6        2.11913   0.00000   0.00000   0.00000   0.00000   2.11914
    A7        2.10446   0.00001   0.00000   0.00002   0.00002   2.10448
    A8        2.08821  -0.00001   0.00000  -0.00002  -0.00002   2.08818
    A9        2.09052  -0.00000   0.00000   0.00000   0.00000   2.09053
   A10        2.09808   0.00001   0.00000   0.00003   0.00003   2.09810
   A11        2.09250   0.00000   0.00000   0.00004   0.00004   2.09254
   A12        2.09260  -0.00001   0.00000  -0.00006  -0.00006   2.09254
   A13        2.10447   0.00001   0.00000   0.00003   0.00003   2.10450
   A14        2.09064  -0.00002   0.00000  -0.00011  -0.00011   2.09054
   A15        2.08808   0.00001   0.00000   0.00008   0.00008   2.08815
   A16        2.09449  -0.00001   0.00000  -0.00002  -0.00002   2.09448
   A17        2.06971  -0.00000   0.00000  -0.00001  -0.00001   2.06970
   A18        2.11898   0.00001   0.00000   0.00003   0.00003   2.11901
    D1       -0.00000  -0.00000   0.00000  -0.00000  -0.00000  -0.00000
    D2        3.14159  -0.00000   0.00000  -0.00000   0.00000   3.14159
    D3        3.14159   0.00000   0.00000  -0.00000   0.00000   3.14159
    D4        0.00000  -0.00000   0.00000  -0.00000   0.00000   0.00000
    D5        3.14159   0.00000   0.00000   0.00000   0.00000  -3.14159
    D6       -0.00000   0.00000   0.00000   0.00000   0.00000   0.00000
    D7        0.00000   0.00000   0.00000   0.00000   0.00000   0.00000
    D8        3.14159   0.00000   0.00000   0.00000   0.00000   3.14159
    D9        0.00000   0.00000   0.00000   0.00000  -0.00000   0.00000
   D10        3.14159  -0.00000   0.00000  -0.00000   0.00000   3.14159
   D11        3.14159  -0.00000   0.00000  -0.00000   0.00000   3.14159
   D12       -0.00000  -0.00000   0.00000  -0.00000   0.00000   0.00000
   D13       -0.00000   0.00000   0.00000   0.00000   0.00000   0.00000
   D14        3.14159   0.00000   0.00000   0.00000   0.00000   3.14159
   D15        3.14159   0.00000   0.00000   0.00000   0.00000   3.14159
   D16        0.00000   0.00000   0.00000   0.00000  -0.00000   0.00000
   D17        0.00000  -0.00000   0.00000  -0.00000  -0.00000   0.00000
   D18        3.14159  -0.00000   0.00000  -0.00000   0.00000   3.14159
   D19        3.14159  -0.00000   0.00000  -0.00000   0.00000   3.14159
   D20       -0.00000  -0.00000   0.00000  -0.00000   0.00000   0.00000
   D21       -0.00000   0.00000   0.00000   0.00000  -0.00000  -0.00000
   D22        3.14159   0.00000   0.00000   0.00000   0.00000   3.14159
   D23        3.14159   0.00000   0.00000   0.00000   0.00000  -3.14159
   D24        0.00000   0.00000   0.00000   0.00000  -0.00000   0.00000
         Item               Value     Threshold  Converged?
 Maximum Force            0.000189     0.000015     NO 
 RMS     Force            0.000035     0.000010     NO 
 Maximum Displacement     0.000226     0.000060     NO 
 RMS     Displacement     0.000070     0.000040     NO 
 Predicted change in Energy=-6.714103D-08
 Lowest energy point so far.  Saving SCF results.
 GradGradGradGradGradGradGradGradGradGradGradGradGradGradGradGradGradGrad

 Leave Link  103 at Mon Mar  2 00:29:27 2020, MaxMem=  1879048192 cpu:              55.3 elap:               1.6
 (Enter /opt/g16/l202.exe)
                          Input orientation:                          
 ---------------------------------------------------------------------
 Center     Atomic      Atomic             Coordinates (Angstroms)
 Number     Number       Type             X           Y           Z
 ---------------------------------------------------------------------
      1          7           0        2.290567    0.417184    0.163691
      2          6           0        0.996698    0.178533    0.071233
      3          6           0        0.062128    1.252459    0.001926
      4          1           0        0.436859    2.266928    0.026789
      5          6           0       -1.283362    0.987727   -0.094187
      6          6           0       -1.747383   -0.327349   -0.124855
      7          6           0       -0.847464   -1.390905   -0.058058
      8          6           0        0.503997   -1.158465    0.038550
      9          1           0       -1.988054    1.807876   -0.146468
     10          1           0       -2.808940   -0.523058   -0.200712
     11          1           0       -1.215288   -2.408792   -0.082418
     12          1           0        1.213804   -1.973065    0.091186
 ---------------------------------------------------------------------
                    Distance matrix (angstroms):
                    1          2          3          4          5
     1  N    0.000000
     2  C    1.318939   0.000000
     3  C    2.385328   1.425321   0.000000
     4  H    2.622314   2.162588   1.081752   0.000000
     5  C    3.628359   2.425043   1.374651   2.147126   0.000000
     6  C    4.116142   2.797203   2.405452   3.394728   1.394876
     7  C    3.628443   2.425033   2.796128   3.877683   2.418513
     8  C    2.385406   1.425267   2.451355   3.426070   2.796142
     9  H    4.509637   3.407477   2.129262   2.474055   1.082575
    10  H    5.198251   3.879312   3.381798   4.286139   2.149699
    11  H    4.509737   3.407454   3.878617   4.960229   3.397222
    12  H    2.622587   2.162616   3.426125   4.311070   3.877691
                    6          7          8          9         10
     6  C    0.000000
     7  C    1.394800   0.000000
     8  C    2.405444   1.374703   0.000000
     9  H    2.148854   3.397200   3.878624   0.000000
    10  H    1.082109   2.149627   3.381795   2.471851   0.000000
    11  H    2.148798   1.082581   2.129294   4.287372   2.471784
    12  H    3.394655   2.147093   1.081744   4.960231   4.286046
                   11         12
    11  H    0.000000
    12  H    2.473961   0.000000
 Stoichiometry    C6H5N(3)
 Framework group  CS[SG(C6H5N)]
 Deg. of freedom    21
 Full point group                 CS      NOp   2
 RotChk:  IX=3 Diff= 1.18D+00
 Largest Abelian subgroup         CS      NOp   2
 Largest concise Abelian subgroup C1      NOp   1
                         Standard orientation:                         
 ---------------------------------------------------------------------
 Center     Atomic      Atomic             Coordinates (Angstroms)
 Number     Number       Type             X           Y           Z
 ---------------------------------------------------------------------
      1          7           0        0.000160   -2.382070    0.000000
      2          6           0       -0.000000   -1.063131    0.000000
      3          6           0        1.225680   -0.335637    0.000000
      4          1           0        2.155520   -0.888434    0.000000
      5          6           0        1.209226    1.038916    0.000000
      6          6           0       -0.000087    1.734071   -0.000000
      7          6           0       -1.209287    1.038871   -0.000000
      8          6           0       -1.225675   -0.335734   -0.000000
      9          1           0        2.143632    1.585593    0.000000
     10          1           0       -0.000127    2.816181   -0.000000
     11          1           0       -2.143741    1.585475   -0.000000
     12          1           0       -2.155550   -0.888458   -0.000000
 ---------------------------------------------------------------------
 Rotational constants (GHZ):           5.6291978           2.9353403           1.9293056
 Leave Link  202 at Mon Mar  2 00:29:27 2020, MaxMem=  1879048192 cpu:               2.6 elap:               0.1
 (Enter /opt/g16/l301.exe)
 Standard basis: def2TZVP (5D, 7F)
 Ernie: Thresh=  0.10000D-02 Tol=  0.10000D-05 Strict=F.
 There are   200 symmetry adapted cartesian basis functions of A'  symmetry.
 There are    82 symmetry adapted cartesian basis functions of A"  symmetry.
 There are   172 symmetry adapted basis functions of A'  symmetry.
 There are    75 symmetry adapted basis functions of A"  symmetry.
   247 basis functions,   397 primitive gaussians,   282 cartesian basis functions
    25 alpha electrons       23 beta electrons
       nuclear repulsion energy       252.1617268365 Hartrees.
 IExCor= 4639 DFT=T Ex+Corr=wB97XD ExCW=0 ScaHFX=  1.000000
 ScaDFX=  1.000000  1.000000  1.000000  1.000000 ScalE2=  1.000000  1.000000
 IRadAn=      5 IRanWt=     -1 IRanGd=            0 ICorTp=0 IEmpDi=121
 HFx  wShort=  0.000000 wLong=  0.200000 cFull=  0.222036 cShort=  0.000000 cLong=  0.777964
 DFx  wShort=  0.000000 wLong=  0.200000 cFull=  0.000000 cShort=  0.000000 cLong=  1.000000
 NAtoms=   12 NActive=   12 NUniq=   12 SFac= 1.00D+00 NAtFMM=   60 NAOKFM=F Big=F
 Integral buffers will be    131072 words long.
 Raffenetti 2 integral format.
 Two-electron integral symmetry is turned on.
 R6Disp:  Grimme-D2 Dispersion energy=       -0.0044060220 Hartrees.
 Nuclear repulsion after empirical dispersion term =      252.1573208145 Hartrees.
 Leave Link  301 at Mon Mar  2 00:29:27 2020, MaxMem=  1879048192 cpu:               2.7 elap:               0.1
 (Enter /opt/g16/l302.exe)
 NPDir=0 NMtPBC=     1 NCelOv=     1 NCel=       1 NClECP=     1 NCelD=      1
         NCelK=      1 NCelE2=     1 NClLst=     1 CellRange=     0.0.
 One-electron integrals computed using PRISM.
 One-electron integral symmetry used in STVInt
   2 Symmetry operations used in ECPInt.
 ECPInt:  NShTT=    4753 NPrTT=   14704 LenC2=    4702 LenP2D=   12041.
 LDataN:  DoStor=T MaxTD1= 6 Len=  172
 NBasis=   247 RedAO= T EigKep=  1.05D-05  NBF=   172    75
 NBsUse=   247 1.00D-06 EigRej= -1.00D+00 NBFU=   172    75
 Precomputing XC quadrature grid using
 IXCGrd= 4 IRadAn=           5 IRanWt=          -1 IRanGd=           0 AccXCQ= 1.00D-12.
 Generated NRdTot=       0 NPtTot=           0 NUsed=           0 NTot=          32
 NSgBfM=   281   281   281   281   281 MxSgAt=    12 MxSgA2=    12.
 Leave Link  302 at Mon Mar  2 00:29:28 2020, MaxMem=  1879048192 cpu:              13.0 elap:               0.4
 (Enter /opt/g16/l303.exe)
 DipDrv:  MaxL=1.
 Leave Link  303 at Mon Mar  2 00:29:28 2020, MaxMem=  1879048192 cpu:              12.1 elap:               0.4
 (Enter /opt/g16/l401.exe)
 Initial guess from the checkpoint file:  "check.chk"
 B after Tr=     0.000000    0.000000   -0.000000
         Rot=    0.908759   -0.000000    0.000000    0.417322 Ang=  49.33 deg.
 Guess basis will be translated and rotated to current coordinates.
 JPrj=2 DoOrth=T DoCkMO=T.
 Initial guess orbital symmetries:
 Alpha Orbitals:
       Occupied  (A') (A') (A') (A') (A') (A') (A') (A') (A') (A')
                 (A') (A') (A') (A') (A') (A') (A') (A") (A') (A')
                 (A') (A") (A') (A") (A")
       Virtual   (A") (A") (A') (A') (A') (A') (A') (A') (A") (A')
                 (A') (A") (A') (A') (A') (A") (A') (A") (A') (A")
                 (A') (A") (A') (A') (A') (A') (A') (A") (A') (A')
                 (A') (A") (A') (A') (A') (A') (A') (A') (A") (A')
                 (A') (A") (A') (A') (A') (A') (A') (A") (A') (A')
                 (A") (A") (A') (A') (A") (A') (A') (A') (A') (A")
                 (A') (A') (A") (A") (A') (A") (A') (A') (A') (A")
                 (A') (A') (A') (A") (A') (A') (A") (A') (A') (A')
                 (A") (A") (A') (A") (A') (A') (A") (A') (A') (A")
                 (A') (A") (A') (A') (A") (A') (A") (A") (A') (A')
                 (A") (A") (A') (A') (A') (A') (A') (A') (A") (A')
                 (A') (A') (A") (A') (A') (A") (A') (A') (A') (A')
                 (A") (A') (A') (A') (A') (A") (A") (A') (A") (A")
                 (A') (A') (A") (A') (A') (A") (A') (A") (A') (A")
                 (A') (A") (A") (A') (A') (A") (A') (A") (A') (A')
                 (A") (A') (A') (A') (A") (A") (A") (A") (A') (A')
                 (A') (A') (A') (A") (A') (A") (A') (A') (A') (A")
                 (A') (A") (A') (A') (A") (A') (A') (A') (A") (A")
                 (A') (A') (A') (A') (A') (A") (A") (A') (A") (A')
                 (A') (A") (A') (A") (A') (A") (A') (A') (A") (A')
                 (A') (A") (A') (A') (A') (A') (A") (A') (A') (A')
                 (A') (A') (A') (A') (A') (A') (A') (A') (A') (A')
                 (A') (A')
 Beta  Orbitals:
       Occupied  (A') (A') (A') (A') (A') (A') (A') (A') (A') (A')
                 (A') (A') (A') (A') (A') (A') (A') (A") (A') (A')
                 (A') (A") (A")
       Virtual   (A") (A') (A") (A") (A') (A') (A') (A') (A') (A')
                 (A") (A') (A') (A') (A") (A') (A') (A") (A') (A")
                 (A') (A") (A') (A") (A') (A') (A') (A') (A") (A')
                 (A') (A') (A') (A') (A") (A') (A') (A') (A') (A')
                 (A") (A') (A') (A") (A') (A') (A') (A') (A') (A")
                 (A') (A') (A") (A") (A') (A') (A') (A") (A') (A')
                 (A') (A") (A') (A') (A") (A") (A') (A') (A") (A')
                 (A') (A") (A') (A') (A') (A") (A') (A') (A") (A')
                 (A') (A') (A") (A") (A') (A') (A") (A') (A") (A')
                 (A') (A") (A') (A") (A') (A') (A") (A') (A") (A")
                 (A') (A') (A") (A") (A') (A') (A') (A') (A') (A')
                 (A') (A') (A") (A') (A") (A') (A') (A") (A') (A')
                 (A') (A') (A") (A') (A') (A') (A') (A") (A") (A')
                 (A") (A") (A') (A') (A") (A') (A') (A") (A') (A")
                 (A') (A") (A') (A") (A") (A') (A') (A") (A') (A")
                 (A') (A') (A") (A') (A') (A') (A") (A") (A") (A")
                 (A') (A') (A') (A') (A') (A") (A') (A") (A') (A')
                 (A') (A") (A") (A') (A') (A') (A') (A") (A') (A")
                 (A') (A') (A") (A') (A') (A') (A') (A") (A") (A')
                 (A") (A') (A') (A") (A') (A') (A") (A') (A') (A")
                 (A") (A') (A') (A') (A") (A') (A') (A') (A') (A')
                 (A") (A') (A') (A') (A') (A') (A') (A') (A') (A')
                 (A') (A') (A') (A')
 The electronic state of the initial guess is 3-A".
 Initial guess <Sx>= 0.0000 <Sy>= 0.0000 <Sz>= 1.0000 <S**2>= 2.0723 S= 1.0239
 Leave Link  401 at Mon Mar  2 00:29:29 2020, MaxMem=  1879048192 cpu:              22.6 elap:               0.6
 (Enter /opt/g16/l502.exe)
 Keep R1 and R2 ints in memory in symmetry-blocked form, NReq=1418894295.
 FoFCou: FMM=F IPFlag=           0 FMFlag=           0 FMFlg1=           0
         NFxFlg=           0 DoJE=F BraDBF=F KetDBF=F FulRan=T
         wScrn=  0.000000 ICntrl=       600 IOpCl=  0 I1Cent=           0 NGrid=           0
         NMat0=    1 NMatS0=  30628 NMatT0=    0 NMatD0=    1 NMtDS0=    0 NMtDT0=    0
 Petite list used in FoFCou.
 UHF open shell SCF:
 Using DIIS extrapolation, IDIIS=  1040.
 NGot=  1879048192 LenX=  1398088733 LenY=  1398008768
 Requested convergence on RMS density matrix=1.00D-08 within  32 cycles.
 Requested convergence on MAX density matrix=1.00D-06.
 Requested convergence on             energy=1.00D-06.
 No special actions if energy rises.

 Cycle   1  Pass 1  IDiag  1:
 E= -286.301821691655    
 DIIS: error= 1.68D-05 at cycle   1 NSaved=   1.
 NSaved= 1 IEnMin= 1 EnMin= -286.301821691655     IErMin= 1 ErrMin= 1.68D-05
 ErrMax= 1.68D-05  0.00D+00 EMaxC= 1.00D-01 BMatC= 2.10D-07 BMatP= 2.10D-07
 IDIUse=1 WtCom= 1.00D+00 WtEn= 0.00D+00
 Coeff-Com:  0.100D+01
 Coeff:      0.100D+01
 Gap=     0.339 Goal=   None    Shift=    0.000
 Gap=     0.307 Goal=   None    Shift=    0.000
 RMSDP=2.69D-06 MaxDP=8.39D-05              OVMax= 9.46D-05

 Cycle   2  Pass 1  IDiag  1:
 E= -286.301821742514     Delta-E=       -0.000000050859 Rises=F Damp=F
 DIIS: error= 5.99D-06 at cycle   2 NSaved=   2.
 NSaved= 2 IEnMin= 2 EnMin= -286.301821742514     IErMin= 2 ErrMin= 5.99D-06
 ErrMax= 5.99D-06  0.00D+00 EMaxC= 1.00D-01 BMatC= 1.42D-08 BMatP= 2.10D-07
 IDIUse=1 WtCom= 1.00D+00 WtEn= 0.00D+00
 Coeff-Com:  0.268D-01 0.973D+00
 Coeff:      0.268D-01 0.973D+00
 Gap=     0.339 Goal=   None    Shift=    0.000
 Gap=     0.307 Goal=   None    Shift=    0.000
 RMSDP=5.68D-07 MaxDP=2.07D-05 DE=-5.09D-08 OVMax= 6.56D-05

 Cycle   3  Pass 1  IDiag  1:
 E= -286.301821747218     Delta-E=       -0.000000004704 Rises=F Damp=F
 DIIS: error= 7.26D-06 at cycle   3 NSaved=   3.
 NSaved= 3 IEnMin= 3 EnMin= -286.301821747218     IErMin= 2 ErrMin= 5.99D-06
 ErrMax= 7.26D-06  0.00D+00 EMaxC= 1.00D-01 BMatC= 8.36D-09 BMatP= 1.42D-08
 IDIUse=1 WtCom= 1.00D+00 WtEn= 0.00D+00
 Coeff-Com: -0.397D-01 0.428D+00 0.612D+00
 Coeff:     -0.397D-01 0.428D+00 0.612D+00
 Gap=     0.339 Goal=   None    Shift=    0.000
 Gap=     0.307 Goal=   None    Shift=    0.000
 RMSDP=3.11D-07 MaxDP=1.32D-05 DE=-4.70D-09 OVMax= 3.83D-05

 Cycle   4  Pass 1  IDiag  1:
 E= -286.301821750051     Delta-E=       -0.000000002833 Rises=F Damp=F
 DIIS: error= 2.92D-06 at cycle   4 NSaved=   4.
 NSaved= 4 IEnMin= 4 EnMin= -286.301821750051     IErMin= 4 ErrMin= 2.92D-06
 ErrMax= 2.92D-06  0.00D+00 EMaxC= 1.00D-01 BMatC= 9.70D-10 BMatP= 8.36D-09
 IDIUse=1 WtCom= 1.00D+00 WtEn= 0.00D+00
 Coeff-Com: -0.201D-02-0.127D+00 0.971D-01 0.103D+01
 Coeff:     -0.201D-02-0.127D+00 0.971D-01 0.103D+01
 Gap=     0.339 Goal=   None    Shift=    0.000
 Gap=     0.307 Goal=   None    Shift=    0.000
 RMSDP=1.31D-07 MaxDP=6.24D-06 DE=-2.83D-09 OVMax= 3.01D-05

 Cycle   5  Pass 1  IDiag  1:
 E= -286.301821751262     Delta-E=       -0.000000001211 Rises=F Damp=F
 DIIS: error= 1.99D-06 at cycle   5 NSaved=   5.
 NSaved= 5 IEnMin= 5 EnMin= -286.301821751262     IErMin= 5 ErrMin= 1.99D-06
 ErrMax= 1.99D-06  0.00D+00 EMaxC= 1.00D-01 BMatC= 2.61D-10 BMatP= 9.70D-10
 IDIUse=1 WtCom= 1.00D+00 WtEn= 0.00D+00
 Coeff-Com:  0.118D-01-0.120D+00-0.130D+00-0.279D-01 0.127D+01
 Coeff:      0.118D-01-0.120D+00-0.130D+00-0.279D-01 0.127D+01
 Gap=     0.339 Goal=   None    Shift=    0.000
 Gap=     0.307 Goal=   None    Shift=    0.000
 RMSDP=1.12D-07 MaxDP=4.83D-06 DE=-1.21D-09 OVMax= 2.81D-05

 Cycle   6  Pass 1  IDiag  1:
 E= -286.301821751866     Delta-E=       -0.000000000603 Rises=F Damp=F
 DIIS: error= 1.27D-06 at cycle   6 NSaved=   6.
 NSaved= 6 IEnMin= 6 EnMin= -286.301821751866     IErMin= 6 ErrMin= 1.27D-06
 ErrMax= 1.27D-06  0.00D+00 EMaxC= 1.00D-01 BMatC= 9.12D-11 BMatP= 2.61D-10
 IDIUse=1 WtCom= 1.00D+00 WtEn= 0.00D+00
 Coeff-Com:  0.434D-02 0.470D-02-0.653D-01-0.392D+00 0.386D+00 0.106D+01
 Coeff:      0.434D-02 0.470D-02-0.653D-01-0.392D+00 0.386D+00 0.106D+01
 Gap=     0.339 Goal=   None    Shift=    0.000
 Gap=     0.307 Goal=   None    Shift=    0.000
 RMSDP=6.80D-08 MaxDP=2.77D-06 DE=-6.03D-10 OVMax= 2.07D-05

 Cycle   7  Pass 1  IDiag  1:
 E= -286.301821752053     Delta-E=       -0.000000000188 Rises=F Damp=F
 DIIS: error= 4.74D-07 at cycle   7 NSaved=   7.
 NSaved= 7 IEnMin= 7 EnMin= -286.301821752053     IErMin= 7 ErrMin= 4.74D-07
 ErrMax= 4.74D-07  0.00D+00 EMaxC= 1.00D-01 BMatC= 2.00D-11 BMatP= 9.12D-11
 IDIUse=1 WtCom= 1.00D+00 WtEn= 0.00D+00
 Coeff-Com: -0.219D-02 0.325D-01 0.255D-01-0.671D-01-0.236D+00 0.207D+00
 Coeff-Com:  0.104D+01
 Coeff:     -0.219D-02 0.325D-01 0.255D-01-0.671D-01-0.236D+00 0.207D+00
 Coeff:      0.104D+01
 Gap=     0.339 Goal=   None    Shift=    0.000
 Gap=     0.307 Goal=   None    Shift=    0.000
 RMSDP=2.68D-08 MaxDP=1.34D-06 DE=-1.88D-10 OVMax= 6.33D-06

 Cycle   8  Pass 1  IDiag  1:
 E= -286.301821752086     Delta-E=       -0.000000000033 Rises=F Damp=F
 DIIS: error= 2.99D-07 at cycle   8 NSaved=   8.
 NSaved= 8 IEnMin= 8 EnMin= -286.301821752086     IErMin= 8 ErrMin= 2.99D-07
 ErrMax= 2.99D-07  0.00D+00 EMaxC= 1.00D-01 BMatC= 6.72D-12 BMatP= 2.00D-11
 IDIUse=1 WtCom= 1.00D+00 WtEn= 0.00D+00
 Coeff-Com: -0.198D-02 0.107D-01 0.286D-01 0.840D-01-0.191D+00-0.201D+00
 Coeff-Com:  0.341D+00 0.930D+00
 Coeff:     -0.198D-02 0.107D-01 0.286D-01 0.840D-01-0.191D+00-0.201D+00
 Coeff:      0.341D+00 0.930D+00
 Gap=     0.339 Goal=   None    Shift=    0.000
 Gap=     0.307 Goal=   None    Shift=    0.000
 RMSDP=1.19D-08 MaxDP=4.92D-07 DE=-3.25D-11 OVMax= 2.68D-06

 Cycle   9  Pass 1  IDiag  1:
 E= -286.301821752100     Delta-E=       -0.000000000014 Rises=F Damp=F
 DIIS: error= 1.84D-07 at cycle   9 NSaved=   9.
 NSaved= 9 IEnMin= 9 EnMin= -286.301821752100     IErMin= 9 ErrMin= 1.84D-07
 ErrMax= 1.84D-07  0.00D+00 EMaxC= 1.00D-01 BMatC= 1.78D-12 BMatP= 6.72D-12
 IDIUse=1 WtCom= 1.00D+00 WtEn= 0.00D+00
 Coeff-Com:  0.638D-03-0.118D-01-0.667D-02 0.346D-01 0.615D-01-0.937D-01
 Coeff-Com: -0.352D+00 0.874D-01 0.128D+01
 Coeff:      0.638D-03-0.118D-01-0.667D-02 0.346D-01 0.615D-01-0.937D-01
 Coeff:     -0.352D+00 0.874D-01 0.128D+01
 Gap=     0.339 Goal=   None    Shift=    0.000
 Gap=     0.307 Goal=   None    Shift=    0.000
 RMSDP=9.79D-09 MaxDP=4.55D-07 DE=-1.44D-11 OVMax= 2.38D-06

 SCF Done:  E(UwB97XD) =  -286.301821752     A.U. after    9 cycles
            NFock=  9  Conv=0.98D-08     -V/T= 2.0047
 <Sx>= 0.0000 <Sy>= 0.0000 <Sz>= 1.0000 <S**2>= 2.0723 S= 1.0239
 <L.S>= 0.000000000000E+00
 KE= 2.849758567952D+02 PE=-1.169373924641D+03 EE= 3.459389252795D+02
 Annihilation of the first spin contaminant:
 S**2 before annihilation     2.0723,   after     2.0024
 Leave Link  502 at Mon Mar  2 00:31:48 2020, MaxMem=  1879048192 cpu:            4172.2 elap:             139.1
 (Enter /opt/g16/l508.exe)
 QCSCF skips out because SCF is already converged.
 Leave Link  508 at Mon Mar  2 00:31:49 2020, MaxMem=  1879048192 cpu:               1.7 elap:               0.1
 (Enter /opt/g16/l701.exe)
 ... and contract with generalized density number  0.
 Compute integral first derivatives.
 R6Disp: Adding Grimme-D2 dispersion energy 1st derivatives to the gradient.
   2 Symmetry operations used in ECPInt.
 ECPInt:  NShTT=    4753 NPrTT=   14704 LenC2=    4702 LenP2D=   12041.
 LDataN:  DoStor=T MaxTD1= 7 Len=  274
 Leave Link  701 at Mon Mar  2 00:31:50 2020, MaxMem=  1879048192 cpu:              52.3 elap:               1.5
 (Enter /opt/g16/l702.exe)
 L702 exits ... SP integral derivatives will be done elsewhere.
 Leave Link  702 at Mon Mar  2 00:31:50 2020, MaxMem=  1879048192 cpu:               3.3 elap:               0.1
 (Enter /opt/g16/l703.exe)
 Integral derivatives from FoFJK, PRISM(SPDF).
 Compute integral first derivatives, UseDBF=F ICtDFT=           0.
 Calling FoFJK, ICntrl=      2127 FMM=F ISym2X=1 I1Cent= 0 IOpClX= 1 NMat=1 NMatS=1 NMatT=0.
 FoFJK:  IHMeth= 1 ICntrl=    2127 DoSepK=T KAlg= 0 I1Cent=           0 FoldK=F
 IRaf=         1 NMat=       1 IRICut=       1 DoRegI=T DoRafI=F ISym2E= 1 IDoP0=0 IntGTp=1.
[...]
 Alpha virt. eigenvalues --    2.74916   2.75059   2.78970   2.81492   2.81533
 Alpha virt. eigenvalues --    2.82847   2.86715   2.88455   2.90925   2.91004
 Alpha virt. eigenvalues --    2.93325   2.96077   2.96493   2.96608   3.04362
 Alpha virt. eigenvalues --    3.10555   3.13430   3.15779   3.16936   3.18931
 Alpha virt. eigenvalues --    3.19254   3.20639   3.21293   3.22522   3.25783
 Alpha virt. eigenvalues --    3.27823   3.28037   3.31080   3.31448   3.36303
 Alpha virt. eigenvalues --    3.40378   3.41727   3.42654   3.44927   3.46065
 Alpha virt. eigenvalues --    3.51574   3.52675   3.52904   3.54458   3.55826
 Alpha virt. eigenvalues --    3.56051   3.62066   3.65203   3.74277   3.75862
 Alpha virt. eigenvalues --    3.76383   3.76455   3.84293   3.87249   3.91600
 Alpha virt. eigenvalues --    3.99157   3.99563   4.04144   4.06442   4.08071
 Alpha virt. eigenvalues --    4.08707   4.11497   4.11718   4.21518   4.21714
 Alpha virt. eigenvalues --    4.26351   4.28002   4.28136   4.28655   4.31094
 Alpha virt. eigenvalues --    4.37804   4.44017   4.48701   4.64344   4.64534
 Alpha virt. eigenvalues --    4.67497   4.70251   4.70916   4.79780   4.83861
 Alpha virt. eigenvalues --    4.88530   4.90727   4.91129   4.94727   4.95384
 Alpha virt. eigenvalues --    5.16846   5.31534   5.31821   5.32008   5.37094
 Alpha virt. eigenvalues --    5.39100   5.61635   5.62964   5.66312   5.99229
 Alpha virt. eigenvalues --   22.17181  22.66819  22.69080  22.79126  22.95037
 Alpha virt. eigenvalues --   23.33976  32.05886
  Beta  occ. eigenvalues --  -14.44448 -10.33406 -10.30972 -10.30970 -10.30879
  Beta  occ. eigenvalues --  -10.30844 -10.30802  -0.99788  -0.92891  -0.86835
  Beta  occ. eigenvalues --   -0.79588  -0.71710  -0.67945  -0.60870  -0.56170
  Beta  occ. eigenvalues --   -0.54867  -0.52924  -0.48484  -0.47728  -0.44571
  Beta  occ. eigenvalues --   -0.42114  -0.37946  -0.35173
  Beta virt. eigenvalues --   -0.04471  -0.00585   0.04939   0.09809   0.11957
  Beta virt. eigenvalues --    0.14778   0.15794   0.17552   0.18938   0.19552
  Beta virt. eigenvalues --    0.21750   0.24685   0.27270   0.27336   0.27677
  Beta virt. eigenvalues --    0.29361   0.30400   0.31443   0.32339   0.33806
  Beta virt. eigenvalues --    0.34847   0.39983   0.40226   0.40431   0.41996
  Beta virt. eigenvalues --    0.43287   0.43483   0.44621   0.47324   0.47682
  Beta virt. eigenvalues --    0.48332   0.48696   0.49325   0.50815   0.51755
  Beta virt. eigenvalues --    0.53655   0.54800   0.55521   0.56718   0.58207
  Beta virt. eigenvalues --    0.60153   0.61959   0.66691   0.69835   0.70520
  Beta virt. eigenvalues --    0.72473   0.72994   0.74652   0.77320   0.80454
  Beta virt. eigenvalues --    0.81062   0.82702   0.84218   0.88287   0.89600
  Beta virt. eigenvalues --    0.93808   0.94092   0.94208   0.95552   1.07010
  Beta virt. eigenvalues --    1.07475   1.09532   1.11249   1.11358   1.14014
  Beta virt. eigenvalues --    1.19296   1.21639   1.25744   1.25879   1.27411
  Beta virt. eigenvalues --    1.27957   1.29579   1.33518   1.34757   1.37667
  Beta virt. eigenvalues --    1.39190   1.39726   1.44573   1.46651   1.47437
  Beta virt. eigenvalues --    1.52886   1.53764   1.57057   1.57494   1.58916
  Beta virt. eigenvalues --    1.62605   1.63678   1.66159   1.69473   1.70129
  Beta virt. eigenvalues --    1.74104   1.74128   1.77245   1.79506   1.80679
  Beta virt. eigenvalues --    1.83407   1.84323   1.89074   1.92192   1.98138
  Beta virt. eigenvalues --    2.01838   2.03785   2.05447   2.10823   2.14564
  Beta virt. eigenvalues --    2.14698   2.20247   2.20783   2.24712   2.26950
  Beta virt. eigenvalues --    2.31195   2.33767   2.33810   2.40755   2.40802
  Beta virt. eigenvalues --    2.53374   2.54077   2.54954   2.59632   2.60383
  Beta virt. eigenvalues --    2.65355   2.65738   2.66447   2.72667   2.73648
  Beta virt. eigenvalues --    2.74493   2.74785   2.75386   2.75658   2.80272
  Beta virt. eigenvalues --    2.81950   2.81984   2.83152   2.87481   2.88887
  Beta virt. eigenvalues --    2.91193   2.91805   2.93720   2.96296   2.97141
  Beta virt. eigenvalues --    2.98148   3.05062   3.11251   3.13744   3.16178
  Beta virt. eigenvalues --    3.17441   3.19580   3.19664   3.21036   3.21882
  Beta virt. eigenvalues --    3.22958   3.26320   3.28336   3.28347   3.31668
  Beta virt. eigenvalues --    3.31866   3.37509   3.41170   3.42240   3.43118
  Beta virt. eigenvalues --    3.45309   3.46599   3.52000   3.53348   3.53457
  Beta virt. eigenvalues --    3.55090   3.56783   3.56928   3.62531   3.65382
  Beta virt. eigenvalues --    3.74727   3.77232   3.77234   3.78295   3.85581
  Beta virt. eigenvalues --    3.88861   3.99814   4.00159   4.03476   4.07237
  Beta virt. eigenvalues --    4.07451   4.10229   4.10609   4.12780   4.13650
  Beta virt. eigenvalues --    4.22451   4.23927   4.27325   4.28832   4.28882
  Beta virt. eigenvalues --    4.30193   4.31621   4.38938   4.47362   4.52618
  Beta virt. eigenvalues --    4.68095   4.68838   4.70835   4.73616   4.75695
  Beta virt. eigenvalues --    4.82072   4.84684   4.92956   4.94190   4.96033
  Beta virt. eigenvalues --    4.96977   4.97601   5.18245   5.32622   5.33681
  Beta virt. eigenvalues --    5.34757   5.38136   5.41796   5.63327   5.64729
  Beta virt. eigenvalues --    5.68891   6.01653  22.17419  22.66881  22.69693
  Beta virt. eigenvalues --   22.79501  22.94877  23.33862  32.09887
          Condensed to atoms (all electrons):
               1          2          3          4          5          6
     1  N    6.808776   0.461706  -0.064845   0.003529   0.012489  -0.002878
     2  C    0.461706   4.883124   0.253387  -0.062211   0.076876  -0.087228
     3  C   -0.064845   0.253387   5.171809   0.446657   0.357929   0.039748
     4  H    0.003529  -0.062211   0.446657   0.514697  -0.056491   0.011488
     5  C    0.012489   0.076876   0.357929  -0.056491   4.988998   0.400859
     6  C   -0.002878  -0.087228   0.039748   0.011488   0.400859   4.950346
     7  C    0.012488   0.076881  -0.113551  -0.005489   0.047024   0.400866
     8  C   -0.064843   0.253400   0.125339   0.016259  -0.113549   0.039741
     9  H   -0.000237   0.007352  -0.043205  -0.006489   0.432949  -0.049724
    10  H    0.000007  -0.002958   0.009600  -0.000053  -0.051419   0.439944
    11  H   -0.000237   0.007352  -0.002211   0.000048   0.008354  -0.049722
    12  H    0.003529  -0.062212   0.016260   0.000078  -0.005489   0.011489
               7          8          9         10         11         12
     1  N    0.012488  -0.064843  -0.000237   0.000007  -0.000237   0.003529
     2  C    0.076881   0.253400   0.007352  -0.002958   0.007352  -0.062212
     3  C   -0.113551   0.125339  -0.043205   0.009600  -0.002211   0.016260
     4  H   -0.005489   0.016259  -0.006489  -0.000053   0.000048   0.000078
     5  C    0.047024  -0.113549   0.432949  -0.051419   0.008354  -0.005489
     6  C    0.400866   0.039741  -0.049724   0.439944  -0.049722   0.011489
     7  C    4.988998   0.357922   0.008354  -0.051418   0.432951  -0.056492
     8  C    0.357922   5.171802  -0.002210   0.009600  -0.043207   0.446656
     9  H    0.008354  -0.002210   0.528584  -0.006105  -0.000142   0.000048
    10  H   -0.051418   0.009600  -0.006105   0.525790  -0.006105  -0.000053
    11  H    0.432951  -0.043207  -0.000142  -0.006105   0.528581  -0.006489
    12  H   -0.056492   0.446656   0.000048  -0.000053  -0.006489   0.514700
          Atomic-Atomic Spin Densities.
               1          2          3          4          5          6
     1  N    1.715330  -0.076544  -0.032799   0.004766   0.003580   0.001624
     2  C   -0.076544  -0.224018   0.045957   0.002588  -0.009288   0.004952
     3  C   -0.032799   0.045957   0.346312  -0.009166  -0.008169  -0.031038
     4  H    0.004766   0.002588  -0.009166  -0.012202   0.005842  -0.000533
     5  C    0.003580  -0.009288  -0.008169   0.005842  -0.146300   0.015832
     6  C    0.001624   0.004952  -0.031038  -0.000533   0.015832   0.314000
     7  C    0.003578  -0.009290   0.017839   0.000133  -0.006471   0.015835
     8  C   -0.032796   0.045961  -0.024821  -0.000774   0.017840  -0.031041
     9  H   -0.000123   0.000548   0.003062  -0.000579  -0.002360  -0.001724
    10  H    0.000003   0.000152  -0.000580   0.000003   0.001949  -0.002161
    11  H   -0.000123   0.000549  -0.000516   0.000011   0.000257  -0.001724
    12  H    0.004766   0.002588  -0.000774  -0.000094   0.000133  -0.000533
               7          8          9         10         11         12
     1  N    0.003578  -0.032796  -0.000123   0.000003  -0.000123   0.004766
     2  C   -0.009290   0.045961   0.000548   0.000152   0.000549   0.002588
     3  C    0.017839  -0.024821   0.003062  -0.000580  -0.000516  -0.000774
     4  H    0.000133  -0.000774  -0.000579   0.000003   0.000011  -0.000094
     5  C   -0.006471   0.017840  -0.002360   0.001949   0.000257   0.000133
     6  C    0.015835  -0.031041  -0.001724  -0.002161  -0.001724  -0.000533
     7  C   -0.146311  -0.008159   0.000257   0.001949  -0.002359   0.005842
     8  C   -0.008159   0.346316  -0.000516  -0.000580   0.003061  -0.009167
     9  H    0.000257  -0.000516   0.009751   0.000117  -0.000038   0.000011
    10  H    0.001949  -0.000580   0.000117  -0.012992   0.000117   0.000003
    11  H   -0.002359   0.003061  -0.000038   0.000117   0.009751  -0.000580
    12  H    0.005842  -0.009167   0.000011   0.000003  -0.000580  -0.012203
 Mulliken charges and spin densities:
               1          2
     1  N   -0.169484   1.591262
     2  C    0.194530  -0.215846
     3  C   -0.196918   0.305307
     4  H    0.137978  -0.010006
     5  C   -0.098530  -0.127156
     6  C   -0.104929   0.283487
     7  C   -0.098536  -0.127157
     8  C   -0.196911   0.305324
     9  H    0.130826   0.008406
    10  H    0.133171  -0.012020
    11  H    0.130827   0.008405
    12  H    0.137977  -0.010007
 Sum of Mulliken charges =  -0.00000   2.00000
 Mulliken charges and spin densities with hydrogens summed into heavy atoms:
               1          2
     1  N   -0.169484   1.591262
     2  C    0.194530  -0.215846
     3  C   -0.058940   0.295301
     5  C    0.032296  -0.118751
     6  C    0.028242   0.271468
     7  C    0.032291  -0.118751
     8  C   -0.058934   0.295318
 Electronic spatial extent (au):  <R**2>=            617.7213
 Charge=             -0.0000 electrons
 Dipole moment (field-independent basis, Debye):
    X=             -0.0000    Y=              3.0472    Z=              0.0000  Tot=              3.0472
 Quadrupole moment (field-independent basis, Debye-Ang):
   XX=            -34.3173   YY=            -44.8395   ZZ=            -43.4924
   XY=              0.0001   XZ=             -0.0000   YZ=              0.0000
 Traceless Quadrupole moment (field-independent basis, Debye-Ang):
   XX=              6.5658   YY=             -3.9564   ZZ=             -2.6094
   XY=              0.0001   XZ=             -0.0000   YZ=              0.0000
 Octapole moment (field-independent basis, Debye-Ang**2):
  XXX=             -0.0003  YYY=             35.9668  ZZZ=              0.0000  XYY=              0.0001
  XXY=              0.5841  XXZ=              0.0000  XZZ=              0.0000  YZZ=             -1.9753
  YYZ=              0.0000  XYZ=              0.0000
 Hexadecapole moment (field-independent basis, Debye-Ang**3):
 XXXX=           -265.0639 YYYY=           -556.0246 ZZZZ=            -48.8852 XXXY=              0.0004
 XXXZ=             -0.0000 YYYX=              0.0027 YYYZ=              0.0000 ZZZX=             -0.0000
 ZZZY=             -0.0000 XXYY=           -120.8221 XXZZ=            -64.0619 YYZZ=            -97.3591
 XXYZ=              0.0000 YYXZ=             -0.0000 ZZXY=              0.0004
 N-N= 2.521555066107D+02 E-N=-1.169370046331D+03  KE= 2.849756985194D+02
 Symmetry A'   KE= 2.767879137349D+02
 Symmetry A"   KE= 8.187784784506D+00
 Symmetry A'   SP= 1.000000000000D+00
 Symmetry A"   SP= 1.000000000000D+00
                          Isotropic Fermi Contact Couplings
        Atom                 a.u.       MegaHertz       Gauss      10(-4) cm-1
     1  N(14)              0.11427      18.46076       6.58726       6.15785
     2  C(13)             -0.07611     -42.78368     -15.26628     -14.27110
     3  C(13)              0.09132      51.32807      18.31513      17.12120
     4  H(1)              -0.00502     -11.21502      -4.00180      -3.74093
     5  C(13)             -0.01379      -7.75334      -2.76659      -2.58624
     6  C(13)              0.02077      11.67694       4.16662       3.89501
     7  C(13)             -0.01379      -7.75410      -2.76686      -2.58649
     8  C(13)              0.09131      51.32737      18.31488      17.12097
     9  H(1)               0.00312       6.96990       2.48703       2.32491
    10  H(1)              -0.00465     -10.39236      -3.70825      -3.46652
    11  H(1)               0.00312       6.96967       2.48695       2.32483
    12  H(1)              -0.00502     -11.21567      -4.00203      -3.74115
 --------------------------------------------------------
       Center         ----  Spin Dipole Couplings  ----
                      3XX-RR        3YY-RR        3ZZ-RR
 --------------------------------------------------------
     1   Atom        1.456921     -1.901367      0.444445
     2   Atom        0.076690      0.189234     -0.265924
     3   Atom       -0.143408     -0.136084      0.279492
     4   Atom        0.026969     -0.010797     -0.016172
     5   Atom        0.067671      0.100368     -0.168039
     6   Atom       -0.185530     -0.163252      0.348781
     7   Atom        0.067673      0.100367     -0.168040
     8   Atom       -0.143421     -0.136098      0.279519
     9   Atom       -0.001274      0.008681     -0.007407
    10   Atom       -0.025234      0.026421     -0.001187
    11   Atom       -0.001275      0.008682     -0.007407
    12   Atom        0.026969     -0.010797     -0.016172
 --------------------------------------------------------
                        XY            XZ            YZ
 --------------------------------------------------------
     1   Atom        0.000052     -0.000000      0.000000
     2   Atom       -0.000003      0.000000     -0.000000
     3   Atom        0.059903      0.000000      0.000000
     4   Atom       -0.003452      0.000000     -0.000000
     5   Atom       -0.000266     -0.000000     -0.000000
     6   Atom       -0.000000      0.000000      0.000000
     7   Atom        0.000266     -0.000000     -0.000000
     8   Atom       -0.059900      0.000000     -0.000000
     9   Atom       -0.003267      0.000000      0.000000
    10   Atom        0.000001      0.000000     -0.000000
    11   Atom        0.003266     -0.000000      0.000000
    12   Atom        0.003454     -0.000000     -0.000000
 --------------------------------------------------------


 ---------------------------------------------------------------------------------
              Anisotropic Spin Dipole Couplings in Principal Axis System
 ---------------------------------------------------------------------------------

       Atom             a.u.   MegaHertz   Gauss  10(-4) cm-1        Axes

              Baa    -1.9014   -73.331   -26.166   -24.461 -0.0000  1.0000 -0.0000
     1 N(14)  Bbb     0.4444    17.141     6.116     5.718  0.0000  0.0000  1.0000
              Bcc     1.4569    56.190    20.050    18.743  1.0000  0.0000  0.0000
 
              Baa    -0.2659   -35.684   -12.733   -11.903  0.0000  0.0000  1.0000
     2 C(13)  Bbb     0.0767    10.291     3.672     3.433  1.0000  0.0000  0.0000
              Bcc     0.1892    25.393     9.061     8.470 -0.0000  1.0000 -0.0000
 
              Baa    -0.1998   -26.806    -9.565    -8.942  0.7284 -0.6852  0.0000
     3 C(13)  Bbb    -0.0797   -10.699    -3.818    -3.569  0.6852  0.7284 -0.0000
              Bcc     0.2795    37.505    13.383    12.510  0.0000  0.0000  1.0000
 
              Baa    -0.0162    -8.629    -3.079    -2.878  0.0000  0.0000  1.0000
     4 H(1)   Bbb    -0.0111    -5.928    -2.115    -1.977  0.0903  0.9959 -0.0000
              Bcc     0.0273    14.557     5.194     4.856  0.9959 -0.0903  0.0000
 
              Baa    -0.1680   -22.549    -8.046    -7.522  0.0000  0.0000  1.0000
     5 C(13)  Bbb     0.0677     9.081     3.240     3.029  1.0000  0.0081 -0.0000
              Bcc     0.1004    13.469     4.806     4.493 -0.0081  1.0000 -0.0000
 
              Baa    -0.1855   -24.896    -8.884    -8.305  1.0000  0.0000 -0.0000
     6 C(13)  Bbb    -0.1633   -21.907    -7.817    -7.307 -0.0000  1.0000 -0.0000
              Bcc     0.3488    46.803    16.701    15.612  0.0000  0.0000  1.0000
 
              Baa    -0.1680   -22.549    -8.046    -7.522  0.0000  0.0000  1.0000
     7 C(13)  Bbb     0.0677     9.081     3.240     3.029  1.0000 -0.0081 -0.0000
              Bcc     0.1004    13.469     4.806     4.493  0.0081  1.0000 -0.0000
 
              Baa    -0.1998   -26.807    -9.566    -8.942  0.7284  0.6852 -0.0000
     8 C(13)  Bbb    -0.0797   -10.701    -3.819    -3.570 -0.6852  0.7284  0.0000
              Bcc     0.2795    37.509    13.384    12.512  0.0000 -0.0000  1.0000
 
              Baa    -0.0074    -3.952    -1.410    -1.318 -0.0000 -0.0000  1.0000
     9 H(1)   Bbb    -0.0022    -1.200    -0.428    -0.400  0.9581  0.2864  0.0000
              Bcc     0.0097     5.153     1.839     1.719 -0.2864  0.9581  0.0000
 
              Baa    -0.0252   -13.464    -4.804    -4.491  1.0000 -0.0000 -0.0000
    10 H(1)   Bbb    -0.0012    -0.633    -0.226    -0.211  0.0000  0.0000  1.0000
              Bcc     0.0264    14.097     5.030     4.702  0.0000  1.0000 -0.0000
 
              Baa    -0.0074    -3.952    -1.410    -1.318  0.0000  0.0000  1.0000
    11 H(1)   Bbb    -0.0023    -1.201    -0.428    -0.401  0.9581 -0.2863  0.0000
              Bcc     0.0097     5.153     1.839     1.719  0.2863  0.9581 -0.0000
 
              Baa    -0.0162    -8.629    -3.079    -2.878  0.0000  0.0000  1.0000
    12 H(1)   Bbb    -0.0111    -5.928    -2.115    -1.977 -0.0903  0.9959 -0.0000
              Bcc     0.0273    14.557     5.194     4.856  0.9959  0.0903 -0.0000
 

 ---------------------------------------------------------------------------------

 No NMR shielding tensors so no spin-rotation constants.
 Leave Link  601 at Mon Mar  2 00:36:57 2020, MaxMem=  1879048192 cpu:             292.0 elap:               9.3
 (Enter /opt/g16/l9999.exe)

 Test job not archived.
 1\1\GINC-NODE05\FOpt\UwB97XD\def2TZVP\C6H5N1(3)\ALONGD\02-Mar-2020\0\\
 #P opt=(tight) guess=read uwb97xd/def2tzvp scf=(tight, direct) integra
 l=(grid=ultrafine, Acc2E=12) scf=xqc iop(2/9=2000)\\name\\0,3\N,2.2905
 007165,0.4170762125,0.1636865532\C,0.9967750971,0.1785650057,0.0712387
 38\C,0.0621225809,1.2525156639,0.0019254994\H,0.4368830494,2.266973758
 ,0.0267905322\C,-1.283359781,0.9877605443,-0.0941869503\C,-1.747385080
 9,-0.3273303223,-0.1248551295\C,-0.8474365934,-1.3909648712,-0.0580556
 462\C,0.5039784327,-1.1585247817,0.0385484122\H,-1.9881491569,1.807840
 4039,-0.1464744463\H,-2.8089445997,-0.5230006823,-0.2007127598\H,-1.21
 53513249,-2.4088236279,-0.082422048\H,1.2139265952,-1.973014301,0.0911
 95151\\Version=ES64L-G16RevB.01\State=3-A"\HF=-286.3018218\S2=2.07233\
 S2-1=0.\S2A=2.002436\RMSD=8.196e-09\RMSF=3.752e-06\Dipole=-1.1760973,-
 0.2168243,-0.0840423\Quadrupole=-2.6821806,4.6255726,-1.943392,-1.3869
 753,-0.0505035,-0.1129277\PG=CS [SG(C6H5N1)]\\@


 A COMPUTER IS LIKE A HORSE, IT WILL SENSE WEAKNESS.
     -- GREG WETTSTEIN
 Job cpu time:       0 days  4 hours 43 minutes 19.1 seconds.
 Elapsed time:       0 days  0 hours  9 minutes 11.8 seconds.
 File lengths (MBytes):  RWF=     45 Int=      0 D2E=      0 Chk=      7 Scr=      1
 Normal termination of Gaussian 16 at Mon Mar  2 00:36:57 2020.
