 Entering Gaussian System, Link 0=g09
 Initial command:
 /usr/local/g09/l1.exe "/gtmp/calvin.p/scratch/g09/3780043.zeus-master/Gau-1393638.inp" -scrdir="/gtmp/calvin.p/scratch/g09/3780043.zeus-master/"
 Entering Link 1 = /usr/local/g09/l1.exe PID=   1393646.
  
 Copyright (c) 1988,1990,1992,1993,1995,1998,2003,2009,2013,
            Gaussian, Inc.  All Rights Reserved.
  
 This is part of the Gaussian(R) 09 program.  It is based on
 the Gaussian(R) 03 system (copyright 2003, Gaussian, Inc.),
 the Gaussian(R) 98 system (copyright 1998, Gaussian, Inc.),
 the Gaussian(R) 94 system (copyright 1995, Gaussian, Inc.),
 the Gaussian 92(TM) system (copyright 1992, Gaussian, Inc.),
 the Gaussian 90(TM) system (copyright 1990, Gaussian, Inc.),
 the Gaussian 88(TM) system (copyright 1988, Gaussian, Inc.),
 the Gaussian 86(TM) system (copyright 1986, Carnegie Mellon
 University), and the Gaussian 82(TM) system (copyright 1983,
 Carnegie Mellon University). Gaussian is a federally registered
 trademark of Gaussian, Inc.
  
 This software contains proprietary and confidential information,
 including trade secrets, belonging to Gaussian, Inc.
  
 This software is provided under written license and may be
 used, copied, transmitted, or stored only in accord with that
 written license.
  
 The following legend is applicable only to US Government
 contracts under FAR:
  
                    RESTRICTED RIGHTS LEGEND
  
 Use, reproduction and disclosure by the US Government is
 subject to restrictions as set forth in subparagraphs (a)
 and (c) of the Commercial Computer Software - Restricted
 Rights clause in FAR 52.227-19.
  
 Gaussian, Inc.
 340 Quinnipiac St., Bldg. 40, Wallingford CT 06492
  
  
 ---------------------------------------------------------------
 Warning -- This program may not be used in any manner that
 competes with the business of Gaussian, Inc. or will provide
 assistance to any competitor of Gaussian, Inc.  The licensee
 of this program is prohibited from giving any competitor of
 Gaussian, Inc. access to this program.  By using this program,
 the user acknowledges that Gaussian, Inc. is engaged in the
 business of creating and licensing software in the field of
 computational chemistry and represents and warrants to the
 licensee that it is not a competitor of Gaussian, Inc. and that
 it will not use this program in any manner prohibited above.
 ---------------------------------------------------------------
  

 Cite this work as:
 Gaussian 09, Revision D.01,
 M. J. Frisch, G. W. Trucks, H. B. Schlegel, G. E. Scuseria, 
 M. A. Robb, J. R. Cheeseman, G. Scalmani, V. Barone, B. Mennucci, 
 G. A. Petersson, H. Nakatsuji, M. Caricato, X. Li, H. P. Hratchian, 
 A. F. Izmaylov, J. Bloino, G. Zheng, J. L. Sonnenberg, M. Hada, 
 M. Ehara, K. Toyota, R. Fukuda, J. Hasegawa, M. Ishida, T. Nakajima, 
 Y. Honda, O. Kitao, H. Nakai, T. Vreven, J. A. Montgomery, Jr., 
 J. E. Peralta, F. Ogliaro, M. Bearpark, J. J. Heyd, E. Brothers, 
 K. N. Kudin, V. N. Staroverov, T. Keith, R. Kobayashi, J. Normand, 
 K. Raghavachari, A. Rendell, J. C. Burant, S. S. Iyengar, J. Tomasi, 
 M. Cossi, N. Rega, J. M. Millam, M. Klene, J. E. Knox, J. B. Cross, 
 V. Bakken, C. Adamo, J. Jaramillo, R. Gomperts, R. E. Stratmann, 
 O. Yazyev, A. J. Austin, R. Cammi, C. Pomelli, J. W. Ochterski, 
 R. L. Martin, K. Morokuma, V. G. Zakrzewski, G. A. Voth, 
 P. Salvador, J. J. Dannenberg, S. Dapprich, A. D. Daniels, 
 O. Farkas, J. B. Foresman, J. V. Ortiz, J. Cioslowski, 
 and D. J. Fox, Gaussian, Inc., Wallingford CT, 2013.
 
 ******************************************
 Gaussian 09:  EM64L-G09RevD.01 24-Apr-2013
                26-Nov-2025 
 ******************************************
 %chk=check.chk
 %mem=32768mb
 %NProcShared=8
 Will use up to    8 processors via shared memory.
 ----------------------------------------------------------------------
 #P guess=read uwb97xd/def2tzvp freq IOp(7/33=1) integral=(grid=ultrafi
 ne, Acc2E=12) IOp(2/9=2000) scf=(direct,tight)
 ----------------------------------------------------------------------
 1/10=4,30=1,38=1/1,3;
 2/9=2000,12=2,17=6,18=5,40=1/2;
 3/5=44,7=101,11=2,16=1,25=1,30=1,71=2,74=-58,75=-5,116=2,140=1/1,2,3;
 4/5=1/1;
 5/5=2,32=2,38=6,87=12,98=1/2;
 8/6=4,10=90,11=11,87=12/1;
 11/6=1,8=1,9=11,15=111,16=1,87=12/1,2,10;
 10/6=1,87=12/2;
 6/7=2,8=2,9=2,10=2,18=1,28=1/1;
 7/8=1,10=1,25=1,33=1,87=12/1,2,3,16;
 1/10=4,30=1/3;
 99//99;
 Leave Link    1 at Wed Nov 26 19:35:21 2025, MaxMem=  4294967296 cpu:         0.3
 (Enter /usr/local/g09/l101.exe)
 -----
 TSOpt
 -----
 Symbolic Z-matrix:
 Charge =  0 Multiplicity = 2
 N                    -1.76137  -0.43616  -1.05594 
 C                    -2.35917   0.16345   0.05309 
 O                    -3.02162   1.17353  -0.07044 
 N                    -2.19064  -0.49852   1.22495 
 H                    -1.57578   0.27665  -1.75553 
 H                    -2.73351  -0.19117   2.0105 
 H                    -1.77339  -1.41124   1.24758 
 N                     0.34078  -1.50548  -0.42831 
 C                     1.14966  -0.58792  -0.19749 
 O                     2.41751  -0.76811   0.26729 
 N                     2.9834    0.48075   0.39341 
 N                     2.18903   1.34292   0.05443 
 O                     0.99996   0.76117  -0.33806 
 H                    -0.75558  -1.14472  -0.82621 
 
 NAtoms=     14 NQM=       14 NQMF=       0 NMMI=      0 NMMIF=      0
                NMic=       0 NMicF=      0.
                    Isotopes and Nuclear Properties:
 (Nuclear quadrupole moments (NQMom) in fm**2, nuclear magnetic moments (NMagM)
  in nuclear magnetons)

  Atom         1           2           3           4           5           6           7           8           9          10
 IAtWgt=          14          12          16          14           1           1           1          14          12          16
 AtmWgt=  14.0030740  12.0000000  15.9949146  14.0030740   1.0078250   1.0078250   1.0078250  14.0030740  12.0000000  15.9949146
 NucSpn=           2           0           0           2           1           1           1           2           0           0
 AtZEff=   0.0000000   0.0000000   0.0000000   0.0000000   0.0000000   0.0000000   0.0000000   0.0000000   0.0000000   0.0000000
 NQMom=    2.0440000   0.0000000   0.0000000   2.0440000   0.0000000   0.0000000   0.0000000   2.0440000   0.0000000   0.0000000
 NMagM=    0.4037610   0.0000000   0.0000000   0.4037610   2.7928460   2.7928460   2.7928460   0.4037610   0.0000000   0.0000000
 AtZNuc=   7.0000000   6.0000000   8.0000000   7.0000000   1.0000000   1.0000000   1.0000000   7.0000000   6.0000000   8.0000000

  Atom        11          12          13          14
 IAtWgt=          14          14          16           1
 AtmWgt=  14.0030740  14.0030740  15.9949146   1.0078250
 NucSpn=           2           2           0           1
 AtZEff=   0.0000000   0.0000000   0.0000000   0.0000000
 NQMom=    2.0440000   2.0440000   0.0000000   0.0000000
 NMagM=    0.4037610   0.4037610   0.0000000   2.7928460
 AtZNuc=   7.0000000   7.0000000   8.0000000   1.0000000
 Leave Link  101 at Wed Nov 26 19:35:21 2025, MaxMem=  4294967296 cpu:         0.2
 (Enter /usr/local/g09/l103.exe)

 GradGradGradGradGradGradGradGradGradGradGradGradGradGradGradGradGradGrad
 Berny optimization.
 Initialization pass.
 Trust Radius=3.00D-01 FncErr=1.00D-07 GrdErr=1.00D-07
 Number of steps in this run=      2 maximum allowed number of steps=      2.
 GradGradGradGradGradGradGradGradGradGradGradGradGradGradGradGradGradGrad

 Leave Link  103 at Wed Nov 26 19:35:21 2025, MaxMem=  4294967296 cpu:         0.1
 (Enter /usr/local/g09/l202.exe)
                          Input orientation:                          
 ---------------------------------------------------------------------
 Center     Atomic      Atomic             Coordinates (Angstroms)
 Number     Number       Type             X           Y           Z
 ---------------------------------------------------------------------
      1          7           0       -1.761367   -0.436163   -1.055940
      2          6           0       -2.359166    0.163448    0.053085
      3          8           0       -3.021615    1.173532   -0.070442
      4          7           0       -2.190635   -0.498522    1.224954
      5          1           0       -1.575777    0.276647   -1.755533
      6          1           0       -2.733511   -0.191174    2.010499
      7          1           0       -1.773389   -1.411235    1.247583
      8          7           0        0.340783   -1.505477   -0.428309
      9          6           0        1.149656   -0.587923   -0.197492
     10          8           0        2.417513   -0.768108    0.267288
     11          7           0        2.983395    0.480750    0.393412
     12          7           0        2.189028    1.342917    0.054426
     13          8           0        0.999964    0.761174   -0.338058
     14          1           0       -0.755582   -1.144718   -0.826213
 ---------------------------------------------------------------------
                    Distance matrix (angstroms):
                    1          2          3          4          5
     1  N    0.000000
     2  C    1.395290   0.000000
     3  O    2.269482   1.214235   0.000000
     4  N    2.321775   1.356423   2.272519   0.000000
     5  H    1.015860   1.974237   2.394657   3.140420   0.000000
     6  H    3.226164   2.024194   2.505143   1.003124   3.967644
     7  H    2.501425   2.061453   3.158525   1.003818   3.450609
     8  N    2.440571   3.210417   4.314033   3.186740   2.934398
     9  C    3.038753   3.597107   4.529720   3.631651   3.256218
    10  O    4.395925   4.871380   5.785166   4.714322   4.596703
    11  N    5.045207   5.362785   6.062611   5.331137   5.044370
    12  N    4.472545   4.698640   5.214891   4.893105   4.311223
    13  O    3.094175   3.434243   4.051513   3.769584   2.979672
    14  H    1.251570   2.248543   3.328720   2.585388   1.885904
                    6          7          8          9         10
     6  H    0.000000
     7  H    1.729862   0.000000
     8  N    4.138413   2.699485   0.000000
     9  C    4.484598   3.363075   1.244772   0.000000
    10  O    5.468518   4.351810   2.310925   1.362332   0.000000
    11  N    5.979086   5.190011   3.406424   2.203141   1.376872
    12  N    5.514621   4.970888   3.429634   2.207238   2.133997
    13  O    4.512374   3.863302   2.362281   1.364635   2.171311
    14  H    3.587253   2.325423   1.220857   2.082125   3.377294
                   11         12         13         14
    11  N    0.000000
    12  N    1.220353   0.000000
    13  O    2.132530   1.380703   0.000000
    14  H    4.255535   3.954059   2.636790   0.000000
 Stoichiometry    C2H4N5O3(2)
 Framework group  C1[X(C2H4N5O3)]
 Deg. of freedom    36
 Full point group                 C1      NOp   1
 Largest Abelian subgroup         C1      NOp   1
 Largest concise Abelian subgroup C1      NOp   1
                         Standard orientation:                         
 ---------------------------------------------------------------------
 Center     Atomic      Atomic             Coordinates (Angstroms)
 Number     Number       Type             X           Y           Z
 ---------------------------------------------------------------------
      1          7           0        1.761367    0.436163   -1.055940
      2          6           0        2.359166   -0.163448    0.053085
      3          8           0        3.021615   -1.173532   -0.070442
      4          7           0        2.190635    0.498522    1.224954
      5          1           0        1.575777   -0.276647   -1.755533
      6          1           0        2.733511    0.191174    2.010499
      7          1           0        1.773389    1.411235    1.247583
      8          7           0       -0.340783    1.505477   -0.428309
      9          6           0       -1.149656    0.587923   -0.197492
     10          8           0       -2.417513    0.768108    0.267288
     11          7           0       -2.983395   -0.480750    0.393412
     12          7           0       -2.189028   -1.342917    0.054426
     13          8           0       -0.999964   -0.761174   -0.338058
     14          1           0        0.755582    1.144718   -0.826213
 ---------------------------------------------------------------------
 Rotational constants (GHZ):      2.9849811      0.7118126      0.6557586
 Leave Link  202 at Wed Nov 26 19:35:21 2025, MaxMem=  4294967296 cpu:         0.0
 (Enter /usr/local/g09/l301.exe)
 Standard basis: def2TZVP (5D, 7F)
 Ernie: Thresh=  0.10000D-02 Tol=  0.10000D-05 Strict=F.
 There are   384 symmetry adapted cartesian basis functions of A   symmetry.
 There are   334 symmetry adapted basis functions of A   symmetry.
   334 basis functions,   542 primitive gaussians,   384 cartesian basis functions
    38 alpha electrons       37 beta electrons
       nuclear repulsion energy       527.1752927320 Hartrees.
 IExCor= 4639 DFT=T Ex+Corr=wB97XD ExCW=0 ScaHFX=  1.000000
 ScaDFX=  1.000000  1.000000  1.000000  1.000000 ScalE2=  1.000000  1.000000
 IRadAn=      5 IRanWt=     -1 IRanGd=            0 ICorTp=0 IEmpDi=121
  HFx wShort=  0.000000 wLong=  0.200000 cFull=  0.222036 cShort=  0.000000 cLong=  0.777964
  DFx wShort=  0.000000 wLong=  0.200000 cFull=  0.000000 cShort=  0.000000 cLong=  1.000000
 NAtoms=   14 NActive=   14 NUniq=   14 SFac= 1.00D+00 NAtFMM=   60 NAOKFM=F Big=F
 Integral buffers will be    131072 words long.
 Raffenetti 2 integral format.
 Two-electron integral symmetry is turned on.
 R6Disp:  Grimme-D2 Dispersion energy=       -0.0056646938 Hartrees.
 Nuclear repulsion after empirical dispersion term =      527.1696280382 Hartrees.
 Leave Link  301 at Wed Nov 26 19:35:21 2025, MaxMem=  4294967296 cpu:         0.2
 (Enter /usr/local/g09/l302.exe)
 NPDir=0 NMtPBC=     1 NCelOv=     1 NCel=       1 NClECP=     1 NCelD=      1
         NCelK=      1 NCelE2=     1 NClLst=     1 CellRange=     0.0.
 One-electron integrals computed using PRISM.
   1 Symmetry operations used in ECPInt.
 ECPInt:  NShTT=    8001 NPrTT=   25432 LenC2=    7516 LenP2D=   18015.
 LDataN:  DoStor=T MaxTD1= 6 Len=  172
 NBasis=   334 RedAO= T EigKep=  4.52D-04  NBF=   334
 NBsUse=   334 1.00D-06 EigRej= -1.00D+00 NBFU=   334
 Precomputing XC quadrature grid using
 IXCGrd= 4 IRadAn=           5 IRanWt=          -1 IRanGd=           0 AccXCQ= 0.00D+00.
 Generated NRdTot=       0 NPtTot=           0 NUsed=           0 NTot=          32
 NSgBfM=   380   380   380   380   380 MxSgAt=    14 MxSgA2=    14.
 Leave Link  302 at Wed Nov 26 19:35:21 2025, MaxMem=  4294967296 cpu:         2.9
 (Enter /usr/local/g09/l303.exe)
 DipDrv:  MaxL=1.
 Leave Link  303 at Wed Nov 26 19:35:22 2025, MaxMem=  4294967296 cpu:         0.3
 (Enter /usr/local/g09/l401.exe)
 Initial guess from the checkpoint file:  "check.chk"
 B after Tr=     0.000000    0.000000    0.000000
         Rot=    0.000000    0.000000    0.000000    1.000000 Ang=-180.00 deg.
 Guess basis will be translated and rotated to current coordinates.
 JPrj=2 DoOrth=T DoCkMO=T.
 Initial guess <Sx>= 0.0000 <Sy>= 0.0000 <Sz>= 0.5000 <S**2>= 0.7609 S= 0.5054
 Leave Link  401 at Wed Nov 26 19:35:22 2025, MaxMem=  4294967296 cpu:         4.5
 (Enter /usr/local/g09/l502.exe)
 UHF open shell SCF:
 Using DIIS extrapolation, IDIIS=  1040.
 Integral symmetry usage will be decided dynamically.
 IVT=      466782 IEndB=      466782 NGot=  4294967296 MDV=  4294664995
 LenX=  4294664995 LenY=  4294517098
 Requested convergence on RMS density matrix=1.00D-08 within 128 cycles.
 Requested convergence on MAX density matrix=1.00D-06.
 Requested convergence on             energy=1.00D-06.
 No special actions if energy rises.
 Fock matrices will be formed incrementally for  20 cycles.

 Cycle   1  Pass 1  IDiag  1:
 FoFJK:  IHMeth= 1 ICntrl=       0 DoSepK=T KAlg= 0 I1Cent=   0 FoldK=F
 IRaf=         1 NMat=   1 IRICut=       1 DoRegI=T DoRafI=F ISym2E= 0.
 FoFCou: FMM=F IPFlag=           0 FMFlag=      100000 FMFlg1=           0
         NFxFlg=           0 DoJE=T BraDBF=F KetDBF=F FulRan=T
         wScrn=  0.000000 ICntrl=     500 IOpCl=  0 I1Cent=           0 NGrid=           0
         NMat0=    1 NMatS0=      1 NMatT0=    0 NMatD0=    1 NMtDS0=    0 NMtDT0=    0
 Symmetry not used in FoFCou.
 E= -577.910324680617    
 DIIS: error= 2.78D-05 at cycle   1 NSaved=   1.
 NSaved= 1 IEnMin= 1 EnMin= -577.910324680617     IErMin= 1 ErrMin= 2.78D-05
 ErrMax= 2.78D-05  0.00D+00 EMaxC= 1.00D-01 BMatC= 2.30D-06 BMatP= 2.30D-06
 IDIUse=1 WtCom= 1.00D+00 WtEn= 0.00D+00
 Coeff-Com:  0.100D+01
 Coeff:      0.100D+01
 Gap=     0.354 Goal=   None    Shift=    0.000
 Gap=     0.251 Goal=   None    Shift=    0.000
 RMSDP=2.97D-06 MaxDP=3.34D-04              OVMax= 8.96D-05

 Cycle   2  Pass 1  IDiag  1:
 RMSU=  2.96D-06    CP:  1.00D+00
 E= -577.910325021409     Delta-E=       -0.000000340792 Rises=F Damp=F
 DIIS: error= 2.94D-06 at cycle   2 NSaved=   2.
 NSaved= 2 IEnMin= 2 EnMin= -577.910325021409     IErMin= 2 ErrMin= 2.94D-06
 ErrMax= 2.94D-06  0.00D+00 EMaxC= 1.00D-01 BMatC= 3.10D-08 BMatP= 2.30D-06
 IDIUse=1 WtCom= 1.00D+00 WtEn= 0.00D+00
 Coeff-Com: -0.612D-01 0.106D+01
 Coeff:     -0.612D-01 0.106D+01
 Gap=     0.354 Goal=   None    Shift=    0.000
 Gap=     0.251 Goal=   None    Shift=    0.000
 RMSDP=4.11D-07 MaxDP=3.37D-05 DE=-3.41D-07 OVMax= 2.32D-05

 Cycle   3  Pass 1  IDiag  1:
 RMSU=  2.85D-07    CP:  1.00D+00  1.10D+00
 E= -577.910325028550     Delta-E=       -0.000000007141 Rises=F Damp=F
 DIIS: error= 1.61D-06 at cycle   3 NSaved=   3.
 NSaved= 3 IEnMin= 3 EnMin= -577.910325028550     IErMin= 3 ErrMin= 1.61D-06
 ErrMax= 1.61D-06  0.00D+00 EMaxC= 1.00D-01 BMatC= 8.37D-09 BMatP= 3.10D-08
 IDIUse=1 WtCom= 1.00D+00 WtEn= 0.00D+00
 Coeff-Com: -0.280D-01 0.350D+00 0.678D+00
 Coeff:     -0.280D-01 0.350D+00 0.678D+00
 Gap=     0.354 Goal=   None    Shift=    0.000
 Gap=     0.251 Goal=   None    Shift=    0.000
 RMSDP=1.08D-07 MaxDP=5.01D-06 DE=-7.14D-09 OVMax= 1.10D-05

 Cycle   4  Pass 1  IDiag  1:
 RMSU=  1.04D-07    CP:  1.00D+00  1.10D+00  9.10D-01
 E= -577.910325029716     Delta-E=       -0.000000001166 Rises=F Damp=F
 DIIS: error= 1.59D-06 at cycle   4 NSaved=   4.
 NSaved= 4 IEnMin= 4 EnMin= -577.910325029716     IErMin= 4 ErrMin= 1.59D-06
 ErrMax= 1.59D-06  0.00D+00 EMaxC= 1.00D-01 BMatC= 2.81D-09 BMatP= 8.37D-09
 IDIUse=1 WtCom= 1.00D+00 WtEn= 0.00D+00
 Coeff-Com: -0.650D-02 0.345D-01 0.360D+00 0.612D+00
 Coeff:     -0.650D-02 0.345D-01 0.360D+00 0.612D+00
 Gap=     0.354 Goal=   None    Shift=    0.000
 Gap=     0.251 Goal=   None    Shift=    0.000
 RMSDP=5.46D-08 MaxDP=2.73D-06 DE=-1.17D-09 OVMax= 7.13D-06

 Cycle   5  Pass 1  IDiag  1:
 RMSU=  3.77D-08    CP:  1.00D+00  1.11D+00  1.03D+00  8.30D-01
 E= -577.910325030281     Delta-E=       -0.000000000565 Rises=F Damp=F
 DIIS: error= 4.28D-07 at cycle   5 NSaved=   5.
 NSaved= 5 IEnMin= 5 EnMin= -577.910325030281     IErMin= 5 ErrMin= 4.28D-07
 ErrMax= 4.28D-07  0.00D+00 EMaxC= 1.00D-01 BMatC= 2.18D-10 BMatP= 2.81D-09
 IDIUse=1 WtCom= 1.00D+00 WtEn= 0.00D+00
 Coeff-Com:  0.151D-02-0.358D-01 0.355D-01 0.231D+00 0.768D+00
 Coeff:      0.151D-02-0.358D-01 0.355D-01 0.231D+00 0.768D+00
 Gap=     0.354 Goal=   None    Shift=    0.000
 Gap=     0.251 Goal=   None    Shift=    0.000
 RMSDP=2.47D-08 MaxDP=7.87D-07 DE=-5.65D-10 OVMax= 8.00D-06

 Cycle   6  Pass 1  IDiag  1:
 RMSU=  1.79D-08    CP:  1.00D+00  1.11D+00  1.07D+00  9.56D-01  1.07D+00
 E= -577.910325030351     Delta-E=       -0.000000000070 Rises=F Damp=F
 DIIS: error= 2.36D-07 at cycle   6 NSaved=   6.
 NSaved= 6 IEnMin= 6 EnMin= -577.910325030351     IErMin= 6 ErrMin= 2.36D-07
 ErrMax= 2.36D-07  0.00D+00 EMaxC= 1.00D-01 BMatC= 5.06D-11 BMatP= 2.18D-10
 IDIUse=1 WtCom= 1.00D+00 WtEn= 0.00D+00
 Coeff-Com:  0.162D-02-0.223D-01-0.327D-01 0.332D-01 0.367D+00 0.653D+00
 Coeff:      0.162D-02-0.223D-01-0.327D-01 0.332D-01 0.367D+00 0.653D+00
 Gap=     0.354 Goal=   None    Shift=    0.000
 Gap=     0.251 Goal=   None    Shift=    0.000
 RMSDP=1.30D-08 MaxDP=4.10D-07 DE=-6.98D-11 OVMax= 5.23D-06

 Cycle   7  Pass 1  IDiag  1:
 RMSU=  8.83D-09    CP:  1.00D+00  1.11D+00  1.08D+00  9.96D-01  1.25D+00
                    CP:  1.21D+00
 E= -577.910325030390     Delta-E=       -0.000000000039 Rises=F Damp=F
 DIIS: error= 1.99D-07 at cycle   7 NSaved=   7.
 NSaved= 7 IEnMin= 7 EnMin= -577.910325030390     IErMin= 7 ErrMin= 1.99D-07
 ErrMax= 1.99D-07  0.00D+00 EMaxC= 1.00D-01 BMatC= 1.19D-11 BMatP= 5.06D-11
 IDIUse=1 WtCom= 1.00D+00 WtEn= 0.00D+00
 Coeff-Com:  0.204D-03 0.745D-03-0.204D-01-0.386D-01-0.507D-01 0.181D+00
 Coeff-Com:  0.928D+00
 Coeff:      0.204D-03 0.745D-03-0.204D-01-0.386D-01-0.507D-01 0.181D+00
 Coeff:      0.928D+00
 Gap=     0.354 Goal=   None    Shift=    0.000
 Gap=     0.251 Goal=   None    Shift=    0.000
 RMSDP=1.30D-08 MaxDP=5.18D-07 DE=-3.87D-11 OVMax= 6.26D-06

 Cycle   8  Pass 1  IDiag  1:
 RMSU=  4.96D-09    CP:  1.00D+00  1.11D+00  1.08D+00  1.03D+00  1.39D+00
                    CP:  1.68D+00  1.63D+00
 E= -577.910325030394     Delta-E=       -0.000000000005 Rises=F Damp=F
 DIIS: error= 1.67D-07 at cycle   8 NSaved=   8.
 NSaved= 8 IEnMin= 8 EnMin= -577.910325030394     IErMin= 8 ErrMin= 1.67D-07
 ErrMax= 1.67D-07  0.00D+00 EMaxC= 1.00D-01 BMatC= 6.07D-12 BMatP= 1.19D-11
 IDIUse=1 WtCom= 1.00D+00 WtEn= 0.00D+00
 Coeff-Com: -0.391D-03 0.707D-02 0.668D-03-0.251D-01-0.127D+00-0.183D+00
 Coeff-Com:  0.339D+00 0.988D+00
 Coeff:     -0.391D-03 0.707D-02 0.668D-03-0.251D-01-0.127D+00-0.183D+00
 Coeff:      0.339D+00 0.988D+00
 Gap=     0.354 Goal=   None    Shift=    0.000
 Gap=     0.251 Goal=   None    Shift=    0.000
 RMSDP=1.28D-08 MaxDP=5.63D-07 DE=-4.55D-12 OVMax= 6.52D-06

 Cycle   9  Pass 1  IDiag  1:
 RMSU=  3.24D-09    CP:  1.00D+00  1.11D+00  1.09D+00  1.06D+00  1.50D+00
                    CP:  2.11D+00  2.46D+00  1.77D+00
 E= -577.910325030426     Delta-E=       -0.000000000031 Rises=F Damp=F
 DIIS: error= 1.04D-07 at cycle   9 NSaved=   9.
 NSaved= 9 IEnMin= 9 EnMin= -577.910325030426     IErMin= 9 ErrMin= 1.04D-07
 ErrMax= 1.04D-07  0.00D+00 EMaxC= 1.00D-01 BMatC= 3.78D-12 BMatP= 6.07D-12
 IDIUse=1 WtCom= 1.00D+00 WtEn= 0.00D+00
 Coeff-Com: -0.216D-03 0.153D-02 0.123D-01 0.179D-01 0.156D-01-0.210D+00
 Coeff-Com: -0.534D+00 0.478D+00 0.122D+01
 Coeff:     -0.216D-03 0.153D-02 0.123D-01 0.179D-01 0.156D-01-0.210D+00
 Coeff:     -0.534D+00 0.478D+00 0.122D+01
 Gap=     0.354 Goal=   None    Shift=    0.000
 Gap=     0.251 Goal=   None    Shift=    0.000
 RMSDP=1.55D-08 MaxDP=6.98D-07 DE=-3.14D-11 OVMax= 7.67D-06

 Cycle  10  Pass 1  IDiag  1:
 RMSU=  4.76D-09    CP:  1.00D+00  1.11D+00  1.09D+00  1.08D+00  1.62D+00
                    CP:  2.58D+00  3.00D+00  3.00D+00  1.86D+00
 E= -577.910325030445     Delta-E=       -0.000000000020 Rises=F Damp=F
 DIIS: error= 5.94D-08 at cycle  10 NSaved=  10.
 NSaved=10 IEnMin=10 EnMin= -577.910325030445     IErMin=10 ErrMin= 5.94D-08
 ErrMax= 5.94D-08  0.00D+00 EMaxC= 1.00D-01 BMatC= 1.08D-12 BMatP= 3.78D-12
 IDIUse=1 WtCom= 1.00D+00 WtEn= 0.00D+00
 Coeff-Com:  0.126D-03-0.307D-02 0.440D-02 0.194D-01 0.774D-01-0.248D-01
 Coeff-Com: -0.414D+00-0.153D+00 0.488D+00 0.101D+01
 Coeff:      0.126D-03-0.307D-02 0.440D-02 0.194D-01 0.774D-01-0.248D-01
 Coeff:     -0.414D+00-0.153D+00 0.488D+00 0.101D+01
 Gap=     0.354 Goal=   None    Shift=    0.000
 Gap=     0.251 Goal=   None    Shift=    0.000
 RMSDP=9.80D-09 MaxDP=4.72D-07 DE=-1.96D-11 OVMax= 4.84D-06

 SCF Done:  E(UwB97XD) =  -577.910325030     A.U. after   10 cycles
            NFock= 10  Conv=0.98D-08     -V/T= 2.0039
 <Sx>= 0.0000 <Sy>= 0.0000 <Sz>= 0.5000 <S**2>= 0.7609 S= 0.5054
 <L.S>= 0.000000000000E+00
 KE= 5.756777489426D+02 PE=-2.409096024176D+03 EE= 7.283383221650D+02
 Annihilation of the first spin contaminant:
 S**2 before annihilation     0.7609,   after     0.7501
 Leave Link  502 at Wed Nov 26 19:37:37 2025, MaxMem=  4294967296 cpu:      1071.1
 (Enter /usr/local/g09/l801.exe)
 DoSCS=F DFT=T ScalE2(SS,OS)=  1.000000  1.000000
 Range of M.O.s used for correlation:     1   334
 NBasis=   334 NAE=    38 NBE=    37 NFC=     0 NFV=     0
 NROrb=    334 NOA=    38 NOB=    37 NVA=   296 NVB=   297

 **** Warning!!: The largest alpha MO coefficient is  0.12554523D+02


 **** Warning!!: The largest beta MO coefficient is  0.12360483D+02

 Leave Link  801 at Wed Nov 26 19:37:37 2025, MaxMem=  4294967296 cpu:         0.1
 (Enter /usr/local/g09/l1101.exe)
 Using compressed storage, NAtomX=    14.
 Will process     15 centers per pass.
   1 Symmetry operations used in ECPInt.
 ECPInt:  NShTT=    8001 NPrTT=   25432 LenC2=    7516 LenP2D=   18015.
 LDataN:  DoStor=T MaxTD1= 7 Len=  274
 R6Disp: Adding Grimme-D2 dispersion energy 1st derivatives to the gradient.
 Leave Link 1101 at Wed Nov 26 19:37:37 2025, MaxMem=  4294967296 cpu:         3.6
 (Enter /usr/local/g09/l1102.exe)
 Symmetrizing basis deriv contribution to polar:
 IMax=3 JMax=2 DiffMx= 0.00D+00
 Leave Link 1102 at Wed Nov 26 19:37:37 2025, MaxMem=  4294967296 cpu:         0.3
 (Enter /usr/local/g09/l1110.exe)
 Forming Gx(P) for the SCF density, NAtomX=    14.
 Integral derivatives from FoFJK, PRISM(SPDF).
 Do as many integral derivatives as possible in FoFJK.
 G2DrvN: MDV=    4294967080.
 G2DrvN: will do    15 centers at a time, making    1 passes.
 Calling FoFCou, ICntrl=  3107 FMM=F I1Cent=   0 AccDes= 1.00D-12.
 FoFJK:  IHMeth= 1 ICntrl=    3107 DoSepK=T KAlg= 0 I1Cent=   0 FoldK=F
 IRaf=         1 NMat=   1 IRICut=       1 DoRegI=T DoRafI=F ISym2E= 0.
 FoFCou: FMM=F IPFlag=           0 FMFlag=      100000 FMFlg1=           0
         NFxFlg=           0 DoJE=F BraDBF=F KetDBF=F FulRan=T
         wScrn=  0.000000 ICntrl=    3507 IOpCl=  0 I1Cent=           0 NGrid=           0
         NMat0=    1 NMatS0=      1 NMatT0=    0 NMatD0=    1 NMtDS0=    0 NMtDT0=    0
 Symmetry not used in FoFCou.
 End of G2Drv F.D. properties file   721 does not exist.
 End of G2Drv F.D. properties file   722 does not exist.
 End of G2Drv F.D. properties file   788 does not exist.
 Leave Link 1110 at Wed Nov 26 19:41:39 2025, MaxMem=  4294967296 cpu:      1920.4
 (Enter /usr/local/g09/l1002.exe)
 Minotr:  UHF open shell wavefunction.
          IDoAtm=11111111111111
          Direct CPHF calculation.
          Differentiating once with respect to electric field.
                with respect to dipole field.
          Differentiating once with respect to nuclear coordinates.
          Requested convergence is 1.0D-08 RMS, and 1.0D-07 maximum.
          Secondary convergence is 1.0D-12 RMS, and 1.0D-12 maximum.
          NewPWx=T KeepS1=F KeepF1=F KeepIn=T MapXYZ=F SortEE=F KeepMc=T.
          MDV=    4294966484 using IRadAn=       1.
 Generate precomputed XC quadrature information.
          Solving linear equations simultaneously, MaxMat=       0.
 FoFJK:  IHMeth= 1 ICntrl=       0 DoSepK=T KAlg= 0 I1Cent=   0 FoldK=F
 IRaf=         1 NMat=  45 IRICut=       1 DoRegI=T DoRafI=F ISym2E= 2.
 FoFCou: FMM=F IPFlag=           0 FMFlag=      100000 FMFlg1=           0
         NFxFlg=           0 DoJE=F BraDBF=F KetDBF=F FulRan=T
         wScrn=  0.000000 ICntrl=     500 IOpCl=  0 I1Cent=           0 NGrid=           0
         NMat0=   45 NMatS0=     45 NMatT0=    0 NMatD0=   45 NMtDS0=    0 NMtDT0=    0
 Integrals replicated using symmetry in FoFCou.
          There are    45 degrees of freedom in the 1st order CPHF.  IDoFFX=6 NUNeed=     3.
     42 vectors produced by pass  0 Test12= 4.94D-14 2.22D-09 XBig12= 1.25D+02 7.04D+00.
 AX will form    42 AO Fock derivatives at one time.
     42 vectors produced by pass  1 Test12= 4.94D-14 2.22D-09 XBig12= 2.64D+01 1.35D+00.
     42 vectors produced by pass  2 Test12= 4.94D-14 2.22D-09 XBig12= 2.24D+00 3.46D-01.
     42 vectors produced by pass  3 Test12= 4.94D-14 2.22D-09 XBig12= 5.50D-02 3.94D-02.
     42 vectors produced by pass  4 Test12= 4.94D-14 2.22D-09 XBig12= 1.15D-03 4.56D-03.
     42 vectors produced by pass  5 Test12= 4.94D-14 2.22D-09 XBig12= 2.00D-05 5.66D-04.
     42 vectors produced by pass  6 Test12= 4.94D-14 2.22D-09 XBig12= 2.77D-07 6.32D-05.
     42 vectors produced by pass  7 Test12= 4.94D-14 2.22D-09 XBig12= 3.13D-09 5.16D-06.
     23 vectors produced by pass  8 Test12= 4.94D-14 2.22D-09 XBig12= 3.07D-11 4.59D-07.
      3 vectors produced by pass  9 Test12= 4.94D-14 2.22D-09 XBig12= 3.01D-13 4.08D-08.
      2 vectors produced by pass 10 Test12= 4.94D-14 2.22D-09 XBig12= 3.48D-15 6.30D-09.
 InvSVY:  IOpt=1 It=  1 EMax= 1.15D-14
 Solved reduced A of dimension   364 with    45 vectors.
 FullF1:  Do perturbations    1 to     3.
 Isotropic polarizability for W=    0.000000       94.66 Bohr**3.
 End of Minotr F.D. properties file   721 does not exist.
 End of Minotr F.D. properties file   722 does not exist.
 End of Minotr F.D. properties file   788 does not exist.
 Leave Link 1002 at Wed Nov 26 19:58:22 2025, MaxMem=  4294967296 cpu:      7971.6
 (Enter /usr/local/g09/l601.exe)
 Copying SCF densities to generalized density rwf, IOpCl= 1 IROHF=0.

 **********************************************************************

            Population analysis using the SCF density.

 **********************************************************************

 Orbital symmetries:
 Alpha Orbitals:
       Occupied  (A) (A) (A) (A) (A) (A) (A) (A) (A) (A) (A) (A)
                 (A) (A) (A) (A) (A) (A) (A) (A) (A) (A) (A) (A)
                 (A) (A) (A) (A) (A) (A) (A) (A) (A) (A) (A) (A)
                 (A) (A)
       Virtual   (A) (A) (A) (A) (A) (A) (A) (A) (A) (A) (A) (A)
                 (A) (A) (A) (A) (A) (A) (A) (A) (A) (A) (A) (A)
                 (A) (A) (A) (A) (A) (A) (A) (A) (A) (A) (A) (A)
                 (A) (A) (A) (A) (A) (A) (A) (A) (A) (A) (A) (A)
                 (A) (A) (A) (A) (A) (A) (A) (A) (A) (A) (A) (A)
                 (A) (A) (A) (A) (A) (A) (A) (A) (A) (A) (A) (A)
                 (A) (A) (A) (A) (A) (A) (A) (A) (A) (A) (A) (A)
                 (A) (A) (A) (A) (A) (A) (A) (A) (A) (A) (A) (A)
                 (A) (A) (A) (A) (A) (A) (A) (A) (A) (A) (A) (A)
                 (A) (A) (A) (A) (A) (A) (A) (A) (A) (A) (A) (A)
                 (A) (A) (A) (A) (A) (A) (A) (A) (A) (A) (A) (A)
                 (A) (A) (A) (A) (A) (A) (A) (A) (A) (A) (A) (A)
                 (A) (A) (A) (A) (A) (A) (A) (A) (A) (A) (A) (A)
                 (A) (A) (A) (A) (A) (A) (A) (A) (A) (A) (A) (A)
                 (A) (A) (A) (A) (A) (A) (A) (A) (A) (A) (A) (A)
                 (A) (A) (A) (A) (A) (A) (A) (A) (A) (A) (A) (A)
                 (A) (A) (A) (A) (A) (A) (A) (A) (A) (A) (A) (A)
                 (A) (A) (A) (A) (A) (A) (A) (A) (A) (A) (A) (A)
                 (A) (A) (A) (A) (A) (A) (A) (A) (A) (A) (A) (A)
                 (A) (A) (A) (A) (A) (A) (A) (A) (A) (A) (A) (A)
                 (A) (A) (A) (A) (A) (A) (A) (A) (A) (A) (A) (A)
                 (A) (A) (A) (A) (A) (A) (A) (A) (A) (A) (A) (A)
                 (A) (A) (A) (A) (A) (A) (A) (A) (A) (A) (A) (A)
                 (A) (A) (A) (A) (A) (A) (A) (A) (A) (A) (A) (A)
                 (A) (A) (A) (A) (A) (A) (A) (A)
 Beta  Orbitals:
       Occupied  (A) (A) (A) (A) (A) (A) (A) (A) (A) (A) (A) (A)
                 (A) (A) (A) (A) (A) (A) (A) (A) (A) (A) (A) (A)
                 (A) (A) (A) (A) (A) (A) (A) (A) (A) (A) (A) (A)
                 (A)
       Virtual   (A) (A) (A) (A) (A) (A) (A) (A) (A) (A) (A) (A)
                 (A) (A) (A) (A) (A) (A) (A) (A) (A) (A) (A) (A)
                 (A) (A) (A) (A) (A) (A) (A) (A) (A) (A) (A) (A)
                 (A) (A) (A) (A) (A) (A) (A) (A) (A) (A) (A) (A)
                 (A) (A) (A) (A) (A) (A) (A) (A) (A) (A) (A) (A)
                 (A) (A) (A) (A) (A) (A) (A) (A) (A) (A) (A) (A)
                 (A) (A) (A) (A) (A) (A) (A) (A) (A) (A) (A) (A)
                 (A) (A) (A) (A) (A) (A) (A) (A) (A) (A) (A) (A)
                 (A) (A) (A) (A) (A) (A) (A) (A) (A) (A) (A) (A)
                 (A) (A) (A) (A) (A) (A) (A) (A) (A) (A) (A) (A)
                 (A) (A) (A) (A) (A) (A) (A) (A) (A) (A) (A) (A)
                 (A) (A) (A) (A) (A) (A) (A) (A) (A) (A) (A) (A)
                 (A) (A) (A) (A) (A) (A) (A) (A) (A) (A) (A) (A)
                 (A) (A) (A) (A) (A) (A) (A) (A) (A) (A) (A) (A)
                 (A) (A) (A) (A) (A) (A) (A) (A) (A) (A) (A) (A)
                 (A) (A) (A) (A) (A) (A) (A) (A) (A) (A) (A) (A)
                 (A) (A) (A) (A) (A) (A) (A) (A) (A) (A) (A) (A)
                 (A) (A) (A) (A) (A) (A) (A) (A) (A) (A) (A) (A)
                 (A) (A) (A) (A) (A) (A) (A) (A) (A) (A) (A) (A)
                 (A) (A) (A) (A) (A) (A) (A) (A) (A) (A) (A) (A)
                 (A) (A) (A) (A) (A) (A) (A) (A) (A) (A) (A) (A)
                 (A) (A) (A) (A) (A) (A) (A) (A) (A) (A) (A) (A)
                 (A) (A) (A) (A) (A) (A) (A) (A) (A) (A) (A) (A)
                 (A) (A) (A) (A) (A) (A) (A) (A) (A) (A) (A) (A)
                 (A) (A) (A) (A) (A) (A) (A) (A) (A)
 The electronic state is 2-A.
 Alpha  occ. eigenvalues --  -19.40134 -19.39987 -19.23400 -14.60630 -14.60553
 Alpha  occ. eigenvalues --  -14.48363 -14.46828 -14.46769 -10.48105 -10.42688
 Alpha  occ. eigenvalues --   -1.39995  -1.24372  -1.17607  -1.15782  -1.05129
 Alpha  occ. eigenvalues --   -1.03117  -0.99607  -0.85280  -0.81182  -0.72262
 Alpha  occ. eigenvalues --   -0.68348  -0.68237  -0.66220  -0.65681  -0.58467
 Alpha  occ. eigenvalues --   -0.55624  -0.54864  -0.53979  -0.53654  -0.52332
 Alpha  occ. eigenvalues --   -0.51852  -0.49763  -0.47924  -0.41875  -0.39688
 Alpha  occ. eigenvalues --   -0.38590  -0.37625  -0.36355
 Alpha virt. eigenvalues --   -0.00917   0.06679   0.07423   0.10520   0.11150
 Alpha virt. eigenvalues --    0.14338   0.15329   0.17104   0.20731   0.21874
 Alpha virt. eigenvalues --    0.23780   0.26610   0.27122   0.27943   0.28687
 Alpha virt. eigenvalues --    0.29267   0.30039   0.31856   0.33271   0.35209
 Alpha virt. eigenvalues --    0.37198   0.38632   0.38773   0.40125   0.40988
 Alpha virt. eigenvalues --    0.42063   0.43995   0.44874   0.47391   0.47741
 Alpha virt. eigenvalues --    0.47989   0.48797   0.50835   0.51192   0.51590
 Alpha virt. eigenvalues --    0.53197   0.53852   0.54950   0.56739   0.56840
 Alpha virt. eigenvalues --    0.57998   0.60296   0.60362   0.61080   0.62704
 Alpha virt. eigenvalues --    0.63330   0.65555   0.65747   0.68517   0.69729
 Alpha virt. eigenvalues --    0.71293   0.73720   0.75574   0.76273   0.77649
 Alpha virt. eigenvalues --    0.79788   0.81351   0.82655   0.85269   0.86760
 Alpha virt. eigenvalues --    0.89856   0.92509   0.93981   0.97619   1.01865
 Alpha virt. eigenvalues --    1.02774   1.05673   1.06848   1.08373   1.12431
 Alpha virt. eigenvalues --    1.12703   1.16931   1.22724   1.25984   1.29586
 Alpha virt. eigenvalues --    1.33185   1.35615   1.38598   1.39238   1.39854
 Alpha virt. eigenvalues --    1.41741   1.43871   1.44996   1.45999   1.47401
 Alpha virt. eigenvalues --    1.52065   1.54647   1.55403   1.57626   1.58812
 Alpha virt. eigenvalues --    1.59546   1.61418   1.63692   1.64481   1.65083
 Alpha virt. eigenvalues --    1.65768   1.69640   1.74513   1.75200   1.78741
 Alpha virt. eigenvalues --    1.79441   1.81518   1.83267   1.84362   1.85926
 Alpha virt. eigenvalues --    1.88749   1.91538   1.92971   1.96035   1.97528
 Alpha virt. eigenvalues --    1.99277   2.00679   2.03267   2.05608   2.06664
 Alpha virt. eigenvalues --    2.07208   2.08077   2.10460   2.10979   2.13802
 Alpha virt. eigenvalues --    2.17477   2.17632   2.21792   2.22901   2.25970
 Alpha virt. eigenvalues --    2.26872   2.30128   2.32491   2.35518   2.37388
 Alpha virt. eigenvalues --    2.37716   2.41586   2.42082   2.43656   2.45454
 Alpha virt. eigenvalues --    2.48426   2.58182   2.60535   2.63501   2.64700
 Alpha virt. eigenvalues --    2.66882   2.67907   2.70935   2.72909   2.79154
 Alpha virt. eigenvalues --    2.81778   2.84195   2.90022   2.91017   2.93169
 Alpha virt. eigenvalues --    2.94812   2.96670   2.99213   2.99400   3.01655
 Alpha virt. eigenvalues --    3.02047   3.03505   3.08291   3.11082   3.12673
 Alpha virt. eigenvalues --    3.16283   3.17108   3.18943   3.20409   3.21277
 Alpha virt. eigenvalues --    3.23534   3.24608   3.30095   3.31372   3.32733
 Alpha virt. eigenvalues --    3.35483   3.38238   3.41130   3.43160   3.44285
 Alpha virt. eigenvalues --    3.49894   3.54567   3.55037   3.60109   3.61624
 Alpha virt. eigenvalues --    3.63555   3.67461   3.69453   3.72627   3.76256
 Alpha virt. eigenvalues --    3.77392   3.81389   3.86874   3.91510   3.93767
 Alpha virt. eigenvalues --    3.97986   4.03938   4.06670   4.13878   4.15347
 Alpha virt. eigenvalues --    4.20033   4.29721   4.33833   4.35371   4.37285
 Alpha virt. eigenvalues --    4.41394   4.47064   4.47258   4.51506   4.54475
 Alpha virt. eigenvalues --    4.55701   4.59305   4.62614   4.63976   4.67810
 Alpha virt. eigenvalues --    4.69774   4.71022   4.72473   4.73991   4.74662
 Alpha virt. eigenvalues --    4.75849   4.77576   4.79542   4.86206   4.86913
 Alpha virt. eigenvalues --    4.89754   4.92799   4.95486   4.96463   5.00892
 Alpha virt. eigenvalues --    5.03423   5.04784   5.08199   5.09550   5.12980
 Alpha virt. eigenvalues --    5.15145   5.18046   5.18519   5.21225   5.23393
 Alpha virt. eigenvalues --    5.26169   5.28909   5.29863   5.34881   5.37025
 Alpha virt. eigenvalues --    5.38914   5.39673   5.40743   5.42888   5.43218
 Alpha virt. eigenvalues --    5.59402   5.61923   5.63244   5.72249   5.74216
 Alpha virt. eigenvalues --    5.75976   5.81464   5.85378   5.85932   5.88773
 Alpha virt. eigenvalues --    5.89696   5.94134   5.95560   5.99938   6.04324
 Alpha virt. eigenvalues --    6.06324   6.08887   6.21141   6.23947   6.24795
 Alpha virt. eigenvalues --    6.44036   6.47133   6.61806   6.63692   6.66388
 Alpha virt. eigenvalues --    6.71377   6.72956   6.75093   6.77905   6.88385
 Alpha virt. eigenvalues --    6.89074   6.91328   6.96813   6.99241   7.05890
 Alpha virt. eigenvalues --    7.14731   7.16652   7.23024   7.34871   7.61119
 Alpha virt. eigenvalues --    7.77602  23.29701  23.45279  31.77288  31.92517
 Alpha virt. eigenvalues --   31.93260  32.12171  32.27512  43.94614  44.02199
 Alpha virt. eigenvalues --   44.13482
  Beta  occ. eigenvalues --  -19.40093 -19.39929 -19.23098 -14.60614 -14.60543
  Beta  occ. eigenvalues --  -14.47372 -14.46827 -14.45922 -10.48175 -10.42762
  Beta  occ. eigenvalues --   -1.39920  -1.24244  -1.16937  -1.15493  -1.03784
  Beta  occ. eigenvalues --   -1.01939  -0.97406  -0.84965  -0.80685  -0.71821
  Beta  occ. eigenvalues --   -0.68314  -0.67780  -0.65571  -0.64024  -0.57697
  Beta  occ. eigenvalues --   -0.55280  -0.54279  -0.53868  -0.52870  -0.52115
  Beta  occ. eigenvalues --   -0.51667  -0.49004  -0.45918  -0.38979  -0.37501
  Beta  occ. eigenvalues --   -0.36988  -0.36296
  Beta virt. eigenvalues --   -0.11219  -0.00897   0.06878   0.07574   0.10759
  Beta virt. eigenvalues --    0.11828   0.14601   0.15454   0.17204   0.21202
  Beta virt. eigenvalues --    0.22032   0.24097   0.26685   0.27273   0.28075
  Beta virt. eigenvalues --    0.28735   0.29393   0.30251   0.32076   0.33338
  Beta virt. eigenvalues --    0.35482   0.37314   0.38889   0.39138   0.40325
  Beta virt. eigenvalues --    0.41171   0.42631   0.44193   0.45218   0.47736
  Beta virt. eigenvalues --    0.48008   0.48768   0.49537   0.51012   0.51400
  Beta virt. eigenvalues --    0.51772   0.53577   0.54166   0.55312   0.56946
  Beta virt. eigenvalues --    0.57054   0.58173   0.60528   0.60732   0.61641
  Beta virt. eigenvalues --    0.62993   0.63684   0.65816   0.66174   0.68790
  Beta virt. eigenvalues --    0.70218   0.71337   0.73801   0.75934   0.76520
  Beta virt. eigenvalues --    0.77838   0.79972   0.81607   0.82871   0.85501
  Beta virt. eigenvalues --    0.86893   0.89992   0.92773   0.94099   0.97761
  Beta virt. eigenvalues --    1.02050   1.03128   1.05932   1.07076   1.08815
  Beta virt. eigenvalues --    1.12620   1.12903   1.17611   1.23351   1.26448
  Beta virt. eigenvalues --    1.29700   1.33445   1.36124   1.39097   1.39548
  Beta virt. eigenvalues --    1.40168   1.42080   1.43827   1.45184   1.46481
  Beta virt. eigenvalues --    1.47948   1.52332   1.54939   1.56014   1.57874
  Beta virt. eigenvalues --    1.59094   1.59681   1.61581   1.63975   1.64698
  Beta virt. eigenvalues --    1.65321   1.65925   1.70268   1.74844   1.75470
  Beta virt. eigenvalues --    1.78919   1.79707   1.81864   1.83504   1.84667
  Beta virt. eigenvalues --    1.86195   1.89044   1.91982   1.93672   1.96362
  Beta virt. eigenvalues --    1.97717   1.99566   2.00896   2.03459   2.06041
  Beta virt. eigenvalues --    2.07126   2.07316   2.08335   2.10777   2.11539
  Beta virt. eigenvalues --    2.14308   2.17984   2.18474   2.22616   2.23248
  Beta virt. eigenvalues --    2.26150   2.27396   2.30386   2.32897   2.35602
  Beta virt. eigenvalues --    2.37923   2.38372   2.42206   2.42627   2.44614
  Beta virt. eigenvalues --    2.45766   2.49032   2.58758   2.60687   2.63662
  Beta virt. eigenvalues --    2.64993   2.66968   2.68421   2.71047   2.72996
  Beta virt. eigenvalues --    2.79964   2.81914   2.84599   2.90033   2.91541
  Beta virt. eigenvalues --    2.93265   2.95393   2.97032   2.99380   2.99590
  Beta virt. eigenvalues --    3.01917   3.02330   3.03785   3.08447   3.11223
  Beta virt. eigenvalues --    3.13033   3.16458   3.17293   3.19332   3.20804
  Beta virt. eigenvalues --    3.21450   3.23797   3.25008   3.30499   3.31587
  Beta virt. eigenvalues --    3.33096   3.36045   3.38724   3.41361   3.43661
  Beta virt. eigenvalues --    3.44866   3.50319   3.54810   3.55113   3.61043
  Beta virt. eigenvalues --    3.61997   3.63652   3.67718   3.69885   3.72774
  Beta virt. eigenvalues --    3.76455   3.78332   3.81791   3.87321   3.91892
  Beta virt. eigenvalues --    3.93831   3.98792   4.04307   4.06867   4.14014
  Beta virt. eigenvalues --    4.17355   4.21593   4.30383   4.34565   4.36312
  Beta virt. eigenvalues --    4.38440   4.42509   4.47664   4.48174   4.52012
  Beta virt. eigenvalues --    4.54688   4.56630   4.60369   4.63608   4.64211
  Beta virt. eigenvalues --    4.68793   4.70611   4.72807   4.73201   4.74693
  Beta virt. eigenvalues --    4.75832   4.76342   4.78365   4.79928   4.86607
  Beta virt. eigenvalues --    4.87590   4.91432   4.93415   4.96893   4.98196
  Beta virt. eigenvalues --    5.02713   5.04192   5.05724   5.09283   5.10303
  Beta virt. eigenvalues --    5.14398   5.15702   5.18440   5.19399   5.21717
  Beta virt. eigenvalues --    5.23736   5.26938   5.29652   5.30451   5.35498
  Beta virt. eigenvalues --    5.37891   5.39805   5.40602   5.41453   5.43251
  Beta virt. eigenvalues --    5.43844   5.60803   5.62163   5.64658   5.72424
  Beta virt. eigenvalues --    5.74403   5.76685   5.81593   5.85951   5.86009
  Beta virt. eigenvalues --    5.88905   5.89752   5.94849   5.96010   6.00301
  Beta virt. eigenvalues --    6.04767   6.07051   6.08989   6.21698   6.24498
  Beta virt. eigenvalues --    6.25431   6.44480   6.48085   6.61862   6.64659
  Beta virt. eigenvalues --    6.66464   6.71440   6.73071   6.75182   6.77996
  Beta virt. eigenvalues --    6.88560   6.89470   6.92017   6.96960   6.99519
  Beta virt. eigenvalues --    7.06058   7.15272   7.17058   7.23174   7.35070
  Beta virt. eigenvalues --    7.61228   7.77700  23.29621  23.45186  31.77314
  Beta virt. eigenvalues --   31.92569  31.93772  32.12820  32.28544  43.94892
  Beta virt. eigenvalues --   44.02249  44.13531
          Condensed to atoms (all electrons):
               1          2          3          4          5          6
     1  N    6.862558   0.325056  -0.090440  -0.109690   0.335040   0.006642
     2  C    0.325056   4.294387   0.670005   0.390135  -0.021431  -0.017379
     3  O   -0.090440   0.670005   7.876024  -0.099938   0.003699   0.004799
     4  N   -0.109690   0.390135  -0.099938   6.573629   0.006658   0.362567
     5  H    0.335040  -0.021431   0.003699   0.006658   0.423079  -0.000389
     6  H    0.006642  -0.017379   0.004799   0.362567  -0.000389   0.394499
     7  H    0.001986  -0.014207   0.003590   0.357759   0.000113  -0.021319
     8  N   -0.110864  -0.001304  -0.000348   0.005036   0.005349   0.000481
     9  C    0.027921  -0.003730  -0.000844   0.003388   0.000091   0.000102
    10  O    0.000093   0.000036  -0.000001  -0.000133   0.000060  -0.000005
    11  N    0.000124   0.000023   0.000000  -0.000039   0.000006   0.000000
    12  N    0.000511  -0.000207  -0.000006   0.000013  -0.000030   0.000005
    13  O   -0.003870   0.001526  -0.000139  -0.000206   0.001184  -0.000038
    14  H    0.190669  -0.004725   0.002279   0.001004  -0.012384  -0.000158
               7          8          9         10         11         12
     1  N    0.001986  -0.110864   0.027921   0.000093   0.000124   0.000511
     2  C   -0.014207  -0.001304  -0.003730   0.000036   0.000023  -0.000207
     3  O    0.003590  -0.000348  -0.000844  -0.000001   0.000000  -0.000006
     4  N    0.357759   0.005036   0.003388  -0.000133  -0.000039   0.000013
     5  H    0.000113   0.005349   0.000091   0.000060   0.000006  -0.000030
     6  H   -0.021319   0.000481   0.000102  -0.000005   0.000000   0.000005
     7  H    0.395344   0.002785  -0.000771  -0.000112  -0.000001   0.000012
     8  N    0.002785   6.832150   0.562837  -0.063327   0.003939   0.002591
     9  C   -0.000771   0.562837   4.539294   0.325185  -0.023535  -0.023139
    10  O   -0.000112  -0.063327   0.325185   7.842731   0.114647  -0.029894
    11  N   -0.000001   0.003939  -0.023535   0.114647   6.581697   0.298790
    12  N    0.000012   0.002591  -0.023139  -0.029894   0.298790   6.586461
    13  O    0.000016  -0.062991   0.302303  -0.064786  -0.034618   0.117770
    14  H   -0.000496   0.216732  -0.025423  -0.000291  -0.000059  -0.000362
              13         14
     1  N   -0.003870   0.190669
     2  C    0.001526  -0.004725
     3  O   -0.000139   0.002279
     4  N   -0.000206   0.001004
     5  H    0.001184  -0.012384
     6  H   -0.000038  -0.000158
     7  H    0.000016  -0.000496
     8  N   -0.062991   0.216732
     9  C    0.302303  -0.025423
    10  O   -0.064786  -0.000291
    11  N   -0.034618  -0.000059
    12  N    0.117770  -0.000362
    13  O    7.882305   0.001939
    14  H    0.001939   0.288105
          Atomic-Atomic Spin Densities.
               1          2          3          4          5          6
     1  N    0.612968   0.000840  -0.013720   0.000148  -0.001204  -0.000282
     2  C    0.000840  -0.046278  -0.007278   0.008930   0.000518  -0.000549
     3  O   -0.013720  -0.007278   0.142046   0.002876  -0.001221  -0.000437
     4  N    0.000148   0.008930   0.002876  -0.009867  -0.000369   0.001738
     5  H   -0.001204   0.000518  -0.001221  -0.000369  -0.012266   0.000023
     6  H   -0.000282  -0.000549  -0.000437   0.001738   0.000023  -0.001416
     7  H   -0.000229  -0.000790  -0.000096   0.001688  -0.000009  -0.000148
     8  N   -0.081886   0.001172  -0.000215   0.001657   0.002588   0.000047
     9  C    0.005256   0.000390   0.000081  -0.000598  -0.000259  -0.000017
    10  O   -0.000742   0.000028   0.000000   0.000037   0.000025   0.000001
    11  N    0.000033   0.000002   0.000000  -0.000003  -0.000002   0.000000
    12  N    0.000135  -0.000016  -0.000003  -0.000003  -0.000016   0.000000
    13  O    0.005479  -0.000262   0.000000  -0.000121  -0.000170  -0.000001
    14  H   -0.005634   0.000197  -0.000262   0.000080   0.001112   0.000013
               7          8          9         10         11         12
     1  N   -0.000229  -0.081886   0.005256  -0.000742   0.000033   0.000135
     2  C   -0.000790   0.001172   0.000390   0.000028   0.000002  -0.000016
     3  O   -0.000096  -0.000215   0.000081   0.000000   0.000000  -0.000003
     4  N    0.001688   0.001657  -0.000598   0.000037  -0.000003  -0.000003
     5  H   -0.000009   0.002588  -0.000259   0.000025  -0.000002  -0.000016
     6  H   -0.000148   0.000047  -0.000017   0.000001   0.000000   0.000000
     7  H   -0.001456  -0.000521   0.000027   0.000016   0.000003   0.000000
     8  N   -0.000521   0.514004   0.000891  -0.004547   0.000037  -0.000429
     9  C    0.000027   0.000891  -0.029172  -0.002812   0.000550  -0.000893
    10  O    0.000016  -0.004547  -0.002812   0.024518   0.001031  -0.000024
    11  N    0.000003   0.000037   0.000550   0.001031   0.011871  -0.006253
    12  N    0.000000  -0.000429  -0.000893  -0.000024  -0.006253   0.011302
    13  O   -0.000029  -0.007498   0.005366  -0.003521   0.001368  -0.001275
    14  H    0.000428   0.004473  -0.002935  -0.000047  -0.000002  -0.000010
              13         14
     1  N    0.005479  -0.005634
     2  C   -0.000262   0.000197
     3  O    0.000000  -0.000262
     4  N   -0.000121   0.000080
     5  H   -0.000170   0.001112
     6  H   -0.000001   0.000013
     7  H   -0.000029   0.000428
     8  N   -0.007498   0.004473
     9  C    0.005366  -0.002935
    10  O   -0.003521  -0.000047
    11  N    0.001368  -0.000002
    12  N   -0.001275  -0.000010
    13  O    0.017003   0.000433
    14  H    0.000433  -0.038010
 Mulliken charges and spin densities:
               1          2
     1  N   -0.435736   0.521162
     2  C    0.381813  -0.043095
     3  O   -0.368679   0.121772
     4  N   -0.490181   0.006192
     5  H    0.258955  -0.011252
     6  H    0.270192  -0.001028
     7  H    0.275300  -0.001117
     8  N   -0.393065   0.429771
     9  C    0.316320  -0.024126
    10  O   -0.124204   0.013963
    11  N    0.059025   0.008636
    12  N    0.047486   0.002516
    13  O   -0.140395   0.016771
    14  H    0.343169  -0.040165
 Sum of Mulliken charges =   0.00000   1.00000
 Mulliken charges and spin densities with hydrogens summed into heavy atoms:
               1          2
     1  N   -0.176781   0.509910
     2  C    0.381813  -0.043095
     3  O   -0.368679   0.121772
     4  N    0.055311   0.004047
     8  N   -0.049895   0.389606
     9  C    0.316320  -0.024126
    10  O   -0.124204   0.013963
    11  N    0.059025   0.008636
    12  N    0.047486   0.002516
    13  O   -0.140395   0.016771
 APT charges:
               1
     1  N   -0.038062
     2  C    1.085131
     3  O   -0.713148
     4  N   -0.608979
     5  H    0.215768
     6  H    0.230509
     7  H    0.202848
     8  N   -0.469643
     9  C    1.284119
    10  O   -0.639226
    11  N    0.151714
    12  N    0.302944
    13  O   -0.526532
    14  H   -0.477443
 Sum of APT charges =   0.00000
 APT charges with hydrogens summed into heavy atoms:
               1
     1  N    0.177705
     2  C    1.085131
     3  O   -0.713148
     4  N   -0.175622
     8  N   -0.947086
     9  C    1.284119
    10  O   -0.639226
    11  N    0.151714
    12  N    0.302944
    13  O   -0.526532
 Electronic spatial extent (au):  <R**2>=           1652.9759
 Charge=              0.0000 electrons
 Dipole moment (field-independent basis, Debye):
    X=             -1.2112    Y=              1.1120    Z=              1.1566  Tot=              2.0103
 Quadrupole moment (field-independent basis, Debye-Ang):
   XX=            -65.0579   YY=            -63.6234   ZZ=            -49.4388
   XY=              6.6587   XZ=              5.9926   YZ=              3.2104
 Traceless Quadrupole moment (field-independent basis, Debye-Ang):
   XX=             -5.6845   YY=             -4.2500   ZZ=              9.9345
   XY=              6.6587   XZ=              5.9926   YZ=              3.2104
 Octapole moment (field-independent basis, Debye-Ang**2):
  XXX=            -21.4144  YYY=             -3.1990  ZZZ=              6.2754  XYY=             -3.2825
  XXY=             20.7767  XXZ=             12.0892  XZZ=             11.5330  YZZ=             -2.4553
  YYZ=              5.7558  XYZ=              4.3591
 Hexadecapole moment (field-independent basis, Debye-Ang**3):
 XXXX=          -1691.4456 YYYY=           -344.4355 ZZZZ=           -153.4406 XXXY=             48.3761
 XXXZ=             65.6923 YYYX=              7.2498 YYYZ=             13.2636 ZZZX=             25.0597
 ZZZY=             13.4982 XXYY=           -347.8949 XXZZ=           -249.5523 YYZZ=            -82.8954
 XXYZ=              9.5365 YYXZ=              6.6790 ZZXY=             -2.5107
 N-N= 5.271696280382D+02 E-N=-2.409096022143D+03  KE= 5.756777489426D+02
  Exact polarizability: 150.265 -17.906  76.081  -8.925   1.870  57.627
 Approx polarizability: 115.174 -17.734  98.612 -11.292   3.725  66.453
                          Isotropic Fermi Contact Couplings
        Atom                 a.u.       MegaHertz       Gauss      10(-4) cm-1
     1  N(14)              0.03792      12.25211       4.37186       4.08686
     2  C(13)             -0.02074     -23.31495      -8.31936      -7.77703
     3  O(17)              0.01559      -9.45282      -3.37300      -3.15312
     4  N(14)             -0.00878      -2.83672      -1.01221      -0.94623
     5  H(1)              -0.00659     -29.46265     -10.51301      -9.82768
     6  H(1)              -0.00008      -0.34657      -0.12366      -0.11560
     7  H(1)              -0.00020      -0.88423      -0.31551      -0.29495
     8  N(14)              0.01267       4.09367       1.46072       1.36550
     9  C(13)             -0.02626     -29.52023     -10.53355      -9.84689
    10  O(17)              0.03448     -20.89935      -7.45741      -6.97127
    11  N(14)             -0.00189      -0.61199      -0.21837      -0.20414
    12  N(14)              0.00841       2.71842       0.97000       0.90677
    13  O(17)             -0.00724       4.39152       1.56700       1.46485
    14  H(1)              -0.02183     -97.57936     -34.81874     -32.54897
 --------------------------------------------------------
       Center         ----  Spin Dipole Couplings  ----
                      3XX-RR        3YY-RR        3ZZ-RR
 --------------------------------------------------------
     1   Atom        1.117517     -0.641868     -0.475649
     2   Atom       -0.030826      0.009231      0.021594
     3   Atom       -0.179628      0.010164      0.169464
     4   Atom        0.011483     -0.015111      0.003628
     5   Atom       -0.008763      0.002108      0.006656
     6   Atom       -0.002421     -0.002239      0.004660
     7   Atom       -0.001954     -0.004220      0.006174
     8   Atom        0.306886      0.062347     -0.369233
     9   Atom        0.023237      0.036063     -0.059300
    10   Atom        0.086513     -0.038426     -0.048086
    11   Atom        0.003645      0.010334     -0.013979
    12   Atom       -0.002790      0.011037     -0.008247
    13   Atom       -0.037813      0.115046     -0.077233
    14   Atom        0.112728     -0.026999     -0.085730
 --------------------------------------------------------
                        XY            XZ            YZ
 --------------------------------------------------------
     1   Atom       -0.208207     -0.577203      0.065789
     2   Atom       -0.037466      0.022131     -0.010240
     3   Atom        0.147399     -0.215263     -0.364191
     4   Atom       -0.001625      0.000681     -0.000655
     5   Atom        0.016734      0.008202      0.062412
     6   Atom       -0.000854      0.002300     -0.000344
     7   Atom       -0.000070      0.004301      0.004714
     8   Atom       -0.756032     -0.298819      0.278754
     9   Atom        0.018357     -0.029209     -0.002622
    10   Atom        0.023620     -0.066019     -0.008029
    11   Atom        0.025145     -0.005973     -0.008633
    12   Atom        0.008896     -0.000305     -0.000721
    13   Atom        0.023082     -0.012934      0.014083
    14   Atom       -0.110925     -0.061133      0.026009
 --------------------------------------------------------


 ---------------------------------------------------------------------------------
              Anisotropic Spin Dipole Couplings in Principal Axis System
 ---------------------------------------------------------------------------------

       Atom             a.u.   MegaHertz   Gauss  10(-4) cm-1        Axes

              Baa    -0.6667   -25.714    -9.175    -8.577  0.2142  0.9191  0.3306
     1 N(14)  Bbb    -0.6621   -25.537    -9.112    -8.518  0.2453 -0.3782  0.8926
              Bcc     1.3288    51.251    18.288    17.095  0.9455 -0.1101 -0.3064
 
              Baa    -0.0559    -7.497    -2.675    -2.501  0.8640  0.4682 -0.1850
     2 C(13)  Bbb     0.0077     1.036     0.370     0.346 -0.1807  0.6313  0.7542
              Bcc     0.0481     6.461     2.305     2.155  0.4699 -0.6182  0.6301
 
              Baa    -0.2972    21.506     7.674     7.174  0.5659  0.5028  0.6534
     3 O(17)  Bbb    -0.2576    18.638     6.651     6.217  0.7538 -0.6366 -0.1629
              Bcc     0.5548   -40.145   -14.325   -13.391 -0.3340 -0.5847  0.7393
 
              Baa    -0.0152    -0.587    -0.210    -0.196  0.0599  0.9977  0.0325
     4 N(14)  Bbb     0.0036     0.138     0.049     0.046 -0.0913 -0.0269  0.9955
              Bcc     0.0116     0.449     0.160     0.150  0.9940 -0.0626  0.0895
 
              Baa    -0.0589   -31.436   -11.217   -10.486 -0.1320  0.7262 -0.6747
     5 H(1)   Bbb    -0.0118    -6.293    -2.245    -2.099  0.9674 -0.0540 -0.2474
              Bcc     0.0707    37.729    13.463    12.585  0.2161  0.6854  0.6954
 
              Baa    -0.0035    -1.878    -0.670    -0.626  0.8385  0.5009 -0.2146
     6 H(1)   Bbb    -0.0019    -0.995    -0.355    -0.332 -0.4618  0.8622  0.2082
              Bcc     0.0054     2.873     1.025     0.958  0.2894 -0.0755  0.9542
 
              Baa    -0.0067    -3.597    -1.284    -1.200  0.3967  0.8119 -0.4284
     7 H(1)   Bbb    -0.0027    -1.425    -0.509    -0.475  0.8546 -0.4970 -0.1506
              Bcc     0.0094     5.022     1.792     1.675  0.3352  0.3063  0.8909
 
              Baa    -0.5845   -22.542    -8.043    -7.519  0.6033  0.7789 -0.1713
     8 N(14)  Bbb    -0.4821   -18.593    -6.634    -6.202  0.3202 -0.0399  0.9465
              Bcc     1.0666    41.135    14.678    13.721  0.7304 -0.6258 -0.2735
 
              Baa    -0.0687    -9.217    -3.289    -3.074  0.3082 -0.0302  0.9508
     9 C(13)  Bbb     0.0160     2.143     0.765     0.715  0.6989 -0.6709 -0.2478
              Bcc     0.0527     7.073     2.524     2.359  0.6454  0.7409 -0.1857
 
              Baa    -0.0751     5.436     1.940     1.813  0.3833 -0.0449  0.9225
    10 O(17)  Bbb    -0.0423     3.063     1.093     1.022 -0.1288  0.9865  0.1015
              Bcc     0.1175    -8.500    -3.033    -2.835  0.9146  0.1577 -0.3724
 
              Baa    -0.0189    -0.729    -0.260    -0.243 -0.6365  0.6637  0.3928
    11 N(14)  Bbb    -0.0157    -0.606    -0.216    -0.202  0.4295 -0.1179  0.8953
              Bcc     0.0346     1.334     0.476     0.445  0.6406  0.7386 -0.2100
 
              Baa    -0.0083    -0.319    -0.114    -0.106 -0.0197  0.0463  0.9987
    12 N(14)  Bbb    -0.0071    -0.275    -0.098    -0.092  0.8982 -0.4380  0.0380
              Bcc     0.0154     0.595     0.212     0.198  0.4392  0.8978 -0.0330
 
              Baa    -0.0832     6.021     2.148     2.008  0.3212 -0.1043  0.9413
    13 O(17)  Bbb    -0.0360     2.604     0.929     0.869  0.9366 -0.1122 -0.3320
              Bcc     0.1192    -8.625    -3.078    -2.877  0.1402  0.9882  0.0616
 
              Baa    -0.1043   -55.641   -19.854   -18.560  0.3706  0.2291  0.9001
    14 H(1)   Bbb    -0.0855   -45.637   -16.284   -15.223  0.3650  0.8552 -0.3679
              Bcc     0.1898   101.278    36.138    33.783  0.8540 -0.4649 -0.2334
 

 ---------------------------------------------------------------------------------

 No NMR shielding tensors so no spin-rotation constants.
 Leave Link  601 at Wed Nov 26 19:58:22 2025, MaxMem=  4294967296 cpu:         3.7
 (Enter /usr/local/g09/l701.exe)
 Compute integral second derivatives.
 ... and contract with generalized density number  0.
 R6Disp: Adding Grimme-D2 dispersion energy 2nd derivatives to the Hessian.
 Entering OneElI...
 Calculate overlap and kinetic energy integrals
    NBasis = 384  MinDer = 2  MaxDer = 2
 Requested accuracy = 0.1000D-14
 PrsmSu:  NPrtUS=   8 ThrOK=T IAlg=1 NPAlg=1 LenDen=           0.
 Prism:   IPart=     0 DynPar=F LinDyn=F Incr=           9.
 PRISM was handed   536628274 working-precision words and  7758 shell-pairs
 PRISM was handed   536628274 working-precision words and  7758 shell-pairs
 PRISM was handed   536628274 working-precision words and  7758 shell-pairs
 PRISM was handed   536628274 working-precision words and  7758 shell-pairs
 PRISM was handed   536628274 working-precision words and  7758 shell-pairs
 PRISM was handed   536628274 working-precision words and  7758 shell-pairs
 PRISM was handed   536628274 working-precision words and  7758 shell-pairs
 PRISM was handed   536628274 working-precision words and  7758 shell-pairs
 IPart=  6 NShTot=         951 NBatch=          48 AvBLen=        19.8
 IPart=  4 NShTot=         960 NBatch=          51 AvBLen=        18.8
 IPart=  2 NShTot=         977 NBatch=          61 AvBLen=        16.0
 IPart=  5 NShTot=         954 NBatch=          50 AvBLen=        19.1
 IPart=  3 NShTot=         969 NBatch=          56 AvBLen=        17.3
 IPart=  0 NShTot=        1007 NBatch=          74 AvBLen=        13.6
 IPart=  1 NShTot=         995 NBatch=          67 AvBLen=        14.9
 IPart=  7 NShTot=         945 NBatch=          45 AvBLen=        21.0
 PrSmSu:  NxtVal=             73.
 Entering OneElI...
 Calculate potential energy integrals
    NBasis = 384  MinDer = 2  MaxDer = 2
 Requested accuracy = 0.1000D-14
 PrsmSu:  NPrtUS=   8 ThrOK=T IAlg=1 NPAlg=1 LenDen=           0.
 Prism:   IPart=     0 DynPar=F LinDyn=F Incr=         122.
 PRISM was handed   536675089 working-precision words and  7015 shell-pairs
 PRISM was handed   536675089 working-precision words and  7015 shell-pairs
 PRISM was handed   536675089 working-precision words and  7015 shell-pairs
 PRISM was handed   536675089 working-precision words and  7015 shell-pairs
 PRISM was handed   536675089 working-precision words and  7015 shell-pairs
 PRISM was handed   536675089 working-precision words and  7015 shell-pairs
 PRISM was handed   536675089 working-precision words and  7015 shell-pairs
 PRISM was handed   536675089 working-precision words and  7015 shell-pairs
 IPart=  1 NShTot=       12600 NBatch=         900 AvBLen=        14.0
 IPart=  6 NShTot=       12012 NBatch=         858 AvBLen=        14.0
 IPart=  4 NShTot=       12180 NBatch=         870 AvBLen=        14.0
 IPart=  2 NShTot=       12390 NBatch=         885 AvBLen=        14.0
 IPart=  5 NShTot=       12040 NBatch=         860 AvBLen=        14.0
 IPart=  7 NShTot=       11998 NBatch=         857 AvBLen=        14.0
 IPart=  3 NShTot=       12278 NBatch=         877 AvBLen=        14.0
 IPart=  0 NShTot=       12712 NBatch=         908 AvBLen=        14.0
 PrSmSu:  NxtVal=            977.
   1 Symmetry operations used in ECPInt.
 ECPInt:  NShTT=    8001 NPrTT=   25432 LenC2=    7516 LenP2D=   18015.
 LDataN:  DoStor=F MaxTD1= 8 Len=  415
 LDataN:  DoStor=T MaxTD1= 8 Len=  415
 ECPSu:  NPrtUS=   8 ThrOK=T
 Polarizability after L701:
                1             2             3 
      1  0.150265D+03
      2 -0.179059D+02  0.760809D+02
      3 -0.892458D+01  0.186992D+01  0.576272D+02
 Dipole Derivatives after L701:
                 1             2             3             4             5 
      1   0.531242D+00 -0.487588D+00 -0.561794D+00  0.799155D+00 -0.529113D+00
      2  -0.376145D+00 -0.298772D-01  0.240024D+00 -0.380347D+00  0.982917D+00
      3  -0.702023D-01  0.196361D+00 -0.615552D+00 -0.116536D-02  0.492368D+00
                 6             7             8             9            10 
      1   0.129116D+01 -0.631582D+00  0.474981D+00 -0.462735D+00 -0.419624D+00
      2   0.964956D-01  0.335408D+00 -0.894515D+00  0.789126D-01 -0.849629D-01
      3   0.147332D+01  0.499837D-01 -0.202245D+00 -0.613347D+00  0.158630D+00
                11            12            13            14            15 
      1  -0.161983D+00 -0.333675D+00  0.200815D+00 -0.190553D+00 -0.127200D+00
      2  -0.450236D+00 -0.316147D+00  0.224557D-01  0.176237D+00  0.611219D-02
      3  -0.297846D+00 -0.957075D+00 -0.640196D-01 -0.585866D-01  0.270252D+00
                16            17            18            19            20 
      1   0.242552D+00  0.316527D-01  0.460909D-01  0.232247D+00  0.869176D-01
      2   0.526202D-01  0.191260D+00 -0.349383D-01  0.794987D-01  0.203408D+00
      3  -0.436745D-01 -0.459491D-01  0.257714D+00 -0.266138D-01 -0.409492D-02
                21            22            23            24            25 
      1  -0.239160D-01 -0.568379D+00 -0.116971D+01 -0.906642D-02  0.269650D+01
      2   0.480018D-01 -0.346347D+00 -0.443650D+00  0.121748D+00  0.201649D+00
      3   0.172889D+00  0.448683D-01  0.195531D+00 -0.396901D+00 -0.347222D+00
                26            27            28            29            30 
      1   0.233596D+01 -0.714887D+00 -0.128410D+01 -0.381782D+00  0.431045D+00
      2   0.756530D+00 -0.401151D-01 -0.516272D+00 -0.531692D+00  0.149443D+00
      3  -0.275763D+00  0.399328D+00  0.208278D+00 -0.224214D-01 -0.101882D+00
                31            32            33            34            35 
      1  -0.191494D+00  0.531817D+00  0.104738D+00  0.874979D+00 -0.125714D+00
      2   0.174017D+00  0.686757D+00 -0.180613D-01  0.139042D+00 -0.344275D-01
      3   0.280377D-01 -0.449599D-01 -0.401197D-01 -0.241340D+00 -0.256054D-01
                36            37            38            39            40 
      1  -0.338499D+00 -0.931097D+00 -0.136156D+01  0.237546D+00 -0.155121D+01
      2  -0.526293D-01  0.987448D-01 -0.569605D+00 -0.766131D-01  0.600638D+00
      3   0.682804D-01  0.239879D+00  0.226066D+00 -0.788945D-01  0.645607D-01
                41            42 
      1   0.946667D+00  0.461194D+00
      2  -0.431058D-01 -0.202233D+00
      3  -0.132856D+00  0.161988D+00
 Hessian after L701:
                1             2             3             4             5 
      1  0.134923D+02
      2  0.291754D+01  0.153806D+02
      3 -0.335196D+01  0.104577D+01  0.107077D+02
      4 -0.858377D+01 -0.197292D+01  0.366835D+01  0.337217D+02
      5 -0.182939D+01 -0.870518D+01 -0.294828D+01  0.124938D+02  0.243215D+02
      6  0.338630D+01 -0.305261D+01 -0.373369D+01 -0.195921D+01 -0.327167D+01
      7  0.281056D+00 -0.123047D+00  0.454932D+00 -0.145689D+02 -0.949180D+01
      8 -0.943757D-01  0.234146D+00 -0.564229D+00 -0.925937D+01 -0.639494D+01
      9  0.463464D+00 -0.601420D+00  0.490136D+00 -0.831833D+00  0.175921D+01
     10  0.182920D+00  0.657060D-01 -0.271412D+00 -0.115360D+02 -0.111117D+01
     11  0.579987D-01  0.201564D+00 -0.138506D+00 -0.121142D+01 -0.874812D+01
     12 -0.202224D+00 -0.899632D-01 -0.153280D-01 -0.886334D+00  0.476384D+01
     13 -0.614960D+01  0.560708D+00  0.599840D+00  0.381696D-01 -0.514779D-01
     14  0.639565D+00 -0.429927D+01  0.212340D+01 -0.164647D-01  0.741565D-01
     15  0.785285D+00  0.243292D+01 -0.388029D+01 -0.997613D-01 -0.119966D+00
     16 -0.236997D-01 -0.980538D-02  0.105695D+00  0.555614D-01 -0.104300D-01
     17 -0.537745D-02 -0.516054D-01 -0.315662D-01 -0.303743D-01  0.717934D-01
     18  0.787516D-01 -0.340977D-01  0.198410D+00 -0.749890D-01  0.474680D-02
     19 -0.580945D-01 -0.118543D-01 -0.430567D-01  0.326849D-01  0.442009D-01
     20 -0.192954D-02 -0.137702D-02  0.154656D+00  0.772982D-01 -0.125591D+00
     21  0.412545D-02  0.637106D-01  0.909627D-01  0.844792D-01 -0.186005D+00
     22 -0.243414D+00 -0.484066D-01  0.167147D+00  0.212818D+00 -0.243751D+00
     23  0.342360D-02  0.880482D-01 -0.716825D-01 -0.264744D+00 -0.339268D-01
     24  0.657740D-01 -0.103958D-02 -0.144355D-01  0.804416D-01 -0.524930D-01
     25  0.625478D+00 -0.134314D+00 -0.287261D+00  0.156675D+00 -0.360156D-01
     26 -0.133464D+00 -0.382203D+00  0.437011D-01 -0.273842D-01 -0.949629D-01
     27 -0.302694D+00  0.316733D-01 -0.282412D+00  0.213424D-01 -0.566812D-02
     28  0.216805D+00 -0.119750D-01 -0.898815D-01  0.107250D+00 -0.197006D-01
     29 -0.406362D-01 -0.107303D+00  0.709255D-02 -0.299475D-01 -0.600839D-01
     30 -0.106013D+00  0.159258D-02 -0.827165D-01 -0.128473D-01 -0.368720D-03
     31  0.131103D+00  0.492797D-01 -0.475835D-01  0.720171D-01  0.254503D-01
     32  0.170231D-01 -0.570267D-01 -0.632877D-02  0.252213D-02 -0.430015D-01
     33 -0.618540D-01 -0.171084D-01 -0.462376D-01 -0.107817D-01 -0.471692D-02
     34  0.131229D+00  0.109172D+00 -0.514619D-01  0.738682D-01  0.539299D-01
     35  0.130472D+00 -0.302718D-01 -0.311219D-01  0.478528D-01 -0.387110D-01
     36 -0.601409D-01 -0.327752D-01 -0.777447D-01  0.285106D-02  0.363730D-03
     37  0.346538D+00  0.318149D+00 -0.135314D+00  0.297232D+00  0.119206D+00
     38  0.331530D+00 -0.137131D+00 -0.775996D-01  0.112892D+00 -0.168571D+00
     39 -0.162046D+00 -0.877631D-01 -0.263689D+00  0.662328D-01  0.119293D-01
     40 -0.348821D+00 -0.170823D+01 -0.718035D+00 -0.792700D-01  0.571469D-01
     41 -0.199237D+01 -0.213299D+01  0.494689D+00  0.782522D-01 -0.543917D-01
     42 -0.536774D+00  0.341109D+00 -0.309061D+01 -0.479344D-01  0.490782D-01
                6             7             8             9            10 
      6  0.262599D+02
      7 -0.858716D+00  0.132459D+02
      8  0.173932D+01  0.992523D+01  0.617199D+01
      9 -0.193645D+02  0.512634D+00 -0.167744D+01  0.186986D+02
     10 -0.670882D+00  0.156199D+00  0.202750D+00 -0.226722D+00  0.204157D+02
     11  0.476084D+01  0.275216D+00  0.905462D-01  0.379158D+00  0.378219D+01
     12 -0.227228D+01 -0.190058D+00  0.384125D+00  0.617503D+00 -0.166075D+01
     13 -0.635611D-01  0.315204D-01 -0.790993D-01  0.756128D-01 -0.417163D-01
     14 -0.904476D-02 -0.298689D-02 -0.780013D-01  0.133374D-01  0.291231D-01
     15 -0.116252D+00  0.137616D+00 -0.103095D+00  0.117165D-01  0.676294D-01
     16 -0.217997D-01 -0.876566D-01  0.178986D-01  0.196827D-01 -0.467061D+01
     17 -0.549181D-01 -0.281706D-01 -0.422841D-02  0.725962D-01 -0.789741D+00
     18 -0.134797D+00 -0.707030D-01  0.190926D+00  0.998290D-01  0.211658D+01
     19  0.276064D-01  0.697438D-02 -0.105239D+00 -0.370513D-01 -0.552769D+01
     20 -0.837912D-01 -0.110727D+00  0.183882D+00  0.749807D-01 -0.216347D+01
     21 -0.153965D-01 -0.299760D-01  0.630026D-01 -0.371927D-01 -0.176119D+00
     22  0.694876D-01  0.897514D-01 -0.175373D+00  0.150345D-01  0.214196D+00
     23 -0.406678D-01 -0.214974D+00  0.671163D-01 -0.119624D-01 -0.257472D+00
     24 -0.188375D+00  0.319140D-01 -0.250470D-01 -0.110038D+00  0.328215D+00
     25  0.141994D-01  0.142029D+00 -0.116718D+00  0.126500D-01  0.248852D+00
     26 -0.311704D-01 -0.667584D-01 -0.555606D-01  0.701827D-02  0.142454D-01
     27 -0.816410D-01 -0.460360D-02  0.700288D-02 -0.730332D-01  0.132018D+00
     28 -0.373661D-02  0.114924D+00 -0.794491D-01 -0.151560D-01  0.175072D+00
     29  0.776897D-02 -0.631978D-01 -0.203876D-01  0.283790D-02 -0.191737D-01
     30 -0.649293D-01 -0.147820D-01  0.744698D-02 -0.501307D-01  0.455474D-01
     31 -0.766684D-02  0.107141D+00 -0.393807D-01 -0.130968D-01  0.106893D+00
     32 -0.563025D-02 -0.267333D-01 -0.328469D-01  0.397097D-02  0.195907D-01
     33 -0.394832D-01 -0.178970D-01  0.543633D-02 -0.360207D-01  0.147878D-01
     34 -0.216698D-02  0.132122D+00 -0.153804D-01 -0.521661D-02  0.845090D-01
     35  0.189096D-02  0.316642D-01 -0.709315D-01 -0.333701D-02  0.887507D-01
     36 -0.565420D-01 -0.300302D-03 -0.132951D-02 -0.612020D-01  0.443601D-01
     37  0.771156D-01  0.322136D+00 -0.935009D-01  0.226922D-01  0.175786D+00
     38  0.218426D-01 -0.329330D-01 -0.154207D+00 -0.683748D-02  0.168202D+00
     39 -0.180467D+00  0.414596D-01 -0.107893D-01 -0.151296D+00  0.184118D+00
     40  0.130315D-01  0.268030D-01 -0.879867D-01  0.730652D-02  0.159175D-01
     41  0.178436D-01 -0.707767D-01  0.634195D-01 -0.121076D-01 -0.295243D-01
     42 -0.115497D-01  0.848076D-02 -0.153224D-01 -0.343317D-01  0.726269D-01
               11            12            13            14            15 
     11  0.168997D+02
     12 -0.413667D+01  0.112682D+02
     13  0.231082D-01  0.678508D-01  0.602134D+01
     14 -0.360134D-01  0.966087D-01 -0.499333D+00  0.442387D+01
     15  0.765983D-01  0.187007D+00 -0.620454D+00 -0.229124D+01  0.372149D+01
     16 -0.890429D+00  0.202761D+01  0.293825D-02  0.516463D-02  0.578808D-02
     17 -0.556795D+01 -0.102734D+01 -0.117347D-02 -0.142307D-02 -0.459215D-02
     18 -0.121633D+01 -0.302920D+01  0.144390D-02  0.905886D-02  0.414131D-02
     19 -0.188489D+01 -0.286987D-02 -0.493889D-02 -0.526934D-02 -0.557020D-02
     20 -0.215662D+01  0.985050D-01  0.402641D-02  0.120524D-01  0.206835D-01
     21  0.410023D+00 -0.631810D+01  0.218221D-02  0.888192D-02  0.106871D-01
     22 -0.245574D+00  0.306718D+00  0.489411D-02 -0.101115D+00 -0.915305D-01
     23 -0.170544D+00 -0.160022D+00 -0.768761D-01  0.732846D-01  0.118703D+00
     24 -0.166313D+00 -0.876197D-01 -0.548232D-01  0.855444D-01  0.131223D-01
     25 -0.450988D-01  0.182561D+00  0.700521D-02 -0.363726D-01 -0.564350D-01
     26 -0.168753D+00  0.145344D-01 -0.583947D-02 -0.976936D-02  0.114017D-01
     27 -0.115749D-01 -0.949195D-01 -0.191039D-01  0.227133D-01  0.159714D-01
     28 -0.370290D-01  0.464700D-01  0.933230D-02 -0.291480D-01 -0.367116D-01
     29 -0.871807D-01 -0.755490D-02 -0.477793D-02 -0.257398D-02  0.104962D-01
     30 -0.615525D-02 -0.791640D-01 -0.929744D-02  0.138259D-01  0.819463D-02
     31  0.170669D-01  0.204048D-01  0.598688D-02 -0.166198D-01 -0.278825D-01
     32 -0.523161D-01  0.483932D-02  0.566028D-03 -0.314150D-02  0.279812D-02
     33  0.227907D-02 -0.491441D-01 -0.559338D-02  0.738990D-02  0.666623D-02
     34  0.593955D-01  0.426721D-01  0.634474D-02 -0.868239D-02 -0.264568D-01
     35 -0.424928D-01  0.184453D-01  0.445707D-02 -0.183167D-01 -0.150970D-01
     36  0.152065D-01 -0.578232D-01 -0.775728D-02  0.384936D-02  0.274768D-02
     37  0.126847D+00  0.174921D+00  0.414678D-01 -0.209087D-01 -0.919867D-01
     38 -0.128736D+00  0.737011D-01  0.209365D-01 -0.506777D-01 -0.280316D-01
     39  0.634306D-01 -0.811651D-01 -0.359289D-01  0.122257D-01  0.350359D-02
     40 -0.273809D-01  0.730280D-01  0.272545D-01  0.630472D-01  0.604704D-01
     41 -0.330406D-01 -0.330438D-01  0.104775D+00 -0.841846D-01 -0.111581D+00
     42 -0.319863D-01  0.120484D-01  0.695891D-01 -0.965565D-01  0.113013D-01
               16            17            18            19            20 
     16  0.459820D+01
     17  0.720669D+00  0.568422D+01
     18 -0.212273D+01  0.909383D+00  0.275814D+01
     19 -0.120156D-01  0.180222D+00 -0.104995D+00  0.556526D+01
     20  0.178710D+00 -0.947770D-01  0.151028D+00  0.179111D+01  0.221673D+01
     21 -0.115200D+00  0.163960D+00  0.537296D-01  0.113564D+00 -0.520393D+00
     22  0.243740D-01 -0.175607D-01  0.392954D-01  0.197601D-01  0.331186D-01
     23 -0.303455D-01 -0.167004D-02 -0.306339D-01 -0.237557D-01 -0.699937D-01
     24  0.359316D-01 -0.160626D-01  0.233021D-01  0.433940D-01  0.346522D-01
     25  0.280680D-01 -0.870605D-02  0.311745D-01 -0.463675D-02  0.437352D-01
     26  0.158699D-02 -0.780105D-02  0.134428D-03  0.683209D-03  0.110636D-02
     27  0.143207D-01 -0.382941D-02  0.560560D-02  0.206731D-02  0.139964D-01
     28  0.252229D-01 -0.951388D-02  0.277805D-01  0.609823D-03  0.411187D-01
     29 -0.568029D-02 -0.424089D-02 -0.494415D-02  0.215227D-02 -0.896629D-02
     30  0.828481D-02 -0.208103D-02  0.235936D-03  0.332913D-02  0.602291D-02
     31  0.204417D-01 -0.485762D-02  0.214458D-01 -0.227087D-02  0.308147D-01
     32 -0.391995D-03 -0.296803D-02 -0.167348D-02  0.306969D-02 -0.784929D-03
     33  0.339596D-02 -0.295960D-03 -0.157544D-02  0.156079D-02  0.107909D-02
     34  0.146582D-01 -0.466592D-03  0.163726D-01 -0.180361D-02  0.227356D-01
     35  0.120232D-01 -0.683225D-02  0.120720D-01  0.728774D-03  0.191451D-01
     36  0.961942D-02 -0.103621D-02  0.417104D-02  0.593619D-03  0.950467D-02
     37  0.246921D-01 -0.229144D-02  0.342559D-01 -0.559944D-02  0.474255D-01
     38  0.128491D-01 -0.123643D-01  0.142549D-01  0.664518D-02  0.275685D-01
     39  0.250018D-01 -0.217988D-02  0.143948D-01  0.730119D-02  0.316554D-01
     40 -0.168784D-03 -0.265786D-02  0.631383D-02 -0.823173D-02  0.603756D-02
     41 -0.181927D-02 -0.150006D-03 -0.392930D-02  0.219681D-02 -0.237645D-02
     42  0.439883D-02 -0.203707D-02  0.361436D-02 -0.587300D-02  0.741952D-02
               21            22            23            24            25 
     21  0.625661D+01
     22  0.698109D-01  0.913136D+01
     23 -0.244451D-01 -0.691149D+01  0.109730D+02
     24 -0.484377D-02  0.413383D+01  0.225944D+01  0.229965D+02
     25  0.135298D-01 -0.101234D+02  0.835357D+01 -0.330198D+01  0.215694D+02
     26  0.335128D-02  0.791064D+01 -0.835171D+01 -0.225593D+01 -0.678600D+01
     27 -0.841205D-02 -0.323082D+01 -0.232366D+01 -0.193962D+02  0.791214D+01
     28  0.975372D-02  0.417298D+00  0.500401D-01 -0.991286D-01 -0.785368D+00
     29  0.769066D-03 -0.501350D-01 -0.231042D+00 -0.419602D-02 -0.120627D+01
     30 -0.872178D-02 -0.943284D-01 -0.477328D-01  0.170286D+00 -0.422622D+01
     31  0.443981D-02  0.295968D+00  0.412012D+00 -0.173190D+00  0.338836D+00
     32  0.899777D-03  0.333204D+00  0.391231D-01 -0.110664D+00  0.232250D+00
     33 -0.500037D-02 -0.170207D+00 -0.136161D+00 -0.165888D+00 -0.173487D+00
     34  0.433977D-02 -0.135296D-01  0.333872D+00 -0.509287D-01 -0.131192D+00
     35  0.405157D-02  0.372336D+00  0.369705D+00 -0.101235D+00  0.358803D+00
     36 -0.460392D-02 -0.441341D-01 -0.801778D-01 -0.197253D+00  0.258073D-01
     37  0.167990D-01 -0.103918D+00 -0.102975D+00  0.137141D+00 -0.119594D+02
     38  0.143280D-01  0.368576D-01  0.556766D+00  0.646573D-01 -0.601381D+00
     39 -0.485245D-02  0.145635D+00  0.108338D+00  0.180142D+00 -0.262757D+00
     40 -0.172919D-02  0.738582D-01 -0.127028D+01 -0.117659D+01 -0.112352D+00
     41 -0.213601D-02 -0.892751D+00 -0.330818D+01  0.288692D+00 -0.174886D-01
     42 -0.486464D-02 -0.131594D+01  0.440666D+00 -0.321867D+01  0.116069D+00
               26            27            28            29            30 
     26  0.201167D+02
     27  0.882055D+00  0.432329D+02
     28 -0.803304D+00 -0.422818D+01  0.728558D+01
     29 -0.118062D+02  0.483689D+00 -0.242675D+01  0.108570D+02
     30  0.337864D+00 -0.108109D+02  0.511570D+01  0.163150D+00  0.208959D+02
     31  0.272284D+00 -0.166673D+00 -0.763659D+01  0.456951D+01 -0.623912D+00
     32 -0.176097D+00 -0.892455D-01  0.401874D+01  0.574093D-01 -0.808911D+00
     33 -0.107324D+00 -0.806013D-01 -0.655718D+00 -0.991186D+00 -0.998593D+01
     34  0.277152D+00  0.254739D-01 -0.303513D+00 -0.454001D+00  0.152862D+00
     35  0.365945D+00 -0.795700D-01 -0.381873D+00  0.113234D+01  0.188403D+00
     36 -0.574241D-01 -0.157905D+00  0.156265D+00  0.213275D+00  0.147195D+00
     37 -0.781175D+00 -0.266672D+00  0.308145D+00 -0.280834D+00 -0.196716D+00
     38  0.479065D+00  0.105063D+01 -0.324587D+00  0.301489D+00  0.152705D+00
     39  0.117935D+01 -0.122885D+02 -0.192195D+00  0.123074D+00 -0.137297D+00
     40  0.127326D+00  0.111377D+00  0.652358D-01  0.974683D-02 -0.416074D-01
     41  0.902185D-01  0.217854D-01  0.134315D-01 -0.202461D-01 -0.576112D-02
     42 -0.275551D-01  0.200670D-01 -0.352606D-01 -0.427133D-02 -0.199712D-02
               31            32            33            34            35 
     31  0.149610D+02
     32  0.331888D+01  0.815647D+01
     33  0.603887D+01 -0.266172D+01  0.292218D+02
     34 -0.939764D+01 -0.750115D+01 -0.465435D+01  0.103992D+02
[...]
     39 -0.634236D-01  0.116169D+00 -0.366841D-01  0.103059D+00
     40  0.251022D-02 -0.829190D-02 -0.820567D-02 -0.152007D-02 -0.835686D-01
     41 -0.180586D-02  0.607006D-02  0.722590D-02  0.153134D-02  0.670269D-01
     42 -0.545783D-03 -0.111454D-02 -0.192591D-02 -0.219132D-02 -0.404873D-01
               41            42 
     41  0.325962D-01
     42  0.161446D-01  0.534709D-01
 Final forces over variables, Energy=-5.77910325D+02:
  3.35660232D-06 1.12131776D-05-5.89564532D-05 4.70774043D-05
  2.10554561D-05-1.37742884D-05-2.03713512D-05 9.57363449D-05
 -1.34744395D-04-8.00464416D-05 5.05890320D-05-5.91456697D-05
  1.23089481D-04 1.49211015D-05 2.88287414D-06 9.38431026D-05
  5.51818450D-05-1.93777791D-04 1.20403289D-05 4.59634530D-05
  4.72701845D-05-1.02190266D-04-2.47818194D-05 3.80974954D-05
 -4.01470544D-06 4.00986611D-05 9.38086608D-06-1.99942297D-05
  5.18282545D-06 1.30800444D-04-2.77560962D-05-6.89628375D-05
 -2.24081405D-05-1.51135183D-05-1.53349525D-05-2.67948064D-06
  4.60026161D-05 7.29005659D-07-2.43691345D-05-7.47255809D-05
  7.42131209D-05-5.57827136D-06
 Leave Link  716 at Wed Nov 26 20:04:13 2025, MaxMem=  4294967296 cpu:         0.2
 (Enter /usr/local/g09/l103.exe)

 GradGradGradGradGradGradGradGradGradGradGradGradGradGradGradGradGradGrad
 Berny optimization.
 Search for a local minimum.
 Step number   1 out of a maximum of    2
 All quantities printed in internal units (Hartrees-Bohrs-Radians)
 Second derivative matrix not updated -- analytic derivatives used.
 ITU=  0
     Eigenvalues ---   -0.16464   0.00015   0.00084   0.00147   0.00374
     Eigenvalues ---    0.00856   0.01125   0.01468   0.02351   0.02579
     Eigenvalues ---    0.03430   0.05218   0.06790   0.07285   0.08312
     Eigenvalues ---    0.10075   0.18274   0.19408   0.22833   0.25305
     Eigenvalues ---    0.26145   0.29578   0.32957   0.38156   0.44516
     Eigenvalues ---    0.53842   0.59911   0.60971   0.64772   0.74277
     Eigenvalues ---    0.98446   1.12243   1.25652   1.39985   1.53473
     Eigenvalues ---    1.54253
 Eigenvalue     1 is  -1.65D-01 should be greater than     0.000000 Eigenvector:
                          X14       Y14       X1        Z14       X8
   1                    0.83316  -0.37469  -0.25820   0.21927  -0.12202
                          Z1        Y5        Y8        X9        X13
   1                   -0.08778   0.08267   0.06792  -0.05089   0.04685
 Angle between quadratic step and forces=  84.22 degrees.
 Linear search not attempted -- first point.
 TrRot=  0.002713  0.000390 -0.003261  1.296880  0.004271 -1.296966
 Variable       Old X    -DE/DX   Delta X   Delta X   Delta X     New X
                                 (Linear)    (Quad)   (Total)
    X1       -3.32850   0.00000   0.00000   0.01579   0.01614  -3.31236
    Y1       -0.82423   0.00000   0.00000   0.03108   0.02358  -0.80065
    Z1       -1.99544   0.00001   0.00000   0.00541   0.00925  -1.98619
    X2       -4.45818   0.00001   0.00000  -0.01977  -0.01690  -4.47508
    Y2        0.30887   0.00009   0.00000  -0.00422  -0.00300   0.30588
    Z2        0.10032   0.00013   0.00000   0.00615   0.00681   0.10712
    X3       -5.71002  -0.00006   0.00000  -0.01880  -0.01604  -5.72606
    Y3        2.21765   0.00006   0.00000  -0.00222  -0.00182   2.21583
    Z3       -0.13312  -0.00003   0.00000   0.01581   0.01005  -0.12306
    X4       -4.13970   0.00005   0.00000  -0.05678  -0.05148  -4.19118
    Y4       -0.94207  -0.00019   0.00000  -0.04178  -0.03154  -0.97361
    Z4        2.31483  -0.00007   0.00000  -0.01102  -0.00541   2.30941
    X5       -2.97779   0.00002   0.00000   0.04096   0.03993  -2.93786
    Y5        0.52279   0.00001   0.00000   0.05365   0.04080   0.56358
    Z5       -3.31748  -0.00002   0.00000   0.03504   0.03283  -3.28465
    X6       -5.16559  -0.00001   0.00000  -0.07103  -0.06397  -5.22956
    Y6       -0.36127   0.00005   0.00000  -0.06170  -0.04528  -0.40654
    Z6        3.79929  -0.00002   0.00000  -0.01330  -0.00881   3.79048
    X7       -3.35122  -0.00002   0.00000  -0.03363  -0.02844  -3.37966
    Y7       -2.66685   0.00005   0.00000  -0.03113  -0.02081  -2.68766
    Z7        2.35759  -0.00002   0.00000  -0.02006  -0.00834   2.34925
    X8        0.64399   0.00010   0.00000  -0.00729  -0.00569   0.63829
    Y8       -2.84494  -0.00010   0.00000   0.01169   0.00892  -2.83602
    Z8       -0.80939   0.00000   0.00000   0.04835   0.05601  -0.75338
    X9        2.17253  -0.00013   0.00000   0.00700   0.00921   2.18175
    Y9       -1.11101  -0.00002   0.00000   0.00653   0.00528  -1.10574
    Z9       -0.37321   0.00005   0.00000   0.01836   0.01712  -0.35608
   X10        4.56844  -0.00008   0.00000   0.00275   0.00595   4.57439
   Y10       -1.45151   0.00004   0.00000   0.00367   0.00586  -1.44565
   Z10        0.50510   0.00000   0.00000   0.02858   0.02599   0.53109
   X11        5.63780   0.00005   0.00000   0.02594   0.02955   5.66735
   Y11        0.90849   0.00000   0.00000  -0.00141   0.00143   0.90991
   Z11        0.74344  -0.00002   0.00000  -0.02460  -0.03814   0.70530
   X12        4.13666  -0.00006   0.00000   0.04125   0.04422   4.18089
   Y12        2.53775   0.00004   0.00000  -0.00109  -0.00092   2.53683
   Z12        0.10285  -0.00007   0.00000  -0.06000  -0.07852   0.02433
   X13        1.88966   0.00012   0.00000   0.03042   0.03248   1.92214
   Y13        1.43841   0.00001   0.00000   0.00414   0.00158   1.43999
   Z13       -0.63884   0.00007   0.00000  -0.03382  -0.04522  -0.68406
   X14       -1.42784   0.00001   0.00000   0.00429   0.00504  -1.42280
   Y14       -2.16320  -0.00002   0.00000   0.02172   0.01591  -2.14729
   Z14       -1.56132  -0.00001   0.00000   0.01918   0.02639  -1.53493
         Item               Value     Threshold  Converged?
 Maximum Force            0.000194     0.000450     YES
 RMS     Force            0.000063     0.000300     YES
 Maximum Displacement     0.078518     0.001800     NO 
 RMS     Displacement     0.029308     0.001200     NO 
 Predicted change in Energy=-4.007413D-06
 GradGradGradGradGradGradGradGradGradGradGradGradGradGradGradGradGradGrad

 Leave Link  103 at Wed Nov 26 20:04:13 2025, MaxMem=  4294967296 cpu:         0.1
 (Enter /usr/local/g09/l9999.exe)

 Test job not archived.
 1\1\GINC-N171\Freq\UwB97XD\def2TZVP\C2H4N5O3(2)\CALVIN.P\26-Nov-2025\0
 \\#P guess=read uwb97xd/def2tzvp freq IOp(7/33=1) integral=(grid=ultra
 fine, Acc2E=12) IOp(2/9=2000) scf=(direct,tight)\\TSOpt\\0,2\N,-1.7613
 67,-0.436163,-1.05594\C,-2.359166,0.163448,0.053085\O,-3.021615,1.1735
 32,-0.070442\N,-2.190635,-0.498522,1.224954\H,-1.575777,0.276647,-1.75
 5533\H,-2.733511,-0.191174,2.010499\H,-1.773389,-1.411235,1.247583\N,0
 .340783,-1.505477,-0.428309\C,1.149656,-0.587923,-0.197492\O,2.417513,
 -0.768108,0.267288\N,2.983395,0.48075,0.393412\N,2.189028,1.342917,0.0
 54426\O,0.999964,0.761174,-0.338058\H,-0.755582,-1.144718,-0.826213\\V
 ersion=EM64L-G09RevD.01\State=2-A\HF=-577.910325\S2=0.760912\S2-1=0.\S
 2A=0.750088\RMSD=9.796e-09\RMSF=6.325e-05\ZeroPoint=0.0850791\Thermal=
 0.0946532\Dipole=0.4765234,-0.4374815,0.4550511\DipoleDeriv=0.5312421,
 -0.3761451,0.0702023,-0.4875881,-0.0298772,-0.1963607,0.5617938,-0.240
 0235,-0.615552,0.7991554,-0.3803473,0.0011653,-0.5291131,0.982917,-0.4
 923683,-1.2911588,-0.0964956,1.473321,-0.6315825,0.3354077,-0.0499837,
 0.4749809,-0.8945146,0.202245,0.4627353,-0.0789126,-0.6133473,-0.41962
 41,-0.0849629,-0.1586302,-0.1619834,-0.4502365,0.2978457,0.3336751,0.3
 161469,-0.9570752,0.2008146,0.0224557,0.0640196,-0.1905525,0.1762373,0
 .0585866,0.1272,-0.0061122,0.2702516,0.2425523,0.0526202,0.0436745,0.0
 316527,0.1912601,0.0459491,-0.0460909,0.0349383,0.2577143,0.2322471,0.
 0794987,0.0266138,0.0869176,0.2034076,0.0040949,0.023916,-0.0480018,0.
 1728895,-0.5683788,-0.3463465,-0.0448683,-1.1697083,-0.4436497,-0.1955
 311,0.0090664,-0.1217477,-0.3969014,2.6964992,0.2016489,0.3472222,2.33
 59647,0.7565302,0.2757627,0.7148866,0.040115,0.3993281,-1.2841038,-0.5
 16272,-0.2082785,-0.3817823,-0.5316919,0.0224214,-0.4310449,-0.1494433
 ,-0.1018823,-0.1914942,0.1740171,-0.0280377,0.5318171,0.6867565,0.0449
 599,-0.1047376,0.0180613,-0.0401197,0.8749789,0.1390424,0.2413399,-0.1
 257143,-0.0344275,0.0256054,0.3384986,0.0526293,0.0682804,-0.9310967,0
 .0987448,-0.2398786,-1.3615577,-0.5696054,-0.2260662,-0.2375458,0.0766
 131,-0.0788945,-1.5512097,0.6006384,-0.0645607,0.9466668,-0.0431059,0.
 1328558,-0.4611939,0.2022328,0.1619876\Polar=150.2650505,-17.9059298,7
 6.0808874,8.9245751,-1.8699197,57.6272404\PG=C01 [X(C2H4N5O3)]\NImag=1
 \\0.18403660,-0.03963806,0.38284219,-0.15113903,-0.15617172,0.50152880
 ,-0.07841242,-0.00690464,0.03288856,0.42371839,0.01964655,-0.08801533,
 -0.02480725,-0.29156520,0.71918791,0.08056015,-0.02595265,-0.19977531,
 -0.03598656,-0.13430135,0.64448001,-0.02273623,0.05797037,0.02920071,-
 0.25590967,0.25631075,-0.02997491,0.27005755,0.05103831,-0.04386084,-0
 .03738411,0.25527968,-0.47587349,0.06639553,-0.34624203,0.56479463,0.0
 1590667,-0.02545316,0.01156369,-0.01282797,0.03915884,-0.11354042,0.02
 615614,-0.06703651,0.10307723,0.00533872,-0.00311595,0.02183709,-0.077
 38147,0.03345028,0.01137278,0.00229952,0.03892197,-0.03545491,0.301877
 13,0.00695339,0.01358735,-0.01105070,0.04049884,-0.15658495,0.09989813
 ,0.03106156,-0.04363906,0.05925531,-0.34473329,0.67106509,0.00203605,0
 .01329593,-0.06328720,-0.00521040,0.08579618,-0.29087346,-0.02046217,0
 .03849473,-0.00273020,-0.20359677,-0.06834386,0.73568224,-0.04591427,-
 0.04112781,0.06688924,0.00266938,-0.01744014,0.00690373,-0.00356455,0.
 00308796,-0.00087881,0.00020201,0.00200349,0.00308590,0.04257695,-0.03
 963610,-0.23972631,0.21913662,0.00610560,0.00877732,-0.02214284,-0.000
 82728,-0.00144694,0.00024528,0.00258661,-0.00101418,-0.00073535,0.0425
 0501,0.23405352,0.05921953,0.17446171,-0.21251381,0.00880511,0.0279085
 5,-0.03101566,-0.00586158,0.00007032,0.00468159,0.00440516,-0.00422227
 ,-0.00247894,-0.06645915,-0.19868549,0.24265917,0.00264295,0.00299125,
 -0.00215352,0.00407155,-0.00543203,-0.00669418,-0.00300732,-0.00125778
 ,-0.00053872,-0.14807101,0.09837696,0.19690059,0.00122563,0.00023716,-
 0.00036270,0.15060577,0.00185970,0.00069817,0.00428270,-0.01390477,0.0
 1148737,0.01013028,0.00037232,-0.00297634,-0.00275857,0.09226040,-0.09
 444840,-0.08068214,0.00010531,0.00051244,0.00057811,-0.09140042,0.0866
 6008,0.00089392,0.00442784,-0.00322515,0.01950737,-0.01291199,-0.02409
 219,-0.00163269,-0.00256011,0.00450612,0.18179734,-0.08546616,-0.30564
 137,0.00038271,-0.00086822,-0.00132103,-0.19391015,0.09396526,0.322855
 13,-0.00001743,-0.00115700,0.00403156,-0.00711926,0.00202745,-0.010635
 26,0.00641894,0.00129819,0.00178008,-0.08589522,0.16758977,0.01902872,
 -0.00060911,-0.00067540,-0.00014298,-0.00667802,0.01129513,-0.00562194
 ,0.09513015,-0.00035734,0.00049975,-0.00109386,0.00047825,-0.01143656,
 -0.00454073,0.00185585,0.00220253,0.00297321,0.18250890,-0.39036892,0.
 01600676,0.00014114,-0.00003675,-0.00023191,-0.00357516,-0.00201785,0.
 00264101,-0.18128148,0.40136792,-0.00110863,-0.00069771,0.00005217,-0.
 01482375,0.02594239,0.01083000,-0.00090201,0.00549235,-0.00665082,0.01
 741755,0.01079964,-0.07021303,-0.00030694,-0.00041810,0.00031472,0.006
 67396,-0.02552717,0.00668705,-0.00889849,-0.01583986,0.06106393,-0.091
 91657,0.05606076,-0.02378206,0.00127071,-0.00026684,0.00157645,-0.0024
 0689,0.00311718,0.00006035,-0.00270482,0.00131788,-0.00057059,0.000143
 82,0.00497998,0.00028180,-0.00021000,0.00042707,-0.00024482,0.00175696
 ,-0.00016682,-0.00098223,0.46552543,0.02601013,-0.01462020,0.00814866,
 0.00639181,-0.00493991,-0.00633553,0.00048811,0.00000277,0.00061238,0.
 00062014,0.00045505,0.00535643,0.00359360,-0.00303272,0.00117342,-0.00
 062207,-0.00055950,-0.00070131,-0.00020541,0.00009365,-0.00058507,0.28
 366362,0.44757201,-0.03467633,0.01944021,0.00190511,0.00154671,0.00266
 602,-0.00436482,-0.00126946,0.00040425,0.00116495,0.00208679,-0.000355
 68,0.00057714,0.00017652,-0.00033251,-0.00075371,0.00026322,-0.0001768
 3,0.00052624,-0.00125918,-0.00072129,-0.00034436,0.12606030,0.07687192
 ,0.08964668,-0.01906045,0.01209360,-0.00848203,-0.00300259,0.00240461,
 0.02310963,0.00100919,-0.00471963,-0.00857309,-0.00080539,0.00154520,-
 0.00983608,0.00148770,0.00436269,-0.00187223,0.00070636,0.00082343,0.0
 0135526,-0.00017419,-0.00099192,0.00098792,-0.33501505,-0.23807520,-0.
 07988846,0.67338517,-0.00624995,0.00828735,-0.00589947,-0.00345685,0.0
 0478851,0.02285408,-0.00074814,-0.00380478,-0.00747558,-0.00180511,0.0
 0066409,-0.01174059,-0.00102956,0.00547601,-0.00118004,0.00116658,0.00
 109470,0.00145006,0.00028430,-0.00071176,0.00077001,-0.28373849,-0.357
 61038,-0.08135459,0.28288405,0.70968294,-0.00673468,0.00381417,-0.0031
 5507,0.00019730,0.00057632,0.00863214,0.00018488,-0.00132275,-0.003040
 45,-0.00045017,0.00031344,-0.00444527,0.00005034,0.00118700,-0.0006161
 5,0.00054175,0.00031100,0.00055377,0.00022480,-0.00008139,0.00054629,-
 0.07806817,-0.06534029,-0.08882444,0.15577610,0.06634231,0.23448290,0.
 00161796,-0.00115960,0.00218571,0.00207944,-0.00146416,-0.00927339,-0.
 00050840,0.00187284,0.00318857,0.00046956,-0.00038959,0.00452769,0.000
 11213,-0.00164845,0.00073208,-0.00040188,-0.00036225,-0.00064850,0.000
 18623,0.00021021,-0.00067939,-0.06377610,-0.02581436,-0.02513175,-0.15
 501729,0.04774919,-0.03523694,0.35222668,0.00109844,-0.00162536,0.0013
 6027,0.00132297,-0.00148666,-0.00606435,0.00013771,0.00111987,0.001896
 02,0.00054215,-0.00019950,0.00272651,0.00028141,-0.00131947,0.00040690
 ,-0.00019868,-0.00035646,-0.00026980,-0.00045763,0.00014262,0.00001034
 ,-0.04009782,0.01216151,-0.01460021,0.04345728,-0.12595030,0.01974192,
 -0.04069177,0.41963878,0.00090704,-0.00049432,0.00054021,0.00019275,-0
 .00050907,-0.00275389,-0.00008278,0.00059224,0.00104391,-0.00005127,-0
 .00015296,0.00162523,0.00016236,-0.00029896,0.00039514,-0.00021783,-0.
 00013063,-0.00032456,0.00012257,0.00023921,-0.00024020,-0.02407510,-0.
 00957036,0.00273715,-0.03535307,0.02119896,-0.07587767,0.10735520,-0.0
 3743169,0.09947095,-0.00116181,-0.00088567,0.00029946,0.00127620,-0.00
 004008,-0.00267547,-0.00024986,0.00007047,0.00065221,0.00019831,-0.000
 28940,0.00114615,0.00059111,-0.00013836,0.00059696,-0.00001495,-0.0000
 8813,-0.00007833,-0.00029226,0.00009610,-0.00010562,-0.00000315,-0.001
 52000,0.00046421,-0.06851622,-0.00701007,-0.02615532,-0.10136378,0.010
 37873,-0.01768379,0.60819040,-0.00365679,0.00218837,-0.00176024,-0.000
 91366,0.00118612,0.00499305,0.00018368,-0.00116762,-0.00166891,-0.0002
 6862,0.00015736,-0.00206463,0.00022089,0.00101673,-0.00034014,0.000159
 02,0.00027087,0.00027083,0.00010185,-0.00012933,0.00001826,0.00763736,
 0.00023488,0.00290256,-0.09470267,0.00837010,-0.03432129,-0.05415880,-
 0.13838195,-0.01402429,-0.17275590,0.50655890,-0.00010851,-0.00077663,
 0.00061050,0.00035335,-0.00015214,-0.00132993,-0.00007216,0.00020111,0
 .00038447,-0.00003572,-0.00015291,0.00058705,0.00029727,-0.00000692,0.
 00032159,-0.00003208,-0.00006709,-0.00009776,-0.00011779,0.00013755,-0
 .00000434,-0.00011558,-0.00065509,-0.00096850,-0.02077239,-0.00250568,
 -0.00173267,-0.01346958,0.00913830,-0.05991085,0.19696078,-0.08812679,
 0.16667625,-0.00097350,0.00177679,-0.00089622,-0.00171067,0.00012711,0
 .00326815,0.00066625,-0.00033803,-0.00101705,0.00039920,0.00055602,-0.
 00137499,-0.00066929,0.00023682,-0.00071295,-0.00008540,0.00007746,0.0
 0024739,0.00001282,-0.00030912,0.00014217,-0.00397016,0.01203150,-0.00
 388723,0.00927241,-0.09501910,0.00784410,-0.02215508,0.01841394,-0.023
 67115,-0.30754767,0.28872677,-0.09845042,0.44748262,0.00439502,-0.0017
 0905,0.00168356,-0.00036749,-0.00078384,-0.00405980,0.00031454,0.00062
 963,0.00129671,0.00077149,-0.00007318,0.00171396,-0.00089718,-0.000900
 02,-0.00028684,-0.00017146,-0.00019402,-0.00008990,-0.00039375,-0.0001
 1816,0.00001596,0.00184999,-0.00415256,0.00096573,-0.00514378,-0.07231
 758,0.00283216,-0.02425230,-0.15130159,0.00328843,0.19234486,-0.346296
 03,0.08540156,-0.17287388,0.67790029,-0.00067338,0.00103738,-0.0008650
 1,-0.00056907,0.00002405,0.00172485,0.00017170,-0.00017919,-0.00054502
 ,0.00004978,0.00024374,-0.00076719,-0.00018139,0.00009212,-0.00031981,
 0.00002812,0.00007633,0.00013341,0.00011589,-0.00018729,0.00002166,-0.
 00325728,0.00472929,0.00315168,0.00229588,-0.02937817,0.00694440,-0.02
 137977,0.01852002,0.03244065,-0.09212270,0.12017708,-0.12465059,0.1392
 1841,-0.09870150,0.14670033,0.00227172,-0.00425562,0.00176924,0.001005
 39,-0.00037479,-0.00567948,-0.00036142,0.00051054,0.00172300,0.0001931
 9,-0.00068217,0.00207861,0.00013286,-0.00055748,0.00085654,0.00010674,
 -0.00012742,-0.00023088,-0.00046713,0.00016907,-0.00014224,0.02038555,
 -0.04105206,0.00309847,-0.12363015,0.03789838,-0.02437730,-0.01046799,
 0.01434673,-0.00532742,-0.12959323,0.02072042,-0.06261640,-0.12444030,
 0.01285666,-0.02620642,0.37315666,0.00437436,-0.00425263,0.00303524,0.
 00183526,-0.00172104,-0.01064474,-0.00053148,0.00231744,0.00362718,0.0
 0075949,-0.00043876,0.00473408,-0.00005436,-0.00176480,0.00113077,-0.0
 0037736,-0.00034602,-0.00065786,0.00020361,0.00003329,-0.00075572,-0.0
 1609527,-0.07106457,0.00030616,0.03722477,-0.15609680,0.01965149,0.097
 71299,-0.01583909,0.03631634,-0.02163717,-0.02886101,-0.00348491,-0.04
 968686,-0.10530261,-0.01464801,-0.04552231,0.37611071,0.00034968,-0.00
 083223,-0.00004768,0.00077711,-0.00029751,-0.00133499,-0.00017724,0.00
 015803,0.00031344,0.00007658,0.00001883,0.00054720,-0.00015087,-0.0001
 8939,0.00009342,-0.00005790,-0.00002774,-0.00002358,0.00008664,-0.0000
 1451,-0.00008638,0.00147864,-0.00873033,0.02098402,-0.02441456,0.01904
 664,-0.07370242,-0.01012491,0.00630923,-0.00310965,-0.06048643,0.01159
 405,0.01892206,-0.02200548,0.00811769,-0.06342359,0.11616881,-0.036684
 11,0.10305948,0.06428472,-0.03264841,0.02735129,-0.01255498,0.00261650
 ,-0.02587164,0.00829287,-0.00263967,0.00982353,0.00388028,-0.00380865,
 0.01224729,0.00161562,-0.01753080,0.00051441,-0.00089043,-0.00133782,-
 0.00181667,-0.00225249,0.00122231,0.00272770,0.01092026,-0.02550981,0.
 01241620,0.01936050,0.02907479,0.00620330,-0.00300150,-0.00853345,-0.0
 0227750,-0.00151310,0.00870645,-0.00182077,0.00371877,-0.00843271,0.00
 251022,-0.00829190,-0.00820567,-0.00152007,-0.08356863,-0.02583767,-0.
 01429345,0.00052030,0.00520020,-0.00458544,0.00977091,-0.00034594,0.00
 170221,-0.00467219,-0.00249844,0.00083804,-0.00455801,0.00861025,-0.00
 059481,-0.00078309,0.00010398,0.00017495,0.00077037,0.00137038,0.00047
 958,0.00077469,-0.01868859,-0.00454002,-0.00601575,-0.04116243,-0.0218
 7210,-0.01370409,0.00239606,0.00339759,0.00097710,0.00147463,-0.005147
 37,0.00104965,-0.00371942,0.00461872,-0.00180586,0.00607006,0.00722590
 ,0.00153134,0.06702695,0.03259622,0.03456752,-0.00609880,-0.03333126,0
 .00514950,-0.00909303,0.00341364,0.00472158,-0.00332589,-0.00022849,0.
 00054577,-0.00078456,0.00141778,-0.00997091,0.00301676,0.00055348,-0.0
 0044056,0.00002649,-0.00053608,0.00128537,0.00071308,-0.00197670,0.001
 63828,-0.00497412,-0.02543713,0.00566712,0.00787206,0.00023463,-0.0020
 4501,-0.00174346,0.00396357,-0.00081210,0.00235046,0.00119271,0.001295
 28,-0.00217771,-0.00054578,-0.00111454,-0.00192591,-0.00219132,-0.0404
 8729,0.01614463,0.05347094\\-0.00000336,-0.00000288,-0.00000518,-0.000
 01121,-0.00009384,-0.00013080,0.00005896,-0.00005518,0.00002776,-0.000
 04708,0.00019378,0.00006896,-0.00002106,-0.00001204,0.00002241,0.00001
 377,-0.00004596,0.00001511,0.00002037,-0.00004727,0.00001533,-0.000095
 74,0.00010219,0.00000268,0.00013474,0.00002478,-0.00004600,0.00008005,
 -0.00003810,-0.00000073,-0.00005059,0.00000401,0.00002437,0.00005915,-
 0.00004010,0.00007473,-0.00012309,-0.00000938,-0.00007421,-0.00001492,
 0.00001999,0.00000558\\\@


 Job cpu time:
 File lengths (MBytes):  RWF=    293 Int=      0 D2E=      0 Chk=     12 Scr=      1
 Normal termination of Gaussian 09 at Wed Nov 26 20:04:13 2025.
