 Entering Gaussian System, Link 0=g16
 Initial command:
 /opt/g16/l1.exe "/scratch/alongd/g16/a33758-33020/Gau-22484.inp" -scrdir="/scratch/alongd/g16/a33758-33020/"
 Entering Link 1 = /opt/g16/l1.exe PID=     22486.
  
 Copyright (c) 1988-2017, Gaussian, Inc.  All Rights Reserved.
  
 This is part of the Gaussian(R) 16 program.  It is based on
 the Gaussian(R) 09 system (copyright 2009, Gaussian, Inc.),
 the Gaussian(R) 03 system (copyright 2003, Gaussian, Inc.),
 the Gaussian(R) 98 system (copyright 1998, Gaussian, Inc.),
 the Gaussian(R) 94 system (copyright 1995, Gaussian, Inc.),
 the Gaussian 92(TM) system (copyright 1992, Gaussian, Inc.),
 the Gaussian 90(TM) system (copyright 1990, Gaussian, Inc.),
 the Gaussian 88(TM) system (copyright 1988, Gaussian, Inc.),
 the Gaussian 86(TM) system (copyright 1986, Carnegie Mellon
 University), and the Gaussian 82(TM) system (copyright 1983,
 Carnegie Mellon University). Gaussian is a federally registered
 trademark of Gaussian, Inc.
  
 This software contains proprietary and confidential information,
 including trade secrets, belonging to Gaussian, Inc.
  
 This software is provided under written license and may be
 used, copied, transmitted, or stored only in accord with that
 written license.
  
 The following legend is applicable only to US Government
 contracts under FAR:
  
                    RESTRICTED RIGHTS LEGEND
  
 Use, reproduction and disclosure by the US Government is
 subject to restrictions as set forth in subparagraphs (a)
 and (c) of the Commercial Computer Software - Restricted
 Rights clause in FAR 52.227-19.
  
 Gaussian, Inc.
 340 Quinnipiac St., Bldg. 40, Wallingford CT 06492
  
  
 ---------------------------------------------------------------
 Warning -- This program may not be used in any manner that
 competes with the business of Gaussian, Inc. or will provide
 assistance to any competitor of Gaussian, Inc.  The licensee
 of this program is prohibited from giving any competitor of
 Gaussian, Inc. access to this program.  By using this program,
 the user acknowledges that Gaussian, Inc. is engaged in the
 business of creating and licensing software in the field of
 computational chemistry and represents and warrants to the
 licensee that it is not a competitor of Gaussian, Inc. and that
 it will not use this program in any manner prohibited above.
 ---------------------------------------------------------------
  

 Cite this work as:
 Gaussian 16, Revision B.01,
 M. J. Frisch, G. W. Trucks, H. B. Schlegel, G. E. Scuseria, 
 M. A. Robb, J. R. Cheeseman, G. Scalmani, V. Barone, 
 G. A. Petersson, H. Nakatsuji, X. Li, M. Caricato, A. V. Marenich, 
 J. Bloino, B. G. Janesko, R. Gomperts, B. Mennucci, H. P. Hratchian, 
 J. V. Ortiz, A. F. Izmaylov, J. L. Sonnenberg, D. Williams-Young, 
 F. Ding, F. Lipparini, F. Egidi, J. Goings, B. Peng, A. Petrone, 
 T. Henderson, D. Ranasinghe, V. G. Zakrzewski, J. Gao, N. Rega, 
 G. Zheng, W. Liang, M. Hada, M. Ehara, K. Toyota, R. Fukuda, 
 J. Hasegawa, M. Ishida, T. Nakajima, Y. Honda, O. Kitao, H. Nakai, 
 T. Vreven, K. Throssell, J. A. Montgomery, Jr., J. E. Peralta, 
 F. Ogliaro, M. J. Bearpark, J. J. Heyd, E. N. Brothers, K. N. Kudin, 
 V. N. Staroverov, T. A. Keith, R. Kobayashi, J. Normand, 
 K. Raghavachari, A. P. Rendell, J. C. Burant, S. S. Iyengar, 
 J. Tomasi, M. Cossi, J. M. Millam, M. Klene, C. Adamo, R. Cammi, 
 J. W. Ochterski, R. L. Martin, K. Morokuma, O. Farkas, 
 J. B. Foresman, and D. J. Fox, Gaussian, Inc., Wallingford CT, 2016.
 
 ******************************************
 Gaussian 16:  ES64L-G16RevB.01 20-Dec-2017
                19-Feb-2020 
 ******************************************
 %chk=check.chk
 %mem=14336mb
 %NProcShared=8
 Will use up to    8 processors via shared memory.
 ----------------------------------------------------------------------
 #P opt=(ts, calcfc, noeigentest, maxstep=5, maxcycles=100) guess=mix u
 wb97xd/def2tzvp scf=xqc iop(2/9=2000)
 ----------------------------------------------------------------------
 1/5=1,6=100,8=5,10=4,11=1,18=20,26=3,38=1/1,3;
 2/9=2000,12=2,17=6,18=5,40=1/2;
 3/5=44,7=101,11=2,25=1,30=1,71=2,74=-58,116=2,140=1/1,2,3;
 4/13=-1/1;
 5/5=2,8=3,13=1,38=5/2,8;
 8/6=4,10=90,11=11/1;
 11/6=1,8=1,9=11,15=111,16=1/1,2,10;
 10/6=1,13=1/2;
 6/7=2,8=2,9=2,10=2,28=1/1;
 7/10=1,18=20,25=1/1,2,3,16;
 1/5=1,6=100,8=5,10=4,11=1,18=20,26=3/3(2);
 2/9=2000/2;
 99//99;
 2/9=2000/2;
 3/5=44,7=101,11=2,25=1,30=1,71=1,74=-58,116=2/1,2,3;
 4/5=5,16=3,69=1/1;
 5/5=2,8=3,13=1,38=5/2,8;
 7//1,2,3,16;
 1/5=1,6=100,8=5,11=1,18=20,26=3/3(-5);
 2/9=2000/2;
 6/7=2,8=2,9=2,10=2,19=2,28=1/1;
 99/9=1/99;
 Leave Link    1 at Wed Feb 19 14:52:29 2020, MaxMem=  1879048192 cpu:               0.6 elap:               0.1
 (Enter /opt/g16/l101.exe)
 ----
 name
 ----
 Symbolic Z-matrix:
 Charge =  0 Multiplicity = 3
 N                    -0.44652   0.68301  -0.09326 
 H                    -0.45738   1.14833   0.81049 
 H                     0.67736   0.38206  -0.2197 
 N                    -1.2239   -0.46957  -0.00699 
 H                    -1.80394  -0.5112    0.81669 
 H                    -1.78372  -0.56858  -0.84052 
 N                     1.9039   -0.15683  -0.07662 
 H                     1.73331  -0.84686   0.67117 
 
 Add virtual bond connecting atoms N7         and H3         Dist= 2.55D+00.
 ITRead=  0  0  0  0  0  0  0  0
 MicOpt= -1 -1 -1 -1 -1 -1 -1 -1
 NAtoms=      8 NQM=        8 NQMF=       0 NMMI=      0 NMMIF=      0
                NMic=       0 NMicF=      0.
                    Isotopes and Nuclear Properties:
 (Nuclear quadrupole moments (NQMom) in fm**2, nuclear magnetic moments (NMagM)
  in nuclear magnetons)

  Atom         1           2           3           4           5           6           7           8
 IAtWgt=          14           1           1          14           1           1          14           1
 AtmWgt=  14.0030740   1.0078250   1.0078250  14.0030740   1.0078250   1.0078250  14.0030740   1.0078250
 NucSpn=           2           1           1           2           1           1           2           1
 AtZEff=  -0.0000000  -0.0000000  -0.0000000  -0.0000000  -0.0000000  -0.0000000  -0.0000000  -0.0000000
 NQMom=    2.0440000   0.0000000   0.0000000   2.0440000   0.0000000   0.0000000   2.0440000   0.0000000
 NMagM=    0.4037610   2.7928460   2.7928460   0.4037610   2.7928460   2.7928460   0.4037610   2.7928460
 AtZNuc=   7.0000000   1.0000000   1.0000000   7.0000000   1.0000000   1.0000000   7.0000000   1.0000000
 Leave Link  101 at Wed Feb 19 14:52:30 2020, MaxMem=  1879048192 cpu:               5.7 elap:               0.7
 (Enter /opt/g16/l103.exe)

 GradGradGradGradGradGradGradGradGradGradGradGradGradGradGradGradGradGrad
 Berny optimization.
 Initialization pass.
                           ----------------------------
                           !    Initial Parameters    !
                           ! (Angstroms and Degrees)  !
 --------------------------                            --------------------------
 ! Name  Definition              Value          Derivative Info.                !
 --------------------------------------------------------------------------------
 ! R1    R(1,2)                  1.0166         calculate D2E/DX2 analytically  !
 ! R2    R(1,3)                  1.1703         calculate D2E/DX2 analytically  !
 ! R3    R(1,4)                  1.3929         calculate D2E/DX2 analytically  !
 ! R4    R(3,7)                  1.3473         calculate D2E/DX2 analytically  !
 ! R5    R(4,5)                  1.0083         calculate D2E/DX2 analytically  !
 ! R6    R(4,6)                  1.0089         calculate D2E/DX2 analytically  !
 ! R7    R(7,8)                  1.0317         calculate D2E/DX2 analytically  !
 ! A1    A(2,1,3)              102.945          calculate D2E/DX2 analytically  !
 ! A2    A(2,1,4)              108.526          calculate D2E/DX2 analytically  !
 ! A3    A(3,1,4)              109.2605         calculate D2E/DX2 analytically  !
 ! A4    A(1,3,7)              164.9291         calculate D2E/DX2 analytically  !
 ! A5    A(1,4,5)              113.9428         calculate D2E/DX2 analytically  !
 ! A6    A(1,4,6)              109.8585         calculate D2E/DX2 analytically  !
 ! A7    A(5,4,6)              110.5875         calculate D2E/DX2 analytically  !
 ! A8    A(3,7,8)              101.1837         calculate D2E/DX2 analytically  !
 ! D1    D(2,1,3,7)             62.2719         calculate D2E/DX2 analytically  !
 ! D2    D(4,1,3,7)            -52.9211         calculate D2E/DX2 analytically  !
 ! D3    D(2,1,4,5)             13.5558         calculate D2E/DX2 analytically  !
 ! D4    D(2,1,4,6)            138.2673         calculate D2E/DX2 analytically  !
 ! D5    D(3,1,4,5)            125.1086         calculate D2E/DX2 analytically  !
 ! D6    D(3,1,4,6)           -110.18           calculate D2E/DX2 analytically  !
 ! D7    D(1,3,7,8)              8.3213         calculate D2E/DX2 analytically  !
 --------------------------------------------------------------------------------
 Trust Radius=5.00D-02 FncErr=1.00D-07 GrdErr=1.00D-06 EigMax=2.50D+02 EigMin=1.00D-04
 Number of steps in this run=    100 maximum allowed number of steps=    100.
 Search for a saddle point of order  1.
 GradGradGradGradGradGradGradGradGradGradGradGradGradGradGradGradGradGrad

 Leave Link  103 at Wed Feb 19 14:52:30 2020, MaxMem=  1879048192 cpu:               0.3 elap:               0.0
 (Enter /opt/g16/l202.exe)
                          Input orientation:                          
 ---------------------------------------------------------------------
 Center     Atomic      Atomic             Coordinates (Angstroms)
 Number     Number       Type             X           Y           Z
 ---------------------------------------------------------------------
      1          7           0       -0.446519    0.683009   -0.093262
      2          1           0       -0.457383    1.148334    0.810489
      3          1           0        0.677360    0.382064   -0.219700
      4          7           0       -1.223901   -0.469570   -0.006989
      5          1           0       -1.803936   -0.511202    0.816687
      6          1           0       -1.783722   -0.568580   -0.840515
      7          7           0        1.903902   -0.156834   -0.076625
      8          1           0        1.733313   -0.846857    0.671170
 ---------------------------------------------------------------------
                    Distance matrix (angstroms):
                    1          2          3          4          5
     1  N    0.000000
     2  H    1.016568   0.000000
     3  H    1.170324   1.713505   0.000000
     4  N    1.392912   1.968104   2.094116   0.000000
     5  H    2.024037   2.137125   2.833523   1.008274   0.000000
     6  H    1.978124   2.726314   2.710362   1.008944   1.658319
     7  N    2.496015   2.840088   1.347326   3.144170   3.830358
     8  H    2.770653   2.966369   1.849036   3.057346   3.556117
                    6          7          8
     6  H    0.000000
     7  N    3.788355   0.000000
     8  H    3.838250   1.031712   0.000000
 Stoichiometry    H5N3(3)
 Framework group  C1[X(H5N3)]
 Deg. of freedom    18
 Full point group                 C1      NOp   1
 Largest Abelian subgroup         C1      NOp   1
 Largest concise Abelian subgroup C1      NOp   1
                         Standard orientation:                         
 ---------------------------------------------------------------------
 Center     Atomic      Atomic             Coordinates (Angstroms)
 Number     Number       Type             X           Y           Z
 ---------------------------------------------------------------------
      1          7           0       -0.446519    0.683009   -0.093262
      2          1           0       -0.457383    1.148334    0.810489
      3          1           0        0.677360    0.382064   -0.219700
      4          7           0       -1.223901   -0.469570   -0.006989
      5          1           0       -1.803936   -0.511202    0.816687
      6          1           0       -1.783722   -0.568580   -0.840515
      7          7           0        1.903902   -0.156834   -0.076625
      8          1           0        1.733313   -0.846857    0.671170
 ---------------------------------------------------------------------
 Rotational constants (GHZ):          32.6780686           5.7843987           5.1874906
 Leave Link  202 at Wed Feb 19 14:52:30 2020, MaxMem=  1879048192 cpu:               0.4 elap:               0.1
 (Enter /opt/g16/l301.exe)
 Standard basis: def2TZVP (5D, 7F)
 Ernie: Thresh=  0.10000D-02 Tol=  0.10000D-05 Strict=F.
 There are   138 symmetry adapted cartesian basis functions of A   symmetry.
 There are   123 symmetry adapted basis functions of A   symmetry.
   123 basis functions,   193 primitive gaussians,   138 cartesian basis functions
    14 alpha electrons       12 beta electrons
       nuclear repulsion energy        73.0990906833 Hartrees.
 IExCor= 4639 DFT=T Ex+Corr=wB97XD ExCW=0 ScaHFX=  1.000000
 ScaDFX=  1.000000  1.000000  1.000000  1.000000 ScalE2=  1.000000  1.000000
 IRadAn=      5 IRanWt=     -1 IRanGd=            0 ICorTp=0 IEmpDi=121
 HFx  wShort=  0.000000 wLong=  0.200000 cFull=  0.222036 cShort=  0.000000 cLong=  0.777964
 DFx  wShort=  0.000000 wLong=  0.200000 cFull=  0.000000 cShort=  0.000000 cLong=  1.000000
 NAtoms=    8 NActive=    8 NUniq=    8 SFac= 1.00D+00 NAtFMM=   60 NAOKFM=F Big=F
 Integral buffers will be    131072 words long.
 Raffenetti 2 integral format.
 Two-electron integral symmetry is turned on.
 R6Disp:  Grimme-D2 Dispersion energy=       -0.0018354541 Hartrees.
 Nuclear repulsion after empirical dispersion term =       73.0972552292 Hartrees.
 Leave Link  301 at Wed Feb 19 14:52:30 2020, MaxMem=  1879048192 cpu:               0.5 elap:               0.1
 (Enter /opt/g16/l302.exe)
 NPDir=0 NMtPBC=     1 NCelOv=     1 NCel=       1 NClECP=     1 NCelD=      1
         NCelK=      1 NCelE2=     1 NClLst=     1 CellRange=     0.0.
 One-electron integrals computed using PRISM.
 One-electron integral symmetry used in STVInt
   1 Symmetry operations used in ECPInt.
 ECPInt:  NShTT=    1431 NPrTT=    4176 LenC2=    1423 LenP2D=    3597.
 LDataN:  DoStor=T MaxTD1= 6 Len=  172
 NBasis=   123 RedAO= T EigKep=  1.87D-03  NBF=   123
 NBsUse=   123 1.00D-06 EigRej= -1.00D+00 NBFU=   123
 Precomputing XC quadrature grid using
 IXCGrd= 4 IRadAn=           5 IRanWt=          -1 IRanGd=           0 AccXCQ= 0.00D+00.
 Generated NRdTot=       0 NPtTot=           0 NUsed=           0 NTot=          32
 NSgBfM=   138   138   138   138   138 MxSgAt=     8 MxSgA2=     8.
 Leave Link  302 at Wed Feb 19 14:52:30 2020, MaxMem=  1879048192 cpu:               1.9 elap:               0.3
 (Enter /opt/g16/l303.exe)
 DipDrv:  MaxL=1.
 Leave Link  303 at Wed Feb 19 14:52:30 2020, MaxMem=  1879048192 cpu:               0.5 elap:               0.1
 (Enter /opt/g16/l401.exe)
 ExpMin= 1.03D-01 ExpMax= 1.97D+04 ExpMxC= 6.73D+02 IAcc=3 IRadAn=         5 AccDes= 0.00D+00
 Harris functional with IExCor= 4639 and IRadAn=       5 diagonalized for initial guess.
 HarFok:  IExCor= 4639 AccDes= 0.00D+00 IRadAn=         5 IDoV= 1 UseB2=F ITyADJ=14
 ICtDFT=  3500011 ScaDFX=  1.000000  1.000000  1.000000  1.000000
 FoFCou: FMM=F IPFlag=           0 FMFlag=      100000 FMFlg1=           0
         NFxFlg=           0 DoJE=T BraDBF=F KetDBF=T FulRan=T
         wScrn=  0.000000 ICntrl=       500 IOpCl=  0 I1Cent=   200000004 NGrid=           0
         NMat0=    1 NMatS0=      1 NMatT0=    0 NMatD0=    1 NMtDS0=    0 NMtDT0=    0
 Petite list used in FoFCou.
 Harris En= -160.156862060701    
 JPrj=0 DoOrth=F DoCkMO=T.
 Mixing orbitals, IMix= 1 IMixAn=  0 NRI=1 NE=   14 Coef=  7.07106781D-01  7.07106781D-01
 Mixing orbitals, IMix= 1 IMixAn=  0 NRI=1 NE=   12 Coef= -7.07106781D-01  7.07106781D-01
 Initial guess <Sx>= 0.0000 <Sy>= 0.0000 <Sz>= 1.0000 <S**2>= 2.0000 S= 1.0000
 Leave Link  401 at Wed Feb 19 14:52:31 2020, MaxMem=  1879048192 cpu:               6.4 elap:               0.8
 (Enter /opt/g16/l502.exe)
 Keep R1 and R2 ints in memory in canonical form, NReq=124040190.
 FoFCou: FMM=F IPFlag=           0 FMFlag=           0 FMFlg1=           0
         NFxFlg=           0 DoJE=F BraDBF=F KetDBF=F FulRan=T
         wScrn=  0.000000 ICntrl=       600 IOpCl=  0 I1Cent=           0 NGrid=           0
         NMat0=    1 NMatS0=   7626 NMatT0=    0 NMatD0=    1 NMtDS0=    0 NMtDT0=    0
 Symmetry not used in FoFCou.
 Two-electron integral symmetry not used.
 UHF open shell SCF:
 Using DIIS extrapolation, IDIIS=  1040.
 NGot=  1879048192 LenX=  1762680594 LenY=  1762661109
 Requested convergence on RMS density matrix=1.00D-08 within  32 cycles.
 Requested convergence on MAX density matrix=1.00D-06.
 Requested convergence on             energy=1.00D-06.
 No special actions if energy rises.
 Integral accuracy reduced to 1.0D-05 until final iterations.

 Cycle   1  Pass 0  IDiag  1:
 E= -166.810470835168    
 DIIS: error= 5.20D-02 at cycle   1 NSaved=   1.
 NSaved= 1 IEnMin= 1 EnMin= -166.810470835168     IErMin= 1 ErrMin= 5.20D-02
 ErrMax= 5.20D-02  0.00D+00 EMaxC= 1.00D-01 BMatC= 1.84D+00 BMatP= 1.84D+00
 IDIUse=3 WtCom= 4.80D-01 WtEn= 5.20D-01
 Coeff-Com:  0.100D+01
 Coeff-En:   0.100D+01
 Coeff:      0.100D+01
 Gap=     0.159 Goal=   None    Shift=    0.000
 Gap=     0.193 Goal=   None    Shift=    0.000
 GapD=    0.159 DampG=1.000 DampE=0.500 DampFc=0.5000 IDamp=-1.
 Damping current iteration by 5.00D-01
 RMSDP=1.81D-02 MaxDP=7.43D-01              OVMax= 4.47D-01

 Cycle   2  Pass 0  IDiag  1:
 E= -166.905499174768     Delta-E=       -0.095028339600 Rises=F Damp=T
 DIIS: error= 2.44D-02 at cycle   2 NSaved=   2.
 NSaved= 2 IEnMin= 2 EnMin= -166.905499174768     IErMin= 2 ErrMin= 2.44D-02
 ErrMax= 2.44D-02  0.00D+00 EMaxC= 1.00D-01 BMatC= 3.53D-01 BMatP= 1.84D+00
 IDIUse=3 WtCom= 7.56D-01 WtEn= 2.44D-01
 Coeff-Com: -0.297D+00 0.130D+01
 Coeff-En:   0.000D+00 0.100D+01
 Coeff:     -0.224D+00 0.122D+01
 Gap=     0.386 Goal=   None    Shift=    0.000
 Gap=     0.212 Goal=   None    Shift=    0.000
 RMSDP=9.89D-03 MaxDP=4.10D-01 DE=-9.50D-02 OVMax= 2.76D-01

 Cycle   3  Pass 0  IDiag  1:
 E= -167.023907309093     Delta-E=       -0.118408134326 Rises=F Damp=F
 DIIS: error= 1.85D-02 at cycle   3 NSaved=   3.
 NSaved= 3 IEnMin= 3 EnMin= -167.023907309093     IErMin= 3 ErrMin= 1.85D-02
 ErrMax= 1.85D-02  0.00D+00 EMaxC= 1.00D-01 BMatC= 1.55D-01 BMatP= 3.53D-01
 IDIUse=3 WtCom= 8.15D-01 WtEn= 1.85D-01
 Coeff-Com: -0.244D+00 0.615D+00 0.628D+00
 Coeff-En:   0.000D+00 0.000D+00 0.100D+01
 Coeff:     -0.199D+00 0.502D+00 0.697D+00
 Gap=     0.368 Goal=   None    Shift=    0.000
 Gap=     0.237 Goal=   None    Shift=    0.000
 RMSDP=2.33D-03 MaxDP=3.75D-02 DE=-1.18D-01 OVMax= 2.49D-01

 Cycle   4  Pass 0  IDiag  1:
 E= -167.063960200039     Delta-E=       -0.040052890946 Rises=F Damp=F
 DIIS: error= 1.04D-02 at cycle   4 NSaved=   4.
 NSaved= 4 IEnMin= 4 EnMin= -167.063960200039     IErMin= 4 ErrMin= 1.04D-02
 ErrMax= 1.04D-02  0.00D+00 EMaxC= 1.00D-01 BMatC= 4.90D-02 BMatP= 1.55D-01
 IDIUse=3 WtCom= 8.96D-01 WtEn= 1.04D-01
 Coeff-Com: -0.586D-01 0.110D+00 0.387D+00 0.562D+00
 Coeff-En:   0.000D+00 0.000D+00 0.236D-01 0.976D+00
 Coeff:     -0.525D-01 0.982D-01 0.349D+00 0.605D+00
 Gap=     0.403 Goal=   None    Shift=    0.000
 Gap=     0.242 Goal=   None    Shift=    0.000
 RMSDP=9.74D-04 MaxDP=1.79D-02 DE=-4.01D-02 OVMax= 6.67D-02

 Cycle   5  Pass 0  IDiag  1:
 E= -167.079216726008     Delta-E=       -0.015256525969 Rises=F Damp=F
 DIIS: error= 5.68D-03 at cycle   5 NSaved=   5.
 NSaved= 5 IEnMin= 5 EnMin= -167.079216726008     IErMin= 5 ErrMin= 5.68D-03
 ErrMax= 5.68D-03  0.00D+00 EMaxC= 1.00D-01 BMatC= 2.89D-03 BMatP= 4.90D-02
 IDIUse=3 WtCom= 9.43D-01 WtEn= 5.68D-02
 Coeff-Com:  0.695D-01-0.145D+00-0.266D+00-0.179D+00 0.152D+01
 Coeff-En:   0.000D+00 0.000D+00 0.000D+00 0.000D+00 0.100D+01
 Coeff:      0.656D-01-0.137D+00-0.251D+00-0.169D+00 0.149D+01
 Gap=     0.396 Goal=   None    Shift=    0.000
 Gap=     0.267 Goal=   None    Shift=    0.000
 RMSDP=1.10D-03 MaxDP=1.67D-02 DE=-1.53D-02 OVMax= 1.30D-01

 Cycle   6  Pass 0  IDiag  1:
 E= -167.086157274962     Delta-E=       -0.006940548955 Rises=F Damp=F
 DIIS: error= 3.76D-03 at cycle   6 NSaved=   6.
 NSaved= 6 IEnMin= 6 EnMin= -167.086157274962     IErMin= 6 ErrMin= 3.76D-03
 ErrMax= 3.76D-03  0.00D+00 EMaxC= 1.00D-01 BMatC= 8.04D-04 BMatP= 2.89D-03
 IDIUse=3 WtCom= 9.62D-01 WtEn= 3.76D-02
 Coeff-Com: -0.940D-02 0.228D-01-0.234D-01-0.450D-01-0.894D-01 0.114D+01
 Coeff-En:   0.000D+00 0.000D+00 0.000D+00 0.000D+00 0.000D+00 0.100D+01
 Coeff:     -0.904D-02 0.220D-01-0.225D-01-0.433D-01-0.861D-01 0.114D+01
 Gap=     0.393 Goal=   None    Shift=    0.000
 Gap=     0.272 Goal=   None    Shift=    0.000
 RMSDP=3.26D-04 MaxDP=4.52D-03 DE=-6.94D-03 OVMax= 6.58D-02

 Cycle   7  Pass 0  IDiag  1:
 E= -167.087979336845     Delta-E=       -0.001822061882 Rises=F Damp=F
 DIIS: error= 2.62D-03 at cycle   7 NSaved=   7.
 NSaved= 7 IEnMin= 7 EnMin= -167.087979336845     IErMin= 7 ErrMin= 2.62D-03
 ErrMax= 2.62D-03  0.00D+00 EMaxC= 1.00D-01 BMatC= 4.48D-04 BMatP= 8.04D-04
 IDIUse=3 WtCom= 9.74D-01 WtEn= 2.62D-02
 Coeff-Com: -0.265D-01 0.577D-01 0.788D-01 0.455D-01-0.562D+00 0.441D+00
 Coeff-Com:  0.965D+00
 Coeff-En:   0.000D+00 0.000D+00 0.000D+00 0.000D+00 0.000D+00 0.000D+00
 Coeff-En:   0.100D+01
 Coeff:     -0.258D-01 0.562D-01 0.768D-01 0.443D-01-0.547D+00 0.429D+00
 Coeff:      0.966D+00
 Gap=     0.391 Goal=   None    Shift=    0.000
 Gap=     0.274 Goal=   None    Shift=    0.000
 RMSDP=2.53D-04 MaxDP=4.08D-03 DE=-1.82D-03 OVMax= 5.34D-02

 Cycle   8  Pass 0  IDiag  1:
 E= -167.088938391273     Delta-E=       -0.000959054429 Rises=F Damp=F
 DIIS: error= 1.68D-03 at cycle   8 NSaved=   8.
 NSaved= 8 IEnMin= 8 EnMin= -167.088938391273     IErMin= 8 ErrMin= 1.68D-03
 ErrMax= 1.68D-03  0.00D+00 EMaxC= 1.00D-01 BMatC= 1.52D-04 BMatP= 4.48D-04
 IDIUse=3 WtCom= 9.83D-01 WtEn= 1.68D-02
 Coeff-Com:  0.204D-02-0.461D-02 0.264D-01 0.361D-01-0.836D-01-0.481D+00
 Coeff-Com:  0.251D+00 0.125D+01
 Coeff-En:   0.000D+00 0.000D+00 0.000D+00 0.000D+00 0.000D+00 0.000D+00
 Coeff-En:   0.000D+00 0.100D+01
 Coeff:      0.200D-02-0.453D-02 0.260D-01 0.355D-01-0.822D-01-0.473D+00
 Coeff:      0.247D+00 0.125D+01
 Gap=     0.392 Goal=   None    Shift=    0.000
 Gap=     0.277 Goal=   None    Shift=    0.000
 RMSDP=2.30D-04 MaxDP=3.95D-03 DE=-9.59D-04 OVMax= 4.97D-02

 Cycle   9  Pass 0  IDiag  1:
 E= -167.089393303099     Delta-E=       -0.000454911826 Rises=F Damp=F
 DIIS: error= 6.67D-04 at cycle   9 NSaved=   9.
 NSaved= 9 IEnMin= 9 EnMin= -167.089393303099     IErMin= 9 ErrMin= 6.67D-04
 ErrMax= 6.67D-04  0.00D+00 EMaxC= 1.00D-01 BMatC= 3.71D-05 BMatP= 1.52D-04
 IDIUse=3 WtCom= 9.93D-01 WtEn= 6.67D-03
 Coeff-Com:  0.803D-02-0.171D-01-0.288D-01-0.347D-02 0.191D+00-0.114D+00
 Coeff-Com: -0.265D+00-0.752D-01 0.130D+01
 Coeff-En:   0.000D+00 0.000D+00 0.000D+00 0.000D+00 0.000D+00 0.000D+00
 Coeff-En:   0.000D+00 0.000D+00 0.100D+01
 Coeff:      0.798D-02-0.170D-01-0.286D-01-0.345D-02 0.190D+00-0.113D+00
 Coeff:     -0.263D+00-0.747D-01 0.130D+01
 Gap=     0.393 Goal=   None    Shift=    0.000
 Gap=     0.276 Goal=   None    Shift=    0.000
 RMSDP=9.08D-05 MaxDP=1.70D-03 DE=-4.55D-04 OVMax= 1.56D-02

 Failed to achieve initial convergence to 1.0D-08 in 10 cycles.
 Switch to full accuracy anyway.
 Cycle  10  Pass 1  IDiag  1:
 E= -167.089469583713     Delta-E=       -0.000076280613 Rises=F Damp=F
 DIIS: error= 3.02D-04 at cycle   1 NSaved=   1.
 NSaved= 1 IEnMin= 1 EnMin= -167.089469583713     IErMin= 1 ErrMin= 3.02D-04
 ErrMax= 3.02D-04  0.00D+00 EMaxC= 1.00D-01 BMatC= 6.06D-06 BMatP= 6.06D-06
 IDIUse=3 WtCom= 9.97D-01 WtEn= 3.02D-03
 Coeff-Com:  0.100D+01
 Coeff-En:   0.100D+01
 Coeff:      0.100D+01
 Gap=     0.393 Goal=   None    Shift=    0.000
 Gap=     0.276 Goal=   None    Shift=    0.000
 RMSDP=9.08D-05 MaxDP=1.70D-03 DE=-7.63D-05 OVMax= 2.19D-03

 Cycle  11  Pass 1  IDiag  1:
 E= -167.089478129171     Delta-E=       -0.000008545458 Rises=F Damp=F
 DIIS: error= 2.27D-04 at cycle   2 NSaved=   2.
 NSaved= 2 IEnMin= 2 EnMin= -167.089478129171     IErMin= 2 ErrMin= 2.27D-04
 ErrMax= 2.27D-04  0.00D+00 EMaxC= 1.00D-01 BMatC= 3.34D-06 BMatP= 6.06D-06
 IDIUse=3 WtCom= 9.98D-01 WtEn= 2.27D-03
 Coeff-Com: -0.695D-01 0.107D+01
 Coeff-En:   0.000D+00 0.100D+01
 Coeff:     -0.693D-01 0.107D+01
 Gap=     0.393 Goal=   None    Shift=    0.000
 Gap=     0.276 Goal=   None    Shift=    0.000
 RMSDP=1.28D-05 MaxDP=4.03D-04 DE=-8.55D-06 OVMax= 1.83D-03

 Cycle  12  Pass 1  IDiag  1:
 E= -167.089482923063     Delta-E=       -0.000004793893 Rises=F Damp=F
 DIIS: error= 1.71D-04 at cycle   3 NSaved=   3.
 NSaved= 3 IEnMin= 3 EnMin= -167.089482923063     IErMin= 3 ErrMin= 1.71D-04
 ErrMax= 1.71D-04  0.00D+00 EMaxC= 1.00D-01 BMatC= 2.16D-06 BMatP= 3.34D-06
 IDIUse=3 WtCom= 9.98D-01 WtEn= 1.71D-03
 Coeff-Com: -0.906D+00 0.621D+00 0.128D+01
 Coeff-En:   0.000D+00 0.000D+00 0.100D+01
 Coeff:     -0.904D+00 0.620D+00 0.128D+01
 Gap=     0.393 Goal=   None    Shift=    0.000
 Gap=     0.276 Goal=   None    Shift=    0.000
 RMSDP=2.15D-05 MaxDP=6.02D-04 DE=-4.79D-06 OVMax= 3.31D-03

 Cycle  13  Pass 1  IDiag  1:
 E= -167.089487812619     Delta-E=       -0.000004889556 Rises=F Damp=F
 DIIS: error= 6.62D-05 at cycle   4 NSaved=   4.
 NSaved= 4 IEnMin= 4 EnMin= -167.089487812619     IErMin= 4 ErrMin= 6.62D-05
 ErrMax= 6.62D-05  0.00D+00 EMaxC= 1.00D-01 BMatC= 3.86D-07 BMatP= 2.16D-06
 IDIUse=1 WtCom= 1.00D+00 WtEn= 0.00D+00
 Coeff-Com: -0.332D+00-0.103D-01 0.484D+00 0.858D+00
 Coeff:     -0.332D+00-0.103D-01 0.484D+00 0.858D+00
 Gap=     0.393 Goal=   None    Shift=    0.000
 Gap=     0.276 Goal=   None    Shift=    0.000
 RMSDP=7.84D-06 MaxDP=2.18D-04 DE=-4.89D-06 OVMax= 1.34D-03

 Cycle  14  Pass 1  IDiag  1:
 E= -167.089488495000     Delta-E=       -0.000000682381 Rises=F Damp=F
 DIIS: error= 2.91D-05 at cycle   5 NSaved=   5.
 NSaved= 5 IEnMin= 5 EnMin= -167.089488495000     IErMin= 5 ErrMin= 2.91D-05
 ErrMax= 2.91D-05  0.00D+00 EMaxC= 1.00D-01 BMatC= 6.50D-08 BMatP= 3.86D-07
 IDIUse=1 WtCom= 1.00D+00 WtEn= 0.00D+00
 Coeff-Com:  0.147D+00-0.139D+00-0.203D+00 0.114D+00 0.108D+01
 Coeff:      0.147D+00-0.139D+00-0.203D+00 0.114D+00 0.108D+01
 Gap=     0.393 Goal=   None    Shift=    0.000
 Gap=     0.276 Goal=   None    Shift=    0.000
 RMSDP=3.50D-06 MaxDP=7.80D-05 DE=-6.82D-07 OVMax= 6.82D-04

 Cycle  15  Pass 1  IDiag  1:
 E= -167.089488634153     Delta-E=       -0.000000139153 Rises=F Damp=F
 DIIS: error= 1.24D-05 at cycle   6 NSaved=   6.
 NSaved= 6 IEnMin= 6 EnMin= -167.089488634153     IErMin= 6 ErrMin= 1.24D-05
 ErrMax= 1.24D-05  0.00D+00 EMaxC= 1.00D-01 BMatC= 1.61D-08 BMatP= 6.50D-08
 IDIUse=1 WtCom= 1.00D+00 WtEn= 0.00D+00
 Coeff-Com:  0.105D+00-0.303D-01-0.141D+00-0.195D+00 0.174D+00 0.109D+01
 Coeff:      0.105D+00-0.303D-01-0.141D+00-0.195D+00 0.174D+00 0.109D+01
 Gap=     0.393 Goal=   None    Shift=    0.000
 Gap=     0.276 Goal=   None    Shift=    0.000
 RMSDP=1.89D-06 MaxDP=2.79D-05 DE=-1.39D-07 OVMax= 3.92D-04

 Cycle  16  Pass 1  IDiag  1:
 E= -167.089488671409     Delta-E=       -0.000000037255 Rises=F Damp=F
 DIIS: error= 5.29D-06 at cycle   7 NSaved=   7.
 NSaved= 7 IEnMin= 7 EnMin= -167.089488671409     IErMin= 7 ErrMin= 5.29D-06
 ErrMax= 5.29D-06  0.00D+00 EMaxC= 1.00D-01 BMatC= 2.97D-09 BMatP= 1.61D-08
 IDIUse=1 WtCom= 1.00D+00 WtEn= 0.00D+00
 Coeff-Com: -0.383D-01 0.294D-01 0.590D-01-0.224D-01-0.273D+00-0.641D-01
 Coeff-Com:  0.131D+01
 Coeff:     -0.383D-01 0.294D-01 0.590D-01-0.224D-01-0.273D+00-0.641D-01
 Coeff:      0.131D+01
 Gap=     0.393 Goal=   None    Shift=    0.000
 Gap=     0.276 Goal=   None    Shift=    0.000
 RMSDP=1.03D-06 MaxDP=1.53D-05 DE=-3.73D-08 OVMax= 2.24D-04

 Cycle  17  Pass 1  IDiag  1:
 E= -167.089488680089     Delta-E=       -0.000000008681 Rises=F Damp=F
 DIIS: error= 1.53D-06 at cycle   8 NSaved=   8.
 NSaved= 8 IEnMin= 8 EnMin= -167.089488680089     IErMin= 8 ErrMin= 1.53D-06
 ErrMax= 1.53D-06  0.00D+00 EMaxC= 1.00D-01 BMatC= 6.06D-10 BMatP= 2.97D-09
 IDIUse=1 WtCom= 1.00D+00 WtEn= 0.00D+00
 Coeff-Com: -0.251D-01 0.130D-01 0.344D-01 0.190D-01-0.990D-01-0.155D+00
 Coeff-Com:  0.366D+00 0.847D+00
 Coeff:     -0.251D-01 0.130D-01 0.344D-01 0.190D-01-0.990D-01-0.155D+00
 Coeff:      0.366D+00 0.847D+00
 Gap=     0.393 Goal=   None    Shift=    0.000
 Gap=     0.276 Goal=   None    Shift=    0.000
 RMSDP=2.48D-07 MaxDP=3.24D-06 DE=-8.68D-09 OVMax= 5.17D-05

 Cycle  18  Pass 1  IDiag  1:
 E= -167.089488680878     Delta-E=       -0.000000000789 Rises=F Damp=F
 DIIS: error= 7.45D-07 at cycle   9 NSaved=   9.
 NSaved= 9 IEnMin= 9 EnMin= -167.089488680878     IErMin= 9 ErrMin= 7.45D-07
 ErrMax= 7.45D-07  0.00D+00 EMaxC= 1.00D-01 BMatC= 1.83D-10 BMatP= 6.06D-10
 IDIUse=1 WtCom= 1.00D+00 WtEn= 0.00D+00
 Coeff-Com:  0.785D-02-0.687D-02-0.136D-01 0.140D-01 0.710D-01-0.255D-01
 Coeff-Com: -0.377D+00 0.308D+00 0.102D+01
 Coeff:      0.785D-02-0.687D-02-0.136D-01 0.140D-01 0.710D-01-0.255D-01
 Coeff:     -0.377D+00 0.308D+00 0.102D+01
 Gap=     0.393 Goal=   None    Shift=    0.000
 Gap=     0.276 Goal=   None    Shift=    0.000
 RMSDP=1.64D-07 MaxDP=2.48D-06 DE=-7.89D-10 OVMax= 3.17D-05

 Cycle  19  Pass 1  IDiag  1:
 E= -167.089488681105     Delta-E=       -0.000000000227 Rises=F Damp=F
 DIIS: error= 1.92D-07 at cycle  10 NSaved=  10.
 NSaved=10 IEnMin=10 EnMin= -167.089488681105     IErMin=10 ErrMin= 1.92D-07
 ErrMax= 1.92D-07  0.00D+00 EMaxC= 1.00D-01 BMatC= 1.14D-11 BMatP= 1.83D-10
 IDIUse=1 WtCom= 1.00D+00 WtEn= 0.00D+00
 Coeff-Com:  0.239D-02-0.164D-02-0.291D-02-0.138D-02 0.943D-02 0.149D-01
 Coeff-Com: -0.379D-01-0.108D+00 0.529D-01 0.107D+01
 Coeff:      0.239D-02-0.164D-02-0.291D-02-0.138D-02 0.943D-02 0.149D-01
 Coeff:     -0.379D-01-0.108D+00 0.529D-01 0.107D+01
 Gap=     0.393 Goal=   None    Shift=    0.000
 Gap=     0.276 Goal=   None    Shift=    0.000
 RMSDP=3.85D-08 MaxDP=5.37D-07 DE=-2.27D-10 OVMax= 6.59D-06

 Cycle  20  Pass 1  IDiag  1:
 E= -167.089488681118     Delta-E=       -0.000000000013 Rises=F Damp=F
 DIIS: error= 5.08D-08 at cycle  11 NSaved=  11.
 NSaved=11 IEnMin=11 EnMin= -167.089488681118     IErMin=11 ErrMin= 5.08D-08
 ErrMax= 5.08D-08  0.00D+00 EMaxC= 1.00D-01 BMatC= 1.34D-12 BMatP= 1.14D-11
 IDIUse=1 WtCom= 1.00D+00 WtEn= 0.00D+00
 Coeff-Com: -0.873D-03 0.665D-03 0.170D-02-0.161D-02-0.842D-02 0.252D-02
 Coeff-Com:  0.474D-01-0.391D-01-0.103D+00-0.117D+00 0.122D+01
 Coeff:     -0.873D-03 0.665D-03 0.170D-02-0.161D-02-0.842D-02 0.252D-02
 Coeff:      0.474D-01-0.391D-01-0.103D+00-0.117D+00 0.122D+01
 Gap=     0.393 Goal=   None    Shift=    0.000
 Gap=     0.276 Goal=   None    Shift=    0.000
 RMSDP=1.63D-08 MaxDP=2.08D-07 DE=-1.28D-11 OVMax= 1.62D-06

 Cycle  21  Pass 1  IDiag  1:
 E= -167.089488681120     Delta-E=       -0.000000000002 Rises=F Damp=F
 DIIS: error= 2.13D-08 at cycle  12 NSaved=  12.
 NSaved=12 IEnMin=12 EnMin= -167.089488681120     IErMin=12 ErrMin= 2.13D-08
 ErrMax= 2.13D-08  0.00D+00 EMaxC= 1.00D-01 BMatC= 1.86D-13 BMatP= 1.34D-12
 IDIUse=1 WtCom= 1.00D+00 WtEn= 0.00D+00
 Coeff-Com:  0.112D-03-0.130D-03-0.200D-03 0.348D-03 0.169D-02-0.214D-02
 Coeff-Com: -0.800D-02 0.172D-01 0.265D-01-0.114D+00-0.206D+00 0.128D+01
 Coeff:      0.112D-03-0.130D-03-0.200D-03 0.348D-03 0.169D-02-0.214D-02
 Coeff:     -0.800D-02 0.172D-01 0.265D-01-0.114D+00-0.206D+00 0.128D+01
 Gap=     0.393 Goal=   None    Shift=    0.000
 Gap=     0.276 Goal=   None    Shift=    0.000
 RMSDP=6.30D-09 MaxDP=1.13D-07 DE=-2.10D-12 OVMax= 7.82D-07

 SCF Done:  E(UwB97XD) =  -167.089488681     A.U. after   21 cycles
            NFock= 21  Conv=0.63D-08     -V/T= 2.0041
 <Sx>= 0.0000 <Sy>= 0.0000 <Sz>= 1.0000 <S**2>= 2.0152 S= 1.0051
 <L.S>= 0.000000000000E+00
 KE= 1.664046802284D+02 PE=-5.372905124827D+02 EE= 1.306990883440D+02
 Annihilation of the first spin contaminant:
 S**2 before annihilation     2.0152,   after     2.0001
 Leave Link  502 at Wed Feb 19 14:52:53 2020, MaxMem=  1879048192 cpu:             159.5 elap:              21.6
 (Enter /opt/g16/l508.exe)
 QCSCF skips out because SCF is already converged.
 Leave Link  508 at Wed Feb 19 14:52:53 2020, MaxMem=  1879048192 cpu:               0.2 elap:               0.0
 (Enter /opt/g16/l801.exe)
 DoSCS=F DFT=T ScalE2(SS,OS)=  1.000000  1.000000
 Range of M.O.s used for correlation:     1   123
 NBasis=   123 NAE=    14 NBE=    12 NFC=     0 NFV=     0
 NROrb=    123 NOA=    14 NOB=    12 NVA=   109 NVB=   111
 Leave Link  801 at Wed Feb 19 14:52:53 2020, MaxMem=  1879048192 cpu:               0.5 elap:               0.1
 (Enter /opt/g16/l1101.exe)
 Using compressed storage, NAtomX=     8.
 Will process      9 centers per pass.
   1 Symmetry operations used in ECPInt.
 ECPInt:  NShTT=    1431 NPrTT=    4176 LenC2=    1423 LenP2D=    3597.
 LDataN:  DoStor=T MaxTD1= 7 Len=  274
 R6Disp: Adding Grimme-D2 dispersion energy 1st derivatives to the gradient.
 Leave Link 1101 at Wed Feb 19 14:52:53 2020, MaxMem=  1879048192 cpu:               1.7 elap:               0.2
 (Enter /opt/g16/l1102.exe)
 Symmetrizing basis deriv contribution to polar:
 IMax=3 JMax=2 DiffMx= 0.00D+00
 Leave Link 1102 at Wed Feb 19 14:52:53 2020, MaxMem=  1879048192 cpu:               0.5 elap:               0.1
 (Enter /opt/g16/l1110.exe)
 Forming Gx(P) for the SCF density, NAtomX=     8.
 Integral derivatives from FoFJK, PRISM(SPDF).
 Do as many integral derivatives as possible in FoFJK.
 G2DrvN: MDV=    1879047432.
 G2DrvN: will do     9 centers at a time, making    1 passes.
 Calling FoFCou, ICntrl=  3107 FMM=F I1Cent=   0 AccDes= 0.00D+00.
 FoFJK:  IHMeth= 1 ICntrl=    3107 DoSepK=T KAlg= 0 I1Cent=           0 FoldK=F
 IRaf=         1 NMat=       1 IRICut=       1 DoRegI=T DoRafI=F ISym2E= 0 IDoP0=0 IntGTp=1.
 FoFCou: FMM=F IPFlag=           0 FMFlag=      100000 FMFlg1=           0
         NFxFlg=           0 DoJE=F BraDBF=F KetDBF=F FulRan=T
         wScrn=  0.000000 ICntrl=      3507 IOpCl=  0 I1Cent=           0 NGrid=           0
         NMat0=    1 NMatS0=      1 NMatT0=    0 NMatD0=    1 NMtDS0=    0 NMtDT0=    0
 Symmetry not used in FoFCou.
 End of G2Drv F.D. properties file   721 does not exist.
 End of G2Drv F.D. properties file   722 does not exist.
 End of G2Drv F.D. properties file   788 does not exist.
 Leave Link 1110 at Wed Feb 19 14:53:21 2020, MaxMem=  1879048192 cpu:             226.2 elap:              28.3
 (Enter /opt/g16/l1002.exe)
 Minotr:  UHF open shell wavefunction.
          IDoAtm=11111111
          Direct CPHF calculation.
          Differentiating once with respect to nuclear coordinates.
          Requested convergence is 1.0D-08 RMS, and 1.0D-07 maximum.
          Secondary convergence is 1.0D-12 RMS, and 1.0D-12 maximum.
          NewPWx=T KeepS1=F KeepF1=F KeepIn=T MapXYZ=F SortEE=F KeepMc=T.
         2385 words used for storage of precomputed grid.
 Keep R1 and R2 ints in memory in canonical form, NReq=124020005.
 FoFCou: FMM=F IPFlag=           0 FMFlag=           0 FMFlg1=           0
         NFxFlg=           0 DoJE=F BraDBF=F KetDBF=F FulRan=T
         wScrn=  0.000000 ICntrl=       600 IOpCl=  0 I1Cent=           0 NGrid=           0
         NMat0=    1 NMatS0=   7626 NMatT0=    0 NMatD0=    1 NMtDS0=    0 NMtDT0=    0
 Symmetry not used in FoFCou.
 Two-electron integral symmetry not used.
          MDV=    1879048192 using IRadAn=       1.
          Solving linear equations simultaneously, MaxMat=       0.
          There are    27 degrees of freedom in the 1st order CPHF.  IDoFFX=6 NUNeed=     0.
     21 vectors produced by pass  0 Test12= 1.06D-14 3.70D-09 XBig12= 1.68D-01 2.01D-01.
 AX will form    21 AO Fock derivatives at one time.
     21 vectors produced by pass  1 Test12= 1.06D-14 3.70D-09 XBig12= 1.37D-02 1.87D-02.
     21 vectors produced by pass  2 Test12= 1.06D-14 3.70D-09 XBig12= 1.19D-03 7.40D-03.
     21 vectors produced by pass  3 Test12= 1.06D-14 3.70D-09 XBig12= 2.31D-05 7.17D-04.
     21 vectors produced by pass  4 Test12= 1.06D-14 3.70D-09 XBig12= 2.36D-07 7.87D-05.
     21 vectors produced by pass  5 Test12= 1.06D-14 3.70D-09 XBig12= 3.15D-09 9.31D-06.
     21 vectors produced by pass  6 Test12= 1.06D-14 3.70D-09 XBig12= 3.37D-11 6.67D-07.
     17 vectors produced by pass  7 Test12= 1.06D-14 3.70D-09 XBig12= 3.04D-13 7.20D-08.
      1 vectors produced by pass  8 Test12= 1.06D-14 3.70D-09 XBig12= 2.25D-15 6.05D-09.
 InvSVY:  IOpt=1 It=  1 EMax= 2.11D-15
 Solved reduced A of dimension   165 with    21 vectors.
 End of Minotr F.D. properties file   721 does not exist.
 End of Minotr F.D. properties file   722 does not exist.
 End of Minotr F.D. properties file   788 does not exist.
 Leave Link 1002 at Wed Feb 19 14:53:59 2020, MaxMem=  1879048192 cpu:             301.8 elap:              37.8
 (Enter /opt/g16/l601.exe)
 Copying SCF densities to generalized density rwf, IOpCl= 1 IROHF=0.

 **********************************************************************

            Population analysis using the SCF Density.

 **********************************************************************

 Orbital symmetries:
 Alpha Orbitals:
       Occupied  (A) (A) (A) (A) (A) (A) (A) (A) (A) (A) (A) (A)
                 (A) (A)
       Virtual   (A) (A) (A) (A) (A) (A) (A) (A) (A) (A) (A) (A)
                 (A) (A) (A) (A) (A) (A) (A) (A) (A) (A) (A) (A)
                 (A) (A) (A) (A) (A) (A) (A) (A) (A) (A) (A) (A)
                 (A) (A) (A) (A) (A) (A) (A) (A) (A) (A) (A) (A)
                 (A) (A) (A) (A) (A) (A) (A) (A) (A) (A) (A) (A)
                 (A) (A) (A) (A) (A) (A) (A) (A) (A) (A) (A) (A)
                 (A) (A) (A) (A) (A) (A) (A) (A) (A) (A) (A) (A)
                 (A) (A) (A) (A) (A) (A) (A) (A) (A) (A) (A) (A)
                 (A) (A) (A) (A) (A) (A) (A) (A) (A) (A) (A) (A)
                 (A)
 Beta  Orbitals:
       Occupied  (A) (A) (A) (A) (A) (A) (A) (A) (A) (A) (A) (A)
       Virtual   (A) (A) (A) (A) (A) (A) (A) (A) (A) (A) (A) (A)
                 (A) (A) (A) (A) (A) (A) (A) (A) (A) (A) (A) (A)
                 (A) (A) (A) (A) (A) (A) (A) (A) (A) (A) (A) (A)
                 (A) (A) (A) (A) (A) (A) (A) (A) (A) (A) (A) (A)
                 (A) (A) (A) (A) (A) (A) (A) (A) (A) (A) (A) (A)
                 (A) (A) (A) (A) (A) (A) (A) (A) (A) (A) (A) (A)
                 (A) (A) (A) (A) (A) (A) (A) (A) (A) (A) (A) (A)
                 (A) (A) (A) (A) (A) (A) (A) (A) (A) (A) (A) (A)
                 (A) (A) (A) (A) (A) (A) (A) (A) (A) (A) (A) (A)
                 (A) (A) (A)
 The electronic state is 3-A.
 Alpha  occ. eigenvalues --  -14.46925 -14.46783 -14.45871  -1.08863  -0.92472
 Alpha  occ. eigenvalues --   -0.85627  -0.63911  -0.58416  -0.56895  -0.46573
 Alpha  occ. eigenvalues --   -0.42042  -0.39011  -0.37864  -0.29985
 Alpha virt. eigenvalues --    0.09274   0.13239   0.15050   0.17647   0.26781
 Alpha virt. eigenvalues --    0.30707   0.35878   0.38745   0.41342   0.41526
 Alpha virt. eigenvalues --    0.42717   0.46134   0.48315   0.49222   0.51513
 Alpha virt. eigenvalues --    0.52321   0.53711   0.56888   0.57409   0.60278
 Alpha virt. eigenvalues --    0.64629   0.69853   0.71492   0.90203   0.93195
 Alpha virt. eigenvalues --    1.04299   1.10076   1.13405   1.18673   1.29740
 Alpha virt. eigenvalues --    1.33950   1.37521   1.40668   1.42472   1.45596
 Alpha virt. eigenvalues --    1.48894   1.56695   1.69219   1.74041   1.79947
 Alpha virt. eigenvalues --    1.87530   1.94953   1.95512   1.98271   2.00440
 Alpha virt. eigenvalues --    2.03613   2.06417   2.08982   2.10215   2.13147
 Alpha virt. eigenvalues --    2.15640   2.18887   2.29363   2.33304   2.34680
 Alpha virt. eigenvalues --    2.38033   2.49300   2.50094   2.53298   2.57478
 Alpha virt. eigenvalues --    2.61811   2.65784   2.72242   3.01971   3.05877
 Alpha virt. eigenvalues --    3.07990   3.13881   3.21958   3.39035   3.60758
 Alpha virt. eigenvalues --    3.81671   3.89230   3.94603   3.98536   4.04272
 Alpha virt. eigenvalues --    4.14419   4.17961   4.22316   4.26969   4.28650
 Alpha virt. eigenvalues --    4.41441   4.43125   4.53996   4.56590   4.61114
 Alpha virt. eigenvalues --    4.64908   4.67498   4.71352   4.74143   4.75000
 Alpha virt. eigenvalues --    4.79505   4.85175   4.89010   4.94739   4.99826
 Alpha virt. eigenvalues --    5.06558   5.23689   5.29462   5.39663   5.43206
 Alpha virt. eigenvalues --    5.52601   5.67282   5.70629   5.86054   5.88392
 Alpha virt. eigenvalues --    6.77145  31.52576  31.78533  31.90473
  Beta  occ. eigenvalues --  -14.46590 -14.46079 -14.43153  -1.07508  -0.86152
  Beta  occ. eigenvalues --   -0.81052  -0.63401  -0.57231  -0.53810  -0.42738
  Beta  occ. eigenvalues --   -0.39918  -0.30299
  Beta virt. eigenvalues --   -0.02720  -0.00783   0.09462   0.13684   0.15728
  Beta virt. eigenvalues --    0.17929   0.27385   0.31350   0.36839   0.39226
  Beta virt. eigenvalues --    0.41989   0.42522   0.44770   0.48458   0.49635
  Beta virt. eigenvalues --    0.50094   0.52824   0.53235   0.56097   0.57794
  Beta virt. eigenvalues --    0.58377   0.60966   0.65726   0.70740   0.71999
  Beta virt. eigenvalues --    0.91412   0.94240   1.08243   1.12304   1.17740
  Beta virt. eigenvalues --    1.19722   1.30630   1.35022   1.40073   1.41422
  Beta virt. eigenvalues --    1.43223   1.46349   1.50948   1.57873   1.71299
  Beta virt. eigenvalues --    1.74209   1.80696   1.88492   1.95962   1.97680
  Beta virt. eigenvalues --    1.98667   2.01233   2.05408   2.07697   2.10310
  Beta virt. eigenvalues --    2.13576   2.14498   2.19193   2.23312   2.32169
  Beta virt. eigenvalues --    2.34915   2.35295   2.38859   2.50234   2.52140
  Beta virt. eigenvalues --    2.53866   2.57971   2.62311   2.66329   2.72978
  Beta virt. eigenvalues --    3.03772   3.07281   3.10176   3.16446   3.23384
  Beta virt. eigenvalues --    3.39895   3.61851   3.84512   3.90649   4.02225
  Beta virt. eigenvalues --    4.02663   4.07608   4.20554   4.22419   4.27165
  Beta virt. eigenvalues --    4.30634   4.34180   4.42580   4.46226   4.57478
  Beta virt. eigenvalues --    4.64591   4.67236   4.68197   4.73512   4.74781
  Beta virt. eigenvalues --    4.78489   4.79908   4.84249   4.87022   4.91513
  Beta virt. eigenvalues --    4.98116   5.02225   5.07751   5.24634   5.32380
  Beta virt. eigenvalues --    5.40915   5.46163   5.55317   5.68585   5.72650
  Beta virt. eigenvalues --    5.86549   5.90151   6.77911  31.56279  31.78752
  Beta virt. eigenvalues --   31.91766
          Condensed to atoms (all electrons):
               1          2          3          4          5          6
     1  N    6.776372   0.348589   0.257786   0.174742  -0.031558  -0.048151
     2  H    0.348589   0.498143  -0.025167  -0.036492  -0.017644   0.006538
     3  H    0.257786  -0.025167   0.310611  -0.019471   0.005006  -0.003529
     4  N    0.174742  -0.036492  -0.019471   6.535154   0.379470   0.380260
     5  H   -0.031558  -0.017644   0.005006   0.379470   0.472572  -0.038774
     6  H   -0.048151   0.006538  -0.003529   0.380260  -0.038774   0.450283
     7  N   -0.093794   0.008124   0.177754  -0.003465  -0.001202   0.001099
     8  H    0.016628  -0.000950  -0.032686  -0.000100   0.000251   0.000118
               7          8
     1  N   -0.093794   0.016628
     2  H    0.008124  -0.000950
     3  H    0.177754  -0.032686
     4  N   -0.003465  -0.000100
     5  H   -0.001202   0.000251
     6  H    0.001099   0.000118
     7  N    7.073593   0.266720
     8  H    0.266720   0.543069
          Atomic-Atomic Spin Densities.
               1          2          3          4          5          6
     1  N    0.559032  -0.003940   0.018728  -0.090512   0.000233  -0.002908
     2  H   -0.003940  -0.008372   0.000727   0.002387  -0.000019  -0.000909
     3  H    0.018728   0.000727  -0.055399   0.003645   0.000029  -0.000535
     4  N   -0.090512   0.002387   0.003645   0.161871  -0.001765   0.000114
     5  H    0.000233  -0.000019   0.000029  -0.001765  -0.000923   0.001876
     6  H   -0.002908  -0.000909  -0.000535   0.000114   0.001876   0.009132
     7  N   -0.087754   0.005082  -0.028172   0.024531  -0.000238  -0.001071
     8  H   -0.000165  -0.000057   0.005885  -0.001123  -0.000034   0.000036
               7          8
     1  N   -0.087754  -0.000165
     2  H    0.005082  -0.000057
     3  H   -0.028172   0.005885
     4  N    0.024531  -0.001123
     5  H   -0.000238  -0.000034
     6  H   -0.001071   0.000036
     7  N    1.682230   0.006563
     8  H    0.006563  -0.048836
 Mulliken charges and spin densities:
               1          2
     1  N   -0.400614   0.392714
     2  H    0.218861  -0.005101
     3  H    0.329696  -0.055093
     4  N   -0.410099   0.099148
     5  H    0.231878  -0.000841
     6  H    0.252156   0.005735
     7  N   -0.428829   1.601170
     8  H    0.206950  -0.037731
 Sum of Mulliken charges =   0.00000   2.00000
 Mulliken charges and spin densities with hydrogens summed into heavy atoms:
               1          2
     1  N    0.147943   0.332520
     4  N    0.073936   0.104041
     7  N   -0.221879   1.563439
 APT charges:
               1
     1  N   -0.567776
     2  H    0.435580
     3  H    0.206334
     4  N   -1.040014
     5  H    0.535164
     6  H    0.559531
     7  N   -0.475352
     8  H    0.346533
 Sum of APT charges =  -0.00000
 APT charges with hydrogens summed into heavy atoms:
               1
     1  N    0.074138
     4  N    0.054680
     7  N   -0.128818
 Electronic spatial extent (au):  <R**2>=            249.7996
 Charge=             -0.0000 electrons
 Dipole moment (field-independent basis, Debye):
    X=             -3.0606    Y=             -0.5526    Z=              2.2356  Tot=              3.8303
 Quadrupole moment (field-independent basis, Debye-Ang):
   XX=            -20.4566   YY=            -20.6215   ZZ=            -17.5629
   XY=              0.1416   XZ=              1.4956   YZ=              1.4783
 Traceless Quadrupole moment (field-independent basis, Debye-Ang):
   XX=             -0.9096   YY=             -1.0745   ZZ=              1.9841
   XY=              0.1416   XZ=              1.4956   YZ=              1.4783
 Octapole moment (field-independent basis, Debye-Ang**2):
  XXX=            -26.0418  YYY=              0.4234  ZZZ=              2.6858  XYY=              0.5700
  XXY=             -5.3076  XXZ=              5.2618  XZZ=             -4.8559  YZZ=             -1.0745
  YYZ=              3.2463  XYZ=             -2.2896
 Hexadecapole moment (field-independent basis, Debye-Ang**3):
 XXXX=           -257.5222 YYYY=            -56.2765 ZZZZ=            -25.1302 XXXY=              4.6065
 XXXZ=             10.5721 YYYX=             -0.8049 YYYZ=              3.4004 ZZZX=              1.7081
 ZZZY=              2.1067 XXYY=            -46.8322 XXZZ=            -37.9182 YYZZ=            -12.3066
 XXYZ=             -0.7022 YYXZ=              0.3423 ZZXY=              1.1429
 N-N= 7.309725522921D+01 E-N=-5.372905125453D+02  KE= 1.664046802284D+02
  Exact polarizability:   0.000   0.000   0.000   0.000   0.000   0.000
 Approx polarizability:  57.568  -2.758  27.751  -0.415  -0.935  25.883
                          Isotropic Fermi Contact Couplings
        Atom                 a.u.       MegaHertz       Gauss      10(-4) cm-1
     1  N(14)              0.01771       2.86108       1.02090       0.95435
     2  H(1)              -0.00532     -11.88418      -4.24057      -3.96413
     3  H(1)              -0.02974     -66.46986     -23.71810     -22.17196
     4  N(14)              0.05063       8.17947       2.91864       2.72838
     5  H(1)               0.00044       0.97834       0.34910       0.32634
     6  H(1)               0.00507      11.33285       4.04384       3.78023
     7  N(14)              0.08511      13.74968       4.90623       4.58640
     8  H(1)              -0.02060     -46.03379     -16.42600     -15.35522
 --------------------------------------------------------
       Center         ----  Spin Dipole Couplings  ----
                      3XX-RR        3YY-RR        3ZZ-RR
 --------------------------------------------------------
     1   Atom        0.563340     -0.080228     -0.483112
     2   Atom       -0.015005     -0.015125      0.030130
     3   Atom        0.223883     -0.087371     -0.136512
     4   Atom        0.094458      0.042504     -0.136962
     5   Atom        0.008600     -0.011651      0.003051
     6   Atom        0.006778     -0.010593      0.003815
     7   Atom        0.346422     -0.062059     -0.284363
     8   Atom       -0.101471      0.038947      0.062524
 --------------------------------------------------------
                        XY            XZ            YZ
 --------------------------------------------------------
     1   Atom       -0.769610      0.331499     -0.205261
     2   Atom       -0.026561      0.001761      0.044193
     3   Atom       -0.130561     -0.003236      0.008138
     4   Atom       -0.195947      0.021080     -0.023492
     5   Atom        0.003404     -0.015274     -0.007203
     6   Atom        0.006162      0.013625      0.009803
     7   Atom       -0.010133      0.516315      1.569582
     8   Atom        0.036942     -0.024206     -0.132421
 --------------------------------------------------------


 ---------------------------------------------------------------------------------
              Anisotropic Spin Dipole Couplings in Principal Axis System
 ---------------------------------------------------------------------------------

       Atom             a.u.   MegaHertz   Gauss  10(-4) cm-1        Axes

              Baa    -0.5991   -23.107    -8.245    -7.708  0.5787  0.6803 -0.4498
     1 N(14)  Bbb    -0.5686   -21.929    -7.825    -7.315  0.0856  0.4977  0.8631
              Bcc     1.1677    45.036    16.070    15.023  0.8111 -0.5380  0.2298
 
              Baa    -0.0561   -29.946   -10.685    -9.989  0.5092  0.7617 -0.4007
     2 H(1)   Bbb    -0.0032    -1.729    -0.617    -0.577  0.8424 -0.3457  0.4133
              Bcc     0.0594    31.675    11.302    10.566 -0.1763  0.5480  0.8177
 
              Baa    -0.1423   -75.943   -27.098   -25.332 -0.2156 -0.6235  0.7515
     3 H(1)   Bbb    -0.1291   -68.905   -24.587   -22.984  0.2660  0.7030  0.6596
              Bcc     0.2715   144.848    51.686    48.316  0.9395 -0.3422 -0.0143
 
              Baa    -0.1406    -5.424    -1.935    -1.809  0.1512  0.2832  0.9471
     4 N(14)  Bbb    -0.1279    -4.934    -1.761    -1.646  0.6446  0.6981 -0.3117
              Bcc     0.2686    10.358     3.696     3.455  0.7494 -0.6576  0.0771
 
              Baa    -0.0151    -8.079    -2.883    -2.695  0.2033  0.8399  0.5032
     5 H(1)   Bbb    -0.0077    -4.127    -1.473    -1.377  0.6443 -0.5017  0.5772
              Bcc     0.0229    12.207     4.356     4.072  0.7373  0.2069 -0.6431
 
              Baa    -0.0156    -8.316    -2.967    -2.774  0.0495  0.8770 -0.4779
     6 H(1)   Bbb    -0.0072    -3.825    -1.365    -1.276  0.7286 -0.3590 -0.5834
              Bcc     0.0228    12.141     4.332     4.050  0.6832  0.3193  0.6567
 
              Baa    -1.8163   -70.052   -24.996   -23.367 -0.1780 -0.6567  0.7328
     7 N(14)  Bbb     0.3095    11.939     4.260     3.982  0.9387 -0.3367 -0.0736
              Bcc     1.5068    58.113    20.736    19.384  0.2951  0.6748  0.6764
 
              Baa    -0.1117   -59.603   -21.268   -19.881  0.9293 -0.3446 -0.1328
     8 H(1)   Bbb    -0.0783   -41.758   -14.900   -13.929  0.3394  0.6554  0.6748
              Bcc     0.1900   101.361    36.168    33.810 -0.1455 -0.6721  0.7260
 

 ---------------------------------------------------------------------------------

 No NMR shielding tensors so no spin-rotation constants.
 Leave Link  601 at Wed Feb 19 14:54:00 2020, MaxMem=  1879048192 cpu:               3.4 elap:               0.5
 (Enter /opt/g16/l701.exe)
 ... and contract with generalized density number  0.
 Compute integral second derivatives.
 R6Disp: Adding Grimme-D2 dispersion energy 2nd derivatives to the Hessian.
   1 Symmetry operations used in ECPInt.
 ECPInt:  NShTT=    1431 NPrTT=    4176 LenC2=    1423 LenP2D=    3597.
 LDataN:  DoStor=T MaxTD1= 8 Len=  415
 Leave Link  701 at Wed Feb 19 14:54:00 2020, MaxMem=  1879048192 cpu:               2.0 elap:               0.2
 (Enter /opt/g16/l702.exe)
 L702 exits ... SP integral derivatives will be done elsewhere.
 Leave Link  702 at Wed Feb 19 14:54:00 2020, MaxMem=  1879048192 cpu:               0.4 elap:               0.1
 (Enter /opt/g16/l703.exe)
 Integral derivatives from FoFJK, PRISM(SPDF).
 Compute integral second derivatives, UseDBF=F ICtDFT=           0.
 Calling FoFJK, ICntrl=    100147 FMM=F ISym2X=0 I1Cent= 0 IOpClX= 1 NMat=1 NMatS=1 NMatT=0.
 FoFJK:  IHMeth= 1 ICntrl=  100147 DoSepK=T KAlg= 0 I1Cent=           0 FoldK=F
 IRaf=         1 NMat=       1 IRICut=       1 DoRegI=T DoRafI=F ISym2E= 0 IDoP0=0 IntGTp=1.
 FoFCou: FMM=F IPFlag=           0 FMFlag=      100000 FMFlg1=         800
         NFxFlg=           0 DoJE=F BraDBF=F KetDBF=F FulRan=T
         wScrn=  0.000000 ICntrl=    100547 IOpCl=  0 I1Cent=           0 NGrid=           0
         NMat0=    1 NMatS0=      1 NMatT0=    0 NMatD0=    1 NMtDS0=    0 NMtDT0=    0
 Symmetry not used in FoFCou.
 Leave Link  703 at Wed Feb 19 14:54:44 2020, MaxMem=  1879048192 cpu:             352.3 elap:              44.0
 (Enter /opt/g16/l716.exe)
 Dipole        =-1.20413822D+00-2.17424481D-01 8.79568786D-01
 Polarizability= 0.00000000D+00 0.00000000D+00 0.00000000D+00
                 0.00000000D+00 0.00000000D+00 0.00000000D+00
 ***** Axes restored to original set *****
 -------------------------------------------------------------------
 Center     Atomic                   Forces (Hartrees/Bohr)
 Number     Number              X              Y              Z
 -------------------------------------------------------------------
      1        7          -0.000669406    0.000186734    0.000584970
      2        1          -0.000197856    0.000153887    0.000196004
      3        1           0.000986097   -0.000072448   -0.001459214
      4        7          -0.000351068   -0.000028681    0.000226756
      5        1          -0.000142463   -0.000065741    0.000253297
      6        1           0.000143514    0.000005031   -0.000361401
      7        7           0.000116206    0.000594421   -0.000085477
      8        1           0.000114976   -0.000773204    0.000645065
 -------------------------------------------------------------------
 Cartesian Forces:  Max     0.001459214 RMS     0.000493718
 Force constants in Cartesian coordinates: 
                1             2             3             4             5 
      1  0.253839D+00
      2  0.906552D-01  0.376415D+00
      3 -0.438046D-01  0.176786D+00  0.463687D+00
      4 -0.409398D-01 -0.393171D-02  0.216269D-01  0.523243D-01
      5 -0.157422D-01 -0.977829D-01 -0.126117D+00  0.152855D-01  0.126787D+00
      6  0.225574D-01 -0.183416D+00 -0.353160D+00 -0.181245D-01  0.168301D+00
      7  0.488959D-01  0.372951D-01  0.167497D-01 -0.348279D-02  0.849105D-02
      8 -0.221433D-01 -0.566894D-01 -0.214189D-01  0.139348D-01 -0.573319D-02
      9  0.106918D-02 -0.846781D-02 -0.304166D-01  0.243284D-01 -0.810088D-02
     10 -0.123272D+00 -0.138137D+00 -0.328162D-03 -0.702251D-02 -0.666917D-02
     11 -0.485087D-01 -0.187296D+00 -0.289852D-01 -0.170756D-01 -0.219220D-01
     12  0.375911D-01  0.142034D-01 -0.985668D-01 -0.247334D-01 -0.341687D-01
     13 -0.149763D-01  0.417558D-02  0.128644D-01  0.351438D-03  0.850968D-04
     14 -0.320295D-01 -0.164772D-01  0.309974D-01 -0.931353D-04  0.278816D-02
     15  0.256125D-02  0.344177D-03  0.388102D-02 -0.210564D-02 -0.628835D-03
     16 -0.757542D-02 -0.449183D-02 -0.125809D-01 -0.135037D-02 -0.236182D-03
     17 -0.312243D-01 -0.191855D-01 -0.322558D-01 -0.661144D-02 -0.486935D-02
     18 -0.319519D-02 -0.173545D-02  0.105102D-01 -0.574631D-03  0.161922D-02
     19 -0.111770D+00  0.120975D-01  0.873097D-02 -0.872162D-03 -0.962978D-03
     20  0.542953D-01  0.141579D-02  0.252560D-02 -0.226534D-02  0.100676D-02
     21 -0.150487D-01  0.417872D-02  0.414988D-02 -0.993693D-03 -0.980950D-03
     22 -0.420068D-02  0.233726D-02 -0.325835D-02  0.991842D-03 -0.251050D-03
     23  0.469760D-02 -0.399538D-03 -0.153174D-02  0.756893D-03 -0.274780D-03
     24 -0.173042D-02 -0.189262D-02 -0.844785D-04  0.576656D-03  0.762031D-04
                6             7             8             9            10 
      6  0.349592D+00
      7 -0.131634D-01 -0.795390D-01
      8  0.407553D-02  0.560812D-01  0.544759D-01
      9 -0.596865D-02 -0.143257D-01  0.476128D-02  0.591289D-01
     10  0.414734D-02 -0.263311D-01 -0.248986D-01  0.180874D-03  0.485124D+00
     11  0.125724D-01 -0.762297D-01  0.257513D-01 -0.159729D-02  0.204288D+00
     12  0.222024D-02 -0.529978D-02  0.108788D-01 -0.206678D-02 -0.148981D-01
     13 -0.310908D-03  0.274027D-03 -0.397603D-02  0.133690D-02 -0.171939D+00
     14  0.103650D-02  0.577767D-02 -0.436093D-02  0.136789D-02 -0.119429D-01
     15  0.388261D-02 -0.583957D-02  0.144480D-02 -0.107194D-03  0.172054D+00
     16  0.396659D-03 -0.106802D-01  0.123100D-02 -0.244077D-02 -0.160990D+00
     17 -0.309293D-03  0.995771D-02 -0.406815D-02  0.889966D-05 -0.191584D-01
     18  0.139105D-02  0.870285D-02 -0.292003D-02  0.158236D-03 -0.164035D+00
     19  0.431047D-02  0.694629D-01 -0.302100D-01 -0.124495D-02  0.241089D-02
     20 -0.200329D-02 -0.331546D-01 -0.631098D-02  0.317599D-02 -0.184941D-02
     21  0.170054D-02  0.689487D-02  0.145140D-02 -0.194598D-01  0.366132D-02
     22  0.187024D-03  0.140031D-02  0.998090D-02 -0.890386D-02  0.202045D-02
     23 -0.256709D-03 -0.821846D-02 -0.306445D-02  0.885193D-02 -0.163273D-02
     24  0.342292D-03  0.628109D-02  0.172712D-02 -0.126807D-02 -0.781979D-03
               11            12            13            14            15 
     11  0.232764D+00
     12  0.341828D-01  0.752755D+00
     13 -0.385786D-01  0.197019D+00  0.174844D+00
     14 -0.198639D-01 -0.311738D-01  0.343586D-01  0.383287D-01
     15  0.201438D-02 -0.324466D+00 -0.190340D+00 -0.108442D-02  0.338535D+00
     16 -0.471670D-01 -0.190910D+00  0.122509D-01  0.579698D-02  0.223862D-01
     17 -0.160175D-01  0.912866D-02  0.367713D-02 -0.220028D-02 -0.101860D-02
     18 -0.234152D-01 -0.331512D+00 -0.209636D-01 -0.490352D-04 -0.223994D-01
     19  0.234551D-01  0.815852D-04 -0.102547D-02 -0.153884D-02  0.966568D-03
     20 -0.114563D-01 -0.228543D-02  0.326803D-03  0.141204D-02 -0.907389D-03
     21  0.506559D-02  0.143245D-02  0.547940D-03 -0.105022D-02  0.715029D-03
     22 -0.183912D-03  0.114875D-02  0.220683D-03 -0.328875D-03  0.317481D-03
     23 -0.195918D-02 -0.765774D-03 -0.686040D-04  0.373306D-03 -0.164122D-03
     24  0.162491D-03  0.204365D-03 -0.154279D-03 -0.443159D-04 -0.411541D-04
               16            17            18            19            20 
     16  0.165549D+00
     17  0.466143D-01  0.444179D-01
     18  0.182273D+00  0.250177D-01  0.342487D+00
     19  0.262815D-02 -0.320244D-02 -0.219386D-02  0.666741D-01
     20 -0.109832D-02  0.145990D-02  0.113472D-02  0.309038D-01  0.193704D+00
     21  0.103432D-02 -0.565099D-03 -0.572077D-03 -0.536121D-01 -0.199050D+00
     22  0.168256D-03 -0.524598D-04 -0.137394D-04 -0.275080D-01 -0.471582D-01
     23 -0.648953D-03  0.462964D-03  0.348044D-03 -0.305421D-01 -0.181231D+00
     24 -0.159065D-03 -0.649084D-05 -0.627826D-04  0.429614D-01  0.197410D+00
               21            22            23            24 
     21  0.224282D+00
     22  0.575160D-01  0.269072D-01
     23  0.190950D+00  0.356563D-01  0.186093D+00
     24 -0.212248D+00 -0.469934D-01 -0.197432D+00  0.213158D+00
 FormGI is forming the generalized inverse of G from B-inverse, IUseBI=4.
 Force constants in internal coordinates: 
                1             2             3             4             5 
      1  0.440027D+00
      2 -0.310850D-02  0.108040D+00
      3 -0.181304D-02  0.470956D-01  0.384945D+00
      4  0.394408D-02  0.126732D+00 -0.217212D-01  0.436580D-01
      5  0.265765D-02 -0.403299D-02  0.417427D-02  0.192414D-02  0.464452D+00
      6 -0.154663D-02 -0.215936D-02  0.111647D-01  0.725734D-03 -0.667876D-03
      7  0.481402D-03  0.358734D-02 -0.964582D-03 -0.478954D-02  0.874370D-04
      8  0.596700D-02  0.859714D-02 -0.250469D-01 -0.750960D-03  0.962482D-03
      9  0.447923D-02  0.680836D-02  0.341776D-01 -0.402889D-02 -0.391230D-02
     10 -0.212187D-02 -0.832357D-02  0.446789D-01  0.577467D-02  0.344729D-02
     11 -0.203995D-02 -0.237639D-02  0.651203D-02  0.871908D-02 -0.545906D-03
     12 -0.520115D-02 -0.683388D-02  0.442315D-01  0.424707D-02  0.805320D-03
     13  0.529287D-02 -0.317106D-02  0.518856D-01  0.214502D-02 -0.166447D-02
     14  0.292112D-03 -0.317926D-02 -0.284861D-01  0.658620D-03  0.105793D-01
     15  0.250340D-03  0.371069D-02 -0.269814D-02  0.884074D-02  0.328036D-03
     16  0.341280D-02  0.572232D-02  0.209538D-01 -0.133982D-02 -0.119957D-02
     17 -0.375030D-02 -0.279875D-02 -0.242850D-01  0.120389D-02  0.133819D-02
     18 -0.433432D-02 -0.234166D-02 -0.215158D-01 -0.948912D-03 -0.673778D-02
     19 -0.364912D-02 -0.141645D-01  0.147933D-01  0.479138D-02  0.656381D-02
     20  0.386922D-02  0.703378D-02 -0.112093D-01 -0.997329D-03 -0.588089D-02
     21  0.455442D-02 -0.478908D-02  0.250998D-01  0.474297D-02  0.742070D-02
     22 -0.103045D-04  0.215145D-02 -0.325636D-02 -0.190911D-03  0.171302D-04
                6             7             8             9            10 
      6  0.461377D+00
      7  0.950376D-04  0.406532D+00
      8 -0.189391D-02  0.437732D-03  0.444316D-01
      9  0.974159D-03 -0.225512D-03 -0.326557D-01  0.967184D-01
     10  0.118247D-02 -0.498451D-04 -0.339639D-01 -0.378461D-01  0.151633D+00
     11 -0.439608D-03 -0.385206D-02 -0.598112D-03  0.327332D-02  0.325360D-02
     12 -0.452519D-03  0.451444D-03  0.120592D-03 -0.441348D-02  0.576623D-02
     13  0.395620D-02  0.903667D-04 -0.628995D-02  0.134152D-01 -0.272302D-02
     14  0.870105D-02  0.288441D-04  0.294981D-02 -0.252956D-02 -0.581959D-02
     15 -0.163946D-03  0.965833D-02  0.139542D-02 -0.122472D-03 -0.127379D-01
     16  0.282370D-03  0.267356D-03 -0.132502D-01  0.390020D-01 -0.834867D-03
     17 -0.385736D-03  0.328690D-03  0.161907D-01 -0.391773D-01 -0.438529D-02
     18 -0.652398D-02 -0.202444D-03 -0.911617D-02  0.452809D-02 -0.550053D-02
     19  0.779207D-02  0.244403D-03 -0.100895D-01  0.848309D-02 -0.110554D-01
     20 -0.765693D-02  0.170575D-03  0.938243D-02 -0.342163D-02  0.110716D-01
     21  0.665912D-02  0.617422D-03  0.840910D-02  0.533374D-03  0.551678D-02
     22 -0.191009D-03  0.378344D-03  0.382927D-02 -0.221378D-03 -0.656528D-02
               11            12            13            14            15 
     11  0.429588D-01
     12 -0.300723D-02  0.148362D+00
     13  0.268794D-03 -0.456907D-01  0.151988D+00
     14 -0.566396D-03 -0.522995D-01 -0.541120D-01  0.671777D-01
     15 -0.491930D-02  0.916503D-03  0.130510D-03  0.395780D-03  0.767605D-01
     16  0.117920D-02 -0.891165D-03  0.568233D-02 -0.176339D-02  0.166205D-02
     17 -0.361451D-02  0.166330D-02 -0.534833D-02  0.209443D-02  0.644123D-02
     18  0.207736D-03 -0.150313D-02 -0.511155D-02 -0.380687D-02  0.161130D-02
     19 -0.257648D-02  0.391910D-02  0.919682D-02  0.335694D-02  0.292338D-02
     20  0.279184D-02 -0.730869D-03 -0.701618D-02 -0.453876D-02 -0.316473D-02
     21  0.762390D-05  0.469136D-02  0.729220D-02  0.262505D-02 -0.185265D-02
     22 -0.192377D-02  0.506969D-03  0.207666D-03  0.411592D-03  0.677451D-02
               16            17            18            19            20 
     16  0.193872D-01
     17 -0.181345D-01  0.203175D-01
     18 -0.109647D-02  0.553697D-03  0.105142D-01
     19  0.392802D-03  0.343723D-03  0.308062D-03  0.149516D-01
     20  0.279099D-02 -0.258186D-02 -0.598035D-03 -0.127023D-01  0.141641D-01
     21  0.428026D-02 -0.279183D-02 -0.108042D-01  0.194127D-02  0.205989D-02
     22  0.581865D-04  0.116445D-02 -0.712329D-03  0.375770D-03  0.386393D-03
               21            22 
     21  0.148053D-01
     22  0.147449D-02  0.143033D-02
 Leave Link  716 at Wed Feb 19 14:54:44 2020, MaxMem=  1879048192 cpu:               0.7 elap:               0.1
 (Enter /opt/g16/l103.exe)

 GradGradGradGradGradGradGradGradGradGradGradGradGradGradGradGradGradGrad
 Berny optimization.
 Red2BG is reusing G-inverse.
 Internal  Forces:  Max     0.001330977 RMS     0.000447031
 Search for a saddle point.
 Step number   1 out of a maximum of  100
 All quantities printed in internal units (Hartrees-Bohrs-Radians)
 Swapping is turned off.
 Second derivative matrix not updated -- analytic derivatives used.
 ITU=  0
     Eigenvalues ---   -0.06758   0.00028   0.00105   0.00323   0.02915
     Eigenvalues ---    0.03974   0.04423   0.07668   0.12059   0.14535
     Eigenvalues ---    0.17208   0.20297   0.20877   0.40692   0.42876
     Eigenvalues ---    0.44044   0.46520   0.46677
 Eigenvectors required to have negative eigenvalues:
                          R4        R2        D4        R3        D6
   1                   -0.74340   0.60247   0.15268  -0.13117   0.10680
                          A4        A5        A3        A6        A1
   1                    0.08595   0.07731   0.06409   0.06185  -0.05770
 RFO step:  Lambda0=3.980886555D-06 Lambda=-5.22068418D-05.
 Linear search not attempted -- option 19 set.
 Iteration  1 RMS(Cart)=  0.00979174 RMS(Int)=  0.00189598
 Iteration  2 RMS(Cart)=  0.00080451 RMS(Int)=  0.00000439
 Iteration  3 RMS(Cart)=  0.00000250 RMS(Int)=  0.00000422
 Iteration  4 RMS(Cart)=  0.00000000 RMS(Int)=  0.00000422
 ITry= 1 IFail=0 DXMaxC= 2.34D-02 DCOld= 1.00D+10 DXMaxT= 5.00D-02 DXLimC= 3.00D+00 Rises=F
 Variable       Old X    -DE/DX   Delta X   Delta X   Delta X     New X
                                 (Linear)    (Quad)   (Total)
    R1        1.92104   0.00025   0.00000   0.00013   0.00013   1.92117
    R2        2.21159   0.00133   0.00000  -0.00107  -0.00107   2.21053
    R3        2.63222   0.00028   0.00000   0.00193   0.00193   2.63415
    R4        2.54608   0.00034   0.00000   0.01149   0.01149   2.55757
    R5        1.90536   0.00029   0.00000   0.00054   0.00054   1.90590
    R6        1.90663   0.00022   0.00000   0.00054   0.00054   1.90717
    R7        1.94965   0.00097   0.00000   0.00219   0.00219   1.95184
    A1        1.79673   0.00017   0.00000   0.00374   0.00374   1.80046
    A2        1.89414  -0.00011   0.00000  -0.00013  -0.00014   1.89400
    A3        1.90695   0.00046   0.00000   0.00406   0.00406   1.91101
    A4        2.87856  -0.00061   0.00000  -0.01762  -0.01762   2.86094
    A5        1.98868   0.00016   0.00000  -0.00185  -0.00185   1.98683
    A6        1.91739  -0.00026   0.00000  -0.00299  -0.00299   1.91440
    A7        1.93012   0.00017   0.00000   0.00026   0.00025   1.93037
    A8        1.76599   0.00059   0.00000   0.00668   0.00668   1.77267
    D1        1.08685   0.00004   0.00000  -0.07758  -0.07757   1.00928
    D2       -0.92365  -0.00010   0.00000  -0.08098  -0.08099  -1.00464
    D3        0.23659  -0.00016   0.00000   0.01740   0.01739   0.25399
    D4        2.41322  -0.00002   0.00000   0.01400   0.01400   2.42722
    D5        2.18356   0.00020   0.00000   0.02373   0.02373   2.20729
    D6       -1.92300   0.00035   0.00000   0.02033   0.02034  -1.90267
    D7        0.14523   0.00012   0.00000   0.09095   0.09095   0.23618
         Item               Value     Threshold  Converged?
 Maximum Force            0.001331     0.000450     NO 
 RMS     Force            0.000447     0.000300     NO 
 Maximum Displacement     0.023445     0.001800     NO 
 RMS     Displacement     0.010213     0.001200     NO 
 Predicted change in Energy=-2.470781D-05
 Lowest energy point so far.  Saving SCF results.
 GradGradGradGradGradGradGradGradGradGradGradGradGradGradGradGradGradGrad

 Leave Link  103 at Wed Feb 19 14:54:45 2020, MaxMem=  1879048192 cpu:               3.4 elap:               0.5
 (Enter /opt/g16/l202.exe)
                          Input orientation:                          
 ---------------------------------------------------------------------
 Center     Atomic      Atomic             Coordinates (Angstroms)
 Number     Number       Type             X           Y           Z
 ---------------------------------------------------------------------
      1          7           0       -0.447204    0.680198   -0.091124
      2          1           0       -0.451367    1.142560    0.814281
      3          1           0        0.674778    0.380832   -0.232106
      4          7           0       -1.228357   -0.470996   -0.003947
      5          1           0       -1.814981   -0.504396    0.815776
      6          1           0       -1.782591   -0.570024   -0.841542
      7          7           0        1.909628   -0.148894   -0.070091
      8          1           0        1.739209   -0.848916    0.670008
 ---------------------------------------------------------------------
                    Distance matrix (angstroms):
                    1          2          3          4          5
     1  N    0.000000
     2  H    1.016639   0.000000
     3  H    1.169760   1.715621   0.000000
     4  N    1.393932   1.968953   2.097520   0.000000
     5  H    2.023992   2.138203   2.842637   1.008558   0.000000
     6  H    1.977230   2.728892   2.704477   1.009230   1.658932
     7  N    2.498498   2.832713   1.353408   3.155166   3.844978
     8  H    2.774511   2.964019   1.859867   3.066510   3.573823
                    6          7          8
     6  H    0.000000
     7  N    3.795387   0.000000
     8  H    3.842608   1.032870   0.000000
 Stoichiometry    H5N3(3)
 Framework group  C1[X(H5N3)]
 Deg. of freedom    18
 Full point group                 C1      NOp   1
 RotChk:  IX=0 Diff= 5.03D-03
 Largest Abelian subgroup         C1      NOp   1
 Largest concise Abelian subgroup C1      NOp   1
                         Standard orientation:                         
 ---------------------------------------------------------------------
 Center     Atomic      Atomic             Coordinates (Angstroms)
 Number     Number       Type             X           Y           Z
 ---------------------------------------------------------------------
      1          7           0       -0.445272    0.680879   -0.092517
      2          1           0       -0.447107    1.142074    0.813491
      3          1           0        0.675620    0.378144   -0.234961
      4          7           0       -1.229988   -0.467946   -0.006088
      5          1           0       -1.815934   -0.500553    0.814152
      6          1           0       -1.785330   -0.564127   -0.843280
      7          7           0        1.908938   -0.155703   -0.074815
      8          1           0        1.737006   -0.856144    0.664538
 ---------------------------------------------------------------------
 Rotational constants (GHZ):          32.8593771           5.7507227           5.1647699
 Leave Link  202 at Wed Feb 19 14:54:45 2020, MaxMem=  1879048192 cpu:               0.2 elap:               0.0
 (Enter /opt/g16/l301.exe)
 Standard basis: def2TZVP (5D, 7F)
 Ernie: Thresh=  0.10000D-02 Tol=  0.10000D-05 Strict=F.
 There are   138 symmetry adapted cartesian basis functions of A   symmetry.
 There are   123 symmetry adapted basis functions of A   symmetry.
   123 basis functions,   193 primitive gaussians,   138 cartesian basis functions
    14 alpha electrons       12 beta electrons
       nuclear repulsion energy        73.0154459452 Hartrees.
 IExCor= 4639 DFT=T Ex+Corr=wB97XD ExCW=0 ScaHFX=  1.000000
 ScaDFX=  1.000000  1.000000  1.000000  1.000000 ScalE2=  1.000000  1.000000
 IRadAn=      5 IRanWt=     -1 IRanGd=            0 ICorTp=0 IEmpDi=121
 HFx  wShort=  0.000000 wLong=  0.200000 cFull=  0.222036 cShort=  0.000000 cLong=  0.777964
 DFx  wShort=  0.000000 wLong=  0.200000 cFull=  0.000000 cShort=  0.000000 cLong=  1.000000
 NAtoms=    8 NActive=    8 NUniq=    8 SFac= 1.00D+00 NAtFMM=   60 NAOKFM=F Big=F
 Integral buffers will be    131072 words long.
 Raffenetti 2 integral format.
 Two-electron integral symmetry is turned on.
 R6Disp:  Grimme-D2 Dispersion energy=       -0.0018364068 Hartrees.
 Nuclear repulsion after empirical dispersion term =       73.0136095383 Hartrees.
 Leave Link  301 at Wed Feb 19 14:54:45 2020, MaxMem=  1879048192 cpu:               0.5 elap:               0.1
 (Enter /opt/g16/l302.exe)
 NPDir=0 NMtPBC=     1 NCelOv=     1 NCel=       1 NClECP=     1 NCelD=      1
         NCelK=      1 NCelE2=     1 NClLst=     1 CellRange=     0.0.
 One-electron integrals computed using PRISM.
 One-electron integral symmetry used in STVInt
   1 Symmetry operations used in ECPInt.
 ECPInt:  NShTT=    1431 NPrTT=    4176 LenC2=    1423 LenP2D=    3597.
 LDataN:  DoStor=T MaxTD1= 6 Len=  172
 NBasis=   123 RedAO= T EigKep=  1.88D-03  NBF=   123
 NBsUse=   123 1.00D-06 EigRej= -1.00D+00 NBFU=   123
 Precomputing XC quadrature grid using
 IXCGrd= 4 IRadAn=           5 IRanWt=          -1 IRanGd=           0 AccXCQ= 0.00D+00.
 Generated NRdTot=       0 NPtTot=           0 NUsed=           0 NTot=          32
 NSgBfM=   138   138   138   138   138 MxSgAt=     8 MxSgA2=     8.
 Leave Link  302 at Wed Feb 19 14:54:45 2020, MaxMem=  1879048192 cpu:               1.7 elap:               0.2
 (Enter /opt/g16/l303.exe)
 DipDrv:  MaxL=1.
 Leave Link  303 at Wed Feb 19 14:54:45 2020, MaxMem=  1879048192 cpu:               0.5 elap:               0.1
 (Enter /opt/g16/l401.exe)
 Initial guess from the checkpoint file:  "check.chk"
 B after Tr=     0.000000    0.000000   -0.000000
         Rot=    1.000000   -0.000459    0.000009    0.000640 Ang=  -0.09 deg.
 Guess basis will be translated and rotated to current coordinates.
 JPrj=2 DoOrth=T DoCkMO=T.
 Initial guess <Sx>= 0.0000 <Sy>= 0.0000 <Sz>= 1.0000 <S**2>= 2.0153 S= 1.0051
 Generating alternative initial guess.
 ExpMin= 1.03D-01 ExpMax= 1.97D+04 ExpMxC= 6.73D+02 IAcc=3 IRadAn=         5 AccDes= 0.00D+00
 Harris functional with IExCor= 4639 and IRadAn=       5 diagonalized for initial guess.
 HarFok:  IExCor= 4639 AccDes= 0.00D+00 IRadAn=         5 IDoV= 1 UseB2=F ITyADJ=14
 ICtDFT=  3500011 ScaDFX=  1.000000  1.000000  1.000000  1.000000
 FoFCou: FMM=F IPFlag=           0 FMFlag=      100000 FMFlg1=           0
         NFxFlg=           0 DoJE=T BraDBF=F KetDBF=T FulRan=T
         wScrn=  0.000000 ICntrl=       500 IOpCl=  0 I1Cent=   200000004 NGrid=           0
         NMat0=    1 NMatS0=      1 NMatT0=    0 NMatD0=    1 NMtDS0=    0 NMtDT0=    0
 Petite list used in FoFCou.
 Harris En= -160.157411167895    
 Leave Link  401 at Wed Feb 19 14:54:46 2020, MaxMem=  1879048192 cpu:               7.1 elap:               0.9
 (Enter /opt/g16/l502.exe)
 Keep R1 and R2 ints in memory in canonical form, NReq=124040190.
 FoFCou: FMM=F IPFlag=           0 FMFlag=           0 FMFlg1=           0
         NFxFlg=           0 DoJE=F BraDBF=F KetDBF=F FulRan=T
         wScrn=  0.000000 ICntrl=       600 IOpCl=  0 I1Cent=           0 NGrid=           0
         NMat0=    1 NMatS0=   7626 NMatT0=    0 NMatD0=    1 NMtDS0=    0 NMtDT0=    0
 Symmetry not used in FoFCou.
 Two-electron integral symmetry not used.
 UHF open shell SCF:
 Using DIIS extrapolation, IDIIS=  1040.
 NGot=  1879048192 LenX=  1762680594 LenY=  1762661109
 Requested convergence on RMS density matrix=1.00D-08 within  32 cycles.
 Requested convergence on MAX density matrix=1.00D-06.
 Requested convergence on             energy=1.00D-06.
 No special actions if energy rises.
 Integral accuracy reduced to 1.0D-05 until final iterations.

 Cycle   1  Pass 0  IDiag  1:
 E= -167.089422099826    
 DIIS: error= 5.00D-04 at cycle   1 NSaved=   1.
 NSaved= 1 IEnMin= 1 EnMin= -167.089422099826     IErMin= 1 ErrMin= 5.00D-04
 ErrMax= 5.00D-04  0.00D+00 EMaxC= 1.00D-01 BMatC= 2.22D-04 BMatP= 2.22D-04
 IDIUse=3 WtCom= 9.95D-01 WtEn= 5.00D-03
 Coeff-Com:  0.100D+01
 Coeff-En:   0.100D+01
 Coeff:      0.100D+01
 Gap=     0.731 Goal=   None    Shift=    0.000
 Gap=     0.740 Goal=   None    Shift=    0.000
 RMSDP=7.78D-05 MaxDP=1.20D-03              OVMax= 3.87D-03

 Cycle   2  Pass 0  IDiag  1:
 E= -167.089498725693     Delta-E=       -0.000076625867 Rises=F Damp=F
 DIIS: error= 2.11D-04 at cycle   2 NSaved=   2.
 NSaved= 2 IEnMin= 2 EnMin= -167.089498725693     IErMin= 2 ErrMin= 2.11D-04
 ErrMax= 2.11D-04  0.00D+00 EMaxC= 1.00D-01 BMatC= 1.28D-05 BMatP= 2.22D-04
 IDIUse=3 WtCom= 9.98D-01 WtEn= 2.11D-03
 Coeff-Com: -0.905D-01 0.109D+01
 Coeff-En:   0.000D+00 0.100D+01
 Coeff:     -0.903D-01 0.109D+01
 Gap=     0.392 Goal=   None    Shift=    0.000
 Gap=     0.275 Goal=   None    Shift=    0.000
 RMSDP=2.78D-05 MaxDP=3.52D-04 DE=-7.66D-05 OVMax= 2.38D-03

 Cycle   3  Pass 0  IDiag  1:
 E= -167.089507178694     Delta-E=       -0.000008453001 Rises=F Damp=F
 DIIS: error= 1.87D-04 at cycle   3 NSaved=   3.
 NSaved= 3 IEnMin= 3 EnMin= -167.089507178694     IErMin= 3 ErrMin= 1.87D-04
 ErrMax= 1.87D-04  0.00D+00 EMaxC= 1.00D-01 BMatC= 7.70D-06 BMatP= 1.28D-05
 IDIUse=3 WtCom= 9.98D-01 WtEn= 1.87D-03
 Coeff-Com: -0.797D-01 0.485D+00 0.595D+00
 Coeff-En:   0.000D+00 0.000D+00 0.100D+01
 Coeff:     -0.796D-01 0.484D+00 0.595D+00
 Gap=     0.392 Goal=   None    Shift=    0.000
 Gap=     0.275 Goal=   None    Shift=    0.000
 RMSDP=1.01D-05 MaxDP=2.01D-04 DE=-8.45D-06 OVMax= 1.44D-03

 Cycle   4  Pass 0  IDiag  1:
 E= -167.089510175140     Delta-E=       -0.000002996446 Rises=F Damp=F
 DIIS: error= 1.31D-04 at cycle   4 NSaved=   4.
 NSaved= 4 IEnMin= 4 EnMin= -167.089510175140     IErMin= 4 ErrMin= 1.31D-04
 ErrMax= 1.31D-04  0.00D+00 EMaxC= 1.00D-01 BMatC= 1.53D-06 BMatP= 7.70D-06
 IDIUse=3 WtCom= 9.99D-01 WtEn= 1.31D-03
 Coeff-Com:  0.229D-02-0.159D+00 0.155D+00 0.100D+01
 Coeff-En:   0.000D+00 0.000D+00 0.000D+00 0.100D+01
 Coeff:      0.229D-02-0.159D+00 0.155D+00 0.100D+01
 Gap=     0.392 Goal=   None    Shift=    0.000
 Gap=     0.275 Goal=   None    Shift=    0.000
 RMSDP=9.81D-06 MaxDP=1.94D-04 DE=-3.00D-06 OVMax= 1.51D-03

 Initial convergence to 1.0D-05 achieved.  Increase integral accuracy.
 Cycle   5  Pass 1  IDiag  1:
 E= -167.089511551260     Delta-E=       -0.000001376120 Rises=F Damp=F
 DIIS: error= 9.08D-05 at cycle   1 NSaved=   1.
 NSaved= 1 IEnMin= 1 EnMin= -167.089511551260     IErMin= 1 ErrMin= 9.08D-05
 ErrMax= 9.08D-05  0.00D+00 EMaxC= 1.00D-01 BMatC= 4.63D-07 BMatP= 4.63D-07
 IDIUse=1 WtCom= 1.00D+00 WtEn= 0.00D+00
 Coeff-Com:  0.100D+01
 Coeff:      0.100D+01
 Gap=     0.392 Goal=   None    Shift=    0.000
 Gap=     0.275 Goal=   None    Shift=    0.000
 RMSDP=9.81D-06 MaxDP=1.94D-04 DE=-1.38D-06 OVMax= 8.85D-04

 Cycle   6  Pass 1  IDiag  1:
 E= -167.089512250988     Delta-E=       -0.000000699728 Rises=F Damp=F
 DIIS: error= 6.89D-05 at cycle   2 NSaved=   2.
 NSaved= 2 IEnMin= 2 EnMin= -167.089512250988     IErMin= 2 ErrMin= 6.89D-05
 ErrMax= 6.89D-05  0.00D+00 EMaxC= 1.00D-01 BMatC= 2.34D-07 BMatP= 4.63D-07
 IDIUse=1 WtCom= 1.00D+00 WtEn= 0.00D+00
 Coeff-Com: -0.143D+00 0.114D+01
 Coeff:     -0.143D+00 0.114D+01
 Gap=     0.392 Goal=   None    Shift=    0.000
 Gap=     0.275 Goal=   None    Shift=    0.000
 RMSDP=4.09D-06 MaxDP=9.55D-05 DE=-7.00D-07 OVMax= 7.50D-04

 Cycle   7  Pass 1  IDiag  1:
 E= -167.089512676636     Delta-E=       -0.000000425648 Rises=F Damp=F
 DIIS: error= 4.98D-05 at cycle   3 NSaved=   3.
 NSaved= 3 IEnMin= 3 EnMin= -167.089512676636     IErMin= 3 ErrMin= 4.98D-05
 ErrMax= 4.98D-05  0.00D+00 EMaxC= 1.00D-01 BMatC= 1.41D-07 BMatP= 2.34D-07
 IDIUse=1 WtCom= 1.00D+00 WtEn= 0.00D+00
 Coeff-Com: -0.509D+00 0.429D+00 0.108D+01
 Coeff:     -0.509D+00 0.429D+00 0.108D+01
[...]
 ! D2    D(4,1,3,7)            -57.5555         -DE/DX =    0.0                 !
 ! D3    D(2,1,4,5)             14.5652         -DE/DX =    0.0                 !
 ! D4    D(2,1,4,6)            139.0761         -DE/DX =    0.0                 !
 ! D5    D(3,1,4,5)            126.4313         -DE/DX =    0.0                 !
 ! D6    D(3,1,4,6)           -109.0578         -DE/DX =    0.0                 !
 ! D7    D(1,3,7,8)             14.3899         -DE/DX =    0.0                 !
 --------------------------------------------------------------------------------
 Lowest energy point so far.  Saving SCF results.
 Largest change from initial coordinates is atom    8       0.024 Angstoms.
 GradGradGradGradGradGradGradGradGradGradGradGradGradGradGradGradGradGrad

 Leave Link  103 at Wed Feb 19 14:55:56 2020, MaxMem=  1879048192 cpu:               0.7 elap:               0.1
 (Enter /opt/g16/l202.exe)
                          Input orientation:                          
 ---------------------------------------------------------------------
 Center     Atomic      Atomic             Coordinates (Angstroms)
 Number     Number       Type             X           Y           Z
 ---------------------------------------------------------------------
      1          7           0       -0.447345    0.680330   -0.091919
      2          1           0       -0.452573    1.144632    0.812515
      3          1           0        0.675325    0.381852   -0.230444
      4          7           0       -1.227777   -0.471215   -0.002840
      5          1           0       -1.815164   -0.503104    0.816406
      6          1           0       -1.781195   -0.572496   -0.840710
      7          7           0        1.910833   -0.145436   -0.066360
      8          1           0        1.737011   -0.854197    0.664606
 ---------------------------------------------------------------------
                    Distance matrix (angstroms):
                    1          2          3          4          5
     1  N    0.000000
     2  H    1.016664   0.000000
     3  H    1.169900   1.715154   0.000000
     4  N    1.393939   1.968936   2.097934   0.000000
     5  H    2.023981   2.138154   2.842812   1.008565   0.000000
     6  H    1.977225   2.728905   2.705124   1.009235   1.658916
     7  N    2.498709   2.832382   1.353305   3.156112   3.845810
     8  H    2.774620   2.968413   1.859061   3.063026   3.572710
                    6          7          8
     6  H    0.000000
     7  N    3.796455   0.000000
     8  H    3.837070   1.032893   0.000000
 Stoichiometry    H5N3(3)
 Framework group  C1[X(H5N3)]
 Deg. of freedom    18
 Full point group                 C1      NOp   1
 RotChk:  IX=0 Diff= 3.95D-16
 Largest Abelian subgroup         C1      NOp   1
 Largest concise Abelian subgroup C1      NOp   1
                         Standard orientation:                         
 ---------------------------------------------------------------------
 Center     Atomic      Atomic             Coordinates (Angstroms)
 Number     Number       Type             X           Y           Z
 ---------------------------------------------------------------------
      1          7           0       -0.445235    0.680822   -0.092663
      2          1           0       -0.447139    1.142231    0.813264
      3          1           0        0.675987    0.378216   -0.233933
      4          7           0       -1.230221   -0.467812   -0.006037
      5          1           0       -1.816438   -0.499940    0.814037
      6          1           0       -1.785370   -0.564141   -0.843345
      7          7           0        1.909589   -0.154631   -0.073510
      8          1           0        1.734030   -0.865024    0.655453
 ---------------------------------------------------------------------
 Rotational constants (GHZ):          32.8744231           5.7494716           5.1625682
 Leave Link  202 at Wed Feb 19 14:55:56 2020, MaxMem=  1879048192 cpu:               0.2 elap:               0.0
 (Enter /opt/g16/l601.exe)
 Copying SCF densities to generalized density rwf, IOpCl= 1 IROHF=0.

 **********************************************************************

            Population analysis using the SCF Density.

 **********************************************************************

 Orbital symmetries:
 Alpha Orbitals:
       Occupied  (A) (A) (A) (A) (A) (A) (A) (A) (A) (A) (A) (A)
                 (A) (A)
       Virtual   (A) (A) (A) (A) (A) (A) (A) (A) (A) (A) (A) (A)
                 (A) (A) (A) (A) (A) (A) (A) (A) (A) (A) (A) (A)
                 (A) (A) (A) (A) (A) (A) (A) (A) (A) (A) (A) (A)
                 (A) (A) (A) (A) (A) (A) (A) (A) (A) (A) (A) (A)
                 (A) (A) (A) (A) (A) (A) (A) (A) (A) (A) (A) (A)
                 (A) (A) (A) (A) (A) (A) (A) (A) (A) (A) (A) (A)
                 (A) (A) (A) (A) (A) (A) (A) (A) (A) (A) (A) (A)
                 (A) (A) (A) (A) (A) (A) (A) (A) (A) (A) (A) (A)
                 (A) (A) (A) (A) (A) (A) (A) (A) (A) (A) (A) (A)
                 (A)
 Beta  Orbitals:
       Occupied  (A) (A) (A) (A) (A) (A) (A) (A) (A) (A) (A) (A)
       Virtual   (A) (A) (A) (A) (A) (A) (A) (A) (A) (A) (A) (A)
                 (A) (A) (A) (A) (A) (A) (A) (A) (A) (A) (A) (A)
                 (A) (A) (A) (A) (A) (A) (A) (A) (A) (A) (A) (A)
                 (A) (A) (A) (A) (A) (A) (A) (A) (A) (A) (A) (A)
                 (A) (A) (A) (A) (A) (A) (A) (A) (A) (A) (A) (A)
                 (A) (A) (A) (A) (A) (A) (A) (A) (A) (A) (A) (A)
                 (A) (A) (A) (A) (A) (A) (A) (A) (A) (A) (A) (A)
                 (A) (A) (A) (A) (A) (A) (A) (A) (A) (A) (A) (A)
                 (A) (A) (A) (A) (A) (A) (A) (A) (A) (A) (A) (A)
                 (A) (A) (A)
 The electronic state is 3-A.
 Alpha  occ. eigenvalues --  -14.46931 -14.46769 -14.45902  -1.08807  -0.92415
 Alpha  occ. eigenvalues --   -0.85614  -0.63905  -0.58399  -0.56763  -0.46579
 Alpha  occ. eigenvalues --   -0.42175  -0.39009  -0.37832  -0.29947
 Alpha virt. eigenvalues --    0.09292   0.13251   0.15029   0.17656   0.26702
 Alpha virt. eigenvalues --    0.30529   0.35824   0.38816   0.41306   0.41548
 Alpha virt. eigenvalues --    0.42731   0.46105   0.48304   0.49135   0.51441
 Alpha virt. eigenvalues --    0.52313   0.53595   0.56793   0.57410   0.60230
 Alpha virt. eigenvalues --    0.64532   0.70124   0.70992   0.90454   0.93348
 Alpha virt. eigenvalues --    1.04290   1.10021   1.13360   1.18555   1.29833
 Alpha virt. eigenvalues --    1.33964   1.37449   1.40579   1.42348   1.45530
 Alpha virt. eigenvalues --    1.48967   1.56686   1.68820   1.73972   1.80042
 Alpha virt. eigenvalues --    1.87311   1.94874   1.95584   1.98365   2.00315
 Alpha virt. eigenvalues --    2.03496   2.06372   2.08847   2.10278   2.13154
 Alpha virt. eigenvalues --    2.15549   2.18776   2.29297   2.32532   2.34595
 Alpha virt. eigenvalues --    2.37862   2.49416   2.49885   2.53302   2.57462
 Alpha virt. eigenvalues --    2.61769   2.65531   2.72160   3.01352   3.05538
 Alpha virt. eigenvalues --    3.08225   3.13655   3.22378   3.38531   3.60672
 Alpha virt. eigenvalues --    3.81627   3.89132   3.94619   3.98583   4.04091
 Alpha virt. eigenvalues --    4.13645   4.17679   4.22623   4.26886   4.29047
 Alpha virt. eigenvalues --    4.41183   4.43133   4.53564   4.56654   4.60955
 Alpha virt. eigenvalues --    4.64981   4.67570   4.71237   4.74078   4.74820
 Alpha virt. eigenvalues --    4.79208   4.85036   4.88846   4.94722   4.99625
 Alpha virt. eigenvalues --    5.06253   5.23165   5.29246   5.39773   5.42622
 Alpha virt. eigenvalues --    5.52331   5.66998   5.70230   5.85840   5.87855
 Alpha virt. eigenvalues --    6.76900  31.52479  31.78424  31.90280
  Beta  occ. eigenvalues --  -14.46579 -14.46089 -14.43179  -1.07462  -0.86114
  Beta  occ. eigenvalues --   -0.80999  -0.63395  -0.57203  -0.53739  -0.42766
  Beta  occ. eigenvalues --   -0.40033  -0.30176
  Beta virt. eigenvalues --   -0.02718  -0.00783   0.09475   0.13695   0.15706
  Beta virt. eigenvalues --    0.17942   0.27314   0.31196   0.36763   0.39280
  Beta virt. eigenvalues --    0.41956   0.42517   0.44753   0.48510   0.49585
  Beta virt. eigenvalues --    0.50116   0.52746   0.53217   0.55850   0.57812
  Beta virt. eigenvalues --    0.58315   0.60903   0.65671   0.70982   0.71490
  Beta virt. eigenvalues --    0.91737   0.94308   1.08240   1.12240   1.17585
  Beta virt. eigenvalues --    1.19738   1.30751   1.35062   1.39946   1.41372
  Beta virt. eigenvalues --    1.43090   1.46264   1.50992   1.57863   1.70877
  Beta virt. eigenvalues --    1.74138   1.80841   1.88272   1.96024   1.97573
  Beta virt. eigenvalues --    1.98759   2.01107   2.05275   2.07557   2.10415
  Beta virt. eigenvalues --    2.13553   2.14512   2.18944   2.23370   2.32012
  Beta virt. eigenvalues --    2.34170   2.35283   2.38649   2.50179   2.52048
  Beta virt. eigenvalues --    2.53900   2.57966   2.62252   2.66073   2.72898
  Beta virt. eigenvalues --    3.03193   3.07068   3.10232   3.16177   3.23796
  Beta virt. eigenvalues --    3.39388   3.61760   3.84403   3.90522   4.02249
  Beta virt. eigenvalues --    4.02671   4.07700   4.20292   4.21680   4.27398
  Beta virt. eigenvalues --    4.31047   4.34044   4.42365   4.46144   4.57166
  Beta virt. eigenvalues --    4.64595   4.67189   4.68286   4.73533   4.74731
  Beta virt. eigenvalues --    4.78343   4.79628   4.83927   4.87019   4.91333
  Beta virt. eigenvalues --    4.97988   5.02167   5.07436   5.24097   5.32212
  Beta virt. eigenvalues --    5.40997   5.45598   5.54992   5.68250   5.72293
  Beta virt. eigenvalues --    5.86362   5.89506   6.77661  31.56199  31.78638
  Beta virt. eigenvalues --   31.91562
          Condensed to atoms (all electrons):
               1          2          3          4          5          6
     1  N    6.774035   0.349143   0.259284   0.173858  -0.031030  -0.048517
     2  H    0.349143   0.496975  -0.025719  -0.035975  -0.017550   0.006598
     3  H    0.259284  -0.025719   0.310847  -0.019095   0.005060  -0.003722
     4  N    0.173858  -0.035975  -0.019095   6.536158   0.378921   0.380433
     5  H   -0.031030  -0.017550   0.005060   0.378921   0.471929  -0.038501
     6  H   -0.048517   0.006598  -0.003722   0.380433  -0.038501   0.450498
     7  N   -0.092257   0.008400   0.174286  -0.003548  -0.001187   0.001131
     8  H    0.016284  -0.000936  -0.031864  -0.000042   0.000256   0.000113
               7          8
     1  N   -0.092257   0.016284
     2  H    0.008400  -0.000936
     3  H    0.174286  -0.031864
     4  N   -0.003548  -0.000042
     5  H   -0.001187   0.000256
     6  H    0.001131   0.000113
     7  N    7.076832   0.266667
     8  H    0.266667   0.541743
          Atomic-Atomic Spin Densities.
               1          2          3          4          5          6
     1  N    0.556275  -0.003637   0.017891  -0.089595   0.000099  -0.002798
     2  H   -0.003637  -0.008728   0.000840   0.002317  -0.000001  -0.000884
     3  H    0.017891   0.000840  -0.053938   0.003435   0.000016  -0.000503
     4  N   -0.089595   0.002317   0.003435   0.159913  -0.001681   0.000045
     5  H    0.000099  -0.000001   0.000016  -0.001681  -0.000676   0.001875
     6  H   -0.002798  -0.000884  -0.000503   0.000045   0.001875   0.008820
     7  N   -0.087154   0.004822  -0.027902   0.024221  -0.000254  -0.001079
     8  H   -0.000206  -0.000046   0.005691  -0.001073  -0.000034   0.000034
               7          8
     1  N   -0.087154  -0.000206
     2  H    0.004822  -0.000046
     3  H   -0.027902   0.005691
     4  N    0.024221  -0.001073
     5  H   -0.000254  -0.000034
     6  H   -0.001079   0.000034
     7  N    1.685160   0.006612
     8  H    0.006612  -0.048931
 Mulliken charges and spin densities:
               1          2
     1  N   -0.400802   0.390875
     2  H    0.219064  -0.005316
     3  H    0.330923  -0.054471
     4  N   -0.410710   0.097582
     5  H    0.232102  -0.000656
     6  H    0.251967   0.005509
     7  N   -0.430324   1.604427
     8  H    0.207781  -0.037951
 Sum of Mulliken charges =  -0.00000   2.00000
 Mulliken charges and spin densities with hydrogens summed into heavy atoms:
               1          2
     1  N    0.149185   0.331089
     4  N    0.073359   0.102435
     7  N   -0.222544   1.566476
 Electronic spatial extent (au):  <R**2>=            250.6921
 Charge=             -0.0000 electrons
 Dipole moment (field-independent basis, Debye):
    X=             -3.0570    Y=             -0.5740    Z=              2.1819  Tot=              3.7994
 Quadrupole moment (field-independent basis, Debye-Ang):
   XX=            -20.4960   YY=            -20.6368   ZZ=            -17.5469
   XY=              0.0399   XZ=              1.4299   YZ=              1.4992
 Traceless Quadrupole moment (field-independent basis, Debye-Ang):
   XX=             -0.9361   YY=             -1.0769   ZZ=              2.0130
   XY=              0.0399   XZ=              1.4299   YZ=              1.4992
 Octapole moment (field-independent basis, Debye-Ang**2):
  XXX=            -26.3580  YYY=              0.3473  ZZZ=              2.6093  XYY=              0.7129
  XXY=             -5.4308  XXZ=              5.1564  XZZ=             -4.8694  YZZ=             -1.0416
  YYZ=              3.2152  XYZ=             -2.2825
 Hexadecapole moment (field-independent basis, Debye-Ang**3):
 XXXX=           -259.3097 YYYY=            -56.1599 ZZZZ=            -25.0392 XXXY=              4.1675
 XXXZ=             10.1830 YYYX=             -0.9856 YYYZ=              3.3855 ZZZX=              1.6314
 ZZZY=              2.1688 XXYY=            -47.0605 XXZZ=            -38.0991 YYZZ=            -12.2741
 XXYZ=             -0.6538 YYXZ=              0.3845 ZZXY=              1.1105
 N-N= 7.301060358272D+01 E-N=-5.371142842993D+02  KE= 1.663967796216D+02
                          Isotropic Fermi Contact Couplings
        Atom                 a.u.       MegaHertz       Gauss      10(-4) cm-1
     1  N(14)              0.01592       2.57183       0.91769       0.85787
     2  H(1)              -0.00534     -11.94198      -4.26120      -3.98342
     3  H(1)              -0.02950     -65.93869     -23.52856     -21.99478
     4  N(14)              0.04993       8.06550       2.87797       2.69036
     5  H(1)               0.00057       1.28030       0.45684       0.42706
     6  H(1)               0.00491      10.97178       3.91501       3.65979
     7  N(14)              0.08556      13.82189       4.93199       4.61049
     8  H(1)              -0.02065     -46.16231     -16.47186     -15.39809
 --------------------------------------------------------
       Center         ----  Spin Dipole Couplings  ----
                      3XX-RR        3YY-RR        3ZZ-RR
 --------------------------------------------------------
     1   Atom        0.552800     -0.068654     -0.484147
     2   Atom       -0.014921     -0.015111      0.030032
     3   Atom        0.221046     -0.088322     -0.132725
     4   Atom        0.090339      0.044200     -0.134540
     5   Atom        0.008680     -0.011621      0.002941
     6   Atom        0.006717     -0.010476      0.003758
     7   Atom        0.332334     -0.136501     -0.195833
     8   Atom       -0.101459      0.046233      0.055226
 --------------------------------------------------------
                        XY            XZ            YZ
 --------------------------------------------------------
     1   Atom       -0.772331      0.324292     -0.203350
     2   Atom       -0.026368      0.002013      0.044041
     3   Atom       -0.128394     -0.003083      0.007445
     4   Atom       -0.193312      0.022418     -0.024812
     5   Atom        0.003371     -0.015099     -0.007002
     6   Atom        0.006058      0.013475      0.009639
     7   Atom       -0.051596      0.502257      1.579906
     8   Atom        0.037958     -0.024878     -0.132562
 --------------------------------------------------------


 ---------------------------------------------------------------------------------
              Anisotropic Spin Dipole Couplings in Principal Axis System
 ---------------------------------------------------------------------------------

       Atom             a.u.   MegaHertz   Gauss  10(-4) cm-1        Axes

              Baa    -0.5971   -23.029    -8.217    -7.682  0.5815  0.6752 -0.4539
     1 N(14)  Bbb    -0.5663   -21.841    -7.793    -7.285  0.0942  0.4983  0.8618
              Bcc     1.1634    44.870    16.011    14.967  0.8081 -0.5439  0.2262
 
              Baa    -0.0560   -29.864   -10.656    -9.961  0.5088  0.7614 -0.4018
     2 H(1)   Bbb    -0.0031    -1.649    -0.588    -0.550  0.8434 -0.3471  0.4102
              Bcc     0.0591    31.513    11.245    10.512 -0.1729  0.5476  0.8187
 
              Baa    -0.1398   -74.569   -26.608   -24.874  0.2498  0.7177 -0.6500
     3 H(1)   Bbb    -0.1277   -68.137   -24.313   -22.728  0.2305  0.6079  0.7598
              Bcc     0.2675   142.706    50.921    47.602  0.9404 -0.3397 -0.0136
 
              Baa    -0.1385    -5.342    -1.906    -1.782  0.1491  0.2863  0.9465
     4 N(14)  Bbb    -0.1262    -4.868    -1.737    -1.624  0.6505  0.6925 -0.3120
              Bcc     0.2647    10.210     3.643     3.406  0.7447 -0.6622  0.0830
 
              Baa    -0.0150    -7.978    -2.847    -2.661  0.1969  0.8452  0.4969
     5 H(1)   Bbb    -0.0077    -4.107    -1.465    -1.370  0.6421 -0.4942  0.5861
              Bcc     0.0226    12.085     4.312     4.031  0.7409  0.2036 -0.6400
 
              Baa    -0.0154    -8.203    -2.927    -2.736  0.0508  0.8771 -0.4777
     6 H(1)   Bbb    -0.0071    -3.784    -1.350    -1.262  0.7277 -0.3601 -0.5838
              Bcc     0.0225    11.987     4.277     3.998  0.6840  0.3179  0.6565
 
              Baa    -1.8198   -70.184   -25.043   -23.411 -0.1828 -0.6758  0.7140
     7 N(14)  Bbb     0.3173    12.239     4.367     4.082  0.9453 -0.3204 -0.0612
              Bcc     1.5024    57.945    20.676    19.328  0.2701  0.6638  0.6974
 
              Baa    -0.1115   -59.484   -21.226   -19.842  0.9379 -0.3259 -0.1192
     8 H(1)   Bbb    -0.0786   -41.943   -14.966   -13.991  0.3127  0.6451  0.6971
              Bcc     0.1901   101.427    36.192    33.833 -0.1503 -0.6911  0.7070
 

 ---------------------------------------------------------------------------------

 No NMR shielding tensors so no spin-rotation constants.
 Leave Link  601 at Wed Feb 19 14:55:56 2020, MaxMem=  1879048192 cpu:               2.3 elap:               0.3
 (Enter /opt/g16/l9999.exe)

 Test job not archived.
 1\1\GINC-NODE08\FTS\UwB97XD\def2TZVP\H5N3(3)\ALONGD\19-Feb-2020\0\\#P 
 opt=(ts, calcfc, noeigentest, maxstep=5, maxcycles=100) guess=mix uwb9
 7xd/def2tzvp scf=xqc iop(2/9=2000)\\name\\0,3\N,-0.4473449673,0.680330
 213,-0.0919189534\H,-0.4525733325,1.1446321798,0.8125153151\H,0.675325
 2721,0.3818521289,-0.2304440213\N,-1.2277772832,-0.4712151965,-0.00283
 99941\H,-1.8151642801,-0.5031041738,0.8164059099\H,-1.7811951369,-0.57
 24963346,-0.8407100005\N,1.9108328105,-0.1454361012,-0.0663600327\H,1.
 7370108273,-0.8541974955,0.664606097\\Version=ES64L-G16RevB.01\State=3
 -A\HF=-167.0895132\S2=2.015298\S2-1=0.\S2A=2.000097\RMSD=3.705e-09\RMS
 F=6.289e-07\Dipole=-1.2031475,-0.2279881,0.8572335\Quadrupole=-0.69954
 57,-0.7932233,1.4927691,0.0317054,1.0549421,1.1263196\PG=C01 [X(H5N3)]
 \\@


 FROM AN ANONYMOUS WRITER, ON PERSPECTIVE:

 MAN, DESPITE HIS ARTISTIC PRETENSIONS, HIS SOPHISTICATION AND MANY 
 ACCOMPLISHMENTS, OWES THE FACT OF HIS EXISTENCE TO A SIX-INCH LAYER OF 
 TOPSOIL AND THE FACT THAT IT RAINS.
 Job cpu time:       0 days  0 hours 26 minutes 52.6 seconds.
 Elapsed time:       0 days  0 hours  3 minutes 26.9 seconds.
 File lengths (MBytes):  RWF=     24 Int=      0 D2E=      0 Chk=      3 Scr=      1
 Normal termination of Gaussian 16 at Wed Feb 19 14:55:56 2020.
