 Entering Gaussian System, Link 0=g16
 Initial command:
 /opt/g16/l1.exe "/scratch/alongd/g16/a4389-34563/Gau-11304.inp" -scrdir="/scratch/alongd/g16/a4389-34563/"
 Entering Link 1 = /opt/g16/l1.exe PID=     11306.
  
 Copyright (c) 1988-2017, Gaussian, Inc.  All Rights Reserved.
  
 This is part of the Gaussian(R) 16 program.  It is based on
 the Gaussian(R) 09 system (copyright 2009, Gaussian, Inc.),
 the Gaussian(R) 03 system (copyright 2003, Gaussian, Inc.),
 the Gaussian(R) 98 system (copyright 1998, Gaussian, Inc.),
 the Gaussian(R) 94 system (copyright 1995, Gaussian, Inc.),
 the Gaussian 92(TM) system (copyright 1992, Gaussian, Inc.),
 the Gaussian 90(TM) system (copyright 1990, Gaussian, Inc.),
 the Gaussian 88(TM) system (copyright 1988, Gaussian, Inc.),
 the Gaussian 86(TM) system (copyright 1986, Carnegie Mellon
 University), and the Gaussian 82(TM) system (copyright 1983,
 Carnegie Mellon University). Gaussian is a federally registered
 trademark of Gaussian, Inc.
  
 This software contains proprietary and confidential information,
 including trade secrets, belonging to Gaussian, Inc.
  
 This software is provided under written license and may be
 used, copied, transmitted, or stored only in accord with that
 written license.
  
 The following legend is applicable only to US Government
 contracts under FAR:
  
                    RESTRICTED RIGHTS LEGEND
  
 Use, reproduction and disclosure by the US Government is
 subject to restrictions as set forth in subparagraphs (a)
 and (c) of the Commercial Computer Software - Restricted
 Rights clause in FAR 52.227-19.
  
 Gaussian, Inc.
 340 Quinnipiac St., Bldg. 40, Wallingford CT 06492
  
  
 ---------------------------------------------------------------
 Warning -- This program may not be used in any manner that
 competes with the business of Gaussian, Inc. or will provide
 assistance to any competitor of Gaussian, Inc.  The licensee
 of this program is prohibited from giving any competitor of
 Gaussian, Inc. access to this program.  By using this program,
 the user acknowledges that Gaussian, Inc. is engaged in the
 business of creating and licensing software in the field of
 computational chemistry and represents and warrants to the
 licensee that it is not a competitor of Gaussian, Inc. and that
 it will not use this program in any manner prohibited above.
 ---------------------------------------------------------------
  

 Cite this work as:
 Gaussian 16, Revision B.01,
 M. J. Frisch, G. W. Trucks, H. B. Schlegel, G. E. Scuseria, 
 M. A. Robb, J. R. Cheeseman, G. Scalmani, V. Barone, 
 G. A. Petersson, H. Nakatsuji, X. Li, M. Caricato, A. V. Marenich, 
 J. Bloino, B. G. Janesko, R. Gomperts, B. Mennucci, H. P. Hratchian, 
 J. V. Ortiz, A. F. Izmaylov, J. L. Sonnenberg, D. Williams-Young, 
 F. Ding, F. Lipparini, F. Egidi, J. Goings, B. Peng, A. Petrone, 
 T. Henderson, D. Ranasinghe, V. G. Zakrzewski, J. Gao, N. Rega, 
 G. Zheng, W. Liang, M. Hada, M. Ehara, K. Toyota, R. Fukuda, 
 J. Hasegawa, M. Ishida, T. Nakajima, Y. Honda, O. Kitao, H. Nakai, 
 T. Vreven, K. Throssell, J. A. Montgomery, Jr., J. E. Peralta, 
 F. Ogliaro, M. J. Bearpark, J. J. Heyd, E. N. Brothers, K. N. Kudin, 
 V. N. Staroverov, T. A. Keith, R. Kobayashi, J. Normand, 
 K. Raghavachari, A. P. Rendell, J. C. Burant, S. S. Iyengar, 
 J. Tomasi, M. Cossi, J. M. Millam, M. Klene, C. Adamo, R. Cammi, 
 J. W. Ochterski, R. L. Martin, K. Morokuma, O. Farkas, 
 J. B. Foresman, and D. J. Fox, Gaussian, Inc., Wallingford CT, 2016.
 
 ******************************************
 Gaussian 16:  ES64L-G16RevB.01 20-Dec-2017
                 2-Mar-2020 
 ******************************************
 %chk=check.chk
 %mem=14336mb
 %NProcShared=36
 Will use up to   36 processors via shared memory.
 ----------------------------------------------------------------------
 #P guess=read uwb97xd/def2tzvp freq iop(7/33=1) scf=(tight, direct) in
 tegral=(grid=ultrafine, Acc2E=12) scf=xqc iop(2/9=2000)
 ----------------------------------------------------------------------
 1/10=4,30=1,38=1/1,3;
 2/9=2000,12=2,17=6,18=5,40=1/2;
 3/5=44,7=101,11=2,25=1,27=12,30=1,71=2,74=-58,75=-5,116=2,140=1/1,2,3;
 4/5=1/1;
 5/5=2,8=3,13=1,32=2,38=6,87=12,98=1/2,8;
 8/6=4,10=90,11=11,87=12/1;
 11/6=1,8=1,9=11,15=111,16=1,87=12/1,2,10;
 10/6=1,87=12/2;
 6/7=2,8=2,9=2,10=2,28=1,87=12/1;
 7/8=1,10=1,25=1,33=1,87=12/1,2,3,16;
 1/10=4,30=1/3;
 99//99;
 Leave Link    1 at Mon Mar  2 00:48:00 2020, MaxMem=  1879048192 cpu:               3.6 elap:               0.1
 (Enter /opt/g16/l101.exe)
 ----
 name
 ----
 Symbolic Z-matrix:
 Charge =  0 Multiplicity = 3
 N                     2.2478    0.72538  -0.05193 
 C                     1.02001   0.22583  -0.02633 
 C                    -0.07958   1.13442   0.03286 
 C                    -1.38026   0.6918    0.0623 
 C                     0.71654  -1.18133  -0.05433 
 C                    -1.6663   -0.68105   0.03467 
 C                    -0.58714  -1.53568  -0.02244 
 H                     0.15531   2.19018   0.05364 
 H                    -2.19504   1.40394   0.1072 
 H                     1.5244   -1.90288  -0.09927 
 H                    -2.68695  -1.04005   0.05746 
 H                     2.93121  -0.03055  -0.09384 
 
 ITRead=  0  0  0  0  0  0  0  0  0  0  0  0
 MicOpt= -1 -1 -1 -1 -1 -1 -1 -1 -1 -1 -1 -1
 NAtoms=     12 NQM=       12 NQMF=       0 NMMI=      0 NMMIF=      0
                NMic=       0 NMicF=      0.
                    Isotopes and Nuclear Properties:
 (Nuclear quadrupole moments (NQMom) in fm**2, nuclear magnetic moments (NMagM)
  in nuclear magnetons)

  Atom         1           2           3           4           5           6           7           8           9          10
 IAtWgt=          14          12          12          12          12          12          12           1           1           1
 AtmWgt=  14.0030740  12.0000000  12.0000000  12.0000000  12.0000000  12.0000000  12.0000000   1.0078250   1.0078250   1.0078250
 NucSpn=           2           0           0           0           0           0           0           1           1           1
 AtZEff=  -0.0000000  -0.0000000  -0.0000000  -0.0000000  -0.0000000  -0.0000000  -0.0000000  -0.0000000  -0.0000000  -0.0000000
 NQMom=    2.0440000   0.0000000   0.0000000   0.0000000   0.0000000   0.0000000   0.0000000   0.0000000   0.0000000   0.0000000
 NMagM=    0.4037610   0.0000000   0.0000000   0.0000000   0.0000000   0.0000000   0.0000000   2.7928460   2.7928460   2.7928460
 AtZNuc=   7.0000000   6.0000000   6.0000000   6.0000000   6.0000000   6.0000000   6.0000000   1.0000000   1.0000000   1.0000000

  Atom        11          12
 IAtWgt=           1           1
 AtmWgt=   1.0078250   1.0078250
 NucSpn=           1           1
 AtZEff=  -0.0000000  -0.0000000
 NQMom=    0.0000000   0.0000000
 NMagM=    2.7928460   2.7928460
 AtZNuc=   1.0000000   1.0000000
 Leave Link  101 at Mon Mar  2 00:48:00 2020, MaxMem=  1879048192 cpu:               8.5 elap:               0.3
 (Enter /opt/g16/l103.exe)

 GradGradGradGradGradGradGradGradGradGradGradGradGradGradGradGradGradGrad
 Berny optimization.
 Initialization pass.
 Trust Radius=3.00D-01 FncErr=1.00D-07 GrdErr=1.00D-07 EigMax=2.50D+02 EigMin=1.00D-04
 Number of steps in this run=      2 maximum allowed number of steps=      2.
 GradGradGradGradGradGradGradGradGradGradGradGradGradGradGradGradGradGrad

 Leave Link  103 at Mon Mar  2 00:48:00 2020, MaxMem=  1879048192 cpu:               2.0 elap:               0.1
 (Enter /opt/g16/l202.exe)
                          Input orientation:                          
 ---------------------------------------------------------------------
 Center     Atomic      Atomic             Coordinates (Angstroms)
 Number     Number       Type             X           Y           Z
 ---------------------------------------------------------------------
      1          7           0        2.247798    0.725375   -0.051934
      2          6           0        1.020006    0.225828   -0.026330
      3          6           0       -0.079575    1.134416    0.032863
      4          6           0       -1.380256    0.691795    0.062302
      5          6           0        0.716540   -1.181329   -0.054331
      6          6           0       -1.666301   -0.681047    0.034666
      7          6           0       -0.587141   -1.535682   -0.022436
      8          1           0        0.155307    2.190178    0.053643
      9          1           0       -2.195040    1.403939    0.107204
     10          1           0        1.524401   -1.902880   -0.099265
     11          1           0       -2.686946   -1.040045    0.057455
     12          1           0        2.931211   -0.030550   -0.093837
 ---------------------------------------------------------------------
                    Distance matrix (angstroms):
                    1          2          3          4          5
     1  N    0.000000
     2  C    1.325774   0.000000
     3  C    2.364566   1.427625   0.000000
     4  C    3.630007   2.446679   1.374246   0.000000
     5  C    2.445460   1.439780   2.450322   2.814027   0.000000
     6  C    4.160011   2.835910   2.411143   1.402598   2.436418
     7  C    3.626311   2.384503   2.718475   2.365981   1.351358
     8  H    2.556426   2.147736   1.081774   2.145502   3.419605
     9  H    4.497175   3.426704   2.133861   1.083069   3.897050
    10  H    2.726402   2.188865   3.437348   3.898137   1.084110
    11  H    5.242172   3.918029   3.395183   2.169500   3.408251
    12  H    1.019918   1.929505   3.230794   4.374347   2.496121
                    6          7          8          9         10
     6  C    0.000000
     7  C    1.377769   0.000000
     8  H    3.400375   3.799875   0.000000
     9  H    2.152207   3.353135   2.478946   0.000000
    10  H    3.419268   2.144609   4.318671   4.981157   0.000000
    11  H    1.082181   2.158986   4.302645   2.493492   4.301684
    12  H    4.645081   3.827443   3.557953   5.326972   2.341957
                   11         12
    11  H    0.000000
    12  H    5.710136   0.000000
 Stoichiometry    C6H5N(3)
 Framework group  CS[SG(C6H5N)]
 Deg. of freedom    21
 Full point group                 CS      NOp   2
 Largest Abelian subgroup         CS      NOp   2
 Largest concise Abelian subgroup C1      NOp   1
                         Standard orientation:                         
 ---------------------------------------------------------------------
 Center     Atomic      Atomic             Coordinates (Angstroms)
 Number     Number       Type             X           Y           Z
 ---------------------------------------------------------------------
      1          7           0        0.136175    2.303267    0.000000
      2          6           0       -0.000000    0.984505    0.000000
      3          6           0        1.180643    0.181886    0.000000
      4          6           0        1.119558   -1.191001   -0.000000
      5          6           0       -1.266817    0.300296    0.000000
      6          6           0       -0.119171   -1.848900   -0.000000
      7          6           0       -1.242268   -1.050839   -0.000000
      8          1           0        2.129095    0.702148    0.000000
      9          1           0        2.031762   -1.774886   -0.000000
     10          1           0       -2.186120    0.874905    0.000000
     11          1           0       -0.178318   -2.929463   -0.000000
     12          1           0       -0.781311    2.748746    0.000000
 ---------------------------------------------------------------------
 Rotational constants (GHZ):           6.0059664           2.8169517           1.9175648
 Leave Link  202 at Mon Mar  2 00:48:00 2020, MaxMem=  1879048192 cpu:               3.8 elap:               0.1
 (Enter /opt/g16/l301.exe)
 Standard basis: def2TZVP (5D, 7F)
 Ernie: Thresh=  0.10000D-02 Tol=  0.10000D-05 Strict=F.
 There are   200 symmetry adapted cartesian basis functions of A'  symmetry.
 There are    82 symmetry adapted cartesian basis functions of A"  symmetry.
 There are   172 symmetry adapted basis functions of A'  symmetry.
 There are    75 symmetry adapted basis functions of A"  symmetry.
   247 basis functions,   397 primitive gaussians,   282 cartesian basis functions
    25 alpha electrons       23 beta electrons
       nuclear repulsion energy       252.4295496897 Hartrees.
 IExCor= 4639 DFT=T Ex+Corr=wB97XD ExCW=0 ScaHFX=  1.000000
 ScaDFX=  1.000000  1.000000  1.000000  1.000000 ScalE2=  1.000000  1.000000
 IRadAn=      5 IRanWt=     -1 IRanGd=            0 ICorTp=0 IEmpDi=121
 HFx  wShort=  0.000000 wLong=  0.200000 cFull=  0.222036 cShort=  0.000000 cLong=  0.777964
 DFx  wShort=  0.000000 wLong=  0.200000 cFull=  0.000000 cShort=  0.000000 cLong=  1.000000
 NAtoms=   12 NActive=   12 NUniq=   12 SFac= 1.00D+00 NAtFMM=   60 NAOKFM=F Big=F
 Integral buffers will be    131072 words long.
 Raffenetti 2 integral format.
 Two-electron integral symmetry is turned on.
 R6Disp:  Grimme-D2 Dispersion energy=       -0.0042567980 Hartrees.
 Nuclear repulsion after empirical dispersion term =      252.4252928917 Hartrees.
 Leave Link  301 at Mon Mar  2 00:48:00 2020, MaxMem=  1879048192 cpu:               2.9 elap:               0.1
 (Enter /opt/g16/l302.exe)
 NPDir=0 NMtPBC=     1 NCelOv=     1 NCel=       1 NClECP=     1 NCelD=      1
         NCelK=      1 NCelE2=     1 NClLst=     1 CellRange=     0.0.
 One-electron integrals computed using PRISM.
 One-electron integral symmetry used in STVInt
   2 Symmetry operations used in ECPInt.
 ECPInt:  NShTT=    4753 NPrTT=   14704 LenC2=    4700 LenP2D=   12021.
 LDataN:  DoStor=T MaxTD1= 6 Len=  172
 NBasis=   247 RedAO= T EigKep=  1.73D-05  NBF=   172    75
 NBsUse=   247 1.00D-06 EigRej= -1.00D+00 NBFU=   172    75
 Precomputing XC quadrature grid using
 IXCGrd= 4 IRadAn=           5 IRanWt=          -1 IRanGd=           0 AccXCQ= 1.00D-12.
 Generated NRdTot=       0 NPtTot=           0 NUsed=           0 NTot=          32
 NSgBfM=   281   281   281   281   281 MxSgAt=    12 MxSgA2=    12.
 Leave Link  302 at Mon Mar  2 00:48:01 2020, MaxMem=  1879048192 cpu:              13.8 elap:               0.4
 (Enter /opt/g16/l303.exe)
 DipDrv:  MaxL=1.
 Leave Link  303 at Mon Mar  2 00:48:01 2020, MaxMem=  1879048192 cpu:               9.4 elap:               0.3
 (Enter /opt/g16/l401.exe)
 Initial guess from the checkpoint file:  "check.chk"
 B after Tr=     0.000000    0.000000    0.000000
         Rot=   -0.683955    0.000000   -0.000000    0.729524 Ang= 266.31 deg.
 Guess basis will be translated and rotated to current coordinates.
 JPrj=2 DoOrth=T DoCkMO=T.
 Initial guess orbital symmetries:
 Alpha Orbitals:
       Occupied  (A') (A') (A') (A') (A') (A') (A') (A') (A') (A')
                 (A') (A') (A') (A') (A') (A') (A') (A") (A') (A')
                 (A") (A') (A") (A') (A")
       Virtual   (A") (A") (A') (A') (A') (A') (A') (A') (A") (A')
                 (A') (A") (A') (A') (A') (A") (A") (A') (A') (A')
                 (A') (A") (A") (A') (A') (A') (A') (A') (A") (A')
                 (A") (A') (A') (A') (A') (A') (A') (A') (A") (A')
                 (A') (A') (A") (A') (A') (A') (A') (A') (A") (A')
                 (A") (A') (A") (A') (A") (A') (A') (A') (A') (A")
                 (A') (A") (A") (A') (A') (A') (A") (A') (A') (A")
                 (A') (A') (A") (A') (A') (A') (A") (A') (A') (A')
                 (A') (A") (A") (A') (A") (A') (A') (A") (A') (A")
                 (A") (A') (A') (A') (A") (A') (A") (A') (A') (A")
                 (A") (A") (A') (A') (A') (A') (A') (A') (A') (A")
                 (A') (A') (A") (A') (A") (A') (A') (A') (A') (A')
                 (A") (A") (A') (A') (A') (A") (A') (A") (A') (A")
                 (A') (A') (A') (A") (A') (A") (A') (A") (A") (A')
                 (A') (A") (A') (A") (A') (A") (A') (A") (A') (A')
                 (A') (A") (A') (A') (A") (A") (A') (A") (A') (A")
                 (A') (A') (A') (A') (A") (A') (A") (A') (A') (A")
                 (A') (A') (A") (A') (A') (A') (A") (A') (A") (A')
                 (A') (A") (A') (A') (A") (A') (A") (A') (A") (A')
                 (A") (A') (A') (A") (A') (A') (A") (A') (A") (A')
                 (A') (A") (A') (A') (A') (A') (A') (A") (A') (A')
                 (A') (A') (A') (A') (A') (A') (A') (A') (A') (A')
                 (A') (A')
 Beta  Orbitals:
       Occupied  (A') (A') (A') (A') (A') (A') (A') (A') (A') (A')
                 (A') (A') (A') (A') (A') (A') (A') (A") (A') (A')
                 (A") (A') (A")
       Virtual   (A") (A') (A") (A") (A') (A') (A') (A') (A') (A')
                 (A") (A') (A') (A") (A') (A') (A') (A") (A") (A')
                 (A') (A') (A') (A") (A") (A') (A') (A') (A') (A")
                 (A') (A') (A') (A") (A') (A') (A') (A') (A') (A')
                 (A") (A') (A') (A') (A") (A') (A') (A') (A') (A')
                 (A') (A") (A") (A') (A") (A') (A") (A') (A') (A')
                 (A') (A") (A') (A") (A') (A") (A') (A') (A") (A')
                 (A') (A") (A') (A') (A") (A') (A') (A') (A") (A')
                 (A') (A') (A') (A") (A") (A') (A") (A') (A') (A")
                 (A') (A") (A') (A") (A') (A') (A") (A') (A") (A')
                 (A') (A") (A") (A") (A') (A') (A') (A') (A') (A')
                 (A') (A") (A') (A') (A") (A') (A") (A') (A') (A')
                 (A') (A') (A") (A") (A') (A') (A') (A") (A') (A")
                 (A") (A') (A') (A') (A') (A") (A') (A") (A') (A")
                 (A") (A') (A') (A") (A') (A") (A') (A") (A') (A")
                 (A') (A') (A') (A") (A') (A') (A") (A") (A') (A")
                 (A') (A') (A") (A') (A') (A") (A') (A') (A') (A")
                 (A') (A") (A') (A') (A") (A') (A') (A') (A") (A')
                 (A") (A') (A') (A") (A') (A') (A") (A') (A") (A')
                 (A") (A') (A") (A') (A') (A") (A') (A') (A") (A')
                 (A") (A') (A') (A") (A') (A') (A') (A') (A') (A")
                 (A') (A') (A') (A') (A') (A') (A') (A') (A') (A')
                 (A') (A') (A') (A')
 The electronic state of the initial guess is 3-A".
 Initial guess <Sx>= 0.0000 <Sy>= 0.0000 <Sz>= 1.0000 <S**2>= 2.0414 S= 1.0137
 Leave Link  401 at Mon Mar  2 00:48:08 2020, MaxMem=  1879048192 cpu:             220.4 elap:               7.2
 (Enter /opt/g16/l502.exe)
 Keep R1 and R2 ints in memory in symmetry-blocked form, NReq=1418894295.
 FoFCou: FMM=F IPFlag=           0 FMFlag=           0 FMFlg1=           0
         NFxFlg=           0 DoJE=F BraDBF=F KetDBF=F FulRan=T
         wScrn=  0.000000 ICntrl=       600 IOpCl=  0 I1Cent=           0 NGrid=           0
         NMat0=    1 NMatS0=  30628 NMatT0=    0 NMatD0=    1 NMtDS0=    0 NMtDT0=    0
 Petite list used in FoFCou.
 UHF open shell SCF:
 Using DIIS extrapolation, IDIIS=  1040.
 NGot=  1879048192 LenX=  1398088733 LenY=  1398008768
 Requested convergence on RMS density matrix=1.00D-08 within  32 cycles.
 Requested convergence on MAX density matrix=1.00D-06.
 Requested convergence on             energy=1.00D-06.
 No special actions if energy rises.

 Cycle   1  Pass 1  IDiag  1:
 E= -286.262050800598    
 DIIS: error= 7.62D-06 at cycle   1 NSaved=   1.
 NSaved= 1 IEnMin= 1 EnMin= -286.262050800598     IErMin= 1 ErrMin= 7.62D-06
 ErrMax= 7.62D-06  0.00D+00 EMaxC= 1.00D-01 BMatC= 3.08D-08 BMatP= 3.08D-08
 IDIUse=1 WtCom= 1.00D+00 WtEn= 0.00D+00
 Coeff-Com:  0.100D+01
 Coeff:      0.100D+01
 Gap=     0.339 Goal=   None    Shift=    0.000
 Gap=     0.287 Goal=   None    Shift=    0.000
 RMSDP=1.23D-06 MaxDP=3.04D-05              OVMax= 1.93D-05

 Cycle   2  Pass 1  IDiag  1:
 E= -286.262050807247     Delta-E=       -0.000000006649 Rises=F Damp=F
 DIIS: error= 1.02D-06 at cycle   2 NSaved=   2.
 NSaved= 2 IEnMin= 2 EnMin= -286.262050807247     IErMin= 2 ErrMin= 1.02D-06
 ErrMax= 1.02D-06  0.00D+00 EMaxC= 1.00D-01 BMatC= 7.22D-10 BMatP= 3.08D-08
 IDIUse=1 WtCom= 1.00D+00 WtEn= 0.00D+00
 Coeff-Com: -0.133D+00 0.113D+01
 Coeff:     -0.133D+00 0.113D+01
 Gap=     0.339 Goal=   None    Shift=    0.000
 Gap=     0.287 Goal=   None    Shift=    0.000
 RMSDP=1.46D-07 MaxDP=3.76D-06 DE=-6.65D-09 OVMax= 4.77D-06

 Cycle   3  Pass 1  IDiag  1:
 E= -286.262050807492     Delta-E=       -0.000000000245 Rises=F Damp=F
 DIIS: error= 3.07D-07 at cycle   3 NSaved=   3.
 NSaved= 3 IEnMin= 3 EnMin= -286.262050807492     IErMin= 3 ErrMin= 3.07D-07
 ErrMax= 3.07D-07  0.00D+00 EMaxC= 1.00D-01 BMatC= 6.59D-11 BMatP= 7.22D-10
 IDIUse=1 WtCom= 1.00D+00 WtEn= 0.00D+00
 Coeff-Com: -0.330D-01 0.205D+00 0.828D+00
 Coeff:     -0.330D-01 0.205D+00 0.828D+00
 Gap=     0.339 Goal=   None    Shift=    0.000
 Gap=     0.287 Goal=   None    Shift=    0.000
 RMSDP=2.57D-08 MaxDP=9.41D-07 DE=-2.45D-10 OVMax= 1.78D-06

 Cycle   4  Pass 1  IDiag  1:
 E= -286.262050807508     Delta-E=       -0.000000000016 Rises=F Damp=F
 DIIS: error= 2.00D-07 at cycle   4 NSaved=   4.
 NSaved= 4 IEnMin= 4 EnMin= -286.262050807508     IErMin= 4 ErrMin= 2.00D-07
 ErrMax= 2.00D-07  0.00D+00 EMaxC= 1.00D-01 BMatC= 2.73D-11 BMatP= 6.59D-11
 IDIUse=1 WtCom= 1.00D+00 WtEn= 0.00D+00
 Coeff-Com:  0.792D-02-0.102D+00 0.385D+00 0.709D+00
 Coeff:      0.792D-02-0.102D+00 0.385D+00 0.709D+00
 Gap=     0.339 Goal=   None    Shift=    0.000
 Gap=     0.287 Goal=   None    Shift=    0.000
 RMSDP=1.35D-08 MaxDP=8.74D-07 DE=-1.60D-11 OVMax= 1.26D-06

 Cycle   5  Pass 1  IDiag  1:
 E= -286.262050807517     Delta-E=       -0.000000000009 Rises=F Damp=F
 DIIS: error= 5.03D-08 at cycle   5 NSaved=   5.
 NSaved= 5 IEnMin= 5 EnMin= -286.262050807517     IErMin= 5 ErrMin= 5.03D-08
 ErrMax= 5.03D-08  0.00D+00 EMaxC= 1.00D-01 BMatC= 1.23D-12 BMatP= 2.73D-11
 IDIUse=1 WtCom= 1.00D+00 WtEn= 0.00D+00
 Coeff-Com:  0.437D-02-0.413D-01 0.204D-01 0.170D+00 0.846D+00
 Coeff:      0.437D-02-0.413D-01 0.204D-01 0.170D+00 0.846D+00
 Gap=     0.339 Goal=   None    Shift=    0.000
 Gap=     0.287 Goal=   None    Shift=    0.000
 RMSDP=4.98D-09 MaxDP=2.34D-07 DE=-9.21D-12 OVMax= 2.55D-07

 SCF Done:  E(UwB97XD) =  -286.262050808     A.U. after    5 cycles
            NFock=  5  Conv=0.50D-08     -V/T= 2.0046
 <Sx>= 0.0000 <Sy>= 0.0000 <Sz>= 1.0000 <S**2>= 2.0414 S= 1.0137
 <L.S>= 0.000000000000E+00
 KE= 2.849391335633D+02 PE=-1.169848989777D+03 EE= 3.462225125145D+02
 Annihilation of the first spin contaminant:
 S**2 before annihilation     2.0414,   after     2.0006
 Leave Link  502 at Mon Mar  2 00:49:34 2020, MaxMem=  1879048192 cpu:            2552.7 elap:              86.0
 (Enter /opt/g16/l508.exe)
 QCSCF skips out because SCF is already converged.
 Leave Link  508 at Mon Mar  2 00:49:35 2020, MaxMem=  1879048192 cpu:               2.3 elap:               0.1
 (Enter /opt/g16/l801.exe)
 DoSCS=F DFT=T ScalE2(SS,OS)=  1.000000  1.000000
 Range of M.O.s used for correlation:     1   247
 NBasis=   247 NAE=    25 NBE=    23 NFC=     0 NFV=     0
 NROrb=    247 NOA=    25 NOB=    23 NVA=   222 NVB=   224

 **** Warning!!: The largest alpha MO coefficient is  0.60242127D+02


 **** Warning!!: The largest beta MO coefficient is  0.58598453D+02

 Leave Link  801 at Mon Mar  2 00:49:35 2020, MaxMem=  1879048192 cpu:               3.9 elap:               0.1
 (Enter /opt/g16/l1101.exe)
 Using compressed storage, NAtomX=    12.
 Will process     13 centers per pass.
   2 Symmetry operations used in ECPInt.
 ECPInt:  NShTT=    4753 NPrTT=   14704 LenC2=    4700 LenP2D=   12021.
 LDataN:  DoStor=T MaxTD1= 7 Len=  274
 Number of processors reduced to  33 by ecpmxn.
 R6Disp: Adding Grimme-D2 dispersion energy 1st derivatives to the gradient.
 Leave Link 1101 at Mon Mar  2 00:49:36 2020, MaxMem=  1879048192 cpu:              25.5 elap:               0.8
 (Enter /opt/g16/l1102.exe)
 Symmetrizing basis deriv contribution to polar:
 IMax=3 JMax=2 DiffMx= 0.00D+00
 Leave Link 1102 at Mon Mar  2 00:49:36 2020, MaxMem=  1879048192 cpu:               4.8 elap:               0.2
 (Enter /opt/g16/l1110.exe)
 Forming Gx(P) for the SCF density, NAtomX=    12.
 Integral derivatives from FoFJK, PRISM(SPDF).
 Do as many integral derivatives as possible in FoFJK.
 G2DrvN: MDV=    1879047120.
 G2DrvN: will do    13 centers at a time, making    1 passes.
 Calling FoFCou, ICntrl=  3107 FMM=F I1Cent=   0 AccDes= 1.00D-12.
 FoFJK:  IHMeth= 1 ICntrl=    3107 DoSepK=T KAlg= 0 I1Cent=           0 FoldK=F
 IRaf=         1 NMat=       1 IRICut=       1 DoRegI=T DoRafI=F ISym2E= 1 IDoP0=0 IntGTp=1.
 FoFCou: FMM=F IPFlag=           0 FMFlag=      100000 FMFlg1=           0
         NFxFlg=           0 DoJE=F BraDBF=F KetDBF=F FulRan=T
         wScrn=  0.000000 ICntrl=      3507 IOpCl=  0 I1Cent=           0 NGrid=           0
         NMat0=    1 NMatS0=      1 NMatT0=    0 NMatD0=    1 NMtDS0=    0 NMtDT0=    0
 Petite list used in FoFCou.
 End of G2Drv F.D. properties file   721 does not exist.
 End of G2Drv F.D. properties file   722 does not exist.
 End of G2Drv F.D. properties file   788 does not exist.
 Leave Link 1110 at Mon Mar  2 00:50:24 2020, MaxMem=  1879048192 cpu:            1611.6 elap:              48.3
 (Enter /opt/g16/l1002.exe)
 Minotr:  UHF open shell wavefunction.
          IDoAtm=111111111111
          Direct CPHF calculation.
          Differentiating once with respect to electric field.
                with respect to dipole field.
          Differentiating once with respect to nuclear coordinates.
          Using symmetry in CPHF.
          Requested convergence is 1.0D-08 RMS, and 1.0D-07 maximum.
          Secondary convergence is 1.0D-12 RMS, and 1.0D-12 maximum.
          NewPWx=T KeepS1=F KeepF1=F KeepIn=T MapXYZ=F SortEE=F KeepMc=T.
         3605 words used for storage of precomputed grid.
 Keep R1 and R2 ints in memory in symmetry-blocked form, NReq=1418900112.
 FoFCou: FMM=F IPFlag=           0 FMFlag=           0 FMFlg1=           0
         NFxFlg=           0 DoJE=F BraDBF=F KetDBF=F FulRan=T
         wScrn=  0.000000 ICntrl=       600 IOpCl=  0 I1Cent=           0 NGrid=           0
         NMat0=    1 NMatS0=  30628 NMatT0=    0 NMatD0=    1 NMtDS0=    0 NMtDT0=    0
 Petite list used in FoFCou.
          MDV=    1879048192 using IRadAn=       1.
          Solving linear equations simultaneously, MaxMat=       0.
          There are    39 degrees of freedom in the 1st order CPHF.  IDoFFX=6 NUNeed=     3.
     36 vectors produced by pass  0 Test12= 2.74D-14 2.56D-09 XBig12= 1.33D+02 6.52D+00.
 AX will form    36 AO Fock derivatives at one time.
     36 vectors produced by pass  1 Test12= 2.74D-14 2.56D-09 XBig12= 1.63D+01 6.39D-01.
     36 vectors produced by pass  2 Test12= 2.74D-14 2.56D-09 XBig12= 8.86D-01 2.30D-01.
     36 vectors produced by pass  3 Test12= 2.74D-14 2.56D-09 XBig12= 1.93D-02 3.16D-02.
     36 vectors produced by pass  4 Test12= 2.74D-14 2.56D-09 XBig12= 2.15D-04 2.52D-03.
     36 vectors produced by pass  5 Test12= 2.74D-14 2.56D-09 XBig12= 2.14D-06 2.81D-04.
     36 vectors produced by pass  6 Test12= 2.74D-14 2.56D-09 XBig12= 2.62D-08 1.88D-05.
     30 vectors produced by pass  7 Test12= 2.74D-14 2.56D-09 XBig12= 2.76D-10 2.30D-06.
     12 vectors produced by pass  8 Test12= 2.74D-14 2.56D-09 XBig12= 2.68D-12 2.05D-07.
      3 vectors produced by pass  9 Test12= 2.74D-14 2.56D-09 XBig12= 2.82D-14 1.96D-08.
 InvSVY:  IOpt=1 It=  1 EMax= 1.78D-14
 Solved reduced A of dimension   297 with    39 vectors.
 FullF1:  Do perturbations      1 to       3.
 Isotropic polarizability for W=    0.000000       75.67 Bohr**3.
 End of Minotr F.D. properties file   721 does not exist.
 End of Minotr F.D. properties file   722 does not exist.
 End of Minotr F.D. properties file   788 does not exist.
 Leave Link 1002 at Mon Mar  2 00:52:58 2020, MaxMem=  1879048192 cpu:            4817.7 elap:             153.9
 (Enter /opt/g16/l601.exe)
 Copying SCF densities to generalized density rwf, IOpCl= 1 IROHF=0.

 **********************************************************************

            Population analysis using the SCF Density.

 **********************************************************************

 Orbital symmetries:
 Alpha Orbitals:
       Occupied  (A') (A') (A') (A') (A') (A') (A') (A') (A') (A')
                 (A') (A') (A') (A') (A') (A') (A') (A") (A') (A')
                 (A") (A') (A") (A') (A")
       Virtual   (A") (A") (A') (A') (A') (A') (A') (A') (A") (A')
                 (A') (A") (A') (A') (A') (A") (A") (A') (A') (A')
                 (A') (A") (A") (A') (A') (A') (A') (A') (A") (A')
                 (A") (A') (A') (A') (A') (A') (A') (A') (A") (A')
                 (A') (A') (A") (A') (A') (A') (A') (A') (A") (A')
                 (A") (A') (A") (A') (A") (A') (A') (A') (A') (A")
                 (A') (A") (A") (A') (A') (A') (A") (A') (A') (A")
                 (A') (A') (A") (A') (A') (A') (A") (A') (A') (A')
                 (A') (A") (A") (A') (A") (A') (A') (A") (A') (A")
                 (A") (A') (A') (A') (A") (A') (A") (A') (A') (A")
                 (A") (A") (A') (A') (A') (A') (A') (A') (A') (A")
                 (A') (A') (A") (A') (A") (A') (A') (A') (A') (A')
                 (A") (A") (A') (A') (A') (A") (A') (A") (A') (A")
                 (A') (A') (A') (A") (A') (A") (A') (A") (A") (A')
                 (A') (A") (A') (A") (A') (A") (A') (A") (A') (A')
                 (A') (A") (A') (A') (A") (A") (A') (A") (A') (A")
                 (A') (A') (A') (A') (A") (A') (A") (A') (A') (A")
                 (A') (A') (A") (A') (A') (A') (A") (A') (A") (A')
                 (A') (A") (A') (A') (A") (A') (A") (A') (A") (A')
                 (A") (A') (A') (A") (A') (A') (A") (A') (A") (A')
                 (A') (A") (A') (A') (A') (A') (A') (A") (A') (A')
                 (A') (A') (A') (A') (A') (A') (A') (A') (A') (A')
                 (A') (A')
 Beta  Orbitals:
       Occupied  (A') (A') (A') (A') (A') (A') (A') (A') (A') (A')
                 (A') (A') (A') (A') (A') (A') (A') (A") (A') (A')
                 (A") (A') (A")
       Virtual   (A") (A') (A") (A") (A') (A') (A') (A') (A') (A')
                 (A") (A') (A') (A") (A') (A') (A') (A") (A") (A')
                 (A') (A') (A') (A") (A") (A') (A') (A') (A') (A")
                 (A') (A') (A') (A") (A') (A') (A') (A') (A') (A')
                 (A") (A') (A') (A') (A") (A') (A') (A') (A') (A')
                 (A') (A") (A") (A') (A") (A') (A") (A') (A') (A')
                 (A') (A") (A') (A") (A') (A") (A') (A') (A") (A')
                 (A') (A") (A') (A') (A") (A') (A') (A') (A") (A')
                 (A') (A') (A') (A") (A") (A') (A") (A') (A') (A")
                 (A') (A") (A') (A") (A') (A') (A") (A') (A") (A')
                 (A') (A") (A") (A") (A') (A') (A') (A') (A') (A')
                 (A') (A") (A') (A') (A") (A') (A") (A') (A') (A')
                 (A') (A') (A") (A") (A') (A') (A') (A") (A') (A")
                 (A") (A') (A') (A') (A') (A") (A') (A") (A') (A")
                 (A") (A') (A') (A") (A') (A") (A') (A") (A') (A")
                 (A') (A') (A') (A") (A') (A') (A") (A") (A') (A")
                 (A') (A') (A") (A') (A') (A") (A') (A') (A') (A")
                 (A') (A") (A') (A') (A") (A') (A') (A') (A") (A')
                 (A") (A') (A') (A") (A') (A') (A") (A') (A") (A')
                 (A") (A') (A") (A') (A') (A") (A') (A') (A") (A')
                 (A") (A') (A') (A") (A') (A') (A') (A') (A') (A")
                 (A') (A') (A') (A') (A') (A') (A') (A') (A') (A')
                 (A') (A') (A') (A')
 The electronic state is 3-A".
 Alpha  occ. eigenvalues --  -14.43888 -10.33902 -10.32608 -10.31947 -10.31349
 Alpha  occ. eigenvalues --  -10.31017 -10.30612  -1.02848  -0.96407  -0.87141
 Alpha  occ. eigenvalues --   -0.83701  -0.72337  -0.68695  -0.62672  -0.59350
 Alpha  occ. eigenvalues --   -0.55542  -0.53933  -0.50459  -0.49443  -0.46614
 Alpha  occ. eigenvalues --   -0.42896  -0.39414  -0.36556  -0.32905  -0.29787
 Alpha virt. eigenvalues --    0.04109   0.06246   0.12146   0.13138   0.16351
 Alpha virt. eigenvalues --    0.17587   0.18720   0.19898   0.21056   0.24513
 Alpha virt. eigenvalues --    0.26701   0.27423   0.28054   0.29878   0.30528
 Alpha virt. eigenvalues --    0.31555   0.32851   0.34317   0.34829   0.36523
 Alpha virt. eigenvalues --    0.39337   0.39994   0.40201   0.40843   0.42138
 Alpha virt. eigenvalues --    0.44755   0.46668   0.46968   0.47003   0.49348
 Alpha virt. eigenvalues --    0.49622   0.49947   0.50968   0.53047   0.55209
 Alpha virt. eigenvalues --    0.55763   0.56260   0.57783   0.59258   0.60819
 Alpha virt. eigenvalues --    0.65413   0.68540   0.69325   0.70287   0.73945
 Alpha virt. eigenvalues --    0.74493   0.75819   0.77513   0.80964   0.81016
 Alpha virt. eigenvalues --    0.83028   0.86862   0.87926   0.88850   0.94116
 Alpha virt. eigenvalues --    0.94551   0.95691   1.07061   1.07576   1.07641
 Alpha virt. eigenvalues --    1.09529   1.14164   1.14471   1.14869   1.18824
 Alpha virt. eigenvalues --    1.20279   1.25817   1.26563   1.28925   1.29771
 Alpha virt. eigenvalues --    1.31907   1.34745   1.35139   1.36978   1.41511
 Alpha virt. eigenvalues --    1.45621   1.46081   1.48218   1.53119   1.54075
 Alpha virt. eigenvalues --    1.54857   1.55931   1.57018   1.60824   1.62410
 Alpha virt. eigenvalues --    1.64464   1.68076   1.68959   1.72599   1.74002
 Alpha virt. eigenvalues --    1.76141   1.76344   1.80013   1.84275   1.85494
 Alpha virt. eigenvalues --    1.89887   1.93017   1.96090   2.00688   2.02453
 Alpha virt. eigenvalues --    2.04104   2.07348   2.08130   2.14661   2.16446
 Alpha virt. eigenvalues --    2.19606   2.21155   2.25446   2.27394   2.27581
 Alpha virt. eigenvalues --    2.31447   2.35997   2.41349   2.43058   2.45885
 Alpha virt. eigenvalues --    2.48487   2.57153   2.60280   2.61517   2.64357
 Alpha virt. eigenvalues --    2.64451   2.68887   2.70152   2.71059   2.72233
 Alpha virt. eigenvalues --    2.75323   2.75489   2.75697   2.81794   2.82018
 Alpha virt. eigenvalues --    2.82602   2.86264   2.86651   2.86859   2.89267
 Alpha virt. eigenvalues --    2.92239   2.95117   2.96397   3.03096   3.04108
 Alpha virt. eigenvalues --    3.05019   3.09386   3.12426   3.14669   3.15625
 Alpha virt. eigenvalues --    3.18007   3.18598   3.20368   3.22666   3.23551
 Alpha virt. eigenvalues --    3.27866   3.28092   3.29105   3.33609   3.34917
 Alpha virt. eigenvalues --    3.39797   3.40576   3.41195   3.42703   3.43415
 Alpha virt. eigenvalues --    3.44216   3.50994   3.53036   3.54827   3.55130
 Alpha virt. eigenvalues --    3.57127   3.58022   3.58482   3.67089   3.71506
 Alpha virt. eigenvalues --    3.71795   3.74683   3.80033   3.84954   3.89808
 Alpha virt. eigenvalues --    4.01674   4.02743   4.03965   4.06811   4.09392
 Alpha virt. eigenvalues --    4.11375   4.13547   4.18625   4.21921   4.27429
 Alpha virt. eigenvalues --    4.30153   4.30696   4.32611   4.34225   4.35770
 Alpha virt. eigenvalues --    4.50765   4.52983   4.63782   4.67955   4.69324
 Alpha virt. eigenvalues --    4.69463   4.72855   4.76504   4.81505   4.84704
 Alpha virt. eigenvalues --    4.91147   4.91285   4.99960   5.03765   5.15460
 Alpha virt. eigenvalues --    5.18627   5.28484   5.30560   5.33640   5.38748
 Alpha virt. eigenvalues --    5.50232   5.56225   5.64628   5.73324   6.05145
 Alpha virt. eigenvalues --   22.15253  22.58704  22.64980  22.77304  22.90973
 Alpha virt. eigenvalues --   23.27652  32.12162
  Beta  occ. eigenvalues --  -14.42819 -10.34035 -10.31559 -10.31471 -10.31096
  Beta  occ. eigenvalues --  -10.31050 -10.30302  -1.01047  -0.94352  -0.85633
  Beta  occ. eigenvalues --   -0.81737  -0.71501  -0.66767  -0.61558  -0.58233
  Beta  occ. eigenvalues --   -0.54366  -0.53185  -0.48295  -0.48235  -0.45668
  Beta  occ. eigenvalues --   -0.37954  -0.36398  -0.34593
  Beta virt. eigenvalues --   -0.05940  -0.02908   0.05841   0.09725   0.12430
  Beta virt. eigenvalues --    0.13297   0.16547   0.17802   0.18956   0.20082
  Beta virt. eigenvalues --    0.22269   0.25103   0.26761   0.27929   0.28295
  Beta virt. eigenvalues --    0.30031   0.31222   0.31736   0.33665   0.35044
  Beta virt. eigenvalues --    0.35540   0.36831   0.39926   0.40290   0.40665
  Beta virt. eigenvalues --    0.41587   0.42537   0.45207   0.47286   0.47571
  Beta virt. eigenvalues --    0.47818   0.49641   0.50168   0.51499   0.51563
  Beta virt. eigenvalues --    0.53344   0.55405   0.56396   0.56792   0.58714
  Beta virt. eigenvalues --    0.60094   0.61107   0.65734   0.68764   0.70039
  Beta virt. eigenvalues --    0.70893   0.74266   0.75421   0.76691   0.78169
  Beta virt. eigenvalues --    0.81233   0.81768   0.84245   0.87962   0.89087
  Beta virt. eigenvalues --    0.89164   0.95193   0.95288   0.96164   1.07881
  Beta virt. eigenvalues --    1.08424   1.09152   1.10237   1.15282   1.15361
  Beta virt. eigenvalues --    1.15492   1.20458   1.21207   1.26880   1.27048
  Beta virt. eigenvalues --    1.29380   1.30627   1.32621   1.35473   1.36123
  Beta virt. eigenvalues --    1.37968   1.42113   1.46289   1.46994   1.49546
  Beta virt. eigenvalues --    1.54461   1.54872   1.56458   1.56887   1.57914
  Beta virt. eigenvalues --    1.61382   1.63716   1.65085   1.68889   1.69496
  Beta virt. eigenvalues --    1.73287   1.74651   1.76921   1.77111   1.81754
  Beta virt. eigenvalues --    1.85096   1.86487   1.90442   1.93466   1.96807
  Beta virt. eigenvalues --    2.01585   2.03360   2.04767   2.08234   2.08634
  Beta virt. eigenvalues --    2.15349   2.17335   2.20205   2.22123   2.26202
  Beta virt. eigenvalues --    2.28650   2.29926   2.32031   2.36701   2.42264
  Beta virt. eigenvalues --    2.44141   2.48186   2.49358   2.58015   2.61307
  Beta virt. eigenvalues --    2.62216   2.65179   2.66022   2.69730   2.70698
  Beta virt. eigenvalues --    2.71507   2.72739   2.76170   2.76572   2.76585
  Beta virt. eigenvalues --    2.82556   2.83261   2.83541   2.87185   2.87191
  Beta virt. eigenvalues --    2.88245   2.90102   2.92891   2.95542   2.97310
  Beta virt. eigenvalues --    3.04693   3.04823   3.05752   3.10777   3.14056
  Beta virt. eigenvalues --    3.15783   3.16350   3.19166   3.19549   3.22162
  Beta virt. eigenvalues --    3.23286   3.25565   3.28948   3.28983   3.30057
  Beta virt. eigenvalues --    3.34522   3.36053   3.40538   3.41635   3.42707
  Beta virt. eigenvalues --    3.43681   3.45011   3.45805   3.52698   3.54357
  Beta virt. eigenvalues --    3.56505   3.56656   3.59067   3.59357   3.59799
  Beta virt. eigenvalues --    3.68434   3.72836   3.72980   3.76206   3.81620
  Beta virt. eigenvalues --    3.86314   3.90792   4.02404   4.04378   4.04898
  Beta virt. eigenvalues --    4.08445   4.10465   4.12378   4.15005   4.19685
  Beta virt. eigenvalues --    4.23397   4.28470   4.30834   4.32045   4.33548
  Beta virt. eigenvalues --    4.36425   4.37498   4.52865   4.54613   4.66096
  Beta virt. eigenvalues --    4.69898   4.70385   4.71454   4.76101   4.78391
  Beta virt. eigenvalues --    4.83366   4.85857   4.92256   4.94971   5.03059
  Beta virt. eigenvalues --    5.04513   5.16852   5.20158   5.29521   5.32900
  Beta virt. eigenvalues --    5.34781   5.39647   5.51375   5.57205   5.65756
  Beta virt. eigenvalues --    5.74387   6.05784  22.16062  22.59559  22.65631
  Beta virt. eigenvalues --   22.77934  22.91265  23.27703  32.13550
          Condensed to atoms (all electrons):
               1          2          3          4          5          6
     1  N    6.542567   0.572754  -0.064671   0.002927  -0.125439  -0.003005
     2  C    0.572754   4.686762   0.437815  -0.022378   0.331033  -0.042420
     3  C   -0.064671   0.437815   4.973608   0.518477  -0.008109  -0.011847
     4  C    0.002927  -0.022378   0.518477   4.853332  -0.055214   0.435651
     5  C   -0.125439   0.331033  -0.008109  -0.055214   5.378733  -0.000934
     6  C   -0.003005  -0.042420  -0.011847   0.435651  -0.000934   4.918220
     7  C    0.027653   0.044530  -0.066401   0.004783   0.320673   0.475678
     8  H    0.010426  -0.036268   0.415994  -0.049630   0.017822   0.010892
     9  H   -0.000038   0.009990  -0.048114   0.433295  -0.004279  -0.051625
    10  H   -0.003801  -0.047357   0.005410  -0.000949   0.411320   0.004118
    11  H   -0.000001  -0.002013   0.005804  -0.046818   0.007822   0.425121
    12  H    0.356315  -0.086367   0.011907  -0.000158  -0.026710  -0.000846
               7          8          9         10         11         12
     1  N    0.027653   0.010426  -0.000038  -0.003801  -0.000001   0.356315
     2  C    0.044530  -0.036268   0.009990  -0.047357  -0.002013  -0.086367
     3  C   -0.066401   0.415994  -0.048114   0.005410   0.005804   0.011907
     4  C    0.004783  -0.049630   0.433295  -0.000949  -0.046818  -0.000158
     5  C    0.320673   0.017822  -0.004279   0.411320   0.007822  -0.026710
     6  C    0.475678   0.010892  -0.051625   0.004118   0.425121  -0.000846
     7  C    5.196943  -0.007233   0.010093  -0.020803  -0.039432   0.009995
     8  H   -0.007233   0.506785  -0.007220  -0.000111  -0.000030  -0.001529
     9  H    0.010093  -0.007220   0.528466   0.000053  -0.004386   0.000034
    10  H   -0.020803  -0.000111   0.000053   0.510299  -0.000064   0.002416
    11  H   -0.039432  -0.000030  -0.004386  -0.000064   0.507590  -0.000007
    12  H    0.009995  -0.001529   0.000034   0.002416  -0.000007   0.527509
          Atomic-Atomic Spin Densities.
               1          2          3          4          5          6
     1  N    0.686116  -0.026348  -0.028204   0.000523  -0.024595  -0.000005
     2  C   -0.026348  -0.101929   0.003941   0.008278   0.043820  -0.004000
     3  C   -0.028204   0.003941   0.290011  -0.004654   0.022509  -0.009290
     4  C    0.000523   0.008278  -0.004654  -0.096299   0.000687   0.017890
     5  C   -0.024595   0.043820   0.022509   0.000687   0.191012  -0.005860
     6  C   -0.000005  -0.004000  -0.009290   0.017890  -0.005860   0.297751
     7  C    0.005940  -0.008885  -0.020351  -0.008870  -0.007204  -0.005225
     8  H   -0.001484   0.000107   0.002544  -0.000960   0.000777   0.000530
     9  H    0.000128   0.001570  -0.005408   0.000627  -0.001696  -0.005833
    10  H    0.003342  -0.006786  -0.001360   0.000262   0.000064  -0.001677
    11  H    0.000028   0.000814  -0.001206  -0.003877  -0.003292   0.006306
    12  H   -0.000715   0.000552   0.001221   0.000067  -0.002170  -0.000073
               7          8          9         10         11         12
     1  N    0.005940  -0.001484   0.000128   0.003342   0.000028  -0.000715
     2  C   -0.008885   0.000107   0.001570  -0.006786   0.000814   0.000552
     3  C   -0.020351   0.002544  -0.005408  -0.001360  -0.001206   0.001221
     4  C   -0.008870  -0.000960   0.000627   0.000262  -0.003877   0.000067
     5  C   -0.007204   0.000777  -0.001696   0.000064  -0.003292  -0.002170
     6  C   -0.005225   0.000530  -0.005833  -0.001677   0.006306  -0.000073
     7  C    0.839414  -0.002267   0.004875   0.000693  -0.003052   0.000378
     8  H   -0.002267  -0.006348  -0.001340  -0.000094  -0.000082  -0.000048
     9  H    0.004875  -0.001340   0.020759   0.000032   0.001827   0.000008
    10  H    0.000693  -0.000094   0.000032   0.017061   0.000077   0.001677
    11  H   -0.003052  -0.000082   0.001827   0.000077   0.008348   0.000004
    12  H    0.000378  -0.000048   0.000008   0.001677   0.000004  -0.016271
 Mulliken charges and spin densities:
               1          2
     1  N   -0.315687   0.614726
     2  C    0.153919  -0.088864
     3  C   -0.169873   0.249753
     4  C   -0.073317  -0.086326
     5  C   -0.246718   0.214051
     6  C   -0.159002   0.290514
     7  C    0.043520   0.795445
     8  H    0.140102  -0.008664
     9  H    0.133732   0.015550
    10  H    0.139469   0.013290
    11  H    0.146414   0.005895
    12  H    0.207442  -0.015371
 Sum of Mulliken charges =  -0.00000   2.00000
 Mulliken charges and spin densities with hydrogens summed into heavy atoms:
               1          2
     1  N   -0.108245   0.599355
     2  C    0.153919  -0.088864
     3  C   -0.029772   0.241089
     4  C    0.060414  -0.070775
     5  C   -0.107249   0.227341
     6  C   -0.012588   0.296409
     7  C    0.043520   0.795445
 APT charges:
               1
     1  N   -0.261712
     2  C    0.004042
     3  C    0.010511
     4  C   -0.049468
     5  C    0.003440
     6  C    0.053409
     7  C   -0.178387
     8  H    0.063689
     9  H    0.041940
    10  H    0.070968
    11  H    0.072750
    12  H    0.168819
 Sum of APT charges =  -0.00000
 APT charges with hydrogens summed into heavy atoms:
               1
     1  N   -0.092893
     2  C    0.004042
     3  C    0.074200
     4  C   -0.007528
     5  C    0.074407
     6  C    0.126159
     7  C   -0.178387
 Electronic spatial extent (au):  <R**2>=            621.9159
 Charge=              0.0000 electrons
 Dipole moment (field-independent basis, Debye):
    X=             -0.5228    Y=             -1.5735    Z=             -0.0000  Tot=              1.6581
 Quadrupole moment (field-independent basis, Debye-Ang):
   XX=            -37.2418   YY=            -40.2414   ZZ=            -43.5622
   XY=             -6.5665   XZ=             -0.0000   YZ=             -0.0000
 Traceless Quadrupole moment (field-independent basis, Debye-Ang):
   XX=              3.1067   YY=              0.1070   ZZ=             -3.2137
   XY=             -6.5665   XZ=             -0.0000   YZ=             -0.0000
 Octapole moment (field-independent basis, Debye-Ang**2):
  XXX=              6.3784  YYY=            -16.6339  ZZZ=              0.0000  XYY=            -10.0531
  XXY=              5.0706  XXZ=              0.0000  XZZ=              0.3039  YZZ=              2.6536
  YYZ=             -0.0000  XYZ=             -0.0000
 Hexadecapole moment (field-independent basis, Debye-Ang**3):
 XXXX=           -265.3883 YYYY=           -510.3727 ZZZZ=            -49.0287 XXXY=            -12.8373
 XXXZ=             -0.0000 YYYX=            -39.1883 YYYZ=             -0.0000 ZZZX=             -0.0000
 ZZZY=             -0.0000 XXYY=           -129.4516 XXZZ=            -60.9486 YYZZ=           -102.2160
 XXYZ=             -0.0000 YYXZ=             -0.0000 ZZXY=              0.9995
 N-N= 2.524252928917D+02 E-N=-1.169848993039D+03  KE= 2.849391335633D+02
 Symmetry A'   KE= 2.767882830828D+02
 Symmetry A"   KE= 8.150850480525D+00
 Symmetry A'   SP= 1.000000000000D+00
 Symmetry A"   SP= 1.000000000000D+00
  Exact polarizability:  77.811  -2.280 107.715   0.000   0.000  41.495
 Approx polarizability:  89.269  -0.868 120.825  -0.000   0.000  49.987
                          Isotropic Fermi Contact Couplings
        Atom                 a.u.       MegaHertz       Gauss      10(-4) cm-1
     1  N(14)              0.05430       8.77268       3.13031       2.92625
     2  C(13)              0.00138       0.77488       0.27650       0.25847
     3  C(13)              0.01196       6.72130       2.39833       2.24199
     4  C(13)              0.02389      13.42963       4.79203       4.47964
     5  C(13)              0.02355      13.23800       4.72365       4.41572
     6  C(13)              0.03526      19.81675       7.07111       6.61016
     7  C(13)              0.29943     168.30883      60.05677      56.14178
     8  H(1)              -0.00355      -7.92615      -2.82825      -2.64388
     9  H(1)               0.00564      12.61015       4.49962       4.20629
    10  H(1)               0.00824      18.41473       6.57083       6.14249
    11  H(1)               0.00500      11.17589       3.98784       3.72788
    12  H(1)              -0.00791     -17.67497      -6.30687      -5.89573
 --------------------------------------------------------
       Center         ----  Spin Dipole Couplings  ----
                      3XX-RR        3YY-RR        3ZZ-RR
 --------------------------------------------------------
     1   Atom       -0.698640     -0.664616      1.363256
     2   Atom        0.120152      0.102826     -0.222977
     3   Atom       -0.144322     -0.155007      0.299329
     4   Atom        0.119431      0.057213     -0.176644
     5   Atom       -0.155203     -0.041763      0.196966
     6   Atom       -0.107201     -0.191776      0.298976
     7   Atom        0.719269     -0.135210     -0.584059
     8   Atom        0.017294     -0.010027     -0.007268
     9   Atom        0.007297      0.003548     -0.010845
    10   Atom        0.004703      0.011402     -0.016104
    11   Atom       -0.025149      0.037750     -0.012601
    12   Atom        0.045559     -0.030280     -0.015279
 --------------------------------------------------------
                        XY            XZ            YZ
 --------------------------------------------------------
     1   Atom        0.027752     -0.000000     -0.000000
     2   Atom        0.056879      0.000000      0.000000
     3   Atom        0.005249      0.000000      0.000000
     4   Atom        0.039876     -0.000000     -0.000000
     5   Atom        0.030135     -0.000000      0.000000
     6   Atom       -0.039219      0.000000      0.000000
     7   Atom        0.640753     -0.000000     -0.000000
     8   Atom        0.013960     -0.000000      0.000000
     9   Atom        0.001338     -0.000000      0.000000
    10   Atom       -0.023082     -0.000000      0.000000
    11   Atom       -0.014576     -0.000000      0.000000
    12   Atom       -0.054493      0.000000      0.000000
 --------------------------------------------------------


 ---------------------------------------------------------------------------------
              Anisotropic Spin Dipole Couplings in Principal Axis System
 ---------------------------------------------------------------------------------

       Atom             a.u.   MegaHertz   Gauss  10(-4) cm-1        Axes

              Baa    -0.7142   -27.544    -9.828    -9.188  0.8725 -0.4886 -0.0000
     1 N(14)  Bbb    -0.6491   -25.033    -8.933    -8.350  0.4886  0.8725 -0.0000
              Bcc     1.3633    52.578    18.761    17.538  0.0000  0.0000  1.0000
 
              Baa    -0.2230   -29.921   -10.677    -9.981  0.0000  0.0000  1.0000
     2 C(13)  Bbb     0.0540     7.240     2.583     2.415 -0.6517  0.7585  0.0000
              Bcc     0.1690    22.681     8.093     7.566  0.7585  0.6517 -0.0000
 
              Baa    -0.1572   -21.089    -7.525    -7.034 -0.3786  0.9256 -0.0000
     3 C(13)  Bbb    -0.1422   -19.079    -6.808    -6.364  0.9256  0.3786 -0.0000
              Bcc     0.2993    40.167    14.333    13.398  0.0000  0.0000  1.0000
 
              Baa    -0.1766   -23.704    -8.458    -7.907  0.0000  0.0000  1.0000
     4 C(13)  Bbb     0.0377     5.065     1.807     1.690 -0.4387  0.8986  0.0000
              Bcc     0.1389    18.639     6.651     6.217  0.8986  0.4387 -0.0000
 
              Baa    -0.1627   -21.834    -7.791    -7.283  0.9703 -0.2418  0.0000
     5 C(13)  Bbb    -0.0343    -4.597    -1.640    -1.533  0.2418  0.9703 -0.0000
              Bcc     0.1970    26.431     9.431     8.816  0.0000  0.0000  1.0000
 
              Baa    -0.2072   -27.799    -9.919    -9.273  0.3652  0.9309 -0.0000
     6 C(13)  Bbb    -0.0918   -12.321    -4.396    -4.110  0.9309 -0.3652 -0.0000
              Bcc     0.2990    40.120    14.316    13.383  0.0000  0.0000  1.0000
 
              Baa    -0.5841   -78.375   -27.966   -26.143  0.0000  0.0000  1.0000
     7 C(13)  Bbb    -0.4781   -64.156   -22.893   -21.400 -0.4718  0.8817 -0.0000
              Bcc     1.0622   142.531    50.859    47.543  0.8817  0.4718 -0.0000
 
              Baa    -0.0159    -8.482    -3.027    -2.829 -0.3877  0.9218 -0.0000
     8 H(1)   Bbb    -0.0073    -3.878    -1.384    -1.293  0.0000  0.0000  1.0000
              Bcc     0.0232    12.360     4.410     4.123  0.9218  0.3877  0.0000
 
              Baa    -0.0108    -5.787    -2.065    -1.930  0.0000  0.0000  1.0000
     9 H(1)   Bbb     0.0031     1.664     0.594     0.555 -0.3050  0.9524  0.0000
              Bcc     0.0077     4.122     1.471     1.375  0.9524  0.3050  0.0000
 
              Baa    -0.0161    -8.593    -3.066    -2.866  0.0000  0.0000  1.0000
    10 H(1)   Bbb    -0.0153    -8.148    -2.908    -2.718  0.7562  0.6544 -0.0000
              Bcc     0.0314    16.741     5.974     5.584 -0.6544  0.7562 -0.0000
 
              Baa    -0.0284   -15.133    -5.400    -5.048  0.9765  0.2153  0.0000
    11 H(1)   Bbb    -0.0126    -6.723    -2.399    -2.243  0.0000  0.0000  1.0000
              Bcc     0.0410    21.856     7.799     7.290 -0.2153  0.9765 -0.0000
 
              Baa    -0.0587   -31.345   -11.185   -10.456  0.4630  0.8863 -0.0000
    12 H(1)   Bbb    -0.0153    -8.152    -2.909    -2.719  0.0000  0.0000  1.0000
              Bcc     0.0740    39.497    14.094    13.175  0.8863 -0.4630 -0.0000
 

 ---------------------------------------------------------------------------------

 No NMR shielding tensors so no spin-rotation constants.
 Leave Link  601 at Mon Mar  2 00:53:07 2020, MaxMem=  1879048192 cpu:             246.6 elap:               8.2
 (Enter /opt/g16/l701.exe)
 SCFChk:  SCF convergence  4.98D-09 required  1.00D-08
 ... and contract with generalized density number  0.
 Compute integral second derivatives.
 R6Disp: Adding Grimme-D2 dispersion energy 2nd derivatives to the Hessian.
 Entering OneElI...
 Calculate overlap and kinetic energy integrals
    NBasis = 282  MinDer = 2  MaxDer = 2
 Requested accuracy = 0.1000D-14
 PrmmSu-InSpLW:  IPartL=    0 NPrtUS=   36 NPrtUL=    1 DoSpLW=F IThBeg=    0 IThEnd=   35 NThAct=   36.
 PrSmSu:  IncTry=   512 NBBP=           4730 NTPThr=   100 NPartT=   36 Incr=           1 LDynOK=F GPUOK=F.
 PrsmSu:  NPrtUS=  36 ThrOK=T IAlg=2 LenDen=           0 ISkipM=0 DoSpLW=F IThBeg=    0 IThEnd=   35.
 Prism:   IPart=     0 DynPar=F LinDyn=F Incr=           1.
 PRISM was handed    52079603 working-precision words and  4730 shell-pairs
 PRISM was handed    52079603 working-precision words and  4730 shell-pairs
 PRISM was handed    52079603 working-precision words and  4730 shell-pairs
 PRISM was handed    52079603 working-precision words and  4730 shell-pairs
 PRISM was handed    52079603 working-precision words and  4730 shell-pairs
 PRISM was handed    52079603 working-precision words and  4730 shell-pairs
 PRISM was handed    52079603 working-precision words and  4730 shell-pairs
 PRISM was handed    52079603 working-precision words and  4730 shell-pairs
 PRISM was handed    52079603 working-precision words and  4730 shell-pairs
 PRISM was handed    52079603 working-precision words and  4730 shell-pairs
 PRISM was handed    52079603 working-precision words and  4730 shell-pairs
 PRISM was handed    52079603 working-precision words and  4730 shell-pairs
 PRISM was handed    52079603 working-precision words and  4730 shell-pairs
 PRISM was handed    52079603 working-precision words and  4730 shell-pairs
 PRISM was handed    52079603 working-precision words and  4730 shell-pairs
 PRISM was handed    52079603 working-precision words and  4730 shell-pairs
 PRISM was handed    52079603 working-precision words and  4730 shell-pairs
 PRISM was handed    52079603 working-precision words and  4730 shell-pairs
 PRISM was handed    52079603 working-precision words and  4730 shell-pairs
 PRISM was handed    52079603 working-precision words and  4730 shell-pairs
 PRISM was handed    52079603 working-precision words and  4730 shell-pairs
 PRISM was handed    52079603 working-precision words and  4730 shell-pairs
 PRISM was handed    52079603 working-precision words and  4730 shell-pairs
 PRISM was handed    52079603 working-precision words and  4730 shell-pairs
 PRISM was handed    52079603 working-precision words and  4730 shell-pairs
 PRISM was handed    52079603 working-precision words and  4730 shell-pairs
 PRISM was handed    52079603 working-precision words and  4730 shell-pairs
 PRISM was handed    52079603 working-precision words and  4730 shell-pairs
 PRISM was handed    52079603 working-precision words and  4730 shell-pairs
 PRISM was handed    52079603 working-precision words and  4730 shell-pairs
 PRISM was handed    52079603 working-precision words and  4730 shell-pairs
 PRISM was handed    52079603 working-precision words and  4730 shell-pairs
 PRISM was handed    52079603 working-precision words and  4730 shell-pairs
 PRISM was handed    52079603 working-precision words and  4730 shell-pairs
 PRISM was handed    52079603 working-precision words and  4730 shell-pairs
 PRISM was handed    52079603 working-precision words and  4730 shell-pairs
 IPart= 28 NShTot=         116 NBatch=          26 AvBLen=         4.5
 IPart= 24 NShTot=         127 NBatch=          28 AvBLen=         4.5
 IPart= 30 NShTot=         115 NBatch=          25 AvBLen=         4.6
 IPart= 34 NShTot=         111 NBatch=          24 AvBLen=         4.6
 IPart= 31 NShTot=         115 NBatch=          25 AvBLen=         4.6
 IPart= 19 NShTot=         130 NBatch=          31 AvBLen=         4.2
 IPart= 26 NShTot=         120 NBatch=          28 AvBLen=         4.3
 IPart= 32 NShTot=         114 NBatch=          25 AvBLen=         4.6
 IPart= 20 NShTot=         130 NBatch=          31 AvBLen=         4.2
 IPart= 22 NShTot=         129 NBatch=          30 AvBLen=         4.3
 IPart= 21 NShTot=         130 NBatch=          31 AvBLen=         4.2
 IPart= 15 NShTot=         132 NBatch=          31 AvBLen=         4.3
 IPart= 16 NShTot=         130 NBatch=          31 AvBLen=         4.2
 IPart= 13 NShTot=         135 NBatch=          33 AvBLen=         4.1
 IPart= 11 NShTot=         138 NBatch=          33 AvBLen=         4.2
 IPart=  0 NShTot=         159 NBatch=          48 AvBLen=         3.3
 IPart= 25 NShTot=         122 NBatch=          28 AvBLen=         4.4
 IPart=  1 NShTot=         154 NBatch=          44 AvBLen=         3.5
 IPart= 35 NShTot=         111 NBatch=          24 AvBLen=         4.6
 IPart= 29 NShTot=         116 NBatch=          26 AvBLen=         4.5
 IPart= 18 NShTot=         130 NBatch=          31 AvBLen=         4.2
 IPart= 33 NShTot=         112 NBatch=          25 AvBLen=         4.5
 IPart= 17 NShTot=         130 NBatch=          31 AvBLen=         4.2
 IPart=  7 NShTot=         143 NBatch=          35 AvBLen=         4.1
 IPart=  6 NShTot=         147 NBatch=          39 AvBLen=         3.8
 IPart= 23 NShTot=         127 NBatch=          28 AvBLen=         4.5
 IPart=  8 NShTot=         142 NBatch=          34 AvBLen=         4.2
 IPart= 14 NShTot=         133 NBatch=          32 AvBLen=         4.2
 IPart= 10 NShTot=         138 NBatch=          33 AvBLen=         4.2
 IPart=  4 NShTot=         150 NBatch=          41 AvBLen=         3.7
 IPart= 27 NShTot=         118 NBatch=          27 AvBLen=         4.4
 IPart=  3 NShTot=         150 NBatch=          41 AvBLen=         3.7
 IPart= 12 NShTot=         138 NBatch=          33 AvBLen=         4.2
 IPart=  5 NShTot=         147 NBatch=          39 AvBLen=         3.8
 IPart=  9 NShTot=         140 NBatch=          33 AvBLen=         4.2
 IPart=  2 NShTot=         151 NBatch=          42 AvBLen=         3.6
 PrSmSu:  NxtVal=             37.
 Entering OneElI...
 Calculate potential energy integrals
    NBasis = 282  MinDer = 2  MaxDer = 2
 Requested accuracy = 0.1000D-14
 PrmmSu-InSpLW:  IPartL=    0 NPrtUS=   36 NPrtUL=    1 DoSpLW=F IThBeg=    0 IThEnd=   35 NThAct=   36.
 PrSmSu:  IncTry=   512 NBBP=          55080 NTPThr=   100 NPartT=   36 Incr=          15 LDynOK=F GPUOK=F.
 PrsmSu:  NPrtUS=  36 ThrOK=T IAlg=2 LenDen=           0 ISkipM=0 DoSpLW=F IThBeg=    0 IThEnd=   35.
 Prism:   IPart=     0 DynPar=F LinDyn=F Incr=          15.
 PRISM was handed    52092189 working-precision words and  4590 shell-pairs
 PRISM was handed    52092189 working-precision words and  4590 shell-pairs
 PRISM was handed    52092189 working-precision words and  4590 shell-pairs
 PRISM was handed    52092189 working-precision words and  4590 shell-pairs
 PRISM was handed    52092189 working-precision words and  4590 shell-pairs
 PRISM was handed    52092189 working-precision words and  4590 shell-pairs
 PRISM was handed    52092189 working-precision words and  4590 shell-pairs
 PRISM was handed    52092189 working-precision words and  4590 shell-pairs
 PRISM was handed    52092189 working-precision words and  4590 shell-pairs
 PRISM was handed    52092189 working-precision words and  4590 shell-pairs
 PRISM was handed    52092189 working-precision words and  4590 shell-pairs
 PRISM was handed    52092189 working-precision words and  4590 shell-pairs
 PRISM was handed    52092189 working-precision words and  4590 shell-pairs
 PRISM was handed    52092189 working-precision words and  4590 shell-pairs
 PRISM was handed    52092189 working-precision words and  4590 shell-pairs
 PRISM was handed    52092189 working-precision words and  4590 shell-pairs
 PRISM was handed    52092189 working-precision words and  4590 shell-pairs
 PRISM was handed    52092189 working-precision words and  4590 shell-pairs
 PRISM was handed    52092189 working-precision words and  4590 shell-pairs
 PRISM was handed    52092189 working-precision words and  4590 shell-pairs
 PRISM was handed    52092189 working-precision words and  4590 shell-pairs
 PRISM was handed    52092189 working-precision words and  4590 shell-pairs
 PRISM was handed    52092189 working-precision words and  4590 shell-pairs
 PRISM was handed    52092189 working-precision words and  4590 shell-pairs
 PRISM was handed    52092189 working-precision words and  4590 shell-pairs
 PRISM was handed    52092189 working-precision words and  4590 shell-pairs
 PRISM was handed    52092189 working-precision words and  4590 shell-pairs
 PRISM was handed    52092189 working-precision words and  4590 shell-pairs
 PRISM was handed    52092189 working-precision words and  4590 shell-pairs
 PRISM was handed    52092189 working-precision words and  4590 shell-pairs
 PRISM was handed    52092189 working-precision words and  4590 shell-pairs
 PRISM was handed    52092189 working-precision words and  4590 shell-pairs
 PRISM was handed    52092189 working-precision words and  4590 shell-pairs
 PRISM was handed    52092189 working-precision words and  4590 shell-pairs
 PRISM was handed    52092189 working-precision words and  4590 shell-pairs
 PRISM was handed    52092189 working-precision words and  4590 shell-pairs
 IPart= 31 NShTot=        1344 NBatch=         112 AvBLen=        12.0
 IPart= 32 NShTot=        1332 NBatch=         111 AvBLen=        12.0
 IPart= 33 NShTot=        1332 NBatch=         111 AvBLen=        12.0
 IPart= 16 NShTot=        1500 NBatch=         125 AvBLen=        12.0
 IPart= 30 NShTot=        1344 NBatch=         112 AvBLen=        12.0
 IPart= 28 NShTot=        1356 NBatch=         113 AvBLen=        12.0
 IPart= 22 NShTot=        1428 NBatch=         119 AvBLen=        12.0
 IPart= 26 NShTot=        1392 NBatch=         116 AvBLen=        12.0
 IPart= 15 NShTot=        1524 NBatch=         127 AvBLen=        12.0
 IPart= 29 NShTot=        1344 NBatch=         112 AvBLen=        12.0
 IPart= 34 NShTot=        1332 NBatch=         111 AvBLen=        12.0
 IPart= 19 NShTot=        1464 NBatch=         122 AvBLen=        12.0
 IPart= 11 NShTot=        1620 NBatch=         135 AvBLen=        12.0
 IPart= 21 NShTot=        1428 NBatch=         119 AvBLen=        12.0
 IPart= 13 NShTot=        1584 NBatch=         132 AvBLen=        12.0
 IPart=  0 NShTot=        1956 NBatch=         163 AvBLen=        12.0
 IPart= 14 NShTot=        1560 NBatch=         130 AvBLen=        12.0
 IPart=  8 NShTot=        1656 NBatch=         138 AvBLen=        12.0
 IPart=  4 NShTot=        1752 NBatch=         146 AvBLen=        12.0
 IPart= 24 NShTot=        1416 NBatch=         118 AvBLen=        12.0
 IPart= 20 NShTot=        1440 NBatch=         120 AvBLen=        12.0
 IPart=  7 NShTot=        1656 NBatch=         138 AvBLen=        12.0
 IPart=  3 NShTot=        1800 NBatch=         150 AvBLen=        12.0
 IPart= 35 NShTot=        1332 NBatch=         111 AvBLen=        12.0
 IPart= 25 NShTot=        1404 NBatch=         117 AvBLen=        12.0
 IPart= 18 NShTot=        1488 NBatch=         124 AvBLen=        12.0
 IPart= 27 NShTot=        1380 NBatch=         115 AvBLen=        12.0
 IPart= 23 NShTot=        1416 NBatch=         118 AvBLen=        12.0
 IPart=  9 NShTot=        1632 NBatch=         136 AvBLen=        12.0
 IPart=  6 NShTot=        1692 NBatch=         141 AvBLen=        12.0
 IPart= 12 NShTot=        1608 NBatch=         134 AvBLen=        12.0
 IPart=  2 NShTot=        1848 NBatch=         154 AvBLen=        12.0
 IPart= 17 NShTot=        1488 NBatch=         124 AvBLen=        12.0
 IPart=  5 NShTot=        1716 NBatch=         143 AvBLen=        12.0
 IPart=  1 NShTot=        1884 NBatch=         157 AvBLen=        12.0
 IPart= 10 NShTot=        1632 NBatch=         136 AvBLen=        12.0
 PrSmSu:  NxtVal=            541.
   2 Symmetry operations used in ECPInt.
 ECPInt:  NShTT=    4753 NPrTT=   14704 LenC2=    4700 LenP2D=   12021.
 LDataN:  DoStor=F MaxTD1= 8 Len=  415
 LDataN:  DoStor=T MaxTD1= 8 Len=  415
 ECPSu:  NPrtUS=  36 ThrOK=T ISkipM=0 DoSpLW=F IThBeg=    0 IThEnd=   35.
 Polarizability after L701:
                1             2             3 
      1  0.778108D+02
      2 -0.227956D+01  0.107715D+03
      3  0.000000D+00  0.000000D+00  0.414953D+02
 Dipole Derivatives after L701:
                 1             2             3             4             5 
      1  -0.978587D-01 -0.683959D-01  0.000000D+00  0.149873D+00  0.824915D-01
      2  -0.119009D+00 -0.251458D+00  0.000000D+00  0.765103D-01 -0.224277D+00
      3   0.000000D+00  0.000000D+00 -0.435819D+00  0.000000D+00  0.000000D+00
                 6             7             8             9            10 
      1   0.000000D+00 -0.222167D-02  0.155985D+00  0.000000D+00  0.366927D-01
      2   0.000000D+00  0.102851D-01  0.143597D+00  0.000000D+00 -0.148235D+00
      3   0.865288D-01  0.000000D+00  0.000000D+00 -0.109842D+00  0.000000D+00
                11            12            13            14            15 
      1  -0.161036D+00  0.000000D+00 -0.865398D-01 -0.143108D+00  0.000000D+00
      2  -0.561153D-01  0.000000D+00 -0.689788D-01  0.149009D+00  0.000000D+00
      3   0.000000D+00 -0.128981D+00  0.000000D+00  0.000000D+00 -0.521502D-01
                16            17            18            19            20 
      1   0.675703D-01 -0.259343D-01  0.000000D+00 -0.124906D+00  0.895139D-01
      2  -0.667882D-01  0.141063D+00  0.000000D+00  0.949036D-01 -0.280398D+00
      3   0.000000D+00  0.000000D+00 -0.484070D-01  0.000000D+00  0.000000D+00
                21            22            23            24            25 
      1   0.000000D+00  0.226337D-02 -0.496106D-01  0.000000D+00 -0.364078D-01
      2   0.000000D+00 -0.259321D-01  0.507067D-01  0.000000D+00  0.767636D-01
      3  -0.129855D+00  0.000000D+00  0.000000D+00  0.138097D+00  0.000000D+00
                26            27            28            29            30 
      1   0.517409D-01  0.000000D+00  0.246752D-01  0.736558D-01  0.000000D+00
      2   0.312717D-01  0.000000D+00  0.429497D-01  0.266130D-01  0.000000D+00
      3   0.000000D+00  0.130956D+00  0.000000D+00  0.000000D+00  0.161615D+00
                31            32            33            34            35 
      1   0.965330D-01 -0.169136D-02  0.000000D+00 -0.296734D-01 -0.361124D-02
      2   0.821725D-03 -0.236027D-01  0.000000D+00  0.126709D+00  0.293591D+00
      3   0.000000D+00  0.000000D+00  0.145319D+00  0.000000D+00  0.000000D+00
                36 
      1   0.000000D+00
      2   0.000000D+00
      3   0.242538D+00
 Hessian after L701:
                1             2             3             4             5 
      1  0.124215D+02
      2  0.676248D+00  0.260800D+01
      3  0.000000D+00  0.000000D+00  0.170231D+02
      4 -0.102391D+02  0.886515D+00  0.000000D+00  0.157676D+02
      5  0.862837D+00 -0.285531D+00  0.000000D+00 -0.836961D+00  0.101665D+02
      6  0.000000D+00  0.000000D+00 -0.118206D+02  0.000000D+00  0.000000D+00
      7  0.339016D-01 -0.207605D+00  0.000000D+00 -0.310889D+01 -0.338451D+01
      8 -0.189693D+00  0.184890D+00  0.000000D+00 -0.315331D+01 -0.559424D+01
      9  0.000000D+00  0.000000D+00 -0.120978D+00  0.000000D+00  0.000000D+00
     10 -0.127509D+00 -0.106385D+00  0.000000D+00 -0.488489D-01 -0.309876D+00
     11 -0.102125D+00  0.326524D+00  0.000000D+00 -0.353672D+00  0.378222D+00
     12  0.000000D+00  0.000000D+00 -0.125478D+00  0.000000D+00  0.000000D+00
     13  0.405626D+00  0.266206D+00  0.000000D+00 -0.193857D+01  0.329462D+01
     14  0.418236D+00  0.132038D+00  0.000000D+00  0.286033D+01 -0.536020D+01
     15  0.000000D+00  0.000000D+00  0.184876D+00  0.000000D+00  0.000000D+00
     16 -0.990146D-01  0.309061D-01  0.000000D+00 -0.187133D+00  0.160723D-01
     17  0.670128D-01  0.168109D+00  0.000000D+00  0.433619D-01  0.346687D+00
     18  0.000000D+00  0.000000D+00 -0.853835D-01  0.000000D+00  0.000000D+00
     19 -0.183789D+00  0.190966D+00  0.000000D+00 -0.715737D-01  0.413550D+00
     20  0.206044D+00  0.435827D+00  0.000000D+00  0.398187D+00 -0.155442D+00
     21  0.000000D+00  0.000000D+00 -0.201890D+00  0.000000D+00  0.000000D+00
     22  0.178281D-01 -0.194011D+00  0.000000D+00 -0.103951D+00 -0.386679D-01
     23 -0.813572D-01  0.467834D-01  0.000000D+00  0.174016D-01  0.103620D+00
     24  0.000000D+00  0.000000D+00 -0.888727D-01  0.000000D+00  0.000000D+00
     25 -0.309903D-02 -0.367583D-01  0.000000D+00  0.530633D-01 -0.132927D+00
     26 -0.859645D-02  0.308100D-01  0.000000D+00 -0.116899D+00  0.951840D-01
     27  0.000000D+00  0.000000D+00 -0.110970D-01  0.000000D+00  0.000000D+00
     28  0.100991D+00  0.699360D-01  0.000000D+00 -0.172955D+00 -0.161803D-02
     29  0.432118D-02 -0.286427D-01  0.000000D+00 -0.387608D-01  0.141441D+00
     30  0.000000D+00  0.000000D+00 -0.334191D-01  0.000000D+00  0.000000D+00
     31 -0.575982D-02  0.301765D-02  0.000000D+00 -0.933049D-02  0.179368D-03
     32  0.127497D-01  0.380173D-01  0.000000D+00 -0.458304D-02  0.233615D-01
     33  0.000000D+00  0.000000D+00 -0.918361D-02  0.000000D+00  0.000000D+00
     34 -0.232153D+01 -0.157904D+01  0.000000D+00  0.596613D-01  0.117304D+00
     35 -0.186568D+01 -0.365682D+01  0.000000D+00  0.298398D+00  0.140355D+00
     36  0.000000D+00  0.000000D+00 -0.471107D+01  0.000000D+00  0.000000D+00
                6             7             8             9            10 
      6  0.291987D+02
      7  0.000000D+00  0.127750D+02
      8  0.000000D+00  0.141917D+01  0.927834D+01
      9 -0.886284D+01  0.000000D+00  0.000000D+00  0.240230D+02
     10  0.000000D+00 -0.850044D+01  0.288408D+00  0.000000D+00  0.120231D+02
     11  0.000000D+00  0.655308D+00 -0.475826D+00  0.000000D+00 -0.126928D+01
     12 -0.192633D+00  0.000000D+00  0.000000D+00 -0.105434D+02  0.000000D+00
     13  0.000000D+00  0.310047D+00 -0.296374D+00  0.000000D+00  0.137239D+00
     14  0.000000D+00 -0.263653D+00 -0.291437D+00  0.000000D+00 -0.162048D+00
     15 -0.833885D+01  0.000000D+00  0.000000D+00 -0.224149D+00  0.000000D+00
     16  0.000000D+00 -0.652667D-01  0.350754D+00  0.000000D+00 -0.210259D+01
     17  0.000000D+00  0.340945D+00  0.283536D+00  0.000000D+00  0.306987D+01
     18 -0.272490D-01  0.000000D+00  0.000000D+00 -0.190033D+00  0.000000D+00
     19  0.000000D+00  0.299699D+00  0.329899D+00  0.000000D+00  0.558144D+00
     20  0.000000D+00  0.293131D+00  0.177985D-01  0.000000D+00 -0.280519D-01
     21 -0.343190D+00  0.000000D+00  0.000000D+00  0.769209D-01  0.000000D+00
     22  0.000000D+00 -0.203339D+01  0.132674D+01  0.000000D+00  0.846541D-01
     23  0.000000D+00  0.119556D+01 -0.354974D+01  0.000000D+00 -0.811351D-01
     24  0.813630D-01  0.000000D+00  0.000000D+00 -0.413689D+01  0.000000D+00
     25  0.000000D+00  0.818257D-01  0.619172D-01  0.000000D+00 -0.207182D+01
     26  0.000000D+00  0.101740D+00 -0.741546D-01  0.000000D+00 -0.127734D+01
     27 -0.404163D-01  0.000000D+00  0.000000D+00  0.945785D-01  0.000000D+00
     28  0.000000D+00  0.145201D+00 -0.458480D-01  0.000000D+00  0.241818D-01
     29  0.000000D+00 -0.592293D-01 -0.285476D-01  0.000000D+00 -0.225269D-01
     30  0.120151D+00  0.000000D+00  0.000000D+00 -0.348242D-01  0.000000D+00
     31  0.000000D+00 -0.193234D-01  0.560675D-01  0.000000D+00  0.227986D-01
     32  0.000000D+00  0.739972D-01  0.146210D+00  0.000000D+00 -0.933385D-01
     33 -0.653424D-02  0.000000D+00  0.000000D+00 -0.328622D-01  0.000000D+00
     34  0.000000D+00  0.815904D-01 -0.147725D+00  0.000000D+00  0.103037D-02
     35  0.000000D+00 -0.164850D+00  0.103171D+00  0.000000D+00 -0.828769D-02
     36  0.232100D+00  0.000000D+00  0.000000D+00 -0.485505D-01  0.000000D+00
               11            12            13            14            15 
     11  0.956929D+01
     12  0.000000D+00  0.239779D+02
     13 -0.107027D+00  0.000000D+00  0.110310D+02
     14 -0.138470D+00  0.000000D+00 -0.150586D+01  0.837871D+01
     15  0.000000D+00  0.339838D-01  0.000000D+00  0.000000D+00  0.231120D+02
     16  0.272560D+01  0.000000D+00 -0.973276D-01 -0.454458D+00  0.000000D+00
     17 -0.601985D+01  0.000000D+00 -0.325938D+00  0.362139D+00  0.000000D+00
     18  0.000000D+00 -0.906036D+01  0.000000D+00  0.000000D+00 -0.185369D+00
     19 -0.809202D-01  0.000000D+00 -0.817106D+01  0.385151D+00  0.000000D+00
     20 -0.359763D+00  0.000000D+00 -0.130441D+00  0.489922D+00  0.000000D+00
     21  0.000000D+00 -0.265937D+00  0.000000D+00  0.000000D+00 -0.104438D+02
     22 -0.562177D-01  0.000000D+00  0.252689D+00  0.391896D-01  0.000000D+00
     23 -0.356355D-01  0.000000D+00  0.652883D-01 -0.718991D-01  0.000000D+00
     24  0.000000D+00  0.917563D-01  0.000000D+00  0.000000D+00 -0.643504D-01
     25 -0.124415D+01  0.000000D+00 -0.544172D-02 -0.121261D-01  0.000000D+00
     26 -0.327190D+01  0.000000D+00  0.116966D-02  0.341353D-02  0.000000D+00
     27  0.000000D+00 -0.398631D+01  0.000000D+00  0.000000D+00 -0.474319D-02
     28 -0.265219D-01  0.000000D+00 -0.194373D+01 -0.126070D+01  0.000000D+00
     29  0.388324D-02  0.000000D+00 -0.121353D+01 -0.341407D+01  0.000000D+00
     30  0.000000D+00 -0.102641D-01  0.000000D+00  0.000000D+00 -0.405923D+01
     31 -0.116890D+00  0.000000D+00 -0.328105D-01 -0.447423D-01  0.000000D+00
     32 -0.359689D-03  0.000000D+00 -0.629549D-01  0.173861D+00  0.000000D+00
     33  0.000000D+00  0.911439D-01  0.000000D+00  0.000000D+00 -0.374739D-01
     34 -0.240994D-01  0.000000D+00  0.523473D-01  0.685027D-03  0.000000D+00
     35  0.238878D-01  0.000000D+00  0.148475D-01 -0.264000D+00  0.000000D+00
     36  0.000000D+00 -0.103548D-01  0.000000D+00  0.000000D+00  0.271400D-01
               16            17            18            19            20 
     16  0.908380D+01
     17  0.388029D+00  0.115496D+02
     18  0.000000D+00  0.000000D+00  0.230202D+02
     19 -0.258764D+01 -0.378914D+01  0.000000D+00  0.994752D+01
     20 -0.325288D+01 -0.573065D+01  0.000000D+00  0.247554D+01  0.530102D+01
     21  0.000000D+00  0.000000D+00 -0.961260D+01  0.000000D+00  0.000000D+00
     22  0.693924D-01  0.144680D+00  0.000000D+00 -0.573336D-02  0.388251D-02
     23  0.113835D+00  0.748212D-01  0.000000D+00  0.151606D-02  0.555787D-02
     24  0.000000D+00  0.000000D+00 -0.435647D-01  0.000000D+00  0.000000D+00
     25 -0.107445D+00 -0.614988D-02  0.000000D+00  0.188199D+00 -0.529510D-01
     26 -0.246377D-01  0.125191D+00  0.000000D+00 -0.940381D-01 -0.355086D-01
     27  0.000000D+00  0.000000D+00  0.103153D+00  0.000000D+00  0.000000D+00
     28  0.423255D-01 -0.102906D+00  0.000000D+00  0.595142D-01 -0.189274D-01
     29 -0.832618D-01  0.713837D-01  0.000000D+00  0.514876D-01 -0.101493D+00
     30  0.000000D+00  0.000000D+00 -0.283940D-01  0.000000D+00  0.000000D+00
     31 -0.394898D+01  0.184916D+00  0.000000D+00  0.137971D-01  0.128484D+00
     32  0.194736D+00 -0.124078D+01  0.000000D+00  0.776831D-01 -0.531108D-01
     33  0.000000D+00  0.000000D+00 -0.388515D+01  0.000000D+00  0.000000D+00
     34 -0.125078D-03 -0.146816D-01  0.000000D+00 -0.470862D-01 -0.220109D-01
     35 -0.469073D-02  0.980096D-02  0.000000D+00  0.383040D-01  0.185841D+00
     36  0.000000D+00  0.000000D+00 -0.522161D-02  0.000000D+00  0.000000D+00
               21            22            23            24            25 
     21  0.207825D+02
     22  0.000000D+00  0.169412D+01
     23  0.000000D+00 -0.123842D+01  0.347305D+01
     24  0.940419D-03  0.000000D+00  0.000000D+00  0.415303D+01
     25  0.000000D+00  0.515558D-02 -0.937330D-02  0.000000D+00  0.186299D+01
     26  0.000000D+00  0.502908D-02 -0.463658D-01  0.000000D+00  0.144701D+01
     27 -0.449767D-01  0.000000D+00  0.000000D+00  0.845175D-02  0.000000D+00
     28  0.000000D+00  0.133499D-01  0.587294D-02  0.000000D+00  0.119580D-01
     29  0.000000D+00 -0.699959D-02 -0.267143D-02  0.000000D+00 -0.769602D-02
     30  0.233276D-01  0.000000D+00  0.000000D+00 -0.136132D-02  0.000000D+00
     31  0.000000D+00  0.203445D-02  0.144742D-02  0.000000D+00 -0.216548D-01
     32  0.000000D+00  0.148752D-01  0.924530D-02  0.000000D+00  0.148473D-03
     33  0.657133D-01  0.000000D+00  0.000000D+00 -0.166439D-02  0.000000D+00
     34  0.000000D+00  0.385186D-02  0.937104D-02  0.000000D+00  0.626319D-02
     35  0.000000D+00 -0.763913D-04 -0.676910D-02  0.000000D+00 -0.693782D-02
     36 -0.369915D-01  0.000000D+00  0.000000D+00  0.116994D-02  0.000000D+00
               26            27            28            29            30 
     26  0.317237D+01
     27  0.000000D+00  0.388240D+01
     28 -0.823774D-02  0.000000D+00  0.172780D+01
     29  0.391117D-02  0.000000D+00  0.136094D+01  0.333544D+01
     30  0.000000D+00 -0.182358D-02  0.000000D+00  0.000000D+00  0.404395D+01
     31 -0.194054D-01  0.000000D+00  0.422982D-03 -0.479467D-03  0.000000D+00
     32 -0.794889D-02  0.000000D+00 -0.141080D-01  0.102019D-01  0.000000D+00
     33  0.000000D+00  0.222348D-02  0.000000D+00  0.000000D+00 -0.281087D-02
     34 -0.578537D-02  0.000000D+00 -0.906510D-02  0.157388D-01  0.000000D+00
     35  0.499849D-02  0.000000D+00  0.421197D-01  0.917123D-02  0.000000D+00
     36  0.000000D+00 -0.144419D-02  0.000000D+00  0.000000D+00 -0.153073D-01
               31            32            33            34            35 
     31  0.399937D+01
     32 -0.192572D+00  0.893852D+00
     33  0.000000D+00  0.000000D+00  0.381633D+01
     34 -0.563835D-03 -0.663316D-02  0.000000D+00  0.217363D+01
     35 -0.227668D-04  0.744676D-02  0.000000D+00  0.165687D+01  0.344292D+01
     36  0.000000D+00  0.000000D+00  0.269734D-03  0.000000D+00  0.000000D+00
               36 
     36  0.456826D+01
 Leave Link  701 at Mon Mar  2 00:53:09 2020, MaxMem=  1879048192 cpu:              54.9 elap:               1.6
 (Enter /opt/g16/l702.exe)
 L702 exits ... SP integral derivatives will be done elsewhere.
 Leave Link  702 at Mon Mar  2 00:53:09 2020, MaxMem=  1879048192 cpu:               2.5 elap:               0.1
 (Enter /opt/g16/l703.exe)
 Integral derivatives from FoFJK, PRISM(SPDF).
 Compute integral second derivatives, UseDBF=F ICtDFT=           0.
 ICntrl=    100127.
 Calling FoFJK, ICntrl=    100127 FMM=F ISym2X=1 I1Cent= 0 IOpClX= 1 NMat=1 NMatS=1 NMatT=0.
 FoFJK:  IHMeth= 1 ICntrl=  100127 DoSepK=T KAlg= 0 I1Cent=           0 FoldK=F
 IRaf=         1 NMat=       1 IRICut=       1 DoRegI=T DoRafI=F ISym2E= 1 IDoP0=0 IntGTp=1.
 FoFCou: FMM=F IPFlag=           0 FMFlag=      100000 FMFlg1=         800
         NFxFlg=           0 DoJE=F BraDBF=F KetDBF=F FulRan=T
         wScrn=  0.000000 ICntrl=    100527 IOpCl=  0 I1Cent=           0 NGrid=           0
         NMat0=    1 NMatS0=      1 NMatT0=    0 NMatD0=    1 NMtDS0=    0 NMtDT0=    0
[...]
     36  0.231088D-04 -0.561647D-03  0.143880D-04  0.595005D-04 -0.181549D-03
               31            32            33            34            35 
     31  0.330479D+00
     32  0.957405D-01  0.886741D-01
     33 -0.721468D-02 -0.126729D-02  0.226467D-01
     34  0.520856D-04 -0.762969D-04  0.234281D-04  0.234839D+00
     35  0.559688D-04  0.279432D-04 -0.238843D-04 -0.189514D+00  0.248601D+00
     36  0.269653D-04 -0.196869D-04  0.853255D-03 -0.119876D-01  0.122133D-01
               36 
     36  0.175026D-01
 Final forces over variables, Energy=-2.86262051D+02:
  4.02219204D-06 5.62570777D-06 3.57048287D-06-5.54535561D-06
 -2.28881752D-05-2.69763745D-05 4.27840569D-05 1.18392284D-05
 -8.40640922D-06 8.10095527D-06-2.35157428D-06-9.77473420D-06
 -3.47653306D-06-1.70759983D-05-3.32578852D-05 2.97807039D-06
  3.27769310D-05-5.42721070D-06 1.56881926D-05 7.74959830D-06
  6.11849365D-06-6.76369403D-06-2.47164211D-06 3.16167761D-06
 -2.20614469D-07-6.35190069D-07-1.00271906D-06 2.55620855D-07
  1.60289276D-06 7.10940382D-07-9.38179782D-07-1.68464447D-07
  4.30398721D-07-4.37959837D-07 8.52700731D-09 3.94747929D-07
 Leave Link  716 at Mon Mar  2 00:54:44 2020, MaxMem=  1879048192 cpu:              11.4 elap:               0.3
 (Enter /opt/g16/l103.exe)

 GradGradGradGradGradGradGradGradGradGradGradGradGradGradGradGradGradGrad
 Berny optimization.
 Search for a local minimum.
 Step number   1 out of a maximum of    2
 All quantities printed in internal units (Hartrees-Bohrs-Radians)
 Second derivative matrix not updated -- analytic derivatives used.
 ITU=  0
     Eigenvalues ---    0.00562   0.01533   0.02259   0.02540   0.03112
     Eigenvalues ---    0.04940   0.05212   0.05918   0.05956   0.07796
     Eigenvalues ---    0.08391   0.09749   0.12009   0.15600   0.17809
     Eigenvalues ---    0.20277   0.20596   0.27924   0.28658   0.39660
     Eigenvalues ---    0.50337   0.68750   0.69221   0.75220   0.81433
     Eigenvalues ---    0.95558   1.01741   1.10959   1.12709   1.26216
 Angle between quadratic step and forces=  53.90 degrees.
 ClnCor:  largest displacement from symmetrization is 2.51D-15 for atom    12.
 Linear search not attempted -- first point.
 ClnCor:  largest displacement from symmetrization is 2.22D-15 for atom     9.
 B after Tr=    -0.000001    0.000009    0.000000
         Rot=    1.000000   -0.000000    0.000000   -0.000001 Ang=  -0.00 deg.
 Variable       Old X    -DE/DX   Delta X   Delta X   Delta X     New X
                                 (Linear)    (Quad)   (Total)
    X1        4.24772   0.00000   0.00000   0.00002   0.00002   4.24774
    Y1        1.37076  -0.00000   0.00000   0.00001   0.00003   1.37079
    Z1       -0.09814  -0.00000   0.00000  -0.00000   0.00000  -0.09814
    X2        1.92753   0.00001   0.00000   0.00003   0.00003   1.92756
    Y2        0.42675  -0.00002   0.00000  -0.00002  -0.00001   0.42674
    Z2       -0.04976  -0.00000   0.00000  -0.00000  -0.00000  -0.04976
    X3       -0.15037   0.00000   0.00000  -0.00000  -0.00001  -0.15038
    Y3        2.14374  -0.00003   0.00000  -0.00011  -0.00010   2.14364
    Z3        0.06210  -0.00000   0.00000  -0.00000  -0.00000   0.06210
    X4       -2.60831  -0.00001   0.00000  -0.00007  -0.00008  -2.60838
    Y4        1.30730   0.00000   0.00000   0.00000   0.00001   1.30731
    Z4        0.11773   0.00000   0.00000   0.00000   0.00000   0.11774
    X5        1.35406  -0.00002   0.00000   0.00003   0.00003   1.35409
    Y5       -2.23239   0.00003   0.00000   0.00008   0.00009  -2.23229
    Z5       -0.10267   0.00000   0.00000   0.00000   0.00000  -0.10267
    X6       -3.14885  -0.00003   0.00000  -0.00009  -0.00009  -3.14894
    Y6       -1.28699  -0.00001   0.00000  -0.00001  -0.00001  -1.28700
    Z6        0.06551   0.00000   0.00000   0.00000   0.00000   0.06551
    X7       -1.10954   0.00004   0.00000   0.00007   0.00007  -1.10946
    Y7       -2.90202   0.00002   0.00000   0.00012   0.00013  -2.90189
    Z7       -0.04240  -0.00000   0.00000   0.00000   0.00000  -0.04240
    X8        0.29349   0.00001   0.00000   0.00017   0.00017   0.29365
    Y8        4.13884   0.00001   0.00000  -0.00011  -0.00010   4.13873
    Z8        0.10137  -0.00000   0.00000  -0.00001  -0.00001   0.10136
    X9       -4.14802  -0.00001   0.00000  -0.00005  -0.00005  -4.14808
    Y9        2.65306   0.00001   0.00000   0.00007   0.00008   2.65314
    Z9        0.20259   0.00000   0.00000   0.00000   0.00000   0.20259
   X10        2.88070   0.00001   0.00000   0.00001   0.00001   2.88071
   Y10       -3.59592  -0.00001   0.00000   0.00001   0.00002  -3.59590
   Z10       -0.18758  -0.00000   0.00000   0.00000   0.00000  -0.18758
   X11       -5.07759  -0.00000   0.00000  -0.00005  -0.00005  -5.07764
   Y11       -1.96540  -0.00000   0.00000  -0.00013  -0.00013  -1.96553
   Z11        0.10857   0.00000   0.00000  -0.00000  -0.00000   0.10857
   X12        5.53919  -0.00001   0.00000  -0.00005  -0.00005   5.53913
   Y12       -0.05773   0.00000   0.00000  -0.00003  -0.00001  -0.05775
   Z12       -0.17733   0.00000   0.00000   0.00000   0.00000  -0.17733
         Item               Value     Threshold  Converged?
 Maximum Force            0.000043     0.000450     YES
 RMS     Force            0.000013     0.000300     YES
 Maximum Displacement     0.000166     0.001800     YES
 RMS     Displacement     0.000059     0.001200     YES
 Predicted change in Energy=-8.532041D-09
 Optimization completed.
    -- Stationary point found.
 GradGradGradGradGradGradGradGradGradGradGradGradGradGradGradGradGradGrad

 Leave Link  103 at Mon Mar  2 00:54:44 2020, MaxMem=  1879048192 cpu:              15.2 elap:               0.5
 (Enter /opt/g16/l9999.exe)

 ----------------------------------------------------------------------

 Electric dipole moment (input orientation):
 (Debye = 10**-18 statcoulomb cm , SI units = C m)
                  (au)            (Debye)         (10**-30 SI)
   Tot        0.652348D+00      0.165810D+01      0.553084D+01
   x         -0.536835D+00     -0.136450D+01     -0.455147D+01
   y         -0.370562D+00     -0.941874D+00     -0.314175D+01
   z          0.712625D-02      0.181131D-01      0.604189D-01

 Dipole polarizability, Alpha (input orientation).
 (esu units = cm**3 , SI units = C**2 m**2 J**-1)
 Alpha(0;0):
               (au)            (10**-24 esu)      (10**-40 SI)
   iso        0.756737D+02      0.112137D+02      0.124769D+02
   aniso      0.575729D+02      0.853142D+01      0.949249D+01
   xx         0.106543D+03      0.157881D+02      0.175666D+02
   yx         0.613677D+01      0.909376D+00      0.101182D+01
   yy         0.789006D+02      0.116919D+02      0.130089D+02
   zx        -0.190015D+01     -0.281573D+00     -0.313292D+00
   zy         0.805578D+00      0.119374D+00      0.132822D+00
   zz         0.415771D+02      0.616109D+01      0.685514D+01

 ----------------------------------------------------------------------

 Dipole orientation:
     7          0.68760394         -1.08668812         -4.27528618
     6          0.39801790         -0.62902681         -1.82917481
     6         -0.98981148          1.56429651         -1.09330739
     6         -1.36864549          2.16300517          1.40512632
     6          1.39476917         -2.20429090          0.15267475
     6         -0.39044452          0.61705794          3.32305665
     6          0.94075221         -1.48676323          2.56107363
     1         -1.73351948          2.73965143         -2.59144738
     1         -2.42938137          3.83939044          1.90868110
     1          2.45935683         -3.88676352         -0.33001679
     1         -0.67800104          1.07151179          5.29610276
     1          1.70930752         -2.70138681         -4.52748674

 Electric dipole moment (dipole orientation):
 (Debye = 10**-18 statcoulomb cm , SI units = C m)
                  (au)            (Debye)         (10**-30 SI)
   Tot        0.652348D+00      0.165810D+01      0.553084D+01
   x          0.000000D+00      0.000000D+00      0.000000D+00
   y          0.000000D+00      0.000000D+00      0.000000D+00
   z          0.652348D+00      0.165810D+01      0.553084D+01

 Dipole polarizability, Alpha (dipole orientation).
 (esu units = cm**3 , SI units = C**2 m**2 J**-1)
 Alpha(0;0):
               (au)            (10**-24 esu)      (10**-40 SI)
   iso        0.756737D+02      0.112137D+02      0.124769D+02
   aniso      0.575729D+02      0.853142D+01      0.949249D+01
   xx         0.531182D+02      0.787130D+01      0.875800D+01
   yx        -0.183688D+02     -0.272197D+01     -0.302860D+01
   yy         0.705253D+02      0.104508D+02      0.116280D+02
   zx        -0.576108D+01     -0.853704D+00     -0.949874D+00
   zy         0.910480D+01      0.134919D+01      0.150118D+01
   zz         0.103378D+03      0.153190D+02      0.170446D+02

 ----------------------------------------------------------------------

 Test job not archived.
 1\1\GINC-NODE06\Freq\UwB97XD\def2TZVP\C6H5N1(3)\ALONGD\02-Mar-2020\0\\
 #P guess=read uwb97xd/def2tzvp freq iop(7/33=1) scf=(tight, direct) in
 tegral=(grid=ultrafine, Acc2E=12) scf=xqc iop(2/9=2000)\\name\\0,3\N,2
 .247798002,0.7253749983,-0.0519339376\C,1.0200060001,0.2258279999,-0.0
 263299962\C,-0.0795750052,1.1344160043,0.0328628376\C,-1.3802559926,0.
 6917949937,0.062302234\C,0.7165399963,-1.1813289969,-0.0543311175\C,-1
 .6663010016,-0.6810469987,0.0346659497\C,-0.5871409992,-1.5356820006,-
 0.0224359763\H,0.1553070037,2.1901779969,0.0536431157\H,-2.1950400089,
 1.4039390075,0.1072037205\H,1.5244010166,-1.902880014,-0.0992644772\H,
 -2.6869460036,-1.040044997,0.0574548866\H,2.9312109914,-0.0305499928,-
 0.0938372702\\Version=ES64L-G16RevB.01\State=3-A"\HF=-286.2620508\S2=2
 .041438\S2-1=0.\S2A=2.000641\RMSD=4.984e-09\RMSF=1.342e-05\ZeroPoint=0
 .0914207\Thermal=0.096716\Dipole=-0.5368346,-0.3705616,0.0071262\Dipol
 eDeriv=-0.1895432,-0.0946697,-0.0103472,-0.1452391,-0.160422,0.011974,
 -0.0116995,0.0103692,-0.4351704,-0.2374276,-0.0303711,0.0094684,-0.036
 3471,0.1632383,0.0032049,0.0093085,0.0030152,0.086314,0.0875033,0.1821
 206,-0.0013922,0.0365459,0.0537416,0.0032149,-0.0052853,-0.0014048,-0.
 109712,0.033801,-0.161551,-0.0094861,-0.1487618,-0.0537047,0.006734,-0
 .0091441,0.0071398,-0.1284997,0.1872542,-0.0632375,-0.0092885,0.010828
 ,-0.1250188,-0.0022923,-0.0073078,0.0000581,-0.0519168,0.1599745,0.001
 1479,-0.0065822,-0.0396709,0.0483473,0.0038464,-0.0076738,0.0025511,-0
 .0480952,-0.3175143,0.0333143,0.0068462,0.0386994,-0.0875705,-0.000097
 3,0.0069902,0.0000736,-0.1300749,0.0672461,-0.0307861,0.0014251,-0.007
 128,-0.014128,-0.0038447,0.0020578,-0.003094,0.1379492,-0.0082834,0.05
 97013,0.0060153,0.0847026,0.0035012,-0.0060965,0.0066839,-0.0053031,0.
 1306022,-0.0046102,0.0649022,0.0070107,0.0342225,0.0562253,-0.0039045,
 0.0061903,-0.0048781,0.1612885,-0.013859,-0.033915,0.0041444,-0.031404
 1,0.0869359,-0.0005647,0.0042116,-0.0004851,0.1451726,0.2354586,0.0733
 44,0.0021861,0.2035526,0.0288543,-0.0121741,0.0056682,-0.008042,0.2421
 426\Polar=106.5432879,6.1367737,78.9005623,-1.9001459,0.8055782,41.577
 1239\Quadrupole=2.8637249,-0.4890601,-2.3746649,-4.7110197,-0.2926883,
 0.2003197\PG=CS [SG(C6H5N1)]\NImag=0\\0.58611879,-0.08167575,0.3995914
 7,-0.01933090,0.01205330,0.04673734,-0.27345950,-0.03706030,0.00620954
 ,0.58537818,-0.09845705,-0.13132801,0.00085744,-0.02605516,0.59295381,
 0.00456761,-0.00109095,-0.04673054,-0.01426664,0.01246487,0.15855769,-
 0.10046114,0.00117625,0.00320303,-0.12309708,0.08845070,0.00399263,0.6
 6496534,0.01564938,0.02571248,0.00020491,0.07020166,-0.21063304,-0.005
 94003,0.06924291,0.71684226,0.00359008,0.00066421,-0.00061619,0.003504
 60,-0.00651915,-0.07210704,-0.01492212,0.01332545,0.13722483,0.0150256
 4,0.01116025,0.00006936,-0.06877089,0.01625339,0.00265262,-0.33211835,
 -0.09761481,0.00598004,0.70884044,0.02398853,0.00556212,-0.00082128,-0
 .02695356,0.03609062,0.00179056,-0.01639132,-0.15231005,-0.00191057,-0
 .06188400,0.64378564,0.00041243,-0.00041419,0.00778233,0.00149714,0.00
 041942,0.00108396,0.00815219,0.00066702,-0.06165817,-0.01997179,0.0156
 5986,0.13270178,-0.04879160,-0.05557216,0.00069097,-0.06489564,0.03287
 701,0.00073714,0.03021395,0.02102295,-0.00017158,-0.02816265,-0.033176
 70,-0.00006863,0.74239100,-0.06431521,-0.03696143,0.00052269,0.0324884
 5,-0.21959996,-0.00504850,0.01490686,-0.02474850,-0.00132454,-0.022757
 60,-0.01995418,0.00025187,-0.06920877,0.55251397,0.00045716,0.00024523
 ,0.01980528,0.00072675,-0.00506083,-0.06953146,-0.00033514,-0.00151863
 ,0.00706109,0.00021000,0.00058251,-0.00235817,-0.02164283,0.01379733,0
 .11977123,-0.01797757,-0.00438750,0.00043435,0.02285944,0.02347333,-0.
 00025803,0.00582987,-0.03053232,-0.00078708,-0.12935614,-0.07845665,0.
 00011166,-0.06976299,0.00144575,0.00238369,0.72350384,-0.00179285,-0.0
 0179893,0.00002465,0.02198249,-0.04036942,-0.00164207,-0.09680342,-0.0
 1793237,0.00241172,0.02570849,-0.27330927,-0.00652780,0.05085156,0.053
 48131,-0.00029402,0.03539763,0.56413242,0.00050374,0.00010698,-0.00060
 613,-0.00029790,-0.00168938,-0.00508843,-0.00255936,0.00030864,0.00684
 706,0.00289733,-0.00322218,-0.05989969,0.00370495,0.00127385,0.0040489
 7,-0.01818568,0.01073760,0.12147973,0.03612550,0.01003152,-0.00081700,
 -0.05784161,-0.08704088,-0.00008921,-0.05331689,-0.00323863,0.00147991
 ,0.05611184,0.08034442,0.00079141,-0.34907195,-0.04230896,0.00845703,-
 0.22305819,0.06789266,0.00732452,0.62815071,-0.00848669,-0.01073745,-0
 .00006937,-0.02779569,0.00404951,0.00065081,0.01061114,-0.00317760,-0.
 00031599,0.01787442,-0.05100803,-0.00228818,-0.08830676,-0.12423613,0.
 00073481,0.12219418,-0.18192156,-0.00742002,-0.03744015,0.35082872,-0.
 00131223,-0.00065703,0.00195115,0.00149517,0.00253093,0.01271751,0.001
 85029,0.00012353,-0.00400901,-0.00087922,-0.00427063,0.01325715,0.0072
 2692,-0.00072490,-0.04717251,0.00877669,-0.00569680,-0.04989617,-0.018
 83014,0.00879631,0.06716822,0.00193961,-0.00028783,-0.00017564,0.00780
 361,0.02379840,0.00055230,-0.07066144,-0.06002406,-0.00052809,-0.00050
 607,-0.02919260,-0.00061414,-0.00322173,0.00305583,0.00030623,-0.00493
 809,-0.00175832,0.00033904,-0.00165014,0.00054368,0.00003463,0.0700137
 2,-0.00207056,0.00124733,0.00018872,-0.00657538,-0.01626296,-0.0003640
 4,-0.05878113,-0.33485235,-0.00610755,0.00137987,-0.00315785,-0.000255
 07,0.00290268,-0.00153510,-0.00023620,-0.00121700,0.00126359,-0.000120
 87,0.00072841,0.00064954,0.00002146,0.06425056,0.35241145,-0.00022332,
 0.00013215,-0.00334203,-0.00025998,-0.00132794,0.00512507,-0.00049485,
 -0.00606811,-0.03686601,0.00020346,0.00071513,0.00475512,0.00030213,-0
 .00024106,0.00383671,0.00035352,-0.00010369,0.00721339,0.00003957,0.00
 002732,-0.00101770,0.00027950,0.00672562,0.02484759,-0.00094453,0.0012
 6208,0.00006749,-0.00270126,-0.00398763,0.00024360,-0.01714725,0.02212
 024,0.00126377,-0.21923773,0.13930844,0.00946431,-0.00039301,-0.000283
 06,-0.00001346,0.00774451,-0.00715811,-0.00029782,0.00145858,-0.001530
 61,0.00008677,0.00079754,-0.00039863,-0.00018312,0.23034977,-0.0003331
 5,0.00070258,0.00002619,-0.00202837,-0.00058648,-0.00017422,-0.0094815
 2,0.01109627,0.00048973,0.14028282,-0.18133161,-0.00827421,-0.00151383
 ,0.00089511,0.00008745,0.02358722,-0.01554870,-0.00128180,-0.00041572,
 -0.00629655,-0.00030182,0.00032703,0.00067393,0.00013165,-0.15001165,0
 .18925302,0.00002482,-0.00002443,0.00011703,0.00029599,-0.00011205,0.0
 0832283,0.00041864,-0.00051313,0.00400797,0.00949037,-0.00824329,-0.03
 892102,-0.00004637,0.00004839,-0.00057584,0.00052440,-0.00030611,0.004
 36709,0.00011659,-0.00026644,0.00547186,-0.00016371,0.00015467,-0.0046
 2749,-0.01050210,0.00913097,0.02640638,0.00204046,-0.00057124,-0.00012
 909,0.00585661,-0.00656498,-0.00022720,0.00050063,-0.00163105,0.000058
 99,-0.00012005,-0.00080966,0.00002142,-0.20873200,0.14344771,0.0093970
 0,-0.00429755,-0.00122999,0.00029496,-0.01932261,0.01729445,0.00110497
 ,0.00037163,-0.00018812,-0.00001551,-0.00001344,0.00010675,-0.00001375
 ,0.22440971,0.00187765,0.00303203,0.00006284,0.02363849,-0.01602685,-0
 .00129187,-0.00237282,-0.00493902,-0.00015664,-0.00062258,-0.00060975,
 -0.00002963,0.13897621,-0.18018225,-0.00833296,-0.00359156,0.00004008,
 -0.00004631,-0.00573108,0.01089019,0.00044844,0.00123732,-0.00077310,-
 0.00006105,0.00006614,-0.00000481,0.00001212,-0.15113614,0.18851169,-0
 .00006360,0.00014056,-0.00154026,0.00058053,-0.00033338,0.00420222,0.0
 0003915,-0.00018018,0.00372796,0.00002642,-0.00002370,0.00123564,0.009
 27742,-0.00847486,-0.03402390,0.00023181,-0.00012126,0.00602316,0.0004
 8920,-0.00028226,0.00089930,0.00002261,-0.00001581,0.00004027,-0.00001
 483,0.00001083,-0.00053582,-0.01050241,0.00928061,0.02140791,0.0000781
 0,-0.00013745,-0.00007109,0.00034610,0.00076261,0.00007113,0.00170195,
 -0.00088919,0.00011916,-0.00129287,0.00086235,0.00020331,-0.00202792,0
 .00213074,0.00029298,-0.31040257,-0.09286473,0.00627421,-0.01884108,-0
 .00512434,0.00046209,-0.00016507,0.00008045,0.00000499,0.00057405,-0.0
 0025812,-0.00013551,-0.00050133,-0.00035878,-0.00003356,0.33047856,-0.
 00010346,0.00014897,0.00006199,0.00021067,-0.00118991,-0.00009051,-0.0
 0042288,-0.00560756,-0.00030252,-0.02984362,-0.00391764,0.00072498,0.0
 0471887,-0.00228526,-0.00035551,-0.08764666,-0.08779064,0.00135453,0.0
 1737543,0.01063680,-0.00026797,-0.00131299,-0.00022497,0.00003767,0.00
 060502,0.00115572,0.00010473,0.00075541,0.00037249,0.00001959,0.095740
 50,0.08867405,-0.00007018,0.00006307,-0.00204225,0.00005637,-0.0001080
 3,0.00194006,0.00013164,-0.00028772,0.00619447,-0.00061785,-0.00024946
 ,0.00440010,0.00036219,-0.00027337,0.00538983,0.00641375,0.00152012,-0
 .03459766,0.00106380,0.00044605,0.00001653,-0.00003228,-0.00000655,-0.
 00007480,-0.00011242,0.00013212,-0.00347134,-0.00000376,0.00005495,-0.
 00125492,-0.00721468,-0.00126729,0.02264672,-0.19969376,0.15606214,0.0
 0984898,-0.03147796,0.03649025,0.00202406,-0.00640958,-0.00430706,0.00
 041232,-0.00041316,0.00236075,0.00000069,0.00245456,0.00139826,-0.0002
 3942,-0.00014455,-0.00022541,0.00000201,0.00125584,0.00016637,-0.00001
 594,0.00021642,-0.00011115,-0.00000639,-0.00048722,-0.00026145,-0.0000
 0938,-0.00019206,-0.00198282,-0.00005273,0.00005209,-0.00007630,0.0000
 2343,0.23483938,0.21571917,-0.25517115,-0.01311208,-0.02205330,0.00290
 269,0.00073595,-0.00013478,0.00054949,-0.00025415,0.00006339,0.0001600
 0,0.00006594,-0.00357106,0.00261243,0.00035082,-0.00026643,-0.00024651
 ,-0.00000105,-0.00019702,0.00032256,-0.00000152,-0.00063703,0.00056050
 ,0.00003230,0.00000777,-0.00000848,0.00001457,0.00052689,-0.00031068,-
 0.00002014,0.00005597,0.00002794,-0.00002388,-0.18951356,0.24860121,0.
 01144438,-0.01121890,-0.02151573,0.00045844,-0.00112189,0.00150813,0.0
 0052390,-0.00012175,0.01019304,-0.00006075,-0.00000697,-0.00237904,-0.
 00037231,0.00019312,-0.00625125,0.00000091,-0.00000235,0.00010868,-0.0
 0002566,-0.00001305,0.00061367,-0.00002045,0.00001561,0.00010987,-0.00
 000218,0.00002311,-0.00056165,0.00001439,0.00005950,-0.00018155,0.0000
 2697,-0.00001969,0.00085326,-0.01198764,0.01221326,0.01750257\\-0.0000
 0402,0.00000348,0.00000022,-0.00000563,0.00001708,0.00000064,-0.000003
 57,0.00003326,0.00000100,0.00000555,-0.00000298,-0.00000026,0.00002289
 ,-0.00003278,-0.00000160,0.00002698,0.00000543,-0.00000071,-0.00004278
 ,-0.00001569,0.00000094,-0.00001184,-0.00000775,0.00000017,0.00000841,
 -0.00000612,-0.00000043,-0.00000810,0.00000676,0.00000044,0.00000235,0
 .00000247,0.,0.00000977,-0.00000316,-0.00000039\\\@


 Discoveries are often made by not following instructions,
 by going off the main road, by trying the untried.
 -- Frank Tyger
 Job cpu time:       0 days  3 hours 31 minutes  9.5 seconds.
 Elapsed time:       0 days  0 hours  6 minutes 43.0 seconds.
 File lengths (MBytes):  RWF=    122 Int=      0 D2E=      0 Chk=      8 Scr=      1
 Normal termination of Gaussian 16 at Mon Mar  2 00:54:45 2020.
