      -----------------------------------------------------------      
     |                   =====================                   |     
     |                           x T B                           |     
     |                   =====================                   |     
     |                         S. Grimme                         |     
     |          Mulliken Center for Theoretical Chemistry        |     
     |                    University of Bonn                     |     
      -----------------------------------------------------------      

   * xtb version 6.3.3 (4ae9cef) compiled by 'conda@95abc7406d43' on 2020-10-14

   xtb is free software: you can redistribute it and/or modify it under
   the terms of the GNU Lesser General Public License as published by
   the Free Software Foundation, either version 3 of the License, or
   (at your option) any later version.
   
   xtb is distributed in the hope that it will be useful,
   but WITHOUT ANY WARRANTY; without even the implied warranty of
   MERCHANTABILITY or FITNESS FOR A PARTICULAR PURPOSE.  See the
   GNU Lesser General Public License for more details.
   
   Cite this work as:
   * C. Bannwarth, E. Caldeweyher, S. Ehlert, A. Hansen, P. Pracht,
     J. Seibert, S. Spicher, S. Grimme, WIREs Comput. Mol. Sci., 2020,
     e01493. DOI: 10.1002/wcms.1493
   
   for GFN2-xTB:
   * S. Grimme, C. Bannwarth, P. Shushkov, J. Chem. Theory Comput., 2017,
     13, 1989-2009. DOI: 10.1021/acs.jctc.7b00118
   for GFN1-xTB:
   * C. Bannwarth, S. Ehlert and S. Grimme., J. Chem. Theory Comput., 2019,
     15, 1652-1671. DOI: 10.1021/acs.jctc.8b01176
   for GFN0-xTB:
   * P. Pracht, E. Caldeweyher, S. Ehlert, S. Grimme, ChemRxiv, 2019, preprint.
     DOI: 10.26434/chemrxiv.8326202.v1
   for GFN-FF:
   * S. Spicher and S. Grimme, Angew. Chem. Int. Ed., 2020, 59, 15665-15673.
     DOI: 10.1002/anie.202004239
   
   for DFT-D4:
   * E. Caldeweyher, C. Bannwarth and S. Grimme, J. Chem. Phys., 2017,
     147, 034112. DOI: 10.1063/1.4993215
   * E. Caldeweyher, S. Ehlert, A. Hansen, H. Neugebauer, S. Spicher,
     C. Bannwarth and S. Grimme, J. Chem. Phys., 2019, 150, 154122.
     DOI: 10.1063/1.5090222
   * E. Caldeweyher, J.-M. Mewes, S. Ehlert and S. Grimme, Phys. Chem. Chem. Phys.
     2020, 22, 8499-8512. DOI: 10.1039/D0CP00502A
   
   for sTDA-xTB:
   * S. Grimme and C. Bannwarth, J. Chem. Phys., 2016, 145, 054103.
     DOI: 10.1063/1.4959605
   
   in the mass-spec context:
   * V. Asgeirsson, C. Bauer and S. Grimme, Chem. Sci., 2017, 8, 4879.
     DOI: 10.1039/c7sc00601b
   * J. Koopman and S. Grimme, ACS Omega 2019, 4, 12, 15120-15133.
     DOI: 10.1021/acsomega.9b02011
   
   for metadynamics refer to:
   * S. Grimme, J. Chem. Theory Comput., 2019, 155, 2847-2862
     DOI: 10.1021/acs.jctc.9b00143
   
   with help from (in alphabetical order)
   C. Bannwarth, F. Bohle, G. Brandenburg, E. Caldeweyher, M. Checinski,
   S. Dohm, S. Ehlert, S. Ehrlich, F. März, H. Neugebauer, J. Pisarek,
   P. Pracht, P. Shushkov, and S. Spicher.
   
 * started run on 2022/07/31 at 10:39:25.525     

           -------------------------------------------------
          |                Calculation Setup                |
           -------------------------------------------------

          program call               : /home/alon/anaconda3/envs/arc_env/bin/xtb mol.sdf --opt tight --gfn2 --parallel --uhf 1 --chrg 0
          coordinate file            : mol.sdf
          omp threads                :                    24
          number of atoms            :                    10
          number of electrons        :                    19
          charge                     :                     0
          spin                       :                   0.5
          first test random number   :      0.05869102754794

   ID    Z sym.   atoms
    1    6 C      1-3
    2    1 H      4-10

           -------------------------------------------------
          |                 G F N 2 - x T B                 |
           -------------------------------------------------

        Reference                      10.1021/acs.jctc.8b01176
      * Hamiltonian:
        H0-scaling (s, p, d)           1.850000    2.230000    2.230000
        zeta-weighting                 0.500000
      * Dispersion:
        s8                             2.700000
        a1                             0.520000
        a2                             5.000000
        s9                             5.000000
      * Repulsion:
        kExp                           1.500000    1.000000
        rExp                           1.000000
      * Coulomb:
        alpha                          2.000000
        third order                    shell-resolved
        anisotropic                    true
        a3                             3.000000
        a5                             4.000000
        cn-shift                       1.200000
        cn-exp                         4.000000
        max-rad                        5.000000


          ...................................................
          :                      SETUP                      :
          :.................................................:
          :  # basis functions                  19          :
          :  # atomic orbitals                  19          :
          :  # shells                           13          :
          :  # electrons                        19          :
          :  max. iterations                   250          :
          :  Hamiltonian                  GFN2-xTB          :
          :  restarted?                      false          :
          :  GBSA solvation                  false          :
          :  PC potential                    false          :
          :  electronic temp.          300.0000000     K    :
          :  accuracy                    1.0000000          :
          :  -> integral cutoff          0.2500000E+02      :
          :  -> integral neglect         0.1000000E-07      :
          :  -> SCF convergence          0.1000000E-05 Eh   :
          :  -> wf. convergence          0.1000000E-03 e    :
          :  Broyden damping             0.4000000          :
          ...................................................

 iter      E             dE          RMSdq      gap      omega  full diag
   1    -10.0416763 -0.100417E+02  0.259E+00   10.94       0.0  T
   2    -10.0633124 -0.216361E-01  0.126E+00   11.04       1.0  T
   3    -10.0636468 -0.334365E-03  0.617E-01   11.05       1.0  T
   4    -10.0637106 -0.637918E-04  0.822E-02   11.02       1.0  T
   5    -10.0637106 -0.513834E-08  0.178E-02   11.02       1.8  T
   6    -10.0637110 -0.427919E-06  0.300E-03   11.02      10.5  T
   7    -10.0637110 -0.803378E-08  0.899E-04   11.02      35.2  T
   8    -10.0637110 -0.145199E-08  0.230E-04   11.02     137.8  T

   *** convergence criteria satisfied after 8 iterations ***

         #    Occupation            Energy/Eh            Energy/eV
      -------------------------------------------------------------
         1        2.0000           -0.6061692             -16.4947
       ...           ...                  ...                  ...
         4        2.0000           -0.4986689             -13.5695
         5        2.0000           -0.4853174             -13.2062
         6        2.0000           -0.4739652             -12.8972
         7        2.0000           -0.4615771             -12.5602
         8        2.0000           -0.4406730             -11.9913
         9        2.0000           -0.4305124             -11.7148
        10        1.0000           -0.2854596              -7.7678 (HOMO)
        11                          0.1195734               3.2538 (LUMO)
        12                          0.1500232               4.0823
        13                          0.1797047               4.8900
        14                          0.1856321               5.0513
        15                          0.1978893               5.3848
       ...                                ...                  ...
        19                          0.3654607               9.9447
      -------------------------------------------------------------
                  HL-Gap            0.4050330 Eh           11.0215 eV
             Fermi-level           -0.2204645 Eh           -5.9991 eV

 SCC (total)                   0 d,  0 h,  0 min,  0.002 sec
 SCC setup                      ...        0 min,  0.000 sec (  3.662%)
 Dispersion                     ...        0 min,  0.000 sec (  2.442%)
 classical contributions        ...        0 min,  0.000 sec (  1.101%)
 integral evaluation            ...        0 min,  0.000 sec ( 12.333%)
 iterations                     ...        0 min,  0.001 sec ( 56.898%)
 molecular gradient             ...        0 min,  0.000 sec ( 18.424%)
 printout                       ...        0 min,  0.000 sec (  4.692%)

         :::::::::::::::::::::::::::::::::::::::::::::::::::::
         ::                     SUMMARY                     ::
         :::::::::::::::::::::::::::::::::::::::::::::::::::::
         :: total energy              -9.907945791528 Eh    ::
         :: gradient norm              0.000109139350 Eh/a0 ::
         :: HOMO-LUMO gap             11.021508007204 eV    ::
         ::.................................................::
         :: SCC energy               -10.063711034467 Eh    ::
         :: -> isotropic ES            0.002969091484 Eh    ::
         :: -> anisotropic ES          0.003814162720 Eh    ::
         :: -> anisotropic XC          0.007248923138 Eh    ::
         :: -> dispersion             -0.003488540294 Eh    ::
         :: repulsion energy           0.155764211445 Eh    ::
         :: add. restraining           0.000000000000 Eh    ::
         :: total charge              -0.000000000000 e     ::
         :::::::::::::::::::::::::::::::::::::::::::::::::::::

      ----------------------------------------------------------- 
     |                   =====================                   |
     |                        A N C O P T                        |
     |                   =====================                   |
     |               Approximate Normal Coordinate               |
     |                Rational Function Optimizer                |
      ----------------------------------------------------------- 

          ...................................................
          :                      SETUP                      :
          :.................................................:
          :   optimization level             tight          :
          :   max. optcycles                   200          :
          :   ANC micro-cycles                  20          :
          :   degrees of freedom                24          :
          :.................................................:
          :   RF solver                   davidson          :
          :   write xtbopt.log                true          :
          :   linear?                        false          :
          :   energy convergence         0.1000000E-05 Eh   :
          :   grad. convergence          0.8000000E-03 Eh/α :
          :   maximium RF displ.         1.0000000          :
          :   Hlow (freq-cutoff)         0.1000000E-01      :
          :   Hmax (freq-cutoff)         5.0000000          :
          :   S6 in model hess.         20.0000000          :
          ...................................................

generating ANC from model Hessian ...
Using Lindh-Hessian (1995)
 Shifting diagonal of input Hessian by    2.3533377836306730E-003
 Lowest  eigenvalues of input Hessian
    0.000000    0.000000    0.000000    0.000000    0.000000    0.000000
    0.010000    0.012931    0.020192    0.036549    0.064028    0.064543
    0.067466    0.076666    0.112677    0.118956    0.123608    0.125704
 Highest eigenvalues
    1.066380    1.078765    1.114181    1.122378    1.332123    1.453815


........................................................................
.............................. CYCLE    1 ..............................
........................................................................
   1    -10.0637110 -0.100637E+02  0.259E-05   11.02       0.0  T
   2    -10.0637110 -0.211742E-11  0.120E-05   11.02    2629.1  T
   3    -10.0637110 -0.461853E-13  0.545E-06   11.02    5807.1  T
     SCC iter.                  ...        0 min,  0.001 sec
     gradient                   ...        0 min,  0.000 sec
 * total energy  :    -9.9079458 Eh     change       -0.1189626E-10 Eh
   gradient norm :     0.0001090 Eh/α   predicted     0.0000000E+00 (-100.00%)
   displ. norm   :     0.0013488 α      lambda       -0.2971644E-07
   maximum displ.:     0.0012891 α      in ANC's #2, #16, #12, ...

   *** GEOMETRY OPTIMIZATION CONVERGED AFTER 1 ITERATIONS ***

------------------------------------------------------------------------
 total energy gain   :        -0.0000000 Eh       -0.0000 kcal/mol
 total RMSD          :         0.0000000 a0        0.0000 Å
 total power (kW/mol):        -0.0000000 (step)   -0.0000 (real)
------------------------------------------------------------------------

 ANCopt (total)                0 d,  0 h,  0 min,  0.003 sec
 optimizer setup                ...        0 min,  0.000 sec (  2.689%)
 model hessian                  ...        0 min,  0.001 sec ( 31.779%)
 ANC generation                 ...        0 min,  0.000 sec (  5.011%)
 coordinate transformation      ...        0 min,  0.000 sec (  0.095%)
 single point calculation       ...        0 min,  0.001 sec ( 52.015%)
 optimization log               ...        0 min,  0.000 sec (  2.430%)
 hessian update                 ...        0 min,  0.000 sec (  0.031%)
 rational function              ...        0 min,  0.000 sec (  2.191%)

================
 final structure:
================

  xtb     07312210393D
xtb: 6.3.3 (4ae9cef)
 10  9  0     0  0            999 V2000
    1.2977    0.1650    0.3458 C   0  0  0  0  0  0  0  0  0  0  0  0
   -0.0461   -0.2276    0.8193 C   0  0  0  0  0  3  0  0  0  0  0  0
   -1.2656    0.4783    0.3738 C   0  0  0  0  0  0  0  0  0  0  0  0
    1.3413    1.2335    0.1374 H   0  0  0  0  0  0  0  0  0  0  0  0
    2.0615   -0.0860    1.0823 H   0  0  0  0  0  0  0  0  0  0  0  0
    1.5693   -0.3582   -0.5818 H   0  0  0  0  0  0  0  0  0  0  0  0
   -0.1550   -1.1651    1.3377 H   0  0  0  0  0  0  0  0  0  0  0  0
   -1.6751    0.0384   -0.5464 H   0  0  0  0  0  0  0  0  0  0  0  0
   -2.0513    0.4168    1.1272 H   0  0  0  0  0  0  0  0  0  0  0  0
   -1.0551    1.5264    0.1636 H   0  0  0  0  0  0  0  0  0  0  0  0
  1  2  1  0  0  0  0
  1  4  1  0  0  0  0
  1  5  1  0  0  0  0
  1  6  1  0  0  0  0
  2  3  1  0  0  0  0
  2  7  1  0  0  0  0
  3  8  1  0  0  0  0
  3  9  1  0  0  0  0
  3 10  1  0  0  0  0
M  END
$$$$

 Bond Distances (Angstroems)
 ---------------------------
C1-C2=1.4779         C1-H4=1.0895         C1-H5=1.0903         C1-H6=1.0991         C2-C1=1.4779         C2-C3=1.4778         
C2-H7=1.0768         C3-C2=1.4778         C3-H8=1.0991         C3-H9=1.0903         C3-H10=1.0895        H4-C1=1.0895         
H5-C1=1.0903         H6-C1=1.0991         H7-C2=1.0768         H8-C3=1.0991         H9-C3=1.0903         H10-C3=1.0895        
 C  H  Rav=1.0907 sigma=0.0069  Rmin=1.0768  Rmax=1.0991     7
 C  C  Rav=1.4778 sigma=0.0000  Rmin=1.4778  Rmax=1.4779     2

 selected bond angles (degree)
 --------------------
H4-C1-C2=110.99                H5-C1-C2=111.06                H5-C1-H4=109.08                H6-C1-C2=111.63                
H6-C1-H4=107.19                H6-C1-H5=106.70                C3-C2-C1=121.79                H7-C2-C1=118.52                
H7-C2-C3=118.53                H8-C3-C2=111.63                H9-C3-C2=111.06                H9-C3-H8=106.71                
H10-C3-C2=110.99               H10-C3-H8=107.19               H10-C3-H9=109.08               

 selected dihedral angles (degree)
 ---------------------------------
C3-C2-C1-H4= 30.77            C3-C2-C1-H5=152.31            C3-C2-C1-H6=271.26            H7-C2-C1-H4=198.28            
H7-C2-C1-H5=319.81            H7-C2-C1-H6= 78.76            H8-C3-C2-C1= 88.74            H8-C3-C2-H7=281.24            
H9-C3-C2-C1=207.70            H9-C3-C2-H7= 40.19            H10-C3-C2-C1=329.22           H10-C3-C2-H7=161.72           
           -------------------------------------------------
          |                Final Singlepoint                |
           -------------------------------------------------

          ...................................................
          :                      SETUP                      :
          :.................................................:
          :  # basis functions                  19          :
          :  # atomic orbitals                  19          :
          :  # shells                           13          :
          :  # electrons                        19          :
          :  max. iterations                   250          :
          :  Hamiltonian                  GFN2-xTB          :
          :  restarted?                      false          :
          :  GBSA solvation                  false          :
          :  PC potential                    false          :
          :  electronic temp.          300.0000000     K    :
          :  accuracy                    1.0000000          :
          :  -> integral cutoff          0.2500000E+02      :
          :  -> integral neglect         0.1000000E-07      :
          :  -> SCF convergence          0.1000000E-05 Eh   :
          :  -> wf. convergence          0.1000000E-03 e    :
          :  Broyden damping             0.4000000          :
          ...................................................

 iter      E             dE          RMSdq      gap      omega  full diag
   1    -10.0637110 -0.100637E+02  0.963E-07   11.02       0.0  T
   2    -10.0637110  0.159872E-13  0.582E-07   11.02   54328.4  T
   3    -10.0637110  0.532907E-14  0.271E-07   11.02  100000.0  T

   *** convergence criteria satisfied after 3 iterations ***

         #    Occupation            Energy/Eh            Energy/eV
      -------------------------------------------------------------
         1        2.0000           -0.6061695             -16.4947
       ...           ...                  ...                  ...
         4        2.0000           -0.4986690             -13.5695
         5        2.0000           -0.4853172             -13.2062
         6        2.0000           -0.4739654             -12.8973
         7        2.0000           -0.4615770             -12.5602
         8        2.0000           -0.4406732             -11.9913
         9        2.0000           -0.4305126             -11.7148
        10        1.0000           -0.2854591              -7.7677 (HOMO)
        11                          0.1195734               3.2538 (LUMO)
        12                          0.1500227               4.0823
        13                          0.1797046               4.8900
        14                          0.1856325               5.0513
        15                          0.1978890               5.3848
       ...                                ...                  ...
        19                          0.3654608               9.9447
      -------------------------------------------------------------
                  HL-Gap            0.4050325 Eh           11.0215 eV
             Fermi-level           -0.2204644 Eh           -5.9991 eV

 SCC (total)                   0 d,  0 h,  0 min,  0.001 sec
 SCC setup                      ...        0 min,  0.000 sec (  2.877%)
 Dispersion                     ...        0 min,  0.000 sec (  2.351%)
 classical contributions        ...        0 min,  0.000 sec (  1.261%)
 integral evaluation            ...        0 min,  0.000 sec ( 14.859%)
 iterations                     ...        0 min,  0.000 sec ( 28.641%)
 molecular gradient             ...        0 min,  0.001 sec ( 42.704%)
 printout                       ...        0 min,  0.000 sec (  6.739%)

         :::::::::::::::::::::::::::::::::::::::::::::::::::::
         ::                     SUMMARY                     ::
         :::::::::::::::::::::::::::::::::::::::::::::::::::::
         :: total energy              -9.907945791540 Eh    ::
         :: gradient norm              0.000109049178 Eh/a0 ::
         :: HOMO-LUMO gap             11.021494702566 eV    ::
         ::.................................................::
         :: SCC energy               -10.063711034479 Eh    ::
         :: -> isotropic ES            0.002969037295 Eh    ::
         :: -> anisotropic ES          0.003814175795 Eh    ::
         :: -> anisotropic XC          0.007248910702 Eh    ::
         :: -> dispersion             -0.003488541890 Eh    ::
         :: repulsion energy           0.155764211445 Eh    ::
         :: add. restraining           0.000000000000 Eh    ::
         :: total charge               0.000000000000 e     ::
         :::::::::::::::::::::::::::::::::::::::::::::::::::::

           -------------------------------------------------
          |                Property Printout                |
           -------------------------------------------------

    * Orbital Energies and Occupations

         #    Occupation            Energy/Eh            Energy/eV
      -------------------------------------------------------------
         1        2.0000           -0.6061695             -16.4947
         2        2.0000           -0.5856616             -15.9367
         3        2.0000           -0.5406427             -14.7116
         4        2.0000           -0.4986690             -13.5695
         5        2.0000           -0.4853172             -13.2062
         6        2.0000           -0.4739654             -12.8973
         7        2.0000           -0.4615770             -12.5602
         8        2.0000           -0.4406732             -11.9913
         9        2.0000           -0.4305126             -11.7148
        10        1.0000           -0.2854591              -7.7677 (HOMO)
        11                          0.1195734               3.2538 (LUMO)
        12                          0.1500227               4.0823
        13                          0.1797046               4.8900
        14                          0.1856325               5.0513
        15                          0.1978890               5.3848
        16                          0.2104419               5.7264
        17                          0.2219510               6.0396
        18                          0.3220548               8.7636
        19                          0.3654608               9.9447
      -------------------------------------------------------------
                  HL-Gap            0.4050325 Eh           11.0215 eV
             Fermi-level           -0.2204644 Eh           -5.9991 eV

     #   Z          covCN         q      C6AA      α(0)
     1   6 C        3.751    -0.096    22.389     6.748
     2   6 C        2.882    -0.072    29.797     8.949
     3   6 C        3.752    -0.096    22.389     6.748
     4   1 H        0.925     0.039     2.457     2.451
     5   1 H        0.924     0.039     2.463     2.454
     6   1 H        0.923     0.044     2.396     2.421
     7   1 H        0.926     0.019     2.750     2.593
     8   1 H        0.923     0.044     2.396     2.421
     9   1 H        0.924     0.039     2.463     2.454
    10   1 H        0.925     0.039     2.457     2.451

 Mol. C6AA /au·bohr⁶  :        671.387493
 Mol. C8AA /au·bohr⁸  :      14020.729844
 Mol. α(0) /au        :         39.690036


Wiberg/Mayer (AO) data.
largest (>0.10) Wiberg bond orders for each atom

 ---------------------------------------------------------------------------
     #   Z sym  total        # sym  WBO       # sym  WBO       # sym  WBO
 ---------------------------------------------------------------------------
     1   6 C    3.988 --     2 C    1.079     4 H    0.978     5 H    0.973
                             6 H    0.940
     2   6 C    3.142 --     3 C    1.079     1 C    1.079     7 H    0.976
     3   6 C    3.988 --     2 C    1.079    10 H    0.978     9 H    0.973
                             8 H    0.940
     4   1 H    0.991 --     1 C    0.978
     5   1 H    0.984 --     1 C    0.973
     6   1 H    0.946 --     1 C    0.940
     7   1 H    0.999 --     2 C    0.976
     8   1 H    0.946 --     3 C    0.940
     9   1 H    0.984 --     3 C    0.973
    10   1 H    0.991 --     3 C    0.978
 ---------------------------------------------------------------------------


molecular dipole:
                 x           y           z       tot (Debye)
 q only:        0.008       0.076      -0.103
   full:        0.005       0.057      -0.165       0.444
molecular quadrupole (traceless):
                xx          xy          yy          xz          yz          zz
 q only:        0.852      -0.139      -0.222      -0.008       0.005      -0.630
  q+dip:        0.820      -0.093       0.150      -0.063      -0.462      -0.970
   full:        0.876      -0.117      -0.009      -0.032      -0.207      -0.868

           -------------------------------------------------
          |                Geometry Summary                 |
           -------------------------------------------------

      molecular mass/u    :       43.0877930
   center of mass at/Å    :       -0.0030697       0.1534405       0.4925971
  moments of inertia/u·Å² :        0.1317688E+02   0.6015612E+02   0.6707705E+02
rotational constants/cm⁻¹ :        0.1279334E+01   0.2802314E+00   0.2513174E+00

 * 9 selected distances

     #   Z          #   Z                                           value/Å
     1   6 C        2   6 C                                       1.4778821 (max)
     2   6 C        3   6 C                                       1.4778178
     1   6 C        4   1 H                                       1.0895062
     1   6 C        5   1 H                                       1.0903319
     1   6 C        6   1 H                                       1.0990662
     2   6 C        7   1 H                                       1.0768027 (min)
     3   6 C        8   1 H                                       1.0990770
     3   6 C        9   1 H                                       1.0902836
     3   6 C       10   1 H                                       1.0894989

 * 2 distinct bonds (by element types)

   Z      Z             #   av. dist./Å        max./Å        min./Å
   1 H    6 C           7     1.0906524     1.0990770     1.0768027
   6 C    6 C           2     1.4778499     1.4778821     1.4778178


optimized geometry written to: xtbopt.sdf


           -------------------------------------------------
          | TOTAL ENERGY               -9.907945791540 Eh   |
          | GRADIENT NORM               0.000109049178 Eh/α |
          | HOMO-LUMO GAP              11.021494702566 eV   |
           -------------------------------------------------

------------------------------------------------------------------------
 * finished run on 2022/07/31 at 10:39:25.553     
------------------------------------------------------------------------
 total:
 * wall-time:     0 d,  0 h,  0 min,  0.028 sec
 *  cpu-time:     0 d,  0 h,  0 min,  0.607 sec
 * ratio c/w:    21.839 speedup
 SCF:
 * wall-time:     0 d,  0 h,  0 min,  0.002 sec
 *  cpu-time:     0 d,  0 h,  0 min,  0.081 sec
 * ratio c/w:    36.622 speedup
 ANC optimizer:
 * wall-time:     0 d,  0 h,  0 min,  0.005 sec
 *  cpu-time:     0 d,  0 h,  0 min,  0.104 sec
 * ratio c/w:    22.781 speedup

