 Entering Gaussian System, Link 0=g16
 Initial command:
 /opt/g16/l1.exe "/scratch/alongd/g16/a4384-34558/Gau-16435.inp" -scrdir="/scratch/alongd/g16/a4384-34558/"
 Entering Link 1 = /opt/g16/l1.exe PID=     16437.
  
 Copyright (c) 1988-2017, Gaussian, Inc.  All Rights Reserved.
  
 This is part of the Gaussian(R) 16 program.  It is based on
 the Gaussian(R) 09 system (copyright 2009, Gaussian, Inc.),
 the Gaussian(R) 03 system (copyright 2003, Gaussian, Inc.),
 the Gaussian(R) 98 system (copyright 1998, Gaussian, Inc.),
 the Gaussian(R) 94 system (copyright 1995, Gaussian, Inc.),
 the Gaussian 92(TM) system (copyright 1992, Gaussian, Inc.),
 the Gaussian 90(TM) system (copyright 1990, Gaussian, Inc.),
 the Gaussian 88(TM) system (copyright 1988, Gaussian, Inc.),
 the Gaussian 86(TM) system (copyright 1986, Carnegie Mellon
 University), and the Gaussian 82(TM) system (copyright 1983,
 Carnegie Mellon University). Gaussian is a federally registered
 trademark of Gaussian, Inc.
  
 This software contains proprietary and confidential information,
 including trade secrets, belonging to Gaussian, Inc.
  
 This software is provided under written license and may be
 used, copied, transmitted, or stored only in accord with that
 written license.
  
 The following legend is applicable only to US Government
 contracts under FAR:
  
                    RESTRICTED RIGHTS LEGEND
  
 Use, reproduction and disclosure by the US Government is
 subject to restrictions as set forth in subparagraphs (a)
 and (c) of the Commercial Computer Software - Restricted
 Rights clause in FAR 52.227-19.
  
 Gaussian, Inc.
 340 Quinnipiac St., Bldg. 40, Wallingford CT 06492
  
  
 ---------------------------------------------------------------
 Warning -- This program may not be used in any manner that
 competes with the business of Gaussian, Inc. or will provide
 assistance to any competitor of Gaussian, Inc.  The licensee
 of this program is prohibited from giving any competitor of
 Gaussian, Inc. access to this program.  By using this program,
 the user acknowledges that Gaussian, Inc. is engaged in the
 business of creating and licensing software in the field of
 computational chemistry and represents and warrants to the
 licensee that it is not a competitor of Gaussian, Inc. and that
 it will not use this program in any manner prohibited above.
 ---------------------------------------------------------------
  

 Cite this work as:
 Gaussian 16, Revision B.01,
 M. J. Frisch, G. W. Trucks, H. B. Schlegel, G. E. Scuseria, 
 M. A. Robb, J. R. Cheeseman, G. Scalmani, V. Barone, 
 G. A. Petersson, H. Nakatsuji, X. Li, M. Caricato, A. V. Marenich, 
 J. Bloino, B. G. Janesko, R. Gomperts, B. Mennucci, H. P. Hratchian, 
 J. V. Ortiz, A. F. Izmaylov, J. L. Sonnenberg, D. Williams-Young, 
 F. Ding, F. Lipparini, F. Egidi, J. Goings, B. Peng, A. Petrone, 
 T. Henderson, D. Ranasinghe, V. G. Zakrzewski, J. Gao, N. Rega, 
 G. Zheng, W. Liang, M. Hada, M. Ehara, K. Toyota, R. Fukuda, 
 J. Hasegawa, M. Ishida, T. Nakajima, Y. Honda, O. Kitao, H. Nakai, 
 T. Vreven, K. Throssell, J. A. Montgomery, Jr., J. E. Peralta, 
 F. Ogliaro, M. J. Bearpark, J. J. Heyd, E. N. Brothers, K. N. Kudin, 
 V. N. Staroverov, T. A. Keith, R. Kobayashi, J. Normand, 
 K. Raghavachari, A. P. Rendell, J. C. Burant, S. S. Iyengar, 
 J. Tomasi, M. Cossi, J. M. Millam, M. Klene, C. Adamo, R. Cammi, 
 J. W. Ochterski, R. L. Martin, K. Morokuma, O. Farkas, 
 J. B. Foresman, and D. J. Fox, Gaussian, Inc., Wallingford CT, 2016.
 
 ******************************************
 Gaussian 16:  ES64L-G16RevB.01 20-Dec-2017
                 2-Mar-2020 
 ******************************************
 %chk=check.chk
 %mem=14336mb
 %NProcShared=36
 Will use up to   36 processors via shared memory.
 ----------------------------------------------------------------------
 #P opt=(tight) guess=read uwb97xd/def2tzvp scf=(tight, direct) integra
 l=(grid=ultrafine, Acc2E=12) scf=xqc iop(2/9=2000)
 ----------------------------------------------------------------------
 1/7=10,18=20,19=15,26=4,38=1/1,3;
 2/9=2000,12=2,17=6,18=5,40=1/2;
 3/5=44,7=101,11=2,25=1,27=12,30=1,71=1,74=-58,75=-5,116=2/1,2,3;
 4/5=1/1;
 5/5=2,8=3,13=1,32=2,38=6,87=12/2,8;
 6/7=2,8=2,9=2,10=2,28=1,87=12/1;
 7/87=12/1,2,3,16;
 1/7=10,18=20,19=15,26=4/3(2);
 2/9=2000/2;
 99//99;
 2/9=2000/2;
 3/5=44,7=101,11=2,25=1,27=12,30=1,71=1,74=-58,75=-5,116=2/1,2,3;
 4/5=5,16=3,69=1/1;
 5/5=2,8=3,13=1,32=2,38=5,87=12/2,8;
 7/87=12/1,2,3,16;
 1/7=10,18=20,19=15,26=4/3(-5);
 2/9=2000/2;
 6/7=2,8=2,9=2,10=2,19=2,28=1,87=12/1;
 99/9=1/99;
 Leave Link    1 at Mon Mar  2 00:36:58 2020, MaxMem=  1879048192 cpu:               4.4 elap:               0.2
 (Enter /opt/g16/l101.exe)
 ----
 name
 ----
 Symbolic Z-matrix:
 Charge =  0 Multiplicity = 3
 N                     2.22553   0.47661   0.1589 
 C                     0.94089   0.16929   0.06724 
 C                    -0.00098   1.24521  -0.00259 
 H                     0.39204   2.2536    0.0236 
 C                    -1.35292   1.00217  -0.09921 
 C                    -1.75152  -0.31949  -0.12517 
 C                    -0.91763  -1.41746  -0.06305 
 C                     0.43447  -1.1707    0.03358 
 H                     2.7831   -0.37637   0.20068 
 H                    -2.06535   1.81564  -0.15204 
 H                    -1.30144  -2.4296   -0.08857 
 H                     1.13882  -1.99376   0.08584 
 
 ITRead=  0  0  0  0  0  0  0  0  0  0  0  0
 MicOpt= -1 -1 -1 -1 -1 -1 -1 -1 -1 -1 -1 -1
 NAtoms=     12 NQM=       12 NQMF=       0 NMMI=      0 NMMIF=      0
                NMic=       0 NMicF=      0.
                    Isotopes and Nuclear Properties:
 (Nuclear quadrupole moments (NQMom) in fm**2, nuclear magnetic moments (NMagM)
  in nuclear magnetons)

  Atom         1           2           3           4           5           6           7           8           9          10
 IAtWgt=          14          12          12           1          12          12          12          12           1           1
 AtmWgt=  14.0030740  12.0000000  12.0000000   1.0078250  12.0000000  12.0000000  12.0000000  12.0000000   1.0078250   1.0078250
 NucSpn=           2           0           0           1           0           0           0           0           1           1
 AtZEff=  -0.0000000  -0.0000000  -0.0000000  -0.0000000  -0.0000000  -0.0000000  -0.0000000  -0.0000000  -0.0000000  -0.0000000
 NQMom=    2.0440000   0.0000000   0.0000000   0.0000000   0.0000000   0.0000000   0.0000000   0.0000000   0.0000000   0.0000000
 NMagM=    0.4037610   0.0000000   0.0000000   2.7928460   0.0000000   0.0000000   0.0000000   0.0000000   2.7928460   2.7928460
 AtZNuc=   7.0000000   6.0000000   6.0000000   1.0000000   6.0000000   6.0000000   6.0000000   6.0000000   1.0000000   1.0000000

  Atom        11          12
 IAtWgt=           1           1
 AtmWgt=   1.0078250   1.0078250
 NucSpn=           1           1
 AtZEff=  -0.0000000  -0.0000000
 NQMom=    0.0000000   0.0000000
 NMagM=    2.7928460   2.7928460
 AtZNuc=   1.0000000   1.0000000
 Leave Link  101 at Mon Mar  2 00:36:59 2020, MaxMem=  1879048192 cpu:              24.0 elap:               0.8
 (Enter /opt/g16/l103.exe)

 GradGradGradGradGradGradGradGradGradGradGradGradGradGradGradGradGradGrad
 Berny optimization.
 Initialization pass.
                           ----------------------------
                           !    Initial Parameters    !
                           ! (Angstroms and Degrees)  !
 --------------------------                            --------------------------
 ! Name  Definition              Value          Derivative Info.                !
 --------------------------------------------------------------------------------
 ! R1    R(1,2)                  1.3241         estimate D2E/DX2                !
 ! R2    R(1,9)                  1.0199         estimate D2E/DX2                !
 ! R3    R(2,3)                  1.4316         estimate D2E/DX2                !
 ! R4    R(2,8)                  1.4329         estimate D2E/DX2                !
 ! R5    R(3,4)                  1.0826         estimate D2E/DX2                !
 ! R6    R(3,5)                  1.377          estimate D2E/DX2                !
 ! R7    R(5,6)                  1.3807         estimate D2E/DX2                !
 ! R8    R(5,10)                 1.0826         estimate D2E/DX2                !
 ! R9    R(6,7)                  1.3801         estimate D2E/DX2                !
 ! R10   R(7,8)                  1.3778         estimate D2E/DX2                !
 ! R11   R(7,11)                 1.0828         estimate D2E/DX2                !
 ! R12   R(8,12)                 1.0846         estimate D2E/DX2                !
 ! A1    A(2,1,9)              109.8239         estimate D2E/DX2                !
 ! A2    A(1,2,3)              117.8559         estimate D2E/DX2                !
 ! A3    A(1,2,8)              124.1655         estimate D2E/DX2                !
 ! A4    A(3,2,8)              117.9785         estimate D2E/DX2                !
 ! A5    A(2,3,4)              117.387          estimate D2E/DX2                !
 ! A6    A(2,3,5)              121.1107         estimate D2E/DX2                !
 ! A7    A(4,3,5)              121.5024         estimate D2E/DX2                !
 ! A8    A(3,5,6)              116.9822         estimate D2E/DX2                !
 ! A9    A(3,5,10)             121.1231         estimate D2E/DX2                !
 ! A10   A(6,5,10)             121.8947         estimate D2E/DX2                !
 ! A11   A(5,6,7)              125.8916         estimate D2E/DX2                !
 ! A12   A(6,7,8)              116.9753         estimate D2E/DX2                !
 ! A13   A(6,7,11)             121.8987         estimate D2E/DX2                !
 ! A14   A(8,7,11)             121.126          estimate D2E/DX2                !
 ! A15   A(2,8,7)              121.0617         estimate D2E/DX2                !
 ! A16   A(2,8,12)             118.6216         estimate D2E/DX2                !
 ! A17   A(7,8,12)             120.3167         estimate D2E/DX2                !
 ! D1    D(9,1,2,3)            180.0            estimate D2E/DX2                !
 ! D2    D(9,1,2,8)              0.0            estimate D2E/DX2                !
 ! D3    D(1,2,3,4)              0.0001         estimate D2E/DX2                !
 ! D4    D(1,2,3,5)            180.0            estimate D2E/DX2                !
 ! D5    D(8,2,3,4)            180.0            estimate D2E/DX2                !
 ! D6    D(8,2,3,5)             -0.0001         estimate D2E/DX2                !
 ! D7    D(1,2,8,7)           -180.0            estimate D2E/DX2                !
 ! D8    D(1,2,8,12)             0.0            estimate D2E/DX2                !
 ! D9    D(3,2,8,7)              0.0001         estimate D2E/DX2                !
 ! D10   D(3,2,8,12)          -180.0            estimate D2E/DX2                !
 ! D11   D(2,3,5,6)              0.0            estimate D2E/DX2                !
 ! D12   D(2,3,5,10)          -180.0            estimate D2E/DX2                !
 ! D13   D(4,3,5,6)            180.0            estimate D2E/DX2                !
 ! D14   D(4,3,5,10)             0.0            estimate D2E/DX2                !
 ! D15   D(3,5,6,7)              0.0            estimate D2E/DX2                !
 ! D16   D(10,5,6,7)           180.0            estimate D2E/DX2                !
 ! D17   D(5,6,7,8)              0.0            estimate D2E/DX2                !
 ! D18   D(5,6,7,11)           180.0            estimate D2E/DX2                !
 ! D19   D(6,7,8,2)             -0.0001         estimate D2E/DX2                !
 ! D20   D(6,7,8,12)           180.0            estimate D2E/DX2                !
 ! D21   D(11,7,8,2)           180.0            estimate D2E/DX2                !
 ! D22   D(11,7,8,12)            0.0001         estimate D2E/DX2                !
 --------------------------------------------------------------------------------
 Trust Radius=3.00D-01 FncErr=1.00D-07 GrdErr=1.00D-06 EigMax=2.50D+02 EigMin=1.00D-04
 Number of steps in this run=     61 maximum allowed number of steps=    100.
 GradGradGradGradGradGradGradGradGradGradGradGradGradGradGradGradGradGrad

 Leave Link  103 at Mon Mar  2 00:36:59 2020, MaxMem=  1879048192 cpu:               1.4 elap:               0.1
 (Enter /opt/g16/l202.exe)
                          Input orientation:                          
 ---------------------------------------------------------------------
 Center     Atomic      Atomic             Coordinates (Angstroms)
 Number     Number       Type             X           Y           Z
 ---------------------------------------------------------------------
      1          7           0        2.225529    0.476608    0.158899
      2          6           0        0.940892    0.169290    0.067243
      3          6           0       -0.000980    1.245214   -0.002592
      4          1           0        0.392041    2.253600    0.023597
      5          6           0       -1.352924    1.002166   -0.099213
      6          6           0       -1.751524   -0.319490   -0.125169
      7          6           0       -0.917628   -1.417463   -0.063045
      8          6           0        0.434469   -1.170701    0.033580
      9          1           0        2.783096   -0.376369    0.200678
     10          1           0       -2.065355    1.815637   -0.152036
     11          1           0       -1.301440   -2.429597   -0.088565
     12          1           0        1.138822   -1.993756    0.085842
 ---------------------------------------------------------------------
                    Distance matrix (angstroms):
                    1          2          3          4          5
     1  N    0.000000
     2  C    1.324061   0.000000
     3  C    2.360969   1.431647   0.000000
     4  H    2.556890   2.155804   1.082587   0.000000
     5  C    3.626039   2.446013   1.377011   2.150831   0.000000
     6  C    4.065885   2.743179   2.351112   3.352282   1.380699
     7  C    3.676438   2.447214   2.816691   3.898646   2.458739
     8  C    2.436643   1.432890   2.455111   3.424578   2.816693
     9  H    1.019900   1.925945   3.228301   3.558825   4.370006
    10  H    4.505704   3.434540   2.146942   2.502290   1.082628
    11  H    4.576765   3.436065   3.899080   4.981244   3.432166
    12  H    2.699809   2.172163   3.434807   4.312956   3.901101
                    6          7          8          9         10
     6  C    0.000000
     7  C    1.380140   0.000000
     8  C    2.351239   1.377822   0.000000
     9  H    4.546668   3.853412   2.484941   0.000000
    10  H    2.158235   3.431928   3.898947   5.332614   0.000000
    11  H    2.157885   1.082764   2.147817   4.580703   4.313885
    12  H    3.346908   2.140857   1.084557   2.309278   4.983454
                   11         12
    11  H    0.000000
    12  H    2.485006   0.000000
 Stoichiometry    C6H5N(3)
 Framework group  CS[SG(C6H5N)]
 Deg. of freedom    21
 Full point group                 CS      NOp   2
 Largest Abelian subgroup         CS      NOp   2
 Largest concise Abelian subgroup C1      NOp   1
                         Standard orientation:                         
 ---------------------------------------------------------------------
 Center     Atomic      Atomic             Coordinates (Angstroms)
 Number     Number       Type             X           Y           Z
 ---------------------------------------------------------------------
      1          7           0       -1.824089   -1.351088    0.000000
      2          6           0       -0.744935   -0.583909    0.000000
      3          6           0       -0.933124    0.835315   -0.000000
      4          1           0       -1.951494    1.202626   -0.000000
      5          6           0        0.142078    1.695607   -0.000000
      6          6           0        1.399918    1.126249   -0.000000
      7          6           0        1.675966   -0.226003   -0.000000
      8          6           0        0.597867   -1.083964    0.000000
      9          1           0       -1.550068   -2.333487    0.000000
     10          1           0        0.000000    2.768872   -0.000000
     11          1           0        2.691079   -0.602731   -0.000000
     12          1           0        0.752490   -2.157442    0.000000
 ---------------------------------------------------------------------
 Rotational constants (GHZ):           5.4921133           2.9773385           1.9306893
 Leave Link  202 at Mon Mar  2 00:36:59 2020, MaxMem=  1879048192 cpu:               4.1 elap:               0.1
 (Enter /opt/g16/l301.exe)
 Standard basis: def2TZVP (5D, 7F)
 Ernie: Thresh=  0.10000D-02 Tol=  0.10000D-05 Strict=F.
 There are   200 symmetry adapted cartesian basis functions of A'  symmetry.
 There are    82 symmetry adapted cartesian basis functions of A"  symmetry.
 There are   172 symmetry adapted basis functions of A'  symmetry.
 There are    75 symmetry adapted basis functions of A"  symmetry.
   247 basis functions,   397 primitive gaussians,   282 cartesian basis functions
    25 alpha electrons       23 beta electrons
       nuclear repulsion energy       252.5218702174 Hartrees.
 IExCor= 4639 DFT=T Ex+Corr=wB97XD ExCW=0 ScaHFX=  1.000000
 ScaDFX=  1.000000  1.000000  1.000000  1.000000 ScalE2=  1.000000  1.000000
 IRadAn=      5 IRanWt=     -1 IRanGd=            0 ICorTp=0 IEmpDi=121
 HFx  wShort=  0.000000 wLong=  0.200000 cFull=  0.222036 cShort=  0.000000 cLong=  0.777964
 DFx  wShort=  0.000000 wLong=  0.200000 cFull=  0.000000 cShort=  0.000000 cLong=  1.000000
 NAtoms=   12 NActive=   12 NUniq=   12 SFac= 1.00D+00 NAtFMM=   60 NAOKFM=F Big=F
 Integral buffers will be    131072 words long.
 Raffenetti 2 integral format.
 Two-electron integral symmetry is turned on.
 R6Disp:  Grimme-D2 Dispersion energy=       -0.0042543474 Hartrees.
 Nuclear repulsion after empirical dispersion term =      252.5176158700 Hartrees.
 Leave Link  301 at Mon Mar  2 00:36:59 2020, MaxMem=  1879048192 cpu:               4.0 elap:               0.1
 (Enter /opt/g16/l302.exe)
 NPDir=0 NMtPBC=     1 NCelOv=     1 NCel=       1 NClECP=     1 NCelD=      1
         NCelK=      1 NCelE2=     1 NClLst=     1 CellRange=     0.0.
 One-electron integrals computed using PRISM.
 One-electron integral symmetry used in STVInt
   2 Symmetry operations used in ECPInt.
 ECPInt:  NShTT=    4753 NPrTT=   14704 LenC2=    4703 LenP2D=   12028.
 LDataN:  DoStor=T MaxTD1= 6 Len=  172
 NBasis=   247 RedAO= T EigKep=  1.74D-05  NBF=   172    75
 NBsUse=   247 1.00D-06 EigRej= -1.00D+00 NBFU=   172    75
 Precomputing XC quadrature grid using
 IXCGrd= 4 IRadAn=           5 IRanWt=          -1 IRanGd=           0 AccXCQ= 1.00D-12.
 Generated NRdTot=       0 NPtTot=           0 NUsed=           0 NTot=          32
 NSgBfM=   281   281   281   281   281 MxSgAt=    12 MxSgA2=    12.
 Leave Link  302 at Mon Mar  2 00:37:00 2020, MaxMem=  1879048192 cpu:              18.1 elap:               0.6
 (Enter /opt/g16/l303.exe)
 DipDrv:  MaxL=1.
 Leave Link  303 at Mon Mar  2 00:37:00 2020, MaxMem=  1879048192 cpu:               2.8 elap:               0.1
 (Enter /opt/g16/l401.exe)
 Initial guess from the checkpoint file:  "check.chk"
 B after Tr=    -0.000000   -0.000000    0.000000
         Rot=   -0.000000    0.899141   -0.437659    0.000000 Ang= 180.00 deg.
 Guess basis will be translated and rotated to current coordinates.
 JPrj=2 DoOrth=T DoCkMO=T.
 Initial guess orbital symmetries:
 Alpha Orbitals:
       Occupied  (A') (A') (A') (A') (A') (A') (A') (A') (A') (A')
                 (A') (A') (A') (A') (A') (A') (A') (A') (A") (A')
                 (A") (A') (A") (A') (A")
       Virtual   (A") (A") (A') (A') (A') (A') (A') (A') (A") (A')
                 (A') (A") (A') (A') (A") (A') (A') (A") (A') (A')
                 (A') (A") (A') (A") (A') (A') (A') (A') (A") (A')
                 (A") (A') (A') (A') (A') (A') (A') (A') (A") (A')
                 (A') (A') (A") (A') (A') (A') (A') (A') (A") (A')
                 (A") (A') (A") (A') (A") (A') (A') (A") (A') (A')
                 (A') (A') (A") (A") (A') (A') (A') (A") (A') (A")
                 (A') (A") (A') (A') (A') (A') (A") (A') (A') (A')
                 (A") (A") (A') (A') (A") (A') (A') (A") (A') (A")
                 (A') (A") (A') (A') (A") (A') (A") (A') (A") (A')
                 (A") (A') (A") (A') (A') (A') (A') (A') (A') (A")
                 (A') (A') (A') (A") (A") (A') (A') (A') (A') (A")
                 (A') (A") (A') (A') (A') (A") (A') (A") (A') (A")
                 (A') (A") (A') (A') (A') (A") (A') (A") (A') (A')
                 (A") (A") (A') (A") (A') (A") (A') (A") (A') (A')
                 (A") (A') (A') (A") (A') (A') (A") (A") (A') (A")
                 (A') (A') (A') (A') (A") (A') (A") (A') (A') (A")
                 (A') (A') (A") (A') (A') (A") (A') (A') (A") (A')
                 (A') (A") (A') (A') (A') (A") (A") (A") (A') (A')
                 (A') (A") (A') (A') (A") (A") (A') (A") (A') (A')
                 (A") (A') (A') (A') (A') (A') (A") (A') (A') (A')
                 (A') (A') (A') (A') (A') (A') (A') (A') (A') (A')
                 (A') (A')
 Beta  Orbitals:
       Occupied  (A') (A') (A') (A') (A') (A') (A') (A') (A') (A')
                 (A') (A') (A') (A') (A') (A') (A') (A') (A") (A')
                 (A") (A') (A")
       Virtual   (A") (A') (A") (A") (A') (A') (A') (A') (A') (A')
                 (A") (A') (A') (A") (A') (A') (A") (A') (A') (A")
                 (A') (A') (A') (A") (A') (A") (A') (A') (A') (A')
                 (A") (A') (A') (A") (A') (A') (A') (A') (A') (A')
                 (A") (A') (A') (A') (A") (A') (A') (A') (A') (A')
                 (A") (A') (A') (A") (A") (A') (A") (A') (A') (A")
                 (A') (A') (A') (A') (A") (A") (A') (A') (A') (A")
                 (A') (A") (A') (A") (A') (A') (A') (A') (A") (A')
                 (A') (A') (A") (A") (A') (A') (A") (A') (A') (A")
                 (A') (A") (A') (A") (A') (A') (A") (A') (A") (A')
                 (A") (A') (A") (A') (A") (A') (A') (A') (A') (A')
                 (A') (A') (A") (A') (A') (A") (A") (A') (A') (A')
                 (A') (A') (A") (A") (A') (A') (A') (A") (A') (A")
                 (A') (A") (A') (A") (A') (A') (A') (A") (A') (A")
                 (A') (A') (A") (A") (A') (A") (A') (A") (A') (A")
                 (A') (A') (A") (A') (A') (A") (A') (A') (A") (A")
                 (A') (A") (A') (A') (A') (A') (A") (A') (A") (A')
                 (A') (A") (A') (A') (A") (A') (A') (A') (A") (A')
                 (A") (A') (A') (A") (A') (A') (A') (A") (A") (A")
                 (A') (A') (A') (A") (A') (A') (A") (A") (A') (A")
                 (A') (A') (A') (A") (A') (A') (A') (A') (A') (A")
                 (A') (A') (A') (A') (A') (A') (A') (A') (A') (A')
                 (A') (A') (A') (A')
 The electronic state of the initial guess is 3-A".
 Initial guess <Sx>= 0.0000 <Sy>= 0.0000 <Sz>= 1.0000 <S**2>= 2.0785 S= 1.0260
 Leave Link  401 at Mon Mar  2 00:37:02 2020, MaxMem=  1879048192 cpu:              69.4 elap:               2.0
 (Enter /opt/g16/l502.exe)
 Keep R1 and R2 ints in memory in symmetry-blocked form, NReq=1418894295.
 FoFCou: FMM=F IPFlag=           0 FMFlag=           0 FMFlg1=           0
         NFxFlg=           0 DoJE=F BraDBF=F KetDBF=F FulRan=T
         wScrn=  0.000000 ICntrl=       600 IOpCl=  0 I1Cent=           0 NGrid=           0
         NMat0=    1 NMatS0=  30628 NMatT0=    0 NMatD0=    1 NMtDS0=    0 NMtDT0=    0
 Petite list used in FoFCou.
 UHF open shell SCF:
 Using DIIS extrapolation, IDIIS=  1040.
 NGot=  1879048192 LenX=  1398088733 LenY=  1398008768
 Requested convergence on RMS density matrix=1.00D-08 within  32 cycles.
 Requested convergence on MAX density matrix=1.00D-06.
 Requested convergence on             energy=1.00D-06.
 No special actions if energy rises.

 Cycle   1  Pass 1  IDiag  1:
 E= -286.265480902002    
 DIIS: error= 1.03D-05 at cycle   1 NSaved=   1.
 NSaved= 1 IEnMin= 1 EnMin= -286.265480902002     IErMin= 1 ErrMin= 1.03D-05
 ErrMax= 1.03D-05  0.00D+00 EMaxC= 1.00D-01 BMatC= 2.73D-08 BMatP= 2.73D-08
 IDIUse=1 WtCom= 1.00D+00 WtEn= 0.00D+00
 Coeff-Com:  0.100D+01
 Coeff:      0.100D+01
 Gap=     0.333 Goal=   None    Shift=    0.000
 Gap=     0.309 Goal=   None    Shift=    0.000
 RMSDP=1.30D-06 MaxDP=4.56D-05              OVMax= 1.77D-05

 Cycle   2  Pass 1  IDiag  1:
 E= -286.265480907950     Delta-E=       -0.000000005947 Rises=F Damp=F
 DIIS: error= 1.33D-06 at cycle   2 NSaved=   2.
 NSaved= 2 IEnMin= 2 EnMin= -286.265480907950     IErMin= 2 ErrMin= 1.33D-06
 ErrMax= 1.33D-06  0.00D+00 EMaxC= 1.00D-01 BMatC= 6.97D-10 BMatP= 2.73D-08
 IDIUse=1 WtCom= 1.00D+00 WtEn= 0.00D+00
 Coeff-Com: -0.128D+00 0.113D+01
 Coeff:     -0.128D+00 0.113D+01
 Gap=     0.333 Goal=   None    Shift=    0.000
 Gap=     0.309 Goal=   None    Shift=    0.000
 RMSDP=1.72D-07 MaxDP=6.95D-06 DE=-5.95D-09 OVMax= 5.94D-06

 Cycle   3  Pass 1  IDiag  1:
 E= -286.265480908149     Delta-E=       -0.000000000199 Rises=F Damp=F
 DIIS: error= 7.85D-07 at cycle   3 NSaved=   3.
 NSaved= 3 IEnMin= 3 EnMin= -286.265480908149     IErMin= 3 ErrMin= 7.85D-07
 ErrMax= 7.85D-07  0.00D+00 EMaxC= 1.00D-01 BMatC= 1.93D-10 BMatP= 6.97D-10
 IDIUse=1 WtCom= 1.00D+00 WtEn= 0.00D+00
 Coeff-Com: -0.634D-01 0.451D+00 0.612D+00
 Coeff:     -0.634D-01 0.451D+00 0.612D+00
 Gap=     0.333 Goal=   None    Shift=    0.000
 Gap=     0.309 Goal=   None    Shift=    0.000
 RMSDP=3.91D-08 MaxDP=1.87D-06 DE=-1.99D-10 OVMax= 3.44D-06

 Cycle   4  Pass 1  IDiag  1:
 E= -286.265480908204     Delta-E=       -0.000000000055 Rises=F Damp=F
 DIIS: error= 3.06D-07 at cycle   4 NSaved=   4.
 NSaved= 4 IEnMin= 4 EnMin= -286.265480908204     IErMin= 4 ErrMin= 3.06D-07
 ErrMax= 3.06D-07  0.00D+00 EMaxC= 1.00D-01 BMatC= 1.99D-11 BMatP= 1.93D-10
 IDIUse=1 WtCom= 1.00D+00 WtEn= 0.00D+00
 Coeff-Com:  0.786D-02-0.101D+00 0.189D+00 0.904D+00
 Coeff:      0.786D-02-0.101D+00 0.189D+00 0.904D+00
 Gap=     0.333 Goal=   None    Shift=    0.000
 Gap=     0.309 Goal=   None    Shift=    0.000
 RMSDP=2.54D-08 MaxDP=1.06D-06 DE=-5.50D-11 OVMax= 1.33D-06

 Cycle   5  Pass 1  IDiag  1:
 E= -286.265480908203     Delta-E=        0.000000000001 Rises=F Damp=F
 DIIS: error= 5.97D-08 at cycle   5 NSaved=   5.
 NSaved= 5 IEnMin= 4 EnMin= -286.265480908204     IErMin= 5 ErrMin= 5.97D-08
 ErrMax= 5.97D-08  0.00D+00 EMaxC= 1.00D-01 BMatC= 8.68D-13 BMatP= 1.99D-11
 IDIUse=1 WtCom= 1.00D+00 WtEn= 0.00D+00
 Coeff-Com:  0.420D-02-0.393D-01-0.123D-02 0.158D+00 0.878D+00
 Coeff:      0.420D-02-0.393D-01-0.123D-02 0.158D+00 0.878D+00
 Gap=     0.333 Goal=   None    Shift=    0.000
 Gap=     0.309 Goal=   None    Shift=    0.000
 RMSDP=8.14D-09 MaxDP=3.76D-07 DE= 9.09D-13 OVMax= 3.33D-07

 SCF Done:  E(UwB97XD) =  -286.265480908     A.U. after    5 cycles
            NFock=  5  Conv=0.81D-08     -V/T= 2.0046
 <Sx>= 0.0000 <Sy>= 0.0000 <Sz>= 1.0000 <S**2>= 2.0785 S= 1.0260
 <L.S>= 0.000000000000E+00
 KE= 2.849425928680D+02 PE=-1.170048522439D+03 EE= 3.463228327931D+02
 Annihilation of the first spin contaminant:
 S**2 before annihilation     2.0785,   after     2.0028
 Leave Link  502 at Mon Mar  2 00:38:05 2020, MaxMem=  1879048192 cpu:            1947.5 elap:              62.6
 (Enter /opt/g16/l508.exe)
 QCSCF skips out because SCF is already converged.
 Leave Link  508 at Mon Mar  2 00:38:05 2020, MaxMem=  1879048192 cpu:               0.9 elap:               0.0
 (Enter /opt/g16/l601.exe)
 Copying SCF densities to generalized density rwf, IOpCl= 1 IROHF=0.

 **********************************************************************

            Population analysis using the SCF Density.

 **********************************************************************

 Orbital symmetries:
 Alpha Orbitals:
       Occupied  (A') (A') (A') (A') (A') (A') (A') (A') (A') (A')
                 (A') (A') (A') (A') (A') (A') (A') (A') (A") (A')
                 (A") (A') (A") (A') (A")
       Virtual   (A") (A") (A') (A') (A') (A') (A') (A') (A") (A')
                 (A') (A") (A') (A') (A") (A') (A') (A") (A') (A')
                 (A') (A") (A') (A") (A') (A') (A') (A') (A") (A')
                 (A") (A') (A') (A') (A') (A') (A') (A') (A") (A')
                 (A') (A') (A") (A') (A') (A') (A') (A') (A") (A')
                 (A") (A') (A") (A') (A") (A') (A') (A") (A') (A')
                 (A') (A') (A") (A") (A') (A') (A') (A") (A') (A")
                 (A') (A") (A') (A') (A') (A') (A") (A') (A') (A')
                 (A") (A") (A') (A') (A") (A') (A') (A") (A') (A")
                 (A') (A") (A') (A') (A") (A') (A") (A') (A") (A')
                 (A") (A') (A") (A') (A') (A') (A') (A') (A') (A")
                 (A') (A') (A') (A") (A") (A') (A') (A') (A') (A")
                 (A') (A") (A') (A') (A') (A") (A') (A") (A') (A")
                 (A') (A") (A') (A') (A') (A") (A') (A") (A') (A')
                 (A") (A") (A') (A") (A') (A") (A') (A") (A') (A')
                 (A") (A') (A') (A") (A') (A') (A") (A") (A') (A")
                 (A') (A') (A') (A') (A") (A') (A") (A') (A') (A")
                 (A') (A') (A") (A') (A') (A") (A') (A') (A") (A')
                 (A') (A") (A') (A') (A') (A") (A") (A") (A') (A')
                 (A') (A") (A') (A') (A") (A") (A') (A") (A') (A')
                 (A") (A') (A') (A') (A') (A') (A") (A') (A') (A')
                 (A') (A') (A') (A') (A') (A') (A') (A') (A') (A')
                 (A') (A')
 Beta  Orbitals:
       Occupied  (A') (A') (A') (A') (A') (A') (A') (A') (A') (A')
                 (A') (A') (A') (A') (A') (A') (A') (A') (A") (A')
                 (A") (A') (A")
       Virtual   (A") (A') (A") (A") (A') (A') (A') (A') (A') (A')
                 (A") (A') (A') (A") (A') (A') (A") (A') (A') (A")
                 (A') (A') (A') (A") (A') (A") (A') (A') (A') (A')
                 (A") (A') (A') (A") (A') (A') (A') (A') (A') (A')
                 (A") (A') (A') (A') (A") (A') (A') (A') (A') (A')
                 (A") (A') (A') (A") (A") (A') (A") (A') (A') (A")
                 (A') (A') (A') (A') (A") (A") (A') (A') (A') (A")
                 (A') (A") (A') (A") (A') (A') (A') (A') (A") (A')
                 (A') (A') (A") (A") (A') (A') (A") (A') (A') (A")
                 (A') (A") (A') (A") (A') (A') (A") (A') (A") (A')
                 (A") (A') (A") (A') (A") (A') (A') (A') (A') (A')
                 (A') (A') (A") (A') (A') (A") (A") (A') (A') (A')
                 (A') (A') (A") (A") (A') (A') (A') (A") (A') (A")
                 (A') (A") (A') (A") (A') (A') (A') (A") (A') (A")
                 (A') (A') (A") (A") (A') (A") (A') (A") (A') (A")
                 (A') (A') (A") (A') (A') (A") (A') (A') (A") (A")
                 (A') (A") (A') (A') (A') (A') (A") (A') (A") (A')
                 (A') (A") (A') (A') (A") (A') (A') (A') (A") (A')
                 (A") (A') (A') (A") (A') (A') (A') (A") (A") (A")
                 (A') (A') (A') (A") (A') (A') (A") (A") (A') (A")
                 (A') (A') (A') (A") (A') (A') (A') (A') (A') (A")
                 (A') (A') (A') (A') (A') (A') (A') (A') (A') (A')
                 (A') (A') (A') (A')
 The electronic state is 3-A".
 Alpha  occ. eigenvalues --  -14.43362 -10.33452 -10.33347 -10.31639 -10.31254
 Alpha  occ. eigenvalues --  -10.31082 -10.30977  -1.02570  -0.96350  -0.87791
 Alpha  occ. eigenvalues --   -0.82429  -0.72867  -0.69558  -0.61684  -0.57602
 Alpha  occ. eigenvalues --   -0.56058  -0.53939  -0.51874  -0.50402  -0.45694
 Alpha  occ. eigenvalues --   -0.42774  -0.37374  -0.36578  -0.34795  -0.29748
 Alpha virt. eigenvalues --    0.03585   0.06592   0.12130   0.13681   0.15265
 Alpha virt. eigenvalues --    0.18292   0.18811   0.20100   0.21148   0.23725
 Alpha virt. eigenvalues --    0.26539   0.27332   0.29047   0.29341   0.31304
 Alpha virt. eigenvalues --    0.31716   0.32578   0.33365   0.34531   0.38389
 Alpha virt. eigenvalues --    0.39043   0.39653   0.40002   0.40219   0.42878
 Alpha virt. eigenvalues --    0.44040   0.45841   0.47637   0.47955   0.48864
 Alpha virt. eigenvalues --    0.49031   0.49738   0.51265   0.52578   0.55317
 Alpha virt. eigenvalues --    0.56231   0.57208   0.58438   0.58849   0.60744
 Alpha virt. eigenvalues --    0.65438   0.68409   0.69275   0.71162   0.72532
 Alpha virt. eigenvalues --    0.74119   0.76022   0.77866   0.79516   0.82619
 Alpha virt. eigenvalues --    0.85923   0.86262   0.87323   0.88007   0.93543
 Alpha virt. eigenvalues --    0.94466   0.95909   1.06067   1.06759   1.07927
 Alpha virt. eigenvalues --    1.10141   1.11678   1.14607   1.15575   1.19799
 Alpha virt. eigenvalues --    1.22169   1.24514   1.25304   1.27609   1.29673
 Alpha virt. eigenvalues --    1.33724   1.35033   1.36693   1.38550   1.40223
 Alpha virt. eigenvalues --    1.45261   1.46044   1.47557   1.51322   1.54391
 Alpha virt. eigenvalues --    1.56243   1.56571   1.58146   1.60697   1.62775
 Alpha virt. eigenvalues --    1.63745   1.65999   1.68140   1.71505   1.73566
 Alpha virt. eigenvalues --    1.76456   1.77160   1.80415   1.85039   1.88182
 Alpha virt. eigenvalues --    1.88473   1.92129   1.95304   1.96167   2.01808
 Alpha virt. eigenvalues --    2.05420   2.09095   2.11420   2.15775   2.17211
 Alpha virt. eigenvalues --    2.19883   2.20675   2.26696   2.27024   2.28675
 Alpha virt. eigenvalues --    2.29179   2.37114   2.40487   2.41426   2.44033
 Alpha virt. eigenvalues --    2.47663   2.59363   2.61086   2.63192   2.64976
 Alpha virt. eigenvalues --    2.65857   2.66393   2.67531   2.69952   2.72899
 Alpha virt. eigenvalues --    2.75866   2.76184   2.77486   2.78951   2.81392
 Alpha virt. eigenvalues --    2.83062   2.85508   2.85818   2.87727   2.92551
 Alpha virt. eigenvalues --    2.93775   2.93863   2.95651   2.98977   3.03168
 Alpha virt. eigenvalues --    3.03455   3.07778   3.13268   3.14949   3.15710
 Alpha virt. eigenvalues --    3.18854   3.19481   3.20443   3.22221   3.25188
 Alpha virt. eigenvalues --    3.28223   3.29678   3.30453   3.33684   3.36372
 Alpha virt. eigenvalues --    3.39366   3.40041   3.42237   3.42875   3.43157
 Alpha virt. eigenvalues --    3.44458   3.48353   3.51681   3.53055   3.55026
 Alpha virt. eigenvalues --    3.56367   3.56469   3.59514   3.62799   3.73219
 Alpha virt. eigenvalues --    3.75735   3.77440   3.78403   3.84113   3.89271
 Alpha virt. eigenvalues --    4.02192   4.02386   4.04845   4.08560   4.09868
 Alpha virt. eigenvalues --    4.11045   4.14592   4.17239   4.18101   4.25908
 Alpha virt. eigenvalues --    4.26835   4.29633   4.35852   4.38286   4.44357
 Alpha virt. eigenvalues --    4.47966   4.48138   4.58586   4.65031   4.67119
 Alpha virt. eigenvalues --    4.73361   4.76450   4.82079   4.83693   4.86412
 Alpha virt. eigenvalues --    4.91716   4.92412   4.94909   5.03202   5.06197
 Alpha virt. eigenvalues --    5.18616   5.31241   5.31979   5.34021   5.37916
 Alpha virt. eigenvalues --    5.51942   5.55144   5.65036   5.74656   6.08200
 Alpha virt. eigenvalues --   22.12852  22.58072  22.61840  22.76754  22.91194
 Alpha virt. eigenvalues --   23.30006  32.13141
  Beta  occ. eigenvalues --  -14.42339 -10.33608 -10.31748 -10.31430 -10.31188
  Beta  occ. eigenvalues --  -10.31165 -10.30628  -1.00971  -0.94169  -0.87068
  Beta  occ. eigenvalues --   -0.79561  -0.72088  -0.68299  -0.60502  -0.56156
  Beta  occ. eigenvalues --   -0.54754  -0.53394  -0.50453  -0.48271  -0.44922
  Beta  occ. eigenvalues --   -0.37797  -0.35771  -0.35488
  Beta virt. eigenvalues --   -0.04615  -0.02603   0.04890   0.10166   0.12428
  Beta virt. eigenvalues --    0.13819   0.15332   0.18530   0.19064   0.20237
  Beta virt. eigenvalues --    0.22399   0.24505   0.26778   0.27762   0.29109
  Beta virt. eigenvalues --    0.29407   0.31449   0.32818   0.33415   0.34272
  Beta virt. eigenvalues --    0.35543   0.38805   0.39586   0.39940   0.40531
  Beta virt. eigenvalues --    0.40873   0.43129   0.44467   0.46634   0.47949
  Beta virt. eigenvalues --    0.48339   0.49089   0.50170   0.50992   0.51741
  Beta virt. eigenvalues --    0.53036   0.55643   0.56790   0.57779   0.59356
  Beta virt. eigenvalues --    0.59866   0.61288   0.65565   0.68584   0.69965
  Beta virt. eigenvalues --    0.71373   0.73438   0.74863   0.77016   0.78718
  Beta virt. eigenvalues --    0.79749   0.82634   0.86961   0.87918   0.88289
  Beta virt. eigenvalues --    0.88762   0.94546   0.95130   0.96317   1.07147
  Beta virt. eigenvalues --    1.07800   1.08335   1.10845   1.13396   1.15871
  Beta virt. eigenvalues --    1.16842   1.21087   1.23227   1.24904   1.25933
  Beta virt. eigenvalues --    1.27958   1.30500   1.34398   1.36066   1.37204
  Beta virt. eigenvalues --    1.39451   1.41223   1.45836   1.47295   1.49765
  Beta virt. eigenvalues --    1.53093   1.55209   1.56904   1.57882   1.58715
  Beta virt. eigenvalues --    1.61090   1.64184   1.64676   1.66702   1.68551
  Beta virt. eigenvalues --    1.71678   1.74622   1.76879   1.77860   1.82822
  Beta virt. eigenvalues --    1.85593   1.88822   1.89089   1.93132   1.96081
  Beta virt. eigenvalues --    1.96496   2.02686   2.06228   2.09528   2.12055
  Beta virt. eigenvalues --    2.16397   2.18136   2.20438   2.21694   2.27390
  Beta virt. eigenvalues --    2.28050   2.30196   2.31009   2.37641   2.41372
  Beta virt. eigenvalues --    2.42203   2.46611   2.48367   2.59950   2.61875
  Beta virt. eigenvalues --    2.64187   2.66513   2.66761   2.67888   2.68851
  Beta virt. eigenvalues --    2.70236   2.73296   2.76406   2.77319   2.78302
  Beta virt. eigenvalues --    2.80327   2.82007   2.84299   2.86734   2.86884
  Beta virt. eigenvalues --    2.88297   2.93568   2.94494   2.94574   2.96527
  Beta virt. eigenvalues --    3.00043   3.04218   3.05756   3.09066   3.14437
  Beta virt. eigenvalues --    3.15768   3.16385   3.19307   3.20241   3.22726
  Beta virt. eigenvalues --    3.23203   3.25989   3.29246   3.30628   3.32180
  Beta virt. eigenvalues --    3.35150   3.37242   3.40747   3.41363   3.43263
  Beta virt. eigenvalues --    3.44988   3.46082   3.46347   3.49043   3.52327
  Beta virt. eigenvalues --    3.55831   3.56408   3.57566   3.57611   3.60352
  Beta virt. eigenvalues --    3.63591   3.74227   3.76869   3.80011   3.80452
  Beta virt. eigenvalues --    3.85213   3.90103   4.02998   4.03447   4.05465
  Beta virt. eigenvalues --    4.10476   4.10994   4.12047   4.15808   4.18403
  Beta virt. eigenvalues --    4.18575   4.26746   4.27743   4.31174   4.38064
  Beta virt. eigenvalues --    4.40270   4.46275   4.48804   4.50093   4.60504
  Beta virt. eigenvalues --    4.66865   4.68905   4.76603   4.77576   4.83892
  Beta virt. eigenvalues --    4.84572   4.87710   4.94067   4.95257   4.96165
  Beta virt. eigenvalues --    5.04664   5.08402   5.20104   5.33113   5.33417
  Beta virt. eigenvalues --    5.35156   5.39126   5.52968   5.55991   5.66038
  Beta virt. eigenvalues --    5.75470   6.08730  22.13912  22.59981  22.61925
  Beta virt. eigenvalues --   22.77196  22.91186  23.29918  32.14465
          Condensed to atoms (all electrons):
               1          2          3          4          5          6
     1  N    6.537905   0.589260  -0.064556   0.010262   0.002162  -0.001491
     2  C    0.589260   4.684819   0.434939  -0.033899  -0.018186  -0.052343
     3  C   -0.064556   0.434939   4.965111   0.407294   0.502118  -0.022277
     4  H    0.010262  -0.033899   0.407294   0.506960  -0.046545   0.009427
     5  C    0.002162  -0.018186   0.502118  -0.046545   4.861063   0.491049
     6  C   -0.001491  -0.052343  -0.022277   0.009427   0.491049   5.097241
     7  C    0.024207   0.031657  -0.026797  -0.005877  -0.036021   0.485554
     8  C   -0.127761   0.373345  -0.038810   0.017285  -0.036322   0.001233
     9  H    0.356374  -0.092060   0.014153  -0.001491  -0.000686  -0.000421
    10  H   -0.000077   0.006815  -0.043524  -0.005371   0.426441  -0.041904
    11  H   -0.000314   0.002535  -0.000792   0.000074   0.004084  -0.036684
    12  H   -0.004503  -0.048399   0.008916  -0.000057  -0.002494   0.007336
               7          8          9         10         11         12
     1  N    0.024207  -0.127761   0.356374  -0.000077  -0.000314  -0.004503
     2  C    0.031657   0.373345  -0.092060   0.006815   0.002535  -0.048399
     3  C   -0.026797  -0.038810   0.014153  -0.043524  -0.000792   0.008916
     4  H   -0.005877   0.017285  -0.001491  -0.005371   0.000074  -0.000057
     5  C   -0.036021  -0.036322  -0.000686   0.426441   0.004084  -0.002494
     6  C    0.485554   0.001233  -0.000421  -0.041904  -0.036684   0.007336
     7  C    4.999386   0.298832   0.008105   0.005929   0.410288  -0.032953
     8  C    0.298832   5.326146  -0.024108  -0.002378  -0.028747   0.418485
     9  H    0.008105  -0.024108   0.533815   0.000027  -0.000084   0.003205
    10  H    0.005929  -0.002378   0.000027   0.512085  -0.000100   0.000047
    11  H    0.410288  -0.028747  -0.000084  -0.000100   0.512154  -0.004442
    12  H   -0.032953   0.418485   0.003205   0.000047  -0.004442   0.525383
          Atomic-Atomic Spin Densities.
               1          2          3          4          5          6
     1  N    0.655950  -0.014418  -0.026661  -0.000429  -0.000130   0.000987
     2  C   -0.014418  -0.174501   0.005896  -0.001184   0.017005  -0.012075
     3  C   -0.026661   0.005896   0.371088  -0.002490   0.002434  -0.037601
     4  H   -0.000429  -0.001184  -0.002490   0.000296  -0.002446   0.002496
     5  C   -0.000130   0.017005   0.002434  -0.002446  -0.194937  -0.004649
     6  C    0.000987  -0.012075  -0.037601   0.002496  -0.004649   1.319684
     7  C   -0.001647   0.013180  -0.002486   0.000052   0.018579   0.007038
     8  C   -0.017936   0.009558   0.008521  -0.000403  -0.004294  -0.039890
     9  H   -0.002406   0.006124   0.001848   0.000169  -0.000022   0.000204
    10  H   -0.000003  -0.000169  -0.007710   0.001490   0.011607  -0.008121
    11  H    0.000006  -0.000065  -0.000232   0.000020  -0.000496  -0.008176
    12  H   -0.000010  -0.002908  -0.000165   0.000087  -0.000346   0.002896
               7          8          9         10         11         12
     1  N   -0.001647  -0.017936  -0.002406  -0.000003   0.000006  -0.000010
     2  C    0.013180   0.009558   0.006124  -0.000169  -0.000065  -0.002908
     3  C   -0.002486   0.008521   0.001848  -0.007710  -0.000232  -0.000165
     4  H    0.000052  -0.000403   0.000169   0.001490   0.000020   0.000087
     5  C    0.018579  -0.004294  -0.000022   0.011607  -0.000496  -0.000346
     6  C    0.007038  -0.039890   0.000204  -0.008121  -0.008176   0.002896
     7  C   -0.204341   0.006346  -0.000813  -0.000493   0.013606  -0.000631
     8  C    0.006346   0.361828  -0.001010  -0.000195  -0.010350  -0.003610
     9  H   -0.000813  -0.001010  -0.020942   0.000000   0.000012   0.000437
    10  H   -0.000493  -0.000195   0.000000   0.026837   0.000073   0.000022
    11  H    0.013606  -0.010350   0.000012   0.000073   0.027530   0.001586
    12  H   -0.000631  -0.003610   0.000437   0.000022   0.001586   0.000284
 Mulliken charges and spin densities:
               1          2
     1  N   -0.321469   0.593302
     2  C    0.121515  -0.153558
     3  C   -0.135775   0.312443
     4  H    0.141939  -0.002340
     5  C   -0.146665  -0.157695
     6  C    0.063281   1.222794
     7  C   -0.162309  -0.151610
     8  C   -0.177200   0.308566
     9  H    0.203171  -0.016398
    10  H    0.142010   0.023340
    11  H    0.142027   0.023515
    12  H    0.129476  -0.002358
 Sum of Mulliken charges =  -0.00000   2.00000
 Mulliken charges and spin densities with hydrogens summed into heavy atoms:
               1          2
     1  N   -0.118298   0.576904
     2  C    0.121515  -0.153558
     3  C    0.006163   0.310103
     5  C   -0.004655  -0.134355
     6  C    0.063281   1.222794
     7  C   -0.020283  -0.128095
     8  C   -0.047724   0.306208
 Electronic spatial extent (au):  <R**2>=            617.3015
 Charge=             -0.0000 electrons
 Dipole moment (field-independent basis, Debye):
    X=              1.8594    Y=             -0.1966    Z=             -0.0000  Tot=              1.8697
 Quadrupole moment (field-independent basis, Debye-Ang):
   XX=            -44.3760   YY=            -33.6963   ZZ=            -43.5284
   XY=             -4.3197   XZ=              0.0000   YZ=              0.0000
 Traceless Quadrupole moment (field-independent basis, Debye-Ang):
   XX=             -3.8424   YY=              6.8372   ZZ=             -2.9949
   XY=             -4.3197   XZ=              0.0000   YZ=              0.0000
 Octapole moment (field-independent basis, Debye-Ang**2):
  XXX=             17.8551  YYY=             -9.4370  ZZZ=              0.0000  XYY=             -4.8947
  XXY=              2.6406  XXZ=             -0.0000  XZZ=             -1.9900  YZZ=             -1.9236
  YYZ=              0.0000  XYZ=             -0.0000
 Hexadecapole moment (field-independent basis, Debye-Ang**3):
 XXXX=           -449.1558 YYYY=           -318.0861 ZZZZ=            -48.8876 XXXY=            -82.6425
 XXXZ=              0.0000 YYYX=            -40.6934 YYYZ=              0.0000 ZZZX=              0.0000
 ZZZY=              0.0000 XXYY=           -136.1032 XXZZ=            -84.8311 YYZZ=            -77.4839
 XXYZ=              0.0000 YYXZ=              0.0000 ZZXY=            -15.3167
 N-N= 2.525176158700D+02 E-N=-1.170048519837D+03  KE= 2.849425928680D+02
 Symmetry A'   KE= 2.767759905679D+02
 Symmetry A"   KE= 8.166602300111D+00
 Symmetry A'   SP= 1.000000000000D+00
 Symmetry A"   SP= 1.000000000000D+00
                          Isotropic Fermi Contact Couplings
        Atom                 a.u.       MegaHertz       Gauss      10(-4) cm-1
     1  N(14)              0.05831       9.42071       3.36155       3.14241
     2  C(13)             -0.04306     -24.20539      -8.63708      -8.07405
     3  C(13)              0.06101      34.29454      12.23715      11.43943
     4  H(1)              -0.00120      -2.67659      -0.95507      -0.89281
     5  C(13)             -0.00550      -3.09382      -1.10395      -1.03199
     6  C(13)              0.36553     205.46257      73.31415      68.53494
     7  C(13)             -0.00462      -2.59449      -0.92578      -0.86543
     8  C(13)              0.06288      35.34657      12.61253      11.79035
     9  H(1)              -0.00865     -19.33872      -6.90054      -6.45070
    10  H(1)               0.01166      26.06032       9.29897       8.69279
    11  H(1)               0.01173      26.20837       9.35180       8.74217
    12  H(1)              -0.00148      -3.30610      -1.17970      -1.10279
 --------------------------------------------------------
       Center         ----  Spin Dipole Couplings  ----
                      3XX-RR        3YY-RR        3ZZ-RR
 --------------------------------------------------------
     1   Atom       -0.683179     -0.670892      1.354071
     2   Atom        0.109246      0.089517     -0.198763
     3   Atom       -0.133685     -0.169674      0.303359
     4   Atom        0.021897     -0.011858     -0.010039
     5   Atom        0.187665      0.055697     -0.243362
     6   Atom        0.212309     -0.140916     -0.071393
     7   Atom        0.053008      0.184786     -0.237795
     8   Atom       -0.149063     -0.155498      0.304561
     9   Atom       -0.050594      0.063318     -0.012724
    10   Atom        0.015811      0.001891     -0.017702
    11   Atom       -0.004607      0.022265     -0.017659
    12   Atom       -0.018169      0.027628     -0.009458
 --------------------------------------------------------
                        XY            XZ            YZ
 --------------------------------------------------------
     1   Atom        0.002752     -0.000000     -0.000000
     2   Atom        0.029255      0.000000      0.000000
     3   Atom        0.041181      0.000000      0.000000
     4   Atom       -0.016816     -0.000000     -0.000000
     5   Atom       -0.014889     -0.000000     -0.000000
     6   Atom        0.764132     -0.000000      0.000000
     7   Atom        0.013457      0.000000     -0.000000
     8   Atom        0.043135     -0.000000     -0.000000
     9   Atom       -0.031280     -0.000000     -0.000000
    10   Atom       -0.016298      0.000000     -0.000000
    11   Atom       -0.012215      0.000000     -0.000000
    12   Atom       -0.008791     -0.000000      0.000000
 --------------------------------------------------------


 ---------------------------------------------------------------------------------
              Anisotropic Spin Dipole Couplings in Principal Axis System
 ---------------------------------------------------------------------------------

       Atom             a.u.   MegaHertz   Gauss  10(-4) cm-1        Axes

              Baa    -0.6838   -26.371    -9.410    -8.797  0.9779 -0.2090 -0.0000
     1 N(14)  Bbb    -0.6703   -25.852    -9.225    -8.623  0.2090  0.9779 -0.0000
              Bcc     1.3541    52.224    18.635    17.420  0.0000  0.0000  1.0000
 
              Baa    -0.1988   -26.672    -9.517    -8.897  0.0000  0.0000  1.0000
     2 C(13)  Bbb     0.0685     9.193     3.280     3.066 -0.5833  0.8123  0.0000
              Bcc     0.1303    17.479     6.237     5.830  0.8123  0.5833 -0.0000
 
              Baa    -0.1966   -26.385    -9.415    -8.801 -0.5475  0.8368 -0.0000
     3 C(13)  Bbb    -0.1067   -14.323    -5.111    -4.778  0.8368  0.5475  0.0000
              Bcc     0.3034    40.708    14.526    13.579  0.0000  0.0000  1.0000
 
              Baa    -0.0188   -10.033    -3.580    -3.347  0.3818  0.9242  0.0000
     4 H(1)   Bbb    -0.0100    -5.356    -1.911    -1.787  0.0000  0.0000  1.0000
              Bcc     0.0288    15.390     5.491     5.133  0.9242 -0.3818  0.0000
 
              Baa    -0.2434   -32.657   -11.653   -10.893  0.0000  0.0000  1.0000
     5 C(13)  Bbb     0.0540     7.251     2.587     2.419  0.1107  0.9939 -0.0000
              Bcc     0.1893    25.405     9.065     8.474  0.9939 -0.1107 -0.0000
 
              Baa    -0.7486  -100.452   -35.844   -33.507 -0.6224  0.7827  0.0000
     6 C(13)  Bbb    -0.0714    -9.580    -3.418    -3.196  0.0000  0.0000  1.0000
              Bcc     0.8200   110.033    39.262    36.703  0.7827  0.6224  0.0000
 
              Baa    -0.2378   -31.910   -11.386   -10.644  0.0000  0.0000  1.0000
     7 C(13)  Bbb     0.0516     6.931     2.473     2.312  0.9949 -0.1006  0.0000
              Bcc     0.1861    24.979     8.913     8.332  0.1006  0.9949 -0.0000
 
              Baa    -0.1955   -26.239    -9.363    -8.752 -0.6803  0.7329 -0.0000
     8 C(13)  Bbb    -0.1090   -14.630    -5.220    -4.880  0.7329  0.6803  0.0000
              Bcc     0.3046    40.869    14.583    13.632  0.0000  0.0000  1.0000
 
              Baa    -0.0586   -31.276   -11.160   -10.432  0.9686  0.2485 -0.0000
     9 H(1)   Bbb    -0.0127    -6.789    -2.422    -2.265  0.0000  0.0000  1.0000
              Bcc     0.0713    38.065    13.582    12.697 -0.2485  0.9686 -0.0000
 
              Baa    -0.0177    -9.445    -3.370    -3.150  0.0000  0.0000  1.0000
    10 H(1)   Bbb    -0.0089    -4.733    -1.689    -1.579  0.5510  0.8345 -0.0000
              Bcc     0.0266    14.178     5.059     4.729  0.8345 -0.5510  0.0000
 
              Baa    -0.0177    -9.422    -3.362    -3.143  0.0000  0.0000  1.0000
    11 H(1)   Bbb    -0.0093    -4.978    -1.776    -1.660  0.9327  0.3606 -0.0000
              Bcc     0.0270    14.400     5.138     4.803 -0.3606  0.9327 -0.0000
 
              Baa    -0.0198   -10.564    -3.769    -3.524  0.9833  0.1823  0.0000
    12 H(1)   Bbb    -0.0095    -5.046    -1.801    -1.683  0.0000  0.0000  1.0000
              Bcc     0.0293    15.610     5.570     5.207 -0.1823  0.9833 -0.0000
 

 ---------------------------------------------------------------------------------

 No NMR shielding tensors so no spin-rotation constants.
 Leave Link  601 at Mon Mar  2 00:38:06 2020, MaxMem=  1879048192 cpu:              20.7 elap:               0.6
 (Enter /opt/g16/l701.exe)
 ... and contract with generalized density number  0.
 Compute integral first derivatives.
 R6Disp: Adding Grimme-D2 dispersion energy 1st derivatives to the gradient.
   2 Symmetry operations used in ECPInt.
 ECPInt:  NShTT=    4753 NPrTT=   14704 LenC2=    4703 LenP2D=   12028.
 LDataN:  DoStor=T MaxTD1= 7 Len=  274
 Leave Link  701 at Mon Mar  2 00:38:08 2020, MaxMem=  1879048192 cpu:              61.8 elap:               2.0
 (Enter /opt/g16/l702.exe)
 L702 exits ... SP integral derivatives will be done elsewhere.
 Leave Link  702 at Mon Mar  2 00:38:08 2020, MaxMem=  1879048192 cpu:               3.8 elap:               0.1
 (Enter /opt/g16/l703.exe)
 Integral derivatives from FoFJK, PRISM(SPDF).
 Compute integral first derivatives, UseDBF=F ICtDFT=           0.
 Calling FoFJK, ICntrl=      2127 FMM=F ISym2X=1 I1Cent= 0 IOpClX= 1 NMat=1 NMatS=1 NMatT=0.
 FoFJK:  IHMeth= 1 ICntrl=    2127 DoSepK=T KAlg= 0 I1Cent=           0 FoldK=F
 IRaf=         1 NMat=       1 IRICut=       1 DoRegI=T DoRafI=F ISym2E= 1 IDoP0=0 IntGTp=1.
 FoFCou: FMM=F IPFlag=           0 FMFlag=      100000 FMFlg1=         800
         NFxFlg=           0 DoJE=F BraDBF=F KetDBF=F FulRan=T
         wScrn=  0.000000 ICntrl=      2527 IOpCl=  0 I1Cent=           0 NGrid=           0
         NMat0=    1 NMatS0=      1 NMatT0=    0 NMatD0=    1 NMtDS0=    0 NMtDT0=    0
 Petite list used in FoFCou.
 Leave Link  703 at Mon Mar  2 00:38:24 2020, MaxMem=  1879048192 cpu:             542.8 elap:              16.3
 (Enter /opt/g16/l716.exe)
 Dipole        = 7.31528050D-01-7.73501944D-02-3.35181184D-17
 ***** Axes restored to original set *****
 -------------------------------------------------------------------
 Center     Atomic                   Forces (Hartrees/Bohr)
 Number     Number              X              Y              Z
 -------------------------------------------------------------------
      1        7           0.000086647    0.000050907    0.000006121
      2        6          -0.000192296   -0.000000584   -0.000013812
      3        6           0.000066718    0.000001636    0.000004789
      4        1          -0.000016758   -0.000012863   -0.000001178
      5        6          -0.000065516   -0.000072328   -0.000004560
      6        6           0.000071428    0.000042818    0.000005044
      7        6          -0.000021975    0.000013615   -0.000001606
      8        6           0.000015653   -0.000002764    0.000001130
      9        1           0.000027468   -0.000037407    0.000002049
     10        1           0.000026057   -0.000013362    0.000001899
     11        1           0.000017596    0.000023383    0.000001217
     12        1          -0.000015023    0.000006948   -0.000001093
 -------------------------------------------------------------------
 Cartesian Forces:  Max     0.000192296 RMS     0.000045281
 Leave Link  716 at Mon Mar  2 00:38:25 2020, MaxMem=  1879048192 cpu:               2.7 elap:               0.1
 (Enter /opt/g16/l103.exe)

 GradGradGradGradGradGradGradGradGradGradGradGradGradGradGradGradGradGrad
 Berny optimization.
 FormGI is forming the generalized inverse of G from B-inverse, IUseBI=4.
 GSVD:  received Info=                   1 from GESDD.
 Internal  Forces:  Max     0.000114143 RMS     0.000025271
 Search for a local minimum.
 Step number   1 out of a maximum of   61
 All quantities printed in internal units (Hartrees-Bohrs-Radians)
 RMS Force = .25271D-04 SwitMx=.10000D-02 MixMth= 2
 Mixed Optimization -- En-DIIS/RFO-DIIS
 Second derivative matrix not updated -- first step.
 ITU=  0
     Eigenvalues ---    0.01724   0.01932   0.01994   0.02072   0.02203
     Eigenvalues ---    0.02357   0.02372   0.02378   0.02696   0.16000
     Eigenvalues ---    0.16000   0.16000   0.16000   0.16000   0.22000
     Eigenvalues ---    0.22849   0.23870   0.25000   0.35449   0.35662
     Eigenvalues ---    0.35679   0.35684   0.38999   0.39732   0.44354
     Eigenvalues ---    0.46009   0.47248   0.49130   0.49581   0.60931
 RFO step:  Lambda=-7.23961963D-08 EMin= 1.72427508D-02
 Linear search not attempted -- first point.
 Iteration  1 RMS(Cart)=  0.00006359 RMS(Int)=  0.00000001
 Iteration  2 RMS(Cart)=  0.00000001 RMS(Int)=  0.00000001
 ITry= 1 IFail=0 DXMaxC= 1.88D-04 DCOld= 1.00D+10 DXMaxT= 3.00D-01 DXLimC= 3.00D+00 Rises=F
 ClnCor:  largest displacement from symmetrization is 1.29D-08 for atom     5.
 Variable       Old X    -DE/DX   Delta X   Delta X   Delta X     New X
                                 (Linear)    (Quad)   (Total)
    R1        2.50211   0.00011   0.00000   0.00019   0.00019   2.50230
    R2        1.92733   0.00005   0.00000   0.00011   0.00011   1.92744
    R3        2.70542  -0.00005   0.00000  -0.00012  -0.00012   2.70530
    R4        2.70777  -0.00002   0.00000  -0.00006  -0.00006   2.70771
    R5        2.04579  -0.00002   0.00000  -0.00005  -0.00005   2.04574
    R6        2.60217   0.00001   0.00000   0.00001   0.00001   2.60219
    R7        2.60914  -0.00008   0.00000  -0.00016  -0.00016   2.60898
    R8        2.04587  -0.00003   0.00000  -0.00008  -0.00008   2.04579
    R9        2.60809  -0.00004   0.00000  -0.00009  -0.00009   2.60799
   R10        2.60371  -0.00003   0.00000  -0.00007  -0.00007   2.60364
   R11        2.04613  -0.00003   0.00000  -0.00008  -0.00008   2.04605
   R12        2.04952  -0.00002   0.00000  -0.00004  -0.00004   2.04947
    A1        1.91679   0.00000   0.00000   0.00002   0.00002   1.91681
    A2        2.05697   0.00001   0.00000   0.00003   0.00003   2.05700
    A3        2.16710  -0.00002   0.00000  -0.00011  -0.00011   2.16699
    A4        2.05911   0.00002   0.00000   0.00008   0.00008   2.05920
    A5        2.04879   0.00002   0.00000   0.00011   0.00011   2.04890
    A6        2.11378  -0.00002   0.00000  -0.00008  -0.00008   2.11370
    A7        2.12062   0.00000   0.00000  -0.00003  -0.00003   2.12059
    A8        2.04172   0.00000   0.00000   0.00000   0.00000   2.04173
    A9        2.11400  -0.00001   0.00000  -0.00007  -0.00007   2.11392
   A10        2.12746   0.00001   0.00000   0.00007   0.00007   2.12754
   A11        2.19722   0.00002   0.00000   0.00007   0.00007   2.19729
   A12        2.04160  -0.00000   0.00000  -0.00003  -0.00003   2.04158
   A13        2.12753   0.00001   0.00000   0.00006   0.00006   2.12759
   A14        2.11405  -0.00001   0.00000  -0.00003  -0.00003   2.11401
   A15        2.11293  -0.00001   0.00000  -0.00005  -0.00005   2.11288
   A16        2.07034   0.00001   0.00000   0.00007   0.00007   2.07041
   A17        2.09992  -0.00000   0.00000  -0.00003  -0.00003   2.09990
    D1        3.14159   0.00000   0.00000   0.00000   0.00000   3.14159
    D2        0.00000   0.00000   0.00000   0.00000  -0.00000   0.00000
    D3        0.00000  -0.00000   0.00000  -0.00000   0.00000   0.00000
    D4        3.14159  -0.00000   0.00000  -0.00000   0.00000   3.14159
    D5        3.14159  -0.00000   0.00000  -0.00000   0.00000   3.14159
    D6       -0.00000  -0.00000   0.00000  -0.00000   0.00000   0.00000
    D7        3.14159   0.00000   0.00000   0.00000   0.00000   3.14159
    D8       -0.00000   0.00000   0.00000   0.00000   0.00000   0.00000
    D9        0.00000   0.00000   0.00000   0.00000  -0.00000   0.00000
   D10        3.14159   0.00000   0.00000   0.00000   0.00000   3.14159
   D11        0.00000   0.00000   0.00000   0.00000  -0.00000   0.00000
   D12        3.14159   0.00000   0.00000   0.00000   0.00000   3.14159
   D13        3.14159  -0.00000   0.00000  -0.00000   0.00000   3.14159
   D14       -0.00000  -0.00000   0.00000  -0.00000   0.00000   0.00000
   D15       -0.00000   0.00000   0.00000   0.00000   0.00000   0.00000
   D16        3.14159   0.00000   0.00000   0.00000   0.00000  -3.14159
   D17        0.00000  -0.00000   0.00000  -0.00000   0.00000   0.00000
   D18        3.14159  -0.00000   0.00000  -0.00000   0.00000   3.14159
   D19       -0.00000   0.00000   0.00000   0.00000   0.00000   0.00000
   D20        3.14159  -0.00000   0.00000  -0.00000   0.00000   3.14159
   D21        3.14159   0.00000   0.00000   0.00000   0.00000   3.14159
   D22        0.00000  -0.00000   0.00000  -0.00000  -0.00000   0.00000
         Item               Value     Threshold  Converged?
 Maximum Force            0.000114     0.000015     NO 
 RMS     Force            0.000025     0.000010     NO 
 Maximum Displacement     0.000188     0.000060     NO 
 RMS     Displacement     0.000064     0.000040     NO 
 Predicted change in Energy=-3.619810D-08
 Lowest energy point so far.  Saving SCF results.
 GradGradGradGradGradGradGradGradGradGradGradGradGradGradGradGradGradGrad

 Leave Link  103 at Mon Mar  2 00:38:25 2020, MaxMem=  1879048192 cpu:               2.6 elap:               0.1
 (Enter /opt/g16/l202.exe)
                          Input orientation:                          
 ---------------------------------------------------------------------
 Center     Atomic      Atomic             Coordinates (Angstroms)
 Number     Number       Type             X           Y           Z
 ---------------------------------------------------------------------
      1          7           0        2.225555    0.476577    0.158901
      2          6           0        0.940803    0.169316    0.067237
      3          6           0       -0.000988    1.245228   -0.002593
      4          1           0        0.391953    2.253617    0.023591
      5          6           0       -1.352929    1.002119   -0.099213
      6          6           0       -1.751448   -0.319472   -0.125163
      7          6           0       -0.917610   -1.417427   -0.063043
      8          6           0        0.434452   -1.170670    0.033578
      9          1           0        2.783121   -0.376468    0.200680
     10          1           0       -2.065309    1.815582   -0.152033
     11          1           0       -1.301372   -2.429535   -0.088560
     12          1           0        1.138770   -1.993726    0.085838
 ---------------------------------------------------------------------
                    Distance matrix (angstroms):
                    1          2          3          4          5
     1  N    0.000000
     2  C    1.324160   0.000000
     3  C    2.361017   1.431585   0.000000
     4  H    2.557005   2.155795   1.082560   0.000000
     5  C    3.626068   2.445910   1.377019   2.150800   0.000000
     6  C    4.065826   2.743018   2.351047   3.352176   1.380614
     7  C    3.676411   2.447125   2.816661   3.898592   2.458661
     8  C    2.436633   1.432860   2.455093   3.424565   2.816626
     9  H    1.019956   1.926090   3.228387   3.558987   4.370051
    10  H    4.505677   3.434382   2.146871   2.502170   1.082588
    11  H    4.576673   3.435934   3.899009   4.981148   3.432058
    12  H    2.699785   2.172162   3.434777   4.312949   3.901012
                    6          7          8          9         10
     6  C    0.000000
     7  C    1.380090   0.000000
     8  C    2.351148   1.377786   0.000000
     9  H    4.546618   3.853382   2.484940   0.000000
    10  H    2.158167   3.431833   3.898840   5.332613   0.000000
    11  H    2.157840   1.082722   2.147729   4.580592   4.313774
    12  H    3.346790   2.140790   1.084534   2.309243   4.983325
                   11         12
    11  H    0.000000
    12  H    2.484881   0.000000
 Stoichiometry    C6H5N(3)
 Framework group  CS[SG(C6H5N)]
 Deg. of freedom    21
 Full point group                 CS      NOp   2
 RotChk:  IX=3 Diff= 1.24D+00
 Largest Abelian subgroup         CS      NOp   2
 Largest concise Abelian subgroup C1      NOp   1
                         Standard orientation:                         
 ---------------------------------------------------------------------
 Center     Atomic      Atomic             Coordinates (Angstroms)
 Number     Number       Type             X           Y           Z
 ---------------------------------------------------------------------
      1          7           0       -0.061812   -2.269140    0.000000
      2          6           0       -0.000000   -0.946424    0.000000
      3          6           0       -1.233077   -0.219131    0.000000
      4          1           0       -2.150398   -0.793986    0.000000
      5          6           0       -1.246850    1.157819   -0.000000
      6          6           0       -0.022848    1.796499   -0.000000
      7          6           0        1.211713    1.179646   -0.000000
      8          6           0        1.221926   -0.198102    0.000000
      9          1           0        0.880499   -2.659474    0.000000
     10          1           0       -2.179201    1.708018   -0.000000
     11          1           0        2.134404    1.746152   -0.000000
     12          1           0        2.162195   -0.738574    0.000000
 ---------------------------------------------------------------------
 Rotational constants (GHZ):           5.4923065           2.9774244           1.9307493
 Leave Link  202 at Mon Mar  2 00:38:25 2020, MaxMem=  1879048192 cpu:               4.6 elap:               0.2
 (Enter /opt/g16/l301.exe)
 Standard basis: def2TZVP (5D, 7F)
 Ernie: Thresh=  0.10000D-02 Tol=  0.10000D-05 Strict=F.
 There are   200 symmetry adapted cartesian basis functions of A'  symmetry.
 There are    82 symmetry adapted cartesian basis functions of A"  symmetry.
 There are   172 symmetry adapted basis functions of A'  symmetry.
 There are    75 symmetry adapted basis functions of A"  symmetry.
   247 basis functions,   397 primitive gaussians,   282 cartesian basis functions
    25 alpha electrons       23 beta electrons
       nuclear repulsion energy       252.5256656160 Hartrees.
 IExCor= 4639 DFT=T Ex+Corr=wB97XD ExCW=0 ScaHFX=  1.000000
 ScaDFX=  1.000000  1.000000  1.000000  1.000000 ScalE2=  1.000000  1.000000
 IRadAn=      5 IRanWt=     -1 IRanGd=            0 ICorTp=0 IEmpDi=121
 HFx  wShort=  0.000000 wLong=  0.200000 cFull=  0.222036 cShort=  0.000000 cLong=  0.777964
 DFx  wShort=  0.000000 wLong=  0.200000 cFull=  0.000000 cShort=  0.000000 cLong=  1.000000
 NAtoms=   12 NActive=   12 NUniq=   12 SFac= 1.00D+00 NAtFMM=   60 NAOKFM=F Big=F
 Integral buffers will be    131072 words long.
 Raffenetti 2 integral format.
 Two-electron integral symmetry is turned on.
 R6Disp:  Grimme-D2 Dispersion energy=       -0.0042543664 Hartrees.
 Nuclear repulsion after empirical dispersion term =      252.5214112496 Hartrees.
 Leave Link  301 at Mon Mar  2 00:38:25 2020, MaxMem=  1879048192 cpu:               4.4 elap:               0.1
 (Enter /opt/g16/l302.exe)
 NPDir=0 NMtPBC=     1 NCelOv=     1 NCel=       1 NClECP=     1 NCelD=      1
         NCelK=      1 NCelE2=     1 NClLst=     1 CellRange=     0.0.
 One-electron integrals computed using PRISM.
 One-electron integral symmetry used in STVInt
   2 Symmetry operations used in ECPInt.
 ECPInt:  NShTT=    4753 NPrTT=   14704 LenC2=    4703 LenP2D=   12028.
 LDataN:  DoStor=T MaxTD1= 6 Len=  172
 NBasis=   247 RedAO= T EigKep=  1.73D-05  NBF=   172    75
 NBsUse=   247 1.00D-06 EigRej= -1.00D+00 NBFU=   172    75
 Precomputing XC quadrature grid using
 IXCGrd= 4 IRadAn=           5 IRanWt=          -1 IRanGd=           0 AccXCQ= 1.00D-12.
 Generated NRdTot=       0 NPtTot=           0 NUsed=           0 NTot=          32
 NSgBfM=   281   281   281   281   281 MxSgAt=    12 MxSgA2=    12.
 Leave Link  302 at Mon Mar  2 00:38:26 2020, MaxMem=  1879048192 cpu:              15.3 elap:               0.5
 (Enter /opt/g16/l303.exe)
 DipDrv:  MaxL=1.
 Leave Link  303 at Mon Mar  2 00:38:26 2020, MaxMem=  1879048192 cpu:               6.7 elap:               0.2
 (Enter /opt/g16/l401.exe)
 Initial guess from the checkpoint file:  "check.chk"
 B after Tr=     0.000000   -0.000000   -0.000000
         Rot=    0.899132   -0.000000   -0.000000   -0.437678 Ang= -51.91 deg.
 Guess basis will be translated and rotated to current coordinates.
 JPrj=2 DoOrth=T DoCkMO=T.
 Initial guess orbital symmetries:
 Alpha Orbitals:
       Occupied  (A') (A') (A') (A') (A') (A') (A') (A') (A') (A')
                 (A') (A') (A') (A') (A') (A') (A') (A') (A") (A')
                 (A") (A') (A") (A') (A")
       Virtual   (A") (A") (A') (A') (A') (A') (A') (A') (A") (A')
                 (A') (A") (A') (A') (A") (A') (A') (A") (A') (A')
                 (A') (A") (A') (A") (A') (A') (A') (A') (A") (A')
                 (A") (A') (A') (A') (A') (A') (A') (A') (A") (A')
                 (A') (A') (A") (A') (A') (A') (A') (A') (A") (A')
                 (A") (A') (A") (A') (A") (A') (A') (A") (A') (A')
                 (A') (A') (A") (A") (A') (A') (A') (A") (A') (A")
                 (A') (A") (A') (A') (A') (A') (A") (A') (A') (A')
                 (A") (A") (A') (A') (A") (A') (A') (A") (A') (A")
                 (A') (A") (A') (A') (A") (A') (A") (A') (A") (A')
                 (A") (A') (A") (A') (A') (A') (A') (A') (A') (A")
                 (A') (A') (A') (A") (A") (A') (A') (A') (A') (A")
                 (A') (A") (A') (A') (A') (A") (A') (A") (A') (A")
                 (A') (A") (A') (A') (A') (A") (A') (A") (A') (A')
                 (A") (A") (A') (A") (A') (A") (A') (A") (A') (A')
                 (A") (A') (A') (A") (A') (A') (A") (A") (A') (A")
                 (A') (A') (A') (A') (A") (A') (A") (A') (A') (A")
                 (A') (A') (A") (A') (A') (A") (A') (A') (A") (A')
                 (A') (A") (A') (A') (A') (A") (A") (A") (A') (A')
                 (A') (A") (A') (A') (A") (A") (A') (A") (A') (A')
                 (A") (A') (A') (A') (A') (A') (A") (A') (A') (A')
                 (A') (A') (A') (A') (A') (A') (A') (A') (A') (A')
                 (A') (A')
 Beta  Orbitals:
       Occupied  (A') (A') (A') (A') (A') (A') (A') (A') (A') (A')
                 (A') (A') (A') (A') (A') (A') (A') (A') (A") (A')
                 (A") (A') (A")
       Virtual   (A") (A') (A") (A") (A') (A') (A') (A') (A') (A')
                 (A") (A') (A') (A") (A') (A') (A") (A') (A') (A")
                 (A') (A') (A') (A") (A') (A") (A') (A') (A') (A')
                 (A") (A') (A') (A") (A') (A') (A') (A') (A') (A')
                 (A") (A') (A') (A') (A") (A') (A') (A') (A') (A')
                 (A") (A') (A') (A") (A") (A') (A") (A') (A') (A")
                 (A') (A') (A') (A') (A") (A") (A') (A') (A') (A")
                 (A') (A") (A') (A") (A') (A') (A') (A') (A") (A')
                 (A') (A') (A") (A") (A') (A') (A") (A') (A') (A")
                 (A') (A") (A') (A") (A') (A') (A") (A') (A") (A')
                 (A") (A') (A") (A') (A") (A') (A') (A') (A') (A')
                 (A') (A') (A") (A') (A') (A") (A") (A') (A') (A')
                 (A') (A') (A") (A") (A') (A') (A') (A") (A') (A")
                 (A') (A") (A') (A") (A') (A') (A') (A") (A') (A")
                 (A') (A') (A") (A") (A') (A") (A') (A") (A') (A")
                 (A') (A') (A") (A') (A') (A") (A') (A') (A") (A")
                 (A') (A") (A') (A') (A') (A') (A") (A') (A") (A')
                 (A') (A") (A') (A') (A") (A') (A') (A') (A") (A')
                 (A") (A') (A') (A") (A') (A') (A') (A") (A") (A")
                 (A') (A') (A') (A") (A') (A') (A") (A") (A') (A")
                 (A') (A') (A') (A") (A') (A') (A') (A') (A') (A")
                 (A') (A') (A') (A') (A') (A') (A') (A') (A') (A')
                 (A') (A') (A') (A')
 The electronic state of the initial guess is 3-A".
 Initial guess <Sx>= 0.0000 <Sy>= 0.0000 <Sz>= 1.0000 <S**2>= 2.0785 S= 1.0260
 Leave Link  401 at Mon Mar  2 00:38:26 2020, MaxMem=  1879048192 cpu:              22.9 elap:               0.7
 (Enter /opt/g16/l502.exe)
 Keep R1 and R2 ints in memory in symmetry-blocked form, NReq=1418894295.
 FoFCou: FMM=F IPFlag=           0 FMFlag=           0 FMFlg1=           0
         NFxFlg=           0 DoJE=F BraDBF=F KetDBF=F FulRan=T
         wScrn=  0.000000 ICntrl=       600 IOpCl=  0 I1Cent=           0 NGrid=           0
         NMat0=    1 NMatS0=  30628 NMatT0=    0 NMatD0=    1 NMtDS0=    0 NMtDT0=    0
 Petite list used in FoFCou.
 UHF open shell SCF:
 Using DIIS extrapolation, IDIIS=  1040.
 NGot=  1879048192 LenX=  1398088733 LenY=  1398008768
 Requested convergence on RMS density matrix=1.00D-08 within  32 cycles.
 Requested convergence on MAX density matrix=1.00D-06.
 Requested convergence on             energy=1.00D-06.
 No special actions if energy rises.

 Cycle   1  Pass 1  IDiag  1:
 E= -286.265481816242    
 DIIS: error= 1.04D-05 at cycle   1 NSaved=   1.
 NSaved= 1 IEnMin= 1 EnMin= -286.265481816242     IErMin= 1 ErrMin= 1.04D-05
 ErrMax= 1.04D-05  0.00D+00 EMaxC= 1.00D-01 BMatC= 9.16D-08 BMatP= 9.16D-08
 IDIUse=1 WtCom= 1.00D+00 WtEn= 0.00D+00
 Coeff-Com:  0.100D+01
 Coeff:      0.100D+01
 Gap=     0.333 Goal=   None    Shift=    0.000
 Gap=     0.309 Goal=   None    Shift=    0.000
 RMSDP=1.66D-06 MaxDP=4.56D-05              OVMax= 7.03D-05

 Cycle   2  Pass 1  IDiag  1:
 E= -286.265481836104     Delta-E=       -0.000000019862 Rises=F Damp=F
 DIIS: error= 4.72D-06 at cycle   2 NSaved=   2.
 NSaved= 2 IEnMin= 2 EnMin= -286.265481836104     IErMin= 2 ErrMin= 4.72D-06
 ErrMax= 4.72D-06  0.00D+00 EMaxC= 1.00D-01 BMatC= 1.10D-08 BMatP= 9.16D-08
 IDIUse=1 WtCom= 1.00D+00 WtEn= 0.00D+00
 Coeff-Com:  0.102D+00 0.898D+00
 Coeff:      0.102D+00 0.898D+00
 Gap=     0.333 Goal=   None    Shift=    0.000
 Gap=     0.309 Goal=   None    Shift=    0.000
 RMSDP=4.37D-07 MaxDP=2.62D-05 DE=-1.99D-08 OVMax= 5.33D-05

 Cycle   3  Pass 1  IDiag  1:
 E= -286.265481837907     Delta-E=       -0.000000001803 Rises=F Damp=F
 DIIS: error= 7.77D-06 at cycle   3 NSaved=   3.
 NSaved= 3 IEnMin= 3 EnMin= -286.265481837907     IErMin= 2 ErrMin= 4.72D-06
 ErrMax= 7.77D-06  0.00D+00 EMaxC= 1.00D-01 BMatC= 7.90D-09 BMatP= 1.10D-08
 IDIUse=1 WtCom= 1.00D+00 WtEn= 0.00D+00
 Coeff-Com: -0.538D-01 0.463D+00 0.590D+00
 Coeff:     -0.538D-01 0.463D+00 0.590D+00
 Gap=     0.333 Goal=   None    Shift=    0.000
 Gap=     0.309 Goal=   None    Shift=    0.000
 RMSDP=2.46D-07 MaxDP=1.49D-05 DE=-1.80D-09 OVMax= 3.50D-05

 Cycle   4  Pass 1  IDiag  1:
 E= -286.265481840176     Delta-E=       -0.000000002269 Rises=F Damp=F
 DIIS: error= 1.86D-06 at cycle   4 NSaved=   4.
 NSaved= 4 IEnMin= 4 EnMin= -286.265481840176     IErMin= 4 ErrMin= 1.86D-06
 ErrMax= 1.86D-06  0.00D+00 EMaxC= 1.00D-01 BMatC= 3.78D-10 BMatP= 7.90D-09
 IDIUse=1 WtCom= 1.00D+00 WtEn= 0.00D+00
 Coeff-Com: -0.314D-02-0.966D-01 0.309D-01 0.107D+01
 Coeff:     -0.314D-02-0.966D-01 0.309D-01 0.107D+01
 Gap=     0.333 Goal=   None    Shift=    0.000
 Gap=     0.309 Goal=   None    Shift=    0.000
 RMSDP=1.08D-07 MaxDP=4.95D-06 DE=-2.27D-09 OVMax= 1.92D-05

 Cycle   5  Pass 1  IDiag  1:
 E= -286.265481840670     Delta-E=       -0.000000000494 Rises=F Damp=F
 DIIS: error= 1.28D-06 at cycle   5 NSaved=   5.
 NSaved= 5 IEnMin= 5 EnMin= -286.265481840670     IErMin= 5 ErrMin= 1.28D-06
 ErrMax= 1.28D-06  0.00D+00 EMaxC= 1.00D-01 BMatC= 1.28D-10 BMatP= 3.78D-10
 IDIUse=1 WtCom= 1.00D+00 WtEn= 0.00D+00
 Coeff-Com:  0.129D-01-0.135D+00-0.117D+00 0.148D+00 0.109D+01
 Coeff:      0.129D-01-0.135D+00-0.117D+00 0.148D+00 0.109D+01
 Gap=     0.333 Goal=   None    Shift=    0.000
 Gap=     0.309 Goal=   None    Shift=    0.000
 RMSDP=7.98D-08 MaxDP=3.05D-06 DE=-4.94D-10 OVMax= 1.68D-05

 Cycle   6  Pass 1  IDiag  1:
 E= -286.265481840921     Delta-E=       -0.000000000252 Rises=F Damp=F
 DIIS: error= 9.17D-07 at cycle   6 NSaved=   6.
 NSaved= 6 IEnMin= 6 EnMin= -286.265481840921     IErMin= 6 ErrMin= 9.17D-07
 ErrMax= 9.17D-07  0.00D+00 EMaxC= 1.00D-01 BMatC= 4.98D-11 BMatP= 1.28D-10
 IDIUse=1 WtCom= 1.00D+00 WtEn= 0.00D+00
 Coeff-Com:  0.468D-02 0.837D-02-0.414D-01-0.503D+00 0.291D+00 0.124D+01
 Coeff:      0.468D-02 0.837D-02-0.414D-01-0.503D+00 0.291D+00 0.124D+01
 Gap=     0.333 Goal=   None    Shift=    0.000
 Gap=     0.309 Goal=   None    Shift=    0.000
 RMSDP=6.89D-08 MaxDP=2.63D-06 DE=-2.52D-10 OVMax= 1.73D-05

 Cycle   7  Pass 1  IDiag  1:
 E= -286.265481841035     Delta-E=       -0.000000000114 Rises=F Damp=F
 DIIS: error= 2.84D-07 at cycle   7 NSaved=   7.
 NSaved= 7 IEnMin= 7 EnMin= -286.265481841035     IErMin= 7 ErrMin= 2.84D-07
 ErrMax= 2.84D-07  0.00D+00 EMaxC= 1.00D-01 BMatC= 9.05D-12 BMatP= 4.98D-11
 IDIUse=1 WtCom= 1.00D+00 WtEn= 0.00D+00
 Coeff-Com: -0.104D-02 0.336D-01 0.142D-01-0.203D+00-0.132D+00 0.432D+00
 Coeff-Com:  0.857D+00
 Coeff:     -0.104D-02 0.336D-01 0.142D-01-0.203D+00-0.132D+00 0.432D+00
 Coeff:      0.857D+00
 Gap=     0.333 Goal=   None    Shift=    0.000
 Gap=     0.309 Goal=   None    Shift=    0.000
 RMSDP=1.83D-08 MaxDP=6.75D-07 DE=-1.14D-10 OVMax= 4.39D-06

 Cycle   8  Pass 1  IDiag  1:
 E= -286.265481841048     Delta-E=       -0.000000000012 Rises=F Damp=F
 DIIS: error= 1.57D-07 at cycle   8 NSaved=   8.
 NSaved= 8 IEnMin= 8 EnMin= -286.265481841048     IErMin= 8 ErrMin= 1.57D-07
 ErrMax= 1.57D-07  0.00D+00 EMaxC= 1.00D-01 BMatC= 1.87D-12 BMatP= 9.05D-12
 IDIUse=1 WtCom= 1.00D+00 WtEn= 0.00D+00
 Coeff-Com: -0.143D-02 0.103D-01 0.151D-01 0.306D-01-0.977D-01-0.105D+00
 Coeff-Com:  0.262D+00 0.887D+00
 Coeff:     -0.143D-02 0.103D-01 0.151D-01 0.306D-01-0.977D-01-0.105D+00
 Coeff:      0.262D+00 0.887D+00
 Gap=     0.333 Goal=   None    Shift=    0.000
 Gap=     0.309 Goal=   None    Shift=    0.000
 RMSDP=7.58D-09 MaxDP=3.30D-07 DE=-1.23D-11 OVMax= 1.20D-06

 SCF Done:  E(UwB97XD) =  -286.265481841     A.U. after    8 cycles
            NFock=  8  Conv=0.76D-08     -V/T= 2.0046
 <Sx>= 0.0000 <Sy>= 0.0000 <Sz>= 1.0000 <S**2>= 2.0785 S= 1.0259
 <L.S>= 0.000000000000E+00
 KE= 2.849429988239D+02 PE=-1.170056479007D+03 EE= 3.463265870926D+02
 Annihilation of the first spin contaminant:
 S**2 before annihilation     2.0785,   after     2.0028
 Leave Link  502 at Mon Mar  2 00:40:28 2020, MaxMem=  1879048192 cpu:            3658.5 elap:             121.7
 (Enter /opt/g16/l508.exe)
 QCSCF skips out because SCF is already converged.
 Leave Link  508 at Mon Mar  2 00:40:29 2020, MaxMem=  1879048192 cpu:               2.8 elap:               0.1
 (Enter /opt/g16/l701.exe)
 ... and contract with generalized density number  0.
 Compute integral first derivatives.
 R6Disp: Adding Grimme-D2 dispersion energy 1st derivatives to the gradient.
   2 Symmetry operations used in ECPInt.
 ECPInt:  NShTT=    4753 NPrTT=   14704 LenC2=    4703 LenP2D=   12028.
 LDataN:  DoStor=T MaxTD1= 7 Len=  274
 Leave Link  701 at Mon Mar  2 00:40:31 2020, MaxMem=  1879048192 cpu:              65.1 elap:               2.1
 (Enter /opt/g16/l702.exe)
 L702 exits ... SP integral derivatives will be done elsewhere.
 Leave Link  702 at Mon Mar  2 00:40:31 2020, MaxMem=  1879048192 cpu:               2.9 elap:               0.1
 (Enter /opt/g16/l703.exe)
 Integral derivatives from FoFJK, PRISM(SPDF).
 Compute integral first derivatives, UseDBF=F ICtDFT=           0.
 Calling FoFJK, ICntrl=      2127 FMM=F ISym2X=1 I1Cent= 0 IOpClX= 1 NMat=1 NMatS=1 NMatT=0.
 FoFJK:  IHMeth= 1 ICntrl=    2127 DoSepK=T KAlg= 0 I1Cent=           0 FoldK=F
 IRaf=         1 NMat=       1 IRICut=       1 DoRegI=T DoRafI=F ISym2E= 1 IDoP0=0 IntGTp=1.
 FoFCou: FMM=F IPFlag=           0 FMFlag=      100000 FMFlg1=         800
         NFxFlg=           0 DoJE=F BraDBF=F KetDBF=F FulRan=T
         wScrn=  0.000000 ICntrl=      2527 IOpCl=  0 I1Cent=           0 NGrid=           0
         NMat0=    1 NMatS0=      1 NMatT0=    0 NMatD0=    1 NMtDS0=    0 NMtDT0=    0
 Petite list used in FoFCou.
 Leave Link  703 at Mon Mar  2 00:40:48 2020, MaxMem=  1879048192 cpu:             566.2 elap:              16.8
 (Enter /opt/g16/l716.exe)
 Dipole        = 5.12107605D-01 5.27984107D-01-4.82760665D-18
[...]
 Alpha virt. eigenvalues --    2.75866   2.76186   2.77485   2.78954   2.81390
 Alpha virt. eigenvalues --    2.83066   2.85511   2.85823   2.87731   2.92553
 Alpha virt. eigenvalues --    2.93776   2.93865   2.95650   2.98976   3.03168
 Alpha virt. eigenvalues --    3.03447   3.07781   3.13266   3.14944   3.15707
 Alpha virt. eigenvalues --    3.18857   3.19486   3.20439   3.22227   3.25192
 Alpha virt. eigenvalues --    3.28225   3.29680   3.30459   3.33692   3.36373
 Alpha virt. eigenvalues --    3.39365   3.40049   3.42239   3.42881   3.43160
 Alpha virt. eigenvalues --    3.44464   3.48351   3.51674   3.53065   3.55034
 Alpha virt. eigenvalues --    3.56375   3.56479   3.59513   3.62791   3.73227
 Alpha virt. eigenvalues --    3.75762   3.77442   3.78417   3.84122   3.89284
 Alpha virt. eigenvalues --    4.02204   4.02396   4.04851   4.08570   4.09876
 Alpha virt. eigenvalues --    4.11054   4.14609   4.17257   4.18105   4.25911
 Alpha virt. eigenvalues --    4.26838   4.29635   4.35863   4.38305   4.44372
 Alpha virt. eigenvalues --    4.47967   4.48137   4.58592   4.65032   4.67125
 Alpha virt. eigenvalues --    4.73359   4.76455   4.82075   4.83693   4.86417
 Alpha virt. eigenvalues --    4.91699   4.92421   4.94919   5.03197   5.06193
 Alpha virt. eigenvalues --    5.18617   5.31214   5.31983   5.34037   5.37904
 Alpha virt. eigenvalues --    5.51927   5.55143   5.65027   5.74644   6.08185
 Alpha virt. eigenvalues --   22.12860  22.58098  22.61872  22.76770  22.91200
 Alpha virt. eigenvalues --   23.30005  32.13132
  Beta  occ. eigenvalues --  -14.42341 -10.33607 -10.31745 -10.31428 -10.31187
  Beta  occ. eigenvalues --  -10.31163 -10.30628  -1.00969  -0.94168  -0.87069
  Beta  occ. eigenvalues --   -0.79563  -0.72089  -0.68300  -0.60501  -0.56157
  Beta  occ. eigenvalues --   -0.54755  -0.53395  -0.50450  -0.48272  -0.44924
  Beta  occ. eigenvalues --   -0.37795  -0.35772  -0.35488
  Beta virt. eigenvalues --   -0.04614  -0.02601   0.04889   0.10166   0.12428
  Beta virt. eigenvalues --    0.13818   0.15332   0.18530   0.19064   0.20237
  Beta virt. eigenvalues --    0.22400   0.24506   0.26778   0.27761   0.29108
  Beta virt. eigenvalues --    0.29407   0.31449   0.32819   0.33416   0.34272
  Beta virt. eigenvalues --    0.35543   0.38805   0.39585   0.39940   0.40535
  Beta virt. eigenvalues --    0.40874   0.43129   0.44470   0.46635   0.47947
  Beta virt. eigenvalues --    0.48340   0.49089   0.50170   0.50992   0.51741
  Beta virt. eigenvalues --    0.53037   0.55645   0.56790   0.57780   0.59358
  Beta virt. eigenvalues --    0.59865   0.61288   0.65566   0.68584   0.69967
  Beta virt. eigenvalues --    0.71375   0.73442   0.74865   0.77020   0.78718
  Beta virt. eigenvalues --    0.79750   0.82636   0.86957   0.87919   0.88292
  Beta virt. eigenvalues --    0.88761   0.94549   0.95131   0.96317   1.07147
  Beta virt. eigenvalues --    1.07802   1.08336   1.10845   1.13396   1.15871
  Beta virt. eigenvalues --    1.16843   1.21090   1.23226   1.24904   1.25933
  Beta virt. eigenvalues --    1.27958   1.30503   1.34402   1.36068   1.37209
  Beta virt. eigenvalues --    1.39455   1.41228   1.45838   1.47293   1.49766
  Beta virt. eigenvalues --    1.53097   1.55210   1.56904   1.57880   1.58717
  Beta virt. eigenvalues --    1.61091   1.64184   1.64674   1.66702   1.68551
  Beta virt. eigenvalues --    1.71678   1.74625   1.76881   1.77863   1.82829
  Beta virt. eigenvalues --    1.85594   1.88825   1.89090   1.93135   1.96085
  Beta virt. eigenvalues --    1.96498   2.02690   2.06224   2.09526   2.12056
  Beta virt. eigenvalues --    2.16396   2.18140   2.20441   2.21695   2.27393
  Beta virt. eigenvalues --    2.28054   2.30198   2.31012   2.37642   2.41374
  Beta virt. eigenvalues --    2.42203   2.46611   2.48366   2.59951   2.61872
  Beta virt. eigenvalues --    2.64188   2.66516   2.66762   2.67888   2.68856
  Beta virt. eigenvalues --    2.70242   2.73300   2.76405   2.77323   2.78301
  Beta virt. eigenvalues --    2.80330   2.82004   2.84302   2.86735   2.86890
  Beta virt. eigenvalues --    2.88302   2.93570   2.94495   2.94575   2.96527
  Beta virt. eigenvalues --    3.00042   3.04217   3.05748   3.09069   3.14434
  Beta virt. eigenvalues --    3.15763   3.16383   3.19310   3.20247   3.22721
  Beta virt. eigenvalues --    3.23210   3.25992   3.29249   3.30629   3.32187
  Beta virt. eigenvalues --    3.35157   3.37244   3.40748   3.41369   3.43265
  Beta virt. eigenvalues --    3.44993   3.46084   3.46350   3.49043   3.52319
  Beta virt. eigenvalues --    3.55840   3.56415   3.57572   3.57620   3.60353
  Beta virt. eigenvalues --    3.63584   3.74234   3.76895   3.80013   3.80466
  Beta virt. eigenvalues --    3.85223   3.90117   4.03010   4.03458   4.05472
  Beta virt. eigenvalues --    4.10487   4.11002   4.12054   4.15825   4.18420
  Beta virt. eigenvalues --    4.18578   4.26748   4.27745   4.31176   4.38074
  Beta virt. eigenvalues --    4.40289   4.46290   4.48806   4.50093   4.60511
  Beta virt. eigenvalues --    4.66868   4.68912   4.76604   4.77582   4.83887
  Beta virt. eigenvalues --    4.84571   4.87715   4.94077   4.95242   4.96174
  Beta virt. eigenvalues --    5.04661   5.08399   5.20107   5.33117   5.33392
  Beta virt. eigenvalues --    5.35172   5.39115   5.52953   5.55990   5.66028
  Beta virt. eigenvalues --    5.75459   6.08715  22.13919  22.60005  22.61958
  Beta virt. eigenvalues --   22.77212  22.91192  23.29918  32.14457
          Condensed to atoms (all electrons):
               1          2          3          4          5          6
     1  N    6.538307   0.588957  -0.064554   0.010263   0.002164  -0.001490
     2  C    0.588957   4.684841   0.435067  -0.033905  -0.018175  -0.052343
     3  C   -0.064554   0.435067   4.965038   0.407306   0.502009  -0.022265
     4  H    0.010263  -0.033905   0.407306   0.506961  -0.046544   0.009428
     5  C    0.002164  -0.018175   0.502009  -0.046544   4.861078   0.491141
     6  C   -0.001490  -0.052343  -0.022265   0.009428   0.491141   5.097097
     7  C    0.024207   0.031659  -0.026838  -0.005878  -0.035994   0.485549
     8  C   -0.127752   0.373444  -0.038719   0.017284  -0.036343   0.001233
     9  H    0.356332  -0.092039   0.014141  -0.001490  -0.000686  -0.000421
    10  H   -0.000077   0.006816  -0.043531  -0.005369   0.426448  -0.041899
    11  H   -0.000314   0.002536  -0.000792   0.000074   0.004083  -0.036685
    12  H   -0.004508  -0.048413   0.008919  -0.000057  -0.002495   0.007338
               7          8          9         10         11         12
     1  N    0.024207  -0.127752   0.356332  -0.000077  -0.000314  -0.004508
     2  C    0.031659   0.373444  -0.092039   0.006816   0.002536  -0.048413
     3  C   -0.026838  -0.038719   0.014141  -0.043531  -0.000792   0.008919
     4  H   -0.005878   0.017284  -0.001490  -0.005369   0.000074  -0.000057
     5  C   -0.035994  -0.036343  -0.000686   0.426448   0.004083  -0.002495
     6  C    0.485549   0.001233  -0.000421  -0.041899  -0.036685   0.007338
     7  C    4.999417   0.298782   0.008106   0.005928   0.410304  -0.032957
     8  C    0.298782   5.325932  -0.024075  -0.002377  -0.028752   0.418509
     9  H    0.008106  -0.024075   0.533816   0.000027  -0.000084   0.003203
    10  H    0.005928  -0.002377   0.000027   0.512084  -0.000100   0.000047
    11  H    0.410304  -0.028752  -0.000084  -0.000100   0.512151  -0.004441
    12  H   -0.032957   0.418509   0.003203   0.000047  -0.004441   0.525391
          Atomic-Atomic Spin Densities.
               1          2          3          4          5          6
     1  N    0.656428  -0.014460  -0.026664  -0.000429  -0.000130   0.000989
     2  C   -0.014460  -0.174485   0.005914  -0.001185   0.017020  -0.012060
     3  C   -0.026664   0.005914   0.370984  -0.002492   0.002457  -0.037654
     4  H   -0.000429  -0.001185  -0.002492   0.000296  -0.002450   0.002499
     5  C   -0.000130   0.017020   0.002457  -0.002450  -0.194804  -0.004663
     6  C    0.000989  -0.012060  -0.037654   0.002499  -0.004663   1.319233
     7  C   -0.001648   0.013182  -0.002474   0.000052   0.018621   0.007041
     8  C   -0.017943   0.009600   0.008477  -0.000403  -0.004289  -0.039933
     9  H   -0.002408   0.006125   0.001850   0.000169  -0.000022   0.000204
    10  H   -0.000003  -0.000170  -0.007712   0.001491   0.011604  -0.008114
    11  H    0.000006  -0.000066  -0.000231   0.000020  -0.000498  -0.008168
    12  H   -0.000008  -0.002912  -0.000165   0.000087  -0.000347   0.002898
               7          8          9         10         11         12
     1  N   -0.001648  -0.017943  -0.002408  -0.000003   0.000006  -0.000008
     2  C    0.013182   0.009600   0.006125  -0.000170  -0.000066  -0.002912
     3  C   -0.002474   0.008477   0.001850  -0.007712  -0.000231  -0.000165
     4  H    0.000052  -0.000403   0.000169   0.001491   0.000020   0.000087
     5  C    0.018621  -0.004289  -0.000022   0.011604  -0.000498  -0.000347
     6  C    0.007041  -0.039933   0.000204  -0.008114  -0.008168   0.002898
     7  C   -0.204222   0.006388  -0.000814  -0.000495   0.013602  -0.000634
     8  C    0.006388   0.361615  -0.001010  -0.000195  -0.010350  -0.003612
     9  H   -0.000814  -0.001010  -0.020954   0.000000   0.000012   0.000438
    10  H   -0.000495  -0.000195   0.000000   0.026842   0.000073   0.000022
    11  H    0.013602  -0.010350   0.000012   0.000073   0.027531   0.001587
    12  H   -0.000634  -0.003612   0.000438   0.000022   0.001587   0.000295
 Mulliken charges and spin densities:
               1          2
     1  N   -0.321537   0.593730
     2  C    0.121554  -0.153497
     3  C   -0.135783   0.312290
     4  H    0.141927  -0.002344
     5  C   -0.146686  -0.157500
     6  C    0.063317   1.222272
     7  C   -0.162283  -0.151401
     8  C   -0.177166   0.308347
     9  H    0.203170  -0.016409
    10  H    0.142003   0.023345
    11  H    0.142019   0.023518
    12  H    0.129465  -0.002351
 Sum of Mulliken charges =  -0.00000   2.00000
 Mulliken charges and spin densities with hydrogens summed into heavy atoms:
               1          2
     1  N   -0.118367   0.577321
     2  C    0.121554  -0.153497
     3  C    0.006145   0.309946
     5  C   -0.004683  -0.134155
     6  C    0.063317   1.222272
     7  C   -0.020264  -0.127883
     8  C   -0.047701   0.305996
 Electronic spatial extent (au):  <R**2>=            617.2801
 Charge=             -0.0000 electrons
 Dipole moment (field-independent basis, Debye):
    X=              1.3016    Y=              1.3420    Z=              0.0000  Tot=              1.8695
 Quadrupole moment (field-independent basis, Debye-Ang):
   XX=            -33.5647   YY=            -44.5079   ZZ=            -43.5279
   XY=             -4.1532   XZ=              0.0000   YZ=             -0.0000
 Traceless Quadrupole moment (field-independent basis, Debye-Ang):
   XX=              6.9688   YY=             -3.9744   ZZ=             -2.9944
   XY=             -4.1532   XZ=              0.0000   YZ=             -0.0000
 Octapole moment (field-independent basis, Debye-Ang**2):
  XXX=              0.8076  YYY=              5.1207  ZZZ=              0.0000  XYY=             12.5357
  XXY=              0.8888  XXZ=             -0.0000  XZZ=              0.2863  YZZ=             -2.7522
  YYZ=              0.0000  XYZ=              0.0000
 Hexadecapole moment (field-independent basis, Debye-Ang**3):
 XXXX=           -269.5491 YYYY=           -540.4193 ZZZZ=            -48.8863 XXXY=             -1.3678
 XXXZ=              0.0000 YYYX=            -32.7996 YYYZ=             -0.0000 ZZZX=              0.0000
 ZZZY=             -0.0000 XXYY=           -114.7265 XXZZ=            -65.4018 YYZZ=            -96.9057
 XXYZ=             -0.0000 YYXZ=              0.0000 ZZXY=              0.0930
 N-N= 2.525224323876D+02 E-N=-1.170058498183D+03  KE= 2.849429846976D+02
 Symmetry A'   KE= 2.767763447952D+02
 Symmetry A"   KE= 8.166639902393D+00
 Symmetry A'   SP= 1.000000000000D+00
 Symmetry A"   SP= 1.000000000000D+00
                          Isotropic Fermi Contact Couplings
        Atom                 a.u.       MegaHertz       Gauss      10(-4) cm-1
     1  N(14)              0.05836       9.42784       3.36409       3.14479
     2  C(13)             -0.04308     -24.21416      -8.64021      -8.07697
     3  C(13)              0.06101      34.29420      12.23702      11.43931
     4  H(1)              -0.00120      -2.67988      -0.95625      -0.89391
     5  C(13)             -0.00549      -3.08443      -1.10060      -1.02885
     6  C(13)              0.36541     205.39647      73.29057      68.51289
     7  C(13)             -0.00460      -2.58458      -0.92224      -0.86212
     8  C(13)              0.06286      35.33515      12.60846      11.78654
     9  H(1)              -0.00866     -19.35102      -6.90493      -6.45481
    10  H(1)               0.01167      26.07322       9.30357       8.69709
    11  H(1)               0.01173      26.21548       9.35434       8.74454
    12  H(1)              -0.00148      -3.30262      -1.17846      -1.10164
 --------------------------------------------------------
       Center         ----  Spin Dipole Couplings  ----
                      3XX-RR        3YY-RR        3ZZ-RR
 --------------------------------------------------------
     1   Atom       -0.678706     -0.676308      1.355014
     2   Atom        0.068626      0.130145     -0.198771
     3   Atom       -0.195928     -0.107309      0.303237
     4   Atom        0.017317     -0.007275     -0.010042
     5   Atom        0.120365      0.122930     -0.243295
     6   Atom       -0.748383      0.820150     -0.071766
     7   Atom        0.121550      0.116166     -0.237716
     8   Atom       -0.194843     -0.109503      0.304346
     9   Atom        0.050386     -0.037655     -0.012732
    10   Atom        0.023012     -0.005312     -0.017701
    11   Atom        0.023899     -0.006242     -0.017657
    12   Atom        0.018729     -0.009267     -0.009462
 --------------------------------------------------------
                        XY            XZ            YZ
 --------------------------------------------------------
     1   Atom       -0.006629      0.000000      0.000000
     2   Atom        0.002578     -0.000000      0.000000
     3   Atom        0.007639      0.000000      0.000000
     4   Atom        0.020396     -0.000000      0.000000
     5   Atom        0.067616     -0.000000     -0.000000
     6   Atom       -0.011043      0.000000     -0.000000
     7   Atom       -0.067189      0.000000     -0.000000
     8   Atom       -0.007170     -0.000000      0.000000
     9   Atom       -0.047855     -0.000000      0.000000
    10   Atom        0.010648      0.000000     -0.000000
    11   Atom       -0.010124     -0.000000      0.000000
    12   Atom       -0.020122      0.000000      0.000000
 --------------------------------------------------------


 ---------------------------------------------------------------------------------
              Anisotropic Spin Dipole Couplings in Principal Axis System
 ---------------------------------------------------------------------------------

       Atom             a.u.   MegaHertz   Gauss  10(-4) cm-1        Axes

              Baa    -0.6842   -26.390    -9.417    -8.803  0.7675  0.6411 -0.0000
     1 N(14)  Bbb    -0.6708   -25.870    -9.231    -8.629 -0.6411  0.7675  0.0000
              Bcc     1.3550    52.260    18.648    17.432  0.0000  0.0000  1.0000
 
              Baa    -0.1988   -26.673    -9.518    -8.897  0.0000  0.0000  1.0000
     2 C(13)  Bbb     0.0685     9.195     3.281     3.067  0.9991 -0.0418  0.0000
              Bcc     0.1303    17.479     6.237     5.830  0.0418  0.9991 -0.0000
 
              Baa    -0.1966   -26.379    -9.413    -8.799  0.9964 -0.0853 -0.0000
     3 C(13)  Bbb    -0.1067   -14.312    -5.107    -4.774  0.0853  0.9964 -0.0000
              Bcc     0.3032    40.692    14.520    13.573  0.0000  0.0000  1.0000
 
              Baa    -0.0188   -10.028    -3.578    -3.345 -0.4918  0.8707  0.0000
     4 H(1)   Bbb    -0.0100    -5.358    -1.912    -1.787  0.0000  0.0000  1.0000
              Bcc     0.0288    15.386     5.490     5.132  0.8707  0.4918  0.0000
 
              Baa    -0.2433   -32.648   -11.650   -10.890  0.0000  0.0000  1.0000
     5 C(13)  Bbb     0.0540     7.249     2.587     2.418  0.7138 -0.7004  0.0000
              Bcc     0.1893    25.399     9.063     8.472  0.7004  0.7138 -0.0000
 
              Baa    -0.7485  -100.436   -35.838   -33.502  1.0000  0.0070 -0.0000
     6 C(13)  Bbb    -0.0718    -9.630    -3.436    -3.212 -0.0000  0.0000  1.0000
              Bcc     0.8202   110.067    39.275    36.714 -0.0070  1.0000 -0.0000
 
              Baa    -0.2377   -31.899   -11.382   -10.640 -0.0000  0.0000  1.0000
     7 C(13)  Bbb     0.0516     6.926     2.471     2.310  0.6928  0.7211 -0.0000
              Bcc     0.1861    24.973     8.911     8.330  0.7211 -0.6928  0.0000
 
              Baa    -0.1954   -26.226    -9.358    -8.748  0.9965  0.0831  0.0000
     8 C(13)  Bbb    -0.1089   -14.614    -5.215    -4.875 -0.0831  0.9965 -0.0000
              Bcc     0.3043    40.840    14.573    13.623 -0.0000  0.0000  1.0000
 
              Baa    -0.0587   -31.296   -11.167   -10.439  0.4019  0.9157  0.0000
     9 H(1)   Bbb    -0.0127    -6.793    -2.424    -2.266  0.0000 -0.0000  1.0000
              Bcc     0.0714    38.089    13.591    12.705  0.9157 -0.4019 -0.0000
 
              Baa    -0.0177    -9.444    -3.370    -3.150 -0.0000  0.0000  1.0000
    10 H(1)   Bbb    -0.0089    -4.732    -1.688    -1.578 -0.3168  0.9485 -0.0000
              Bcc     0.0266    14.176     5.058     4.729  0.9485  0.3168  0.0000
 
              Baa    -0.0177    -9.421    -3.362    -3.142  0.0000  0.0000  1.0000
    11 H(1)   Bbb    -0.0093    -4.977    -1.776    -1.660  0.2915  0.9566  0.0000
              Bcc     0.0270    14.397     5.137     4.802  0.9566 -0.2915  0.0000
 
              Baa    -0.0198   -10.554    -3.766    -3.521  0.4631  0.8863 -0.0000
    12 H(1)   Bbb    -0.0095    -5.048    -1.801    -1.684  0.0000  0.0000  1.0000
              Bcc     0.0292    15.603     5.567     5.204  0.8863 -0.4631 -0.0000
 

 ---------------------------------------------------------------------------------

 No NMR shielding tensors so no spin-rotation constants.
 Leave Link  601 at Mon Mar  2 00:45:17 2020, MaxMem=  1879048192 cpu:             271.5 elap:               8.7
 (Enter /opt/g16/l9999.exe)

 Test job not archived.
 1\1\GINC-NODE05\FOpt\UwB97XD\def2TZVP\C6H5N1(3)\ALONGD\02-Mar-2020\0\\
 #P opt=(tight) guess=read uwb97xd/def2tzvp scf=(tight, direct) integra
 l=(grid=ultrafine, Acc2E=12) scf=xqc iop(2/9=2000)\\name\\0,3\N,2.2255
 714826,0.4765866852,0.1589022643\C,0.940739939,0.1692937624,0.06723237
 97\C,-0.0009632962,1.2451812945,-0.0025910227\H,0.391986622,2.25356930
 83,0.0235932663\C,-1.3529395467,1.0021234182,-0.0992141415\C,-1.751433
 2068,-0.319458082,-0.125162383\C,-0.91762488,-1.417434744,-0.063044568
 9\C,0.4344592308,-1.170638557,0.033578727\H,2.7830800472,-0.3764896563
 ,0.2006769129\H,-2.0653268989,1.8155939881,-0.1520338571\H,-1.30140146
 46,-2.4295459225,-0.0885623777\H,1.1388500049,-1.9936424958,0.08584333
 79\\Version=ES64L-G16RevB.01\State=3-A"\HF=-286.2654819\S2=2.078507\S2
 -1=0.\S2A=2.002842\RMSD=4.773e-09\RMSF=1.622e-06\Dipole=-0.4222743,-0.
 6015222,-0.0291147\Quadrupole=-1.5462199,3.7677037,-2.2214838,-4.35100
 37,0.0576619,-0.3246807\PG=CS [SG(C6H5N1)]\\@


 THE FIRST AND LAST THING REQUIRED OF GENIUS IS THE LOVE OF TRUTH.

                          -- GOETHE
 Job cpu time:       0 days  4 hours 14 minutes 31.4 seconds.
 Elapsed time:       0 days  0 hours  8 minutes 16.0 seconds.
 File lengths (MBytes):  RWF=     45 Int=      0 D2E=      0 Chk=      7 Scr=      1
 Normal termination of Gaussian 16 at Mon Mar  2 00:45:17 2020.
