 Entering Gaussian System, Link 0=/Local/ce_dana/g09/g09
 Initial command:
 /Local/ce_dana/g09/l1.exe "/storage/ce_dana/alongd/scratch/g09/Gau-23747.inp" -scrdir="/storage/ce_dana/alongd/scratch/g09/"
 Entering Link 1 = /Local/ce_dana/g09/l1.exe PID=     23748.
  
 Copyright (c) 1988,1990,1992,1993,1995,1998,2003,2009,2013,
            Gaussian, Inc.  All Rights Reserved.
  
 This is part of the Gaussian(R) 09 program.  It is based on
 the Gaussian(R) 03 system (copyright 2003, Gaussian, Inc.),
 the Gaussian(R) 98 system (copyright 1998, Gaussian, Inc.),
 the Gaussian(R) 94 system (copyright 1995, Gaussian, Inc.),
 the Gaussian 92(TM) system (copyright 1992, Gaussian, Inc.),
 the Gaussian 90(TM) system (copyright 1990, Gaussian, Inc.),
 the Gaussian 88(TM) system (copyright 1988, Gaussian, Inc.),
 the Gaussian 86(TM) system (copyright 1986, Carnegie Mellon
 University), and the Gaussian 82(TM) system (copyright 1983,
 Carnegie Mellon University). Gaussian is a federally registered
 trademark of Gaussian, Inc.
  
 This software contains proprietary and confidential information,
 including trade secrets, belonging to Gaussian, Inc.
  
 This software is provided under written license and may be
 used, copied, transmitted, or stored only in accord with that
 written license.
  
 The following legend is applicable only to US Government
 contracts under FAR:
  
                    RESTRICTED RIGHTS LEGEND
  
 Use, reproduction and disclosure by the US Government is
 subject to restrictions as set forth in subparagraphs (a)
 and (c) of the Commercial Computer Software - Restricted
 Rights clause in FAR 52.227-19.
  
 Gaussian, Inc.
 340 Quinnipiac St., Bldg. 40, Wallingford CT 06492
  
  
 ---------------------------------------------------------------
 Warning -- This program may not be used in any manner that
 competes with the business of Gaussian, Inc. or will provide
 assistance to any competitor of Gaussian, Inc.  The licensee
 of this program is prohibited from giving any competitor of
 Gaussian, Inc. access to this program.  By using this program,
 the user acknowledges that Gaussian, Inc. is engaged in the
 business of creating and licensing software in the field of
 computational chemistry and represents and warrants to the
 licensee that it is not a competitor of Gaussian, Inc. and that
 it will not use this program in any manner prohibited above.
 ---------------------------------------------------------------
  

 Cite this work as:
 Gaussian 09, Revision D.01,
 M. J. Frisch, G. W. Trucks, H. B. Schlegel, G. E. Scuseria, 
 M. A. Robb, J. R. Cheeseman, G. Scalmani, V. Barone, B. Mennucci, 
 G. A. Petersson, H. Nakatsuji, M. Caricato, X. Li, H. P. Hratchian, 
 A. F. Izmaylov, J. Bloino, G. Zheng, J. L. Sonnenberg, M. Hada, 
 M. Ehara, K. Toyota, R. Fukuda, J. Hasegawa, M. Ishida, T. Nakajima, 
 Y. Honda, O. Kitao, H. Nakai, T. Vreven, J. A. Montgomery, Jr., 
 J. E. Peralta, F. Ogliaro, M. Bearpark, J. J. Heyd, E. Brothers, 
 K. N. Kudin, V. N. Staroverov, T. Keith, R. Kobayashi, J. Normand, 
 K. Raghavachari, A. Rendell, J. C. Burant, S. S. Iyengar, J. Tomasi, 
 M. Cossi, N. Rega, J. M. Millam, M. Klene, J. E. Knox, J. B. Cross, 
 V. Bakken, C. Adamo, J. Jaramillo, R. Gomperts, R. E. Stratmann, 
 O. Yazyev, A. J. Austin, R. Cammi, C. Pomelli, J. W. Ochterski, 
 R. L. Martin, K. Morokuma, V. G. Zakrzewski, G. A. Voth, 
 P. Salvador, J. J. Dannenberg, S. Dapprich, A. D. Daniels, 
 O. Farkas, J. B. Foresman, J. V. Ortiz, J. Cioslowski, 
 and D. J. Fox, Gaussian, Inc., Wallingford CT, 2013.
 
 ******************************************
 Gaussian 09:  ES64L-G09RevD.01 24-Apr-2013
                 4-Jul-2022 
 ******************************************
 %chk=check.chk
 %mem=7168mb
 %NProcShared=10
 Will use up to   10 processors via shared memory.
 ----------------------------------------------------------------------
 #P opt=(ts, calcfc, noeigentest, maxcycles=100) guess=mix uwb97xd/def2
 svp IOp(2/9=2000) scf=xqc
 ----------------------------------------------------------------------
 1/5=1,6=100,10=4,11=1,14=-1,18=20,26=3,38=1/1,3;
 2/9=2000,12=2,17=6,18=5,40=1/2;
 3/5=43,7=101,11=2,16=1,25=1,30=1,71=2,74=-58,116=2,140=1/1,2,3;
 4/13=-1/1;
 5/5=2,8=3,13=1,38=5/2,8;
 8/6=4,10=90,11=11/1;
 11/6=1,8=1,9=11,15=111,16=1/1,2,10;
 10/6=1,13=1/2;
 6/7=2,8=2,9=2,10=2,28=1/1;
 7/10=1,18=20,25=1/1,2,3,16;
 1/5=1,6=100,10=4,11=1,14=-1,18=20,26=3/3(2);
 2/9=2000/2;
 99//99;
 2/9=2000/2;
 3/5=43,7=101,11=2,16=1,25=1,30=1,71=1,74=-58,116=2/1,2,3;
 4/5=5,16=3,69=1/1;
 5/5=2,8=3,13=1,38=5/2,8;
 7//1,2,3,16;
 1/5=1,6=100,11=1,14=-1,18=20,26=3/3(-5);
 2/9=2000/2;
 6/7=2,8=2,9=2,10=2,19=2,28=1/1;
 99/9=1/99;
 Leave Link    1 at Mon Jul  4 15:57:10 2022, MaxMem=   939524096 cpu:         0.0
 (Enter /Local/ce_dana/g09/l101.exe)
 ---
 TS0
 ---
 Symbolic Z-matrix:
 Charge =  0 Multiplicity = 2
 C                    -1.85645   1.59079   0.55199 
 C                    -0.68255   1.41436   1.50417 
 O                     0.08063   0.23551   1.25562 
 O                     0.7978    0.4475    0.00471 
 H                    -2.52044   0.72329   0.59258 
 H                    -1.50156   1.71502  -0.47267 
 H                    -2.43457   2.47956   0.8205 
 H                    -1.02182   1.26338   2.53371 
 H                    -0.01664   2.28401   1.48536 
 C                     0.7978   -1.85454  -2.42632 
 C                     0.7978   -1.85454  -0.89591 
 H                     0.7978   -2.87294  -2.82474 
 H                    -0.08416  -1.34534  -2.82474 
 H                     1.67976  -1.34534  -2.82474 
 H                     0.7978   -0.63246  -0.4178 
 H                     1.67976  -2.36374  -0.49748 
 H                    -0.08416  -2.36374  -0.49749 
 
 Add virtual bond connecting atoms H15        and O4         Dist= 2.19D+00.
 Add virtual bond connecting atoms H15        and C11        Dist= 2.48D+00.
 NAtoms=     17 NQM=       17 NQMF=       0 NMMI=      0 NMMIF=      0
                NMic=       0 NMicF=      0.
                    Isotopes and Nuclear Properties:
 (Nuclear quadrupole moments (NQMom) in fm**2, nuclear magnetic moments (NMagM)
  in nuclear magnetons)

  Atom         1           2           3           4           5           6           7           8           9          10
 IAtWgt=          12          12          16          16           1           1           1           1           1          12
 AtmWgt=  12.0000000  12.0000000  15.9949146  15.9949146   1.0078250   1.0078250   1.0078250   1.0078250   1.0078250  12.0000000
 NucSpn=           0           0           0           0           1           1           1           1           1           0
 AtZEff=   0.0000000   0.0000000   0.0000000   0.0000000   0.0000000   0.0000000   0.0000000   0.0000000   0.0000000   0.0000000
 NQMom=    0.0000000   0.0000000   0.0000000   0.0000000   0.0000000   0.0000000   0.0000000   0.0000000   0.0000000   0.0000000
 NMagM=    0.0000000   0.0000000   0.0000000   0.0000000   2.7928460   2.7928460   2.7928460   2.7928460   2.7928460   0.0000000
 AtZNuc=   6.0000000   6.0000000   8.0000000   8.0000000   1.0000000   1.0000000   1.0000000   1.0000000   1.0000000   6.0000000

  Atom        11          12          13          14          15          16          17
 IAtWgt=          12           1           1           1           1           1           1
 AtmWgt=  12.0000000   1.0078250   1.0078250   1.0078250   1.0078250   1.0078250   1.0078250
 NucSpn=           0           1           1           1           1           1           1
 AtZEff=   0.0000000   0.0000000   0.0000000   0.0000000   0.0000000   0.0000000   0.0000000
 NQMom=    0.0000000   0.0000000   0.0000000   0.0000000   0.0000000   0.0000000   0.0000000
 NMagM=    0.0000000   2.7928460   2.7928460   2.7928460   2.7928460   2.7928460   2.7928460
 AtZNuc=   6.0000000   1.0000000   1.0000000   1.0000000   1.0000000   1.0000000   1.0000000
 Leave Link  101 at Mon Jul  4 15:57:11 2022, MaxMem=   939524096 cpu:         0.4
 (Enter /Local/ce_dana/g09/l103.exe)

 GradGradGradGradGradGradGradGradGradGradGradGradGradGradGradGradGradGrad
 Stoichiometry    C4H11O2(2)
 Framework group  C1[X(C4H11O2)]
 Deg. of freedom    45
 Full point group                 C1      NOp   1
 RotChk:  IX=2 Diff= 1.18D-15
 Largest Abelian subgroup         C1      NOp   1
 Largest concise Abelian subgroup C1      NOp   1
                         Standard orientation:                         
 ---------------------------------------------------------------------
 Center     Atomic      Atomic             Coordinates (Angstroms)
 Number     Number       Type             X           Y           Z
 ---------------------------------------------------------------------
      1          6           0       -1.202628    1.474916   -0.058064
      2          6           0       -1.988843    0.182362    0.052496
      3          8           0       -1.251540   -0.965921   -0.321782
      4          8           0       -0.241241   -1.183479    0.589882
      5          1           0       -0.821489    1.619068   -1.080140
      6          1           0       -0.352778    1.467981    0.638501
      7          1           0       -1.844222    2.331348    0.196592
      8          1           0       -2.841340    0.175088   -0.643609
      9          1           0       -2.380384    0.046027    1.075356
     10          6           0        2.592596    0.562873    0.309746
     11          6           0        1.830277   -0.360509   -0.592798
     12          1           0        3.508740    0.927481   -0.189123
     13          1           0        2.001058    1.448989    0.584441
     14          1           0        2.907312    0.058775    1.235578
     15          1           0        0.714194   -0.817946    0.066714
     16          1           0        2.317944   -1.314577   -0.831282
     17          1           0        1.344801    0.095117   -1.466112
 ---------------------------------------------------------------------
 Rotational constants (GHZ):      4.8077290      1.7861632      1.4573007
 Leave Link  202 at Mon Jul  4 16:10:26 2022, MaxMem=   939524096 cpu:         0.0
 (Enter /Local/ce_dana/g09/l601.exe)
 Copying SCF densities to generalized density rwf, IOpCl= 1 IROHF=0.

 **********************************************************************

            Population analysis using the SCF density.

 **********************************************************************

 Orbital symmetries:
 Alpha Orbitals:
       Occupied  (A) (A) (A) (A) (A) (A) (A) (A) (A) (A) (A) (A)
                 (A) (A) (A) (A) (A) (A) (A) (A) (A) (A) (A) (A)
                 (A) (A)
       Virtual   (A) (A) (A) (A) (A) (A) (A) (A) (A) (A) (A) (A)
                 (A) (A) (A) (A) (A) (A) (A) (A) (A) (A) (A) (A)
                 (A) (A) (A) (A) (A) (A) (A) (A) (A) (A) (A) (A)
                 (A) (A) (A) (A) (A) (A) (A) (A) (A) (A) (A) (A)
                 (A) (A) (A) (A) (A) (A) (A) (A) (A) (A) (A) (A)
                 (A) (A) (A) (A) (A) (A) (A) (A) (A) (A) (A) (A)
                 (A) (A) (A) (A) (A) (A) (A) (A) (A) (A) (A) (A)
                 (A) (A) (A) (A) (A) (A) (A) (A) (A) (A) (A) (A)
                 (A) (A) (A) (A) (A) (A) (A) (A) (A) (A) (A) (A)
                 (A) (A) (A) (A) (A)
 Beta  Orbitals:
       Occupied  (A) (A) (A) (A) (A) (A) (A) (A) (A) (A) (A) (A)
                 (A) (A) (A) (A) (A) (A) (A) (A) (A) (A) (A) (A)
                 (A)
       Virtual   (A) (A) (A) (A) (A) (A) (A) (A) (A) (A) (A) (A)
                 (A) (A) (A) (A) (A) (A) (A) (A) (A) (A) (A) (A)
                 (A) (A) (A) (A) (A) (A) (A) (A) (A) (A) (A) (A)
                 (A) (A) (A) (A) (A) (A) (A) (A) (A) (A) (A) (A)
                 (A) (A) (A) (A) (A) (A) (A) (A) (A) (A) (A) (A)
                 (A) (A) (A) (A) (A) (A) (A) (A) (A) (A) (A) (A)
                 (A) (A) (A) (A) (A) (A) (A) (A) (A) (A) (A) (A)
                 (A) (A) (A) (A) (A) (A) (A) (A) (A) (A) (A) (A)
                 (A) (A) (A) (A) (A) (A) (A) (A) (A) (A) (A) (A)
                 (A) (A) (A) (A) (A) (A)
 The electronic state is 2-A.
 Alpha  occ. eigenvalues --  -19.30830 -19.29888 -10.34477 -10.31646 -10.30436
 Alpha  occ. eigenvalues --  -10.29627  -1.22763  -0.97379  -0.86573  -0.83204
 Alpha  occ. eigenvalues --   -0.72085  -0.69950  -0.61955  -0.57294  -0.55032
 Alpha  occ. eigenvalues --   -0.54432  -0.53246  -0.50399  -0.48050  -0.47148
 Alpha  occ. eigenvalues --   -0.46202  -0.44507  -0.43327  -0.37819  -0.35668
 Alpha  occ. eigenvalues --   -0.30601
 Alpha virt. eigenvalues --    0.13080   0.15588   0.17000   0.17212   0.17825
 Alpha virt. eigenvalues --    0.20338   0.20924   0.21333   0.22649   0.23789
 Alpha virt. eigenvalues --    0.26239   0.28614   0.31014   0.32592   0.35891
 Alpha virt. eigenvalues --    0.45730   0.48763   0.49821   0.50734   0.53372
 Alpha virt. eigenvalues --    0.56712   0.59791   0.60689   0.65927   0.66782
 Alpha virt. eigenvalues --    0.68972   0.69767   0.71733   0.73562   0.73961
 Alpha virt. eigenvalues --    0.75200   0.75652   0.76093   0.76392   0.78846
 Alpha virt. eigenvalues --    0.79792   0.80668   0.83352   0.85390   0.87651
 Alpha virt. eigenvalues --    0.96597   1.03323   1.05749   1.08441   1.13638
 Alpha virt. eigenvalues --    1.15117   1.18075   1.19197   1.23967   1.28307
 Alpha virt. eigenvalues --    1.34988   1.42310   1.43066   1.46339   1.49551
 Alpha virt. eigenvalues --    1.52795   1.55666   1.59376   1.61366   1.63069
 Alpha virt. eigenvalues --    1.69750   1.75694   1.80130   1.81449   1.81774
 Alpha virt. eigenvalues --    1.83046   1.85434   1.86819   1.87491   1.88099
 Alpha virt. eigenvalues --    1.89146   1.91137   1.92541   1.94052   1.95076
 Alpha virt. eigenvalues --    1.97812   1.99714   2.06403   2.09974   2.11749
 Alpha virt. eigenvalues --    2.20677   2.24663   2.26008   2.35751   2.39388
 Alpha virt. eigenvalues --    2.43807   2.45111   2.47316   2.51096   2.54633
 Alpha virt. eigenvalues --    2.55450   2.56785   2.58943   2.62020   2.66165
 Alpha virt. eigenvalues --    2.66939   2.77448   2.84871   2.87953   2.90737
 Alpha virt. eigenvalues --    2.95885   3.00537   3.03126   3.04213   3.05987
 Alpha virt. eigenvalues --    3.07634   3.09583   3.13696   3.27146   3.27595
 Alpha virt. eigenvalues --    3.43799   3.69290   4.00846
  Beta  occ. eigenvalues --  -19.30671 -19.28858 -10.34483 -10.30801 -10.30470
  Beta  occ. eigenvalues --  -10.29618  -1.21508  -0.95687  -0.85255  -0.82848
  Beta  occ. eigenvalues --   -0.70720  -0.69262  -0.60260  -0.57093  -0.53997
  Beta  occ. eigenvalues --   -0.53342  -0.52094  -0.49285  -0.47460  -0.46797
  Beta  occ. eigenvalues --   -0.44955  -0.43998  -0.43043  -0.35816  -0.33470
  Beta virt. eigenvalues --   -0.03708   0.13233   0.15742   0.17307   0.17896
  Beta virt. eigenvalues --    0.18056   0.20551   0.21093   0.21375   0.22813
  Beta virt. eigenvalues --    0.24035   0.26512   0.28920   0.31262   0.33148
  Beta virt. eigenvalues --    0.37843   0.45911   0.49118   0.50494   0.50882
  Beta virt. eigenvalues --    0.53483   0.57119   0.60008   0.61481   0.67017
  Beta virt. eigenvalues --    0.68189   0.69152   0.70084   0.72260   0.73868
  Beta virt. eigenvalues --    0.74179   0.75591   0.75867   0.76654   0.76887
  Beta virt. eigenvalues --    0.78912   0.79950   0.81124   0.83520   0.85582
  Beta virt. eigenvalues --    0.88149   0.96796   1.03954   1.06701   1.08743
  Beta virt. eigenvalues --    1.14149   1.15641   1.18985   1.19995   1.24750
  Beta virt. eigenvalues --    1.28829   1.35691   1.42490   1.43207   1.47066
  Beta virt. eigenvalues --    1.49963   1.52997   1.56458   1.59570   1.61548
  Beta virt. eigenvalues --    1.63154   1.70150   1.78259   1.80671   1.81750
  Beta virt. eigenvalues --    1.81860   1.83174   1.85536   1.87044   1.87672
  Beta virt. eigenvalues --    1.88270   1.89699   1.91302   1.92693   1.94294
  Beta virt. eigenvalues --    1.95201   1.97922   1.99969   2.07126   2.10753
  Beta virt. eigenvalues --    2.11905   2.20798   2.25145   2.26619   2.37466
  Beta virt. eigenvalues --    2.40149   2.44060   2.46343   2.47522   2.52000
  Beta virt. eigenvalues --    2.54933   2.56078   2.57599   2.59612   2.62363
  Beta virt. eigenvalues --    2.66461   2.67669   2.77539   2.85343   2.88824
  Beta virt. eigenvalues --    2.92385   2.97684   3.00883   3.03190   3.04466
  Beta virt. eigenvalues --    3.06187   3.08233   3.10600   3.14060   3.27832
  Beta virt. eigenvalues --    3.29093   3.44058   3.71562   4.02471
          Condensed to atoms (all electrons):
               1          2          3          4          5          6
     1  C    4.706184   0.397557  -0.049281  -0.005475   0.379302   0.389183
     2  C    0.397557   4.484444   0.283772  -0.048696  -0.015246  -0.022871
     3  O   -0.049281   0.283772   7.979619   0.094195   0.003387  -0.006245
     4  O   -0.005475  -0.048696   0.094195   7.992550  -0.001075   0.015946
     5  H    0.379302  -0.015246   0.003387  -0.001075   0.630920  -0.026997
     6  H    0.389183  -0.022871  -0.006245   0.015946  -0.026997   0.615598
     7  H    0.371001  -0.009808   0.003601   0.000171  -0.016393  -0.016522
     8  H   -0.021415   0.378634  -0.020124   0.005687  -0.009455   0.007742
     9  H   -0.050541   0.402758  -0.027742   0.000916   0.008141  -0.010072
    10  C   -0.002830   0.000217   0.000333   0.004500  -0.000050  -0.000471
    11  C    0.001961  -0.002833   0.001339  -0.090350  -0.001351   0.002330
    12  H    0.000064  -0.000012  -0.000014  -0.000047  -0.000035   0.000002
    13  H    0.000381   0.000110   0.000126  -0.000527   0.000454   0.005423
    14  H    0.000023   0.000013  -0.000020   0.000381   0.000001  -0.000158
    15  H    0.003518   0.001712  -0.024970   0.216902   0.000289  -0.001683
    16  H   -0.000027   0.000071   0.000328   0.001459   0.000048   0.000100
    17  H   -0.000545   0.000320   0.003311   0.000002   0.002984  -0.000987
               7          8          9         10         11         12
     1  C    0.371001  -0.021415  -0.050541  -0.002830   0.001961   0.000064
     2  C   -0.009808   0.378634   0.402758   0.000217  -0.002833  -0.000012
     3  O    0.003601  -0.020124  -0.027742   0.000333   0.001339  -0.000014
     4  O    0.000171   0.005687   0.000916   0.004500  -0.090350  -0.000047
     5  H   -0.016393  -0.009455   0.008141  -0.000050  -0.001351  -0.000035
     6  H   -0.016522   0.007742  -0.010072  -0.000471   0.002330   0.000002
     7  H    0.626880  -0.003204  -0.000949   0.000058   0.000081  -0.000003
     8  H   -0.003204   0.647789  -0.027159  -0.000012   0.000191   0.000001
     9  H   -0.000949  -0.027159   0.667653   0.000034  -0.000359  -0.000001
    10  C    0.000058  -0.000012   0.000034   4.569602   0.389819   0.385940
    11  C    0.000081   0.000191  -0.000359   0.389819   5.028409  -0.019893
    12  H   -0.000003   0.000001  -0.000001   0.385940  -0.019893   0.628087
    13  H   -0.000107  -0.000004   0.000039   0.399790  -0.028510  -0.021466
    14  H    0.000001  -0.000000  -0.000001   0.398974  -0.026614  -0.022693
    15  H   -0.000136  -0.000777   0.000836  -0.010408   0.195851   0.002550
    16  H   -0.000003   0.000001   0.000010  -0.021523   0.378298  -0.004927
    17  H    0.000050  -0.000077   0.000139  -0.021655   0.374947  -0.004960
              13         14         15         16         17
     1  C    0.000381   0.000023   0.003518  -0.000027  -0.000545
     2  C    0.000110   0.000013   0.001712   0.000071   0.000320
     3  O    0.000126  -0.000020  -0.024970   0.000328   0.003311
     4  O   -0.000527   0.000381   0.216902   0.001459   0.000002
     5  H    0.000454   0.000001   0.000289   0.000048   0.002984
     6  H    0.005423  -0.000158  -0.001683   0.000100  -0.000987
     7  H   -0.000107   0.000001  -0.000136  -0.000003   0.000050
     8  H   -0.000004  -0.000000  -0.000777   0.000001  -0.000077
     9  H    0.000039  -0.000001   0.000836   0.000010   0.000139
    10  C    0.399790   0.398974  -0.010408  -0.021523  -0.021655
    11  C   -0.028510  -0.026614   0.195851   0.378298   0.374947
    12  H   -0.021466  -0.022693   0.002550  -0.004927  -0.004960
    13  H    0.620829  -0.021302  -0.003508   0.006395  -0.006731
    14  H   -0.021302   0.616781  -0.003107  -0.006313   0.006206
    15  H   -0.003508  -0.003107   0.459626  -0.003838  -0.005192
    16  H    0.006395  -0.006313  -0.003838   0.600970  -0.021695
    17  H   -0.006731   0.006206  -0.005192  -0.021695   0.606244
          Atomic-Atomic Spin Densities.
               1          2          3          4          5          6
     1  C    0.012546  -0.000226  -0.003419   0.003917  -0.000442   0.000708
     2  C   -0.000226  -0.006832   0.004365  -0.004124  -0.000043   0.000043
     3  O   -0.003419   0.004365   0.079555  -0.040852   0.000272   0.000154
     4  O    0.003917  -0.004124  -0.040852   0.493407  -0.000337  -0.000760
     5  H   -0.000442  -0.000043   0.000272  -0.000337  -0.000082   0.000064
     6  H    0.000708   0.000043   0.000154  -0.000760   0.000064  -0.001047
     7  H   -0.001995   0.000684   0.000058  -0.000079   0.000175   0.000116
     8  H   -0.001671   0.001182  -0.000131  -0.000061   0.000133  -0.000084
     9  H   -0.003460  -0.001178  -0.001241   0.000938   0.000083   0.000080
    10  C    0.000410  -0.000171  -0.000259   0.003890  -0.000111  -0.000130
    11  C   -0.004096   0.002256   0.010364  -0.081662   0.000772   0.000202
    12  H   -0.000038   0.000013   0.000014  -0.000229   0.000028   0.000017
    13  H    0.000176  -0.000085  -0.000066   0.000612  -0.000085  -0.000054
    14  H    0.000040  -0.000015  -0.000022   0.000633  -0.000009  -0.000021
    15  H   -0.002754   0.001974   0.005973  -0.017451   0.000381   0.000286
    16  H    0.000087  -0.000059  -0.000328   0.002625  -0.000025  -0.000007
    17  H    0.000952  -0.000488  -0.001396   0.002783  -0.000389  -0.000046
               7          8          9         10         11         12
     1  C   -0.001995  -0.001671  -0.003460   0.000410  -0.004096  -0.000038
     2  C    0.000684   0.001182  -0.001178  -0.000171   0.002256   0.000013
     3  O    0.000058  -0.000131  -0.001241  -0.000259   0.010364   0.000014
     4  O   -0.000079  -0.000061   0.000938   0.003890  -0.081662  -0.000229
     5  H    0.000175   0.000133   0.000083  -0.000111   0.000772   0.000028
     6  H    0.000116  -0.000084   0.000080  -0.000130   0.000202   0.000017
     7  H    0.001072   0.000129   0.000449  -0.000021   0.000117   0.000003
     8  H    0.000129  -0.000673   0.001091  -0.000002   0.000055   0.000000
     9  H    0.000449   0.001091   0.005473  -0.000037   0.000493   0.000002
    10  C   -0.000021  -0.000002  -0.000037  -0.024177  -0.038990   0.009692
    11  C    0.000117   0.000055   0.000493  -0.038990   0.737165  -0.013429
    12  H    0.000003   0.000000   0.000002   0.009692  -0.013429   0.056637
    13  H   -0.000034  -0.000001  -0.000022   0.004266  -0.005100  -0.005235
    14  H   -0.000002  -0.000000  -0.000006   0.004985  -0.006675  -0.005813
    15  H    0.000054   0.000031   0.000597   0.000378   0.046137  -0.000068
    16  H   -0.000001  -0.000001  -0.000010   0.001467  -0.007018  -0.001874
    17  H   -0.000038  -0.000009  -0.000051   0.000854  -0.004636  -0.001395
              13         14         15         16         17
     1  C    0.000176   0.000040  -0.002754   0.000087   0.000952
     2  C   -0.000085  -0.000015   0.001974  -0.000059  -0.000488
     3  O   -0.000066  -0.000022   0.005973  -0.000328  -0.001396
     4  O    0.000612   0.000633  -0.017451   0.002625   0.002783
     5  H   -0.000085  -0.000009   0.000381  -0.000025  -0.000389
     6  H   -0.000054  -0.000021   0.000286  -0.000007  -0.000046
     7  H   -0.000034  -0.000002   0.000054  -0.000001  -0.000038
     8  H   -0.000001  -0.000000   0.000031  -0.000001  -0.000009
     9  H   -0.000022  -0.000006   0.000597  -0.000010  -0.000051
    10  C    0.004266   0.004985   0.000378   0.001467   0.000854
    11  C   -0.005100  -0.006675   0.046137  -0.007018  -0.004636
    12  H   -0.005235  -0.005813  -0.000068  -0.001874  -0.001395
    13  H    0.008574   0.002148  -0.000095   0.000176   0.000980
    14  H    0.002148   0.011435  -0.000151   0.001237   0.000160
    15  H   -0.000095  -0.000151  -0.069681   0.001341   0.003279
    16  H    0.000176   0.001237   0.001341  -0.019637   0.002946
    17  H    0.000980   0.000160   0.003279   0.002946  -0.023163
 Mulliken charges and spin densities:
               1          2
     1  C   -0.119060   0.000735
     2  C    0.149857  -0.002703
     3  O   -0.241613   0.053039
     4  O   -0.186537   0.363252
     5  H    0.045077   0.000385
     6  H    0.049684  -0.000477
     7  H    0.045280   0.000685
     8  H    0.042182  -0.000011
     9  H    0.036298   0.003200
    10  C   -0.092317  -0.037955
    11  C   -0.203317   0.635955
    12  H    0.057409   0.038325
    13  H    0.048609   0.006156
    14  H    0.057827   0.007924
    15  H    0.172337  -0.029769
    16  H    0.070644  -0.019082
    17  H    0.067639  -0.019658
 Sum of Mulliken charges =  -0.00000   1.00000
 Mulliken charges and spin densities with hydrogens summed into heavy atoms:
               1          2
     1  C    0.020981   0.001328
     2  C    0.228337   0.000486
     3  O   -0.241613   0.053039
     4  O   -0.014200   0.333483
    10  C    0.071529   0.014450
    11  C   -0.065033   0.597215
 Electronic spatial extent (au):  <R**2>=            873.0670
 Charge=             -0.0000 electrons
 Dipole moment (field-independent basis, Debye):
    X=              0.7288    Y=              2.2204    Z=             -0.3945  Tot=              2.3700
 Quadrupole moment (field-independent basis, Debye-Ang):
   XX=            -33.3584   YY=            -41.4411   ZZ=            -39.3606
   XY=             -2.9232   XZ=             -0.4503   YZ=              0.3907
 Traceless Quadrupole moment (field-independent basis, Debye-Ang):
   XX=              4.6950   YY=             -3.3877   ZZ=             -1.3072
   XY=             -2.9232   XZ=             -0.4503   YZ=              0.3907
 Octapole moment (field-independent basis, Debye-Ang**2):
  XXX=             -8.2450  YYY=             -4.2453  ZZZ=              0.4772  XYY=              0.7086
  XXY=             -0.5396  XXZ=              0.9367  XZZ=             -2.0419  YZZ=             -1.5185
  YYZ=             -0.2381  XYZ=              0.5468
 Hexadecapole moment (field-independent basis, Debye-Ang**3):
 XXXX=           -743.5149 YYYY=           -267.8703 ZZZZ=            -99.2689 XXXY=             -0.0748
 XXXZ=              2.1525 YYYX=             -3.1872 YYYZ=              1.9663 ZZZX=              2.7114
 ZZZY=             -2.9944 XXYY=           -171.7081 XXZZ=           -143.8561 YYZZ=            -61.8795
 XXYZ=             -2.2564 YYXZ=             -2.5269 ZZXY=              0.5628
 N-N= 2.562195854597D+02 E-N=-1.233509636887D+03  KE= 3.061036414662D+02
                          Isotropic Fermi Contact Couplings
        Atom                 a.u.       MegaHertz       Gauss      10(-4) cm-1
     1  C(13)              0.00553       6.21710       2.21841       2.07380
     2  C(13)             -0.00300      -3.37716      -1.20506      -1.12650
     3  O(17)              0.03067     -18.59180      -6.63402      -6.20156
     4  O(17)              0.16089     -97.53016     -34.80118     -32.53256
     5  H(1)              -0.00001      -0.03564      -0.01272      -0.01189
     6  H(1)              -0.00006      -0.27012      -0.09639      -0.09010
     7  H(1)               0.00014       0.64223       0.22916       0.21423
     8  H(1)               0.00002       0.07888       0.02815       0.02631
     9  H(1)               0.00029       1.27840       0.45616       0.42643
    10  C(13)             -0.01989     -22.35574      -7.97708      -7.45707
    11  C(13)              0.20278     227.96050      81.34197      76.03944
    12  H(1)               0.01851      82.73693      29.52259      27.59807
    13  H(1)               0.00285      12.71967       4.53870       4.24283
    14  H(1)               0.00382      17.07788       6.09381       5.69657
    15  H(1)              -0.02480    -110.83195     -39.54760     -36.96956
    16  H(1)              -0.00540     -24.12497      -8.60839      -8.04722
    17  H(1)              -0.00525     -23.45103      -8.36791      -7.82242
 --------------------------------------------------------
       Center         ----  Spin Dipole Couplings  ----
                      3XX-RR        3YY-RR        3ZZ-RR
 --------------------------------------------------------
     1   Atom       -0.001430      0.007531     -0.006101
     2   Atom        0.005034      0.000959     -0.005994
     3   Atom        0.138164     -0.012538     -0.125626
     4   Atom        0.339039     -0.369807      0.030769
     5   Atom       -0.000089      0.002678     -0.002589
     6   Atom       -0.001478      0.006186     -0.004708
     7   Atom        0.000180      0.001859     -0.002039
     8   Atom        0.004095     -0.001370     -0.002724
     9   Atom        0.004933     -0.001519     -0.003414
    10   Atom        0.011533     -0.001817     -0.009716
    11   Atom        0.283330     -0.271267     -0.012062
    12   Atom        0.005283     -0.001943     -0.003340
    13   Atom       -0.005443      0.008505     -0.003063
    14   Atom        0.001834     -0.006749      0.004915
    15   Atom        0.138762     -0.087158     -0.051604
    16   Atom       -0.004836      0.034228     -0.029392
    17   Atom        0.004788     -0.026969      0.022182
 --------------------------------------------------------
                        XY            XZ            YZ
 --------------------------------------------------------
     1   Atom       -0.001980     -0.000048      0.000175
     2   Atom       -0.007125      0.001441     -0.000249
     3   Atom        0.202506     -0.186948     -0.096453
     4   Atom        0.741938     -0.992381     -0.638864
     5   Atom       -0.003437      0.000995     -0.003151
     6   Atom       -0.003720     -0.001980      0.002841
     7   Atom       -0.002469     -0.000305      0.000164
     8   Atom       -0.003377      0.001695     -0.001207
     9   Atom       -0.005168     -0.003009      0.001731
    10   Atom        0.019252     -0.000359      0.002533
    11   Atom        0.235655     -0.472687     -0.176193
    12   Atom        0.008380     -0.000758      0.001910
    13   Atom        0.003816      0.000630      0.007645
    14   Atom        0.003118      0.008991      0.002899
    15   Atom        0.096295     -0.134314     -0.051395
    16   Atom       -0.025780     -0.025241      0.008093
    17   Atom       -0.010425      0.017928     -0.036322
 --------------------------------------------------------


 ---------------------------------------------------------------------------------
              Anisotropic Spin Dipole Couplings in Principal Axis System
 ---------------------------------------------------------------------------------

       Atom             a.u.   MegaHertz   Gauss  10(-4) cm-1        Axes

              Baa    -0.0061    -0.819    -0.292    -0.273  0.0051 -0.0121  0.9999
     1 C(13)  Bbb    -0.0018    -0.248    -0.088    -0.083  0.9784  0.2066 -0.0025
              Bcc     0.0080     1.067     0.381     0.356 -0.2066  0.9783  0.0129
 
              Baa    -0.0063    -0.849    -0.303    -0.283 -0.2564 -0.2186  0.9415
     2 C(13)  Bbb    -0.0042    -0.561    -0.200    -0.187  0.5453  0.7716  0.3276
              Bcc     0.0105     1.410     0.503     0.470  0.7981 -0.5974  0.0787
 
              Baa    -0.2231    16.143     5.760     5.385  0.4910 -0.0746  0.8680
     3 O(17)  Bbb    -0.1443    10.440     3.725     3.483 -0.4120  0.8580  0.3069
              Bcc     0.3674   -26.583    -9.485    -8.867  0.7676  0.5083 -0.3905
 
              Baa    -0.8420    60.928    21.741    20.323 -0.2643  0.8965  0.3557
     4 O(17)  Bbb    -0.8192    59.274    21.150    19.772  0.6801 -0.0883  0.7278
              Bcc     1.6612  -120.202   -42.891   -40.095  0.6838  0.4343 -0.5864
 
              Baa    -0.0042    -2.231    -0.796    -0.744  0.2083  0.4926  0.8450
     5 H(1)   Bbb    -0.0020    -1.056    -0.377    -0.352  0.8442  0.3457 -0.4097
              Bcc     0.0062     3.287     1.173     1.096 -0.4939  0.7986 -0.3438
 
              Baa    -0.0058    -3.077    -1.098    -1.026  0.3277 -0.1207  0.9370
     6 H(1)   Bbb    -0.0028    -1.489    -0.531    -0.497  0.8653  0.4365 -0.2464
              Bcc     0.0086     4.566     1.629     1.523 -0.3793  0.8915  0.2475
 
              Baa    -0.0021    -1.121    -0.400    -0.374  0.2617  0.1235  0.9572
     7 H(1)   Bbb    -0.0015    -0.823    -0.294    -0.275  0.7694  0.5720 -0.2842
              Bcc     0.0036     1.944     0.694     0.649 -0.5826  0.8109  0.0547
 
              Baa    -0.0035    -1.844    -0.658    -0.615  0.0979  0.6126  0.7843
     8 H(1)   Bbb    -0.0027    -1.453    -0.519    -0.485  0.4730  0.6648 -0.5782
              Bcc     0.0062     3.297     1.176     1.100  0.8756 -0.4276  0.2246
 
              Baa    -0.0044    -2.372    -0.846    -0.791 -0.1343 -0.6693  0.7307
     9 H(1)   Bbb    -0.0043    -2.316    -0.826    -0.772  0.5248  0.5775  0.6254
              Bcc     0.0088     4.688     1.673     1.564  0.8406 -0.4675 -0.2737
 
              Baa    -0.0163    -2.188    -0.781    -0.730 -0.5403  0.7752 -0.3274
    10 C(13)  Bbb    -0.0090    -1.203    -0.429    -0.401 -0.2164  0.2480  0.9443
              Bcc     0.0253     3.392     1.210     1.131  0.8132  0.5810  0.0337
 
              Baa    -0.3615   -48.507   -17.308   -16.180  0.3091  0.6128  0.7272
    11 C(13)  Bbb    -0.3569   -47.888   -17.088   -15.974 -0.5555  0.7370 -0.3850
              Bcc     0.7183    96.394    34.396    32.154  0.7719  0.2850 -0.5683
 
              Baa    -0.0083    -4.416    -1.576    -1.473 -0.5019  0.7780 -0.3781
    12 H(1)   Bbb    -0.0025    -1.350    -0.482    -0.450 -0.2320  0.3000  0.9253
              Bcc     0.0108     5.767     2.058     1.924  0.8333  0.5521  0.0299
 
              Baa    -0.0077    -4.103    -1.464    -1.369  0.5842 -0.4549  0.6721
    13 H(1)   Bbb    -0.0054    -2.860    -1.020    -0.954  0.7874  0.1170 -0.6053
              Bcc     0.0130     6.963     2.484     2.323  0.1967  0.8828  0.4266
 
              Baa    -0.0078    -4.142    -1.478    -1.381 -0.3133  0.9496  0.0051
    14 H(1)   Bbb    -0.0056    -3.000    -1.070    -1.001  0.7060  0.2365 -0.6675
              Bcc     0.0134     7.141     2.548     2.382  0.6351  0.2056  0.7446
 
              Baa    -0.1238   -66.047   -23.567   -22.031 -0.0445  0.8511  0.5231
    15 H(1)   Bbb    -0.1204   -64.223   -22.916   -21.422  0.5358 -0.4216  0.7315
              Bcc     0.2442   130.269    46.483    43.453  0.8431  0.3129 -0.4373
 
              Baa    -0.0459   -24.471    -8.732    -8.163  0.5660  0.0995  0.8184
    16 H(1)   Bbb    -0.0057    -3.033    -1.082    -1.012  0.6633  0.5346 -0.5237
              Bcc     0.0516    27.505     9.814     9.175 -0.4896  0.8392  0.2366
 
              Baa    -0.0463   -24.684    -8.808    -8.234  0.0174  0.8851  0.4651
    17 H(1)   Bbb    -0.0045    -2.419    -0.863    -0.807  0.9116  0.1771 -0.3710
              Bcc     0.0508    27.103     9.671     9.040  0.4107 -0.4305  0.8037
 

 ---------------------------------------------------------------------------------

 No NMR shielding tensors so no spin-rotation constants.
 Leave Link  601 at Mon Jul  4 16:10:26 2022, MaxMem=   939524096 cpu:         2.4
 (Enter /Local/ce_dana/g09/l9999.exe)

 Test job not archived.
 1\1\GINC-TECH-WN174\FTS\UwB97XD\def2SVP\C4H11O2(2)\ALONGD\04-Jul-2022\
 0\\#P opt=(ts, calcfc, noeigentest, maxcycles=100) guess=mix uwb97xd/d
 ef2svp IOp(2/9=2000) scf=xqc\\TS0\\0,2\C,-1.5300877289,0.9932035152,0.
 204612619\C,-0.5926664097,1.3327655123,1.3478507567\O,0.4064790073,0.3
 565371512,1.5735490798\O,1.2775733657,0.3318470847,0.5059574185\H,-2.0
 1863283,0.0212609576,0.3699530693\H,-0.9788650243,0.954815954,-0.74521
 71106\H,-2.3109349984,1.7626326804,0.1139187751\H,-1.1323323998,1.3704
 463069,2.306342501\H,-0.1131658552,2.3135396933,1.1856939838\C,0.42332
 24353,-1.3704673963,-2.238352118\C,0.5902374345,-1.7212079336,-0.79008
 76226\H,0.1298663088,-2.2605035917,-2.8238840889\H,-0.360189436,-0.612
 9210746,-2.3893785474\H,1.3585683667,-0.9899429288,-2.6752080312\H,0.9
 826799914,-0.6013580078,-0.0959917659\H,1.4202790813,-2.398006576,-0.5
 494365614\H,-0.3253629686,-1.9618720369,-0.2335656671\\Version=ES64L-G
 09RevD.01\State=2-A\HF=-308.9946785\S2=0.758247\S2-1=0.\S2A=0.750035\R
 MSD=3.992e-09\RMSF=1.167e-05\Dipole=-0.7355966,-0.1303984,-0.557984\Qu
 adrupole=-1.0924541,1.7901814,-0.6977273,-1.9437619,-2.3153384,1.75347
 01\PG=C01 [X(C4H11O2)]\\@


 IF OTHER PEOPLE ARE GOING TO TALK, CONVERSATION IS SIMPLY IMPOSSIBLE.

                                               -- WHISTLER'S PRINCIPLE
 Job cpu time:       0 days  1 hours 38 minutes 11.3 seconds.
 File lengths (MBytes):  RWF=     74 Int=      0 D2E=      0 Chk=      3 Scr=      1
 Normal termination of Gaussian 09 at Mon Jul  4 16:10:26 2022.
