 Entering Gaussian System, Link 0=/Local/ce_dana/g09/g09
 Initial command:
 /Local/ce_dana/g09/l1.exe "/storage/ce_dana/alongd/scratch/g09/Gau-103300.inp" -scrdir="/storage/ce_dana/alongd/scratch/g09/"
 Entering Link 1 = /Local/ce_dana/g09/l1.exe PID=    103301.
  
 Copyright (c) 1988,1990,1992,1993,1995,1998,2003,2009,2013,
            Gaussian, Inc.  All Rights Reserved.
  
 This is part of the Gaussian(R) 09 program.  It is based on
 the Gaussian(R) 03 system (copyright 2003, Gaussian, Inc.),
 the Gaussian(R) 98 system (copyright 1998, Gaussian, Inc.),
 the Gaussian(R) 94 system (copyright 1995, Gaussian, Inc.),
 the Gaussian 92(TM) system (copyright 1992, Gaussian, Inc.),
 the Gaussian 90(TM) system (copyright 1990, Gaussian, Inc.),
 the Gaussian 88(TM) system (copyright 1988, Gaussian, Inc.),
 the Gaussian 86(TM) system (copyright 1986, Carnegie Mellon
 University), and the Gaussian 82(TM) system (copyright 1983,
 Carnegie Mellon University). Gaussian is a federally registered
 trademark of Gaussian, Inc.
  
 This software contains proprietary and confidential information,
 including trade secrets, belonging to Gaussian, Inc.
  
 This software is provided under written license and may be
 used, copied, transmitted, or stored only in accord with that
 written license.
  
 The following legend is applicable only to US Government
 contracts under FAR:
  
                    RESTRICTED RIGHTS LEGEND
  
 Use, reproduction and disclosure by the US Government is
 subject to restrictions as set forth in subparagraphs (a)
 and (c) of the Commercial Computer Software - Restricted
 Rights clause in FAR 52.227-19.
  
 Gaussian, Inc.
 340 Quinnipiac St., Bldg. 40, Wallingford CT 06492
  
  
 ---------------------------------------------------------------
 Warning -- This program may not be used in any manner that
 competes with the business of Gaussian, Inc. or will provide
 assistance to any competitor of Gaussian, Inc.  The licensee
 of this program is prohibited from giving any competitor of
 Gaussian, Inc. access to this program.  By using this program,
 the user acknowledges that Gaussian, Inc. is engaged in the
 business of creating and licensing software in the field of
 computational chemistry and represents and warrants to the
 licensee that it is not a competitor of Gaussian, Inc. and that
 it will not use this program in any manner prohibited above.
 ---------------------------------------------------------------
  

 Cite this work as:
 Gaussian 09, Revision D.01,
 M. J. Frisch, G. W. Trucks, H. B. Schlegel, G. E. Scuseria, 
 M. A. Robb, J. R. Cheeseman, G. Scalmani, V. Barone, B. Mennucci, 
 G. A. Petersson, H. Nakatsuji, M. Caricato, X. Li, H. P. Hratchian, 
 A. F. Izmaylov, J. Bloino, G. Zheng, J. L. Sonnenberg, M. Hada, 
 M. Ehara, K. Toyota, R. Fukuda, J. Hasegawa, M. Ishida, T. Nakajima, 
 Y. Honda, O. Kitao, H. Nakai, T. Vreven, J. A. Montgomery, Jr., 
 J. E. Peralta, F. Ogliaro, M. Bearpark, J. J. Heyd, E. Brothers, 
 K. N. Kudin, V. N. Staroverov, T. Keith, R. Kobayashi, J. Normand, 
 K. Raghavachari, A. Rendell, J. C. Burant, S. S. Iyengar, J. Tomasi, 
 M. Cossi, N. Rega, J. M. Millam, M. Klene, J. E. Knox, J. B. Cross, 
 V. Bakken, C. Adamo, J. Jaramillo, R. Gomperts, R. E. Stratmann, 
 O. Yazyev, A. J. Austin, R. Cammi, C. Pomelli, J. W. Ochterski, 
 R. L. Martin, K. Morokuma, V. G. Zakrzewski, G. A. Voth, 
 P. Salvador, J. J. Dannenberg, S. Dapprich, A. D. Daniels, 
 O. Farkas, J. B. Foresman, J. V. Ortiz, J. Cioslowski, 
 and D. J. Fox, Gaussian, Inc., Wallingford CT, 2013.
 
 ******************************************
 Gaussian 09:  ES64L-G09RevD.01 24-Apr-2013
                 4-Jul-2022 
 ******************************************
 %chk=check.chk
 %mem=7168mb
 %NProcShared=10
 Will use up to   10 processors via shared memory.
 ----------------------------------------------------------------------
 #P opt=(ts, calcfc, noeigentest, maxcycles=100) guess=mix uwb97xd/def2
 svp IOp(2/9=2000) scf=xqc
 ----------------------------------------------------------------------
 1/5=1,6=100,10=4,11=1,14=-1,18=20,26=3,38=1/1,3;
 2/9=2000,12=2,17=6,18=5,40=1/2;
 3/5=43,7=101,11=2,16=1,25=1,30=1,71=2,74=-58,116=2,140=1/1,2,3;
 4/13=-1/1;
 5/5=2,8=3,13=1,38=5/2,8;
 8/6=4,10=90,11=11/1;
 11/6=1,8=1,9=11,15=111,16=1/1,2,10;
 10/6=1,13=1/2;
 6/7=2,8=2,9=2,10=2,28=1/1;
 7/10=1,18=20,25=1/1,2,3,16;
 1/5=1,6=100,10=4,11=1,14=-1,18=20,26=3/3(2);
 2/9=2000/2;
 99//99;
 2/9=2000/2;
 3/5=43,7=101,11=2,16=1,25=1,30=1,71=1,74=-58,116=2/1,2,3;
 4/5=5,16=3,69=1/1;
 5/5=2,8=3,13=1,38=5/2,8;
 7//1,2,3,16;
 1/5=1,6=100,11=1,14=-1,18=20,26=3/3(-5);
 2/9=2000/2;
 6/7=2,8=2,9=2,10=2,19=2,28=1/1;
 99/9=1/99;
 Leave Link    1 at Mon Jul  4 15:46:21 2022, MaxMem=   939524096 cpu:         0.1
 (Enter /Local/ce_dana/g09/l101.exe)
 ---
 TS0
 ---
 Symbolic Z-matrix:
 Charge =  0 Multiplicity = 2
 C                     1.86066   0.98879  -0.24226 
 C                     0.59157   1.80652  -0.05103 
 O                    -0.59784   1.01964  -0.04473 
 O                    -0.59784   0.25649   1.1969 
 H                     1.81224   0.41172  -1.16949 
 H                     2.00131   0.30114   0.59359 
 H                     2.73358   1.64593  -0.29105 
 H                     0.42183   2.48441  -0.89335 
 H                     0.63294   2.40239   0.86728 
 C                    -0.59784  -2.04556  -1.23412 
 C                    -0.59784  -2.04556   0.29628 
 H                    -0.59784  -3.06396  -1.63255 
 H                    -1.4798   -1.53636  -1.63255 
 H                     0.28412  -1.53636  -1.63254 
 H                    -0.59784  -0.82347   0.77439 
 H                     0.28412  -2.55476   0.69471 
 H                    -1.4798   -2.55476   0.69471 
 
 Add virtual bond connecting atoms H15        and O4         Dist= 2.19D+00.
 Add virtual bond connecting atoms H15        and C11        Dist= 2.48D+00.
 NAtoms=     17 NQM=       17 NQMF=       0 NMMI=      0 NMMIF=      0
                NMic=       0 NMicF=      0.
                    Isotopes and Nuclear Properties:
 (Nuclear quadrupole moments (NQMom) in fm**2, nuclear magnetic moments (NMagM)
  in nuclear magnetons)

  Atom         1           2           3           4           5           6           7           8           9          10
 IAtWgt=          12          12          16          16           1           1           1           1           1          12
 AtmWgt=  12.0000000  12.0000000  15.9949146  15.9949146   1.0078250   1.0078250   1.0078250   1.0078250   1.0078250  12.0000000
 NucSpn=           0           0           0           0           1           1           1           1           1           0
 AtZEff=   0.0000000   0.0000000   0.0000000   0.0000000   0.0000000   0.0000000   0.0000000   0.0000000   0.0000000   0.0000000
 NQMom=    0.0000000   0.0000000   0.0000000   0.0000000   0.0000000   0.0000000   0.0000000   0.0000000   0.0000000   0.0000000
 NMagM=    0.0000000   0.0000000   0.0000000   0.0000000   2.7928460   2.7928460   2.7928460   2.7928460   2.7928460   0.0000000
 AtZNuc=   6.0000000   6.0000000   8.0000000   8.0000000   1.0000000   1.0000000   1.0000000   1.0000000   1.0000000   6.0000000

  Atom        11          12          13          14          15          16          17
 IAtWgt=          12           1           1           1           1           1           1
 AtmWgt=  12.0000000   1.0078250   1.0078250   1.0078250   1.0078250   1.0078250   1.0078250
 NucSpn=           0           1           1           1           1           1           1
 AtZEff=   0.0000000   0.0000000   0.0000000   0.0000000   0.0000000   0.0000000   0.0000000
 NQMom=    0.0000000   0.0000000   0.0000000   0.0000000   0.0000000   0.0000000   0.0000000
 NMagM=    0.0000000   2.7928460   2.7928460   2.7928460   2.7928460   2.7928460   2.7928460
 AtZNuc=   6.0000000   1.0000000   1.0000000   1.0000000   1.0000000   1.0000000   1.0000000
 Leave Link  101 at Mon Jul  4 15:46:21 2022, MaxMem=   939524096 cpu:         0.2
 (Enter /Local/ce_dana/g09/l103.exe)

 Stoichiometry    C4H11O2(2)
 Framework group  C1[X(C4H11O2)]
 Deg. of freedom    45
 Full point group                 C1      NOp   1
 RotChk:  IX=0 Diff= 8.23D-16
 Largest Abelian subgroup         C1      NOp   1
 Largest concise Abelian subgroup C1      NOp   1
                         Standard orientation:                         
 ---------------------------------------------------------------------
 Center     Atomic      Atomic             Coordinates (Angstroms)
 Number     Number       Type             X           Y           Z
 ---------------------------------------------------------------------
      1          6           0        1.503320    1.312485   -0.238732
      2          6           0        1.861483   -0.055676    0.309921
      3          8           0        0.739110   -0.883543    0.555460
      4          8           0        0.152714   -1.235797   -0.640951
      5          1           0        0.816304    1.842723    0.437972
      6          1           0        1.027722    1.220824   -1.225032
      7          1           0        2.412096    1.921317   -0.354198
      8          1           0        2.339884    0.025319    1.297790
      9          1           0        2.556133   -0.582152   -0.366526
     10          6           0       -2.245250    0.315565    0.749505
     11          6           0       -1.862309    0.279849   -0.699372
     12          1           0       -3.053586    1.047616    0.927615
     13          1           0       -2.598670   -0.665538    1.097658
     14          1           0       -1.390650    0.606240    1.379516
     15          1           0       -0.764202   -0.549743   -0.738134
     16          1           0       -1.472702    1.215127   -1.122232
     17          1           0       -2.550384   -0.240357   -1.378425
 ---------------------------------------------------------------------
 Rotational constants (GHZ):      4.6177724      1.9113065      1.6890590
 Leave Link  202 at Mon Jul  4 15:59:00 2022, MaxMem=   939524096 cpu:         0.0
 (Enter /Local/ce_dana/g09/l601.exe)
 Copying SCF densities to generalized density rwf, IOpCl= 1 IROHF=0.

 **********************************************************************

            Population analysis using the SCF density.

 **********************************************************************

 Orbital symmetries:
 Alpha Orbitals:
       Occupied  (A) (A) (A) (A) (A) (A) (A) (A) (A) (A) (A) (A)
                 (A) (A) (A) (A) (A) (A) (A) (A) (A) (A) (A) (A)
                 (A) (A)
       Virtual   (A) (A) (A) (A) (A) (A) (A) (A) (A) (A) (A) (A)
                 (A) (A) (A) (A) (A) (A) (A) (A) (A) (A) (A) (A)
                 (A) (A) (A) (A) (A) (A) (A) (A) (A) (A) (A) (A)
                 (A) (A) (A) (A) (A) (A) (A) (A) (A) (A) (A) (A)
                 (A) (A) (A) (A) (A) (A) (A) (A) (A) (A) (A) (A)
                 (A) (A) (A) (A) (A) (A) (A) (A) (A) (A) (A) (A)
                 (A) (A) (A) (A) (A) (A) (A) (A) (A) (A) (A) (A)
                 (A) (A) (A) (A) (A) (A) (A) (A) (A) (A) (A) (A)
                 (A) (A) (A) (A) (A) (A) (A) (A) (A) (A) (A) (A)
                 (A) (A) (A) (A) (A)
 Beta  Orbitals:
       Occupied  (A) (A) (A) (A) (A) (A) (A) (A) (A) (A) (A) (A)
                 (A) (A) (A) (A) (A) (A) (A) (A) (A) (A) (A) (A)
                 (A)
       Virtual   (A) (A) (A) (A) (A) (A) (A) (A) (A) (A) (A) (A)
                 (A) (A) (A) (A) (A) (A) (A) (A) (A) (A) (A) (A)
                 (A) (A) (A) (A) (A) (A) (A) (A) (A) (A) (A) (A)
                 (A) (A) (A) (A) (A) (A) (A) (A) (A) (A) (A) (A)
                 (A) (A) (A) (A) (A) (A) (A) (A) (A) (A) (A) (A)
                 (A) (A) (A) (A) (A) (A) (A) (A) (A) (A) (A) (A)
                 (A) (A) (A) (A) (A) (A) (A) (A) (A) (A) (A) (A)
                 (A) (A) (A) (A) (A) (A) (A) (A) (A) (A) (A) (A)
                 (A) (A) (A) (A) (A) (A) (A) (A) (A) (A) (A) (A)
                 (A) (A) (A) (A) (A) (A)
 The electronic state is 2-A.
 Alpha  occ. eigenvalues --  -19.31112 -19.29944 -10.34610 -10.31546 -10.29875
 Alpha  occ. eigenvalues --  -10.29699  -1.22917  -0.97486  -0.86320  -0.83318
 Alpha  occ. eigenvalues --   -0.71749  -0.69886  -0.62270  -0.57424  -0.55420
 Alpha  occ. eigenvalues --   -0.54272  -0.52865  -0.49963  -0.47719  -0.47238
 Alpha  occ. eigenvalues --   -0.46329  -0.44290  -0.43120  -0.38104  -0.35887
 Alpha  occ. eigenvalues --   -0.30437
 Alpha virt. eigenvalues --    0.13480   0.15590   0.16325   0.17428   0.18320
 Alpha virt. eigenvalues --    0.20224   0.21026   0.21177   0.23576   0.24347
 Alpha virt. eigenvalues --    0.25260   0.27717   0.30413   0.32312   0.35430
 Alpha virt. eigenvalues --    0.46481   0.49671   0.50135   0.50966   0.53326
 Alpha virt. eigenvalues --    0.55983   0.59727   0.60052   0.65318   0.66895
 Alpha virt. eigenvalues --    0.69096   0.70478   0.71657   0.73491   0.73853
 Alpha virt. eigenvalues --    0.75300   0.75666   0.76148   0.77484   0.78669
 Alpha virt. eigenvalues --    0.79168   0.80061   0.80665   0.85486   0.86808
 Alpha virt. eigenvalues --    0.95826   1.04552   1.06423   1.09783   1.14148
 Alpha virt. eigenvalues --    1.17390   1.18089   1.20331   1.22892   1.28250
 Alpha virt. eigenvalues --    1.34747   1.42571   1.43075   1.47519   1.49391
 Alpha virt. eigenvalues --    1.52525   1.56485   1.58927   1.62494   1.62660
 Alpha virt. eigenvalues --    1.69151   1.75812   1.80121   1.81533   1.82625
 Alpha virt. eigenvalues --    1.83434   1.85578   1.86413   1.88231   1.88605
 Alpha virt. eigenvalues --    1.89659   1.91393   1.93232   1.93406   1.94608
 Alpha virt. eigenvalues --    1.97659   1.99392   2.06889   2.11075   2.11607
 Alpha virt. eigenvalues --    2.20832   2.24585   2.25917   2.36300   2.40018
 Alpha virt. eigenvalues --    2.43843   2.44228   2.47332   2.49834   2.55004
 Alpha virt. eigenvalues --    2.55227   2.58488   2.59176   2.63334   2.65976
 Alpha virt. eigenvalues --    2.67101   2.77333   2.85017   2.89123   2.90635
 Alpha virt. eigenvalues --    2.94057   3.00715   3.02848   3.04808   3.05774
 Alpha virt. eigenvalues --    3.06942   3.09580   3.13382   3.27008   3.28011
 Alpha virt. eigenvalues --    3.43448   3.69375   4.00541
  Beta  occ. eigenvalues --  -19.30943 -19.28922 -10.34617 -10.30706 -10.29905
  Beta  occ. eigenvalues --  -10.29691  -1.21664  -0.95803  -0.84980  -0.82941
  Beta  occ. eigenvalues --   -0.70649  -0.68975  -0.60539  -0.57214  -0.53977
  Beta  occ. eigenvalues --   -0.53517  -0.52015  -0.48774  -0.47255  -0.46712
  Beta  occ. eigenvalues --   -0.44847  -0.43946  -0.42837  -0.35883  -0.33852
  Beta virt. eigenvalues --   -0.03595   0.13608   0.16072   0.16511   0.17928
  Beta virt. eigenvalues --    0.18505   0.20494   0.21168   0.21297   0.23707
  Beta virt. eigenvalues --    0.24527   0.25604   0.27895   0.30804   0.32684
  Beta virt. eigenvalues --    0.37441   0.46744   0.49942   0.50610   0.51430
  Beta virt. eigenvalues --    0.53474   0.56416   0.59791   0.60612   0.67026
  Beta virt. eigenvalues --    0.67865   0.69366   0.70811   0.72385   0.73616
  Beta virt. eigenvalues --    0.74213   0.75875   0.76115   0.76299   0.77781
  Beta virt. eigenvalues --    0.79114   0.79287   0.80207   0.80878   0.85737
  Beta virt. eigenvalues --    0.87221   0.96000   1.05382   1.07047   1.10404
  Beta virt. eigenvalues --    1.14638   1.17753   1.19010   1.21338   1.23552
  Beta virt. eigenvalues --    1.28671   1.35551   1.42647   1.43339   1.48053
  Beta virt. eigenvalues --    1.49975   1.52670   1.57269   1.59115   1.62609
  Beta virt. eigenvalues --    1.62922   1.69726   1.78347   1.80670   1.81727
  Beta virt. eigenvalues --    1.82690   1.83582   1.85684   1.86625   1.88479
  Beta virt. eigenvalues --    1.88864   1.89812   1.91878   1.93390   1.93729
  Beta virt. eigenvalues --    1.94644   1.97736   1.99590   2.07583   2.11597
  Beta virt. eigenvalues --    2.12012   2.20985   2.25149   2.26444   2.38069
  Beta virt. eigenvalues --    2.40776   2.44055   2.45585   2.47555   2.50581
  Beta virt. eigenvalues --    2.55267   2.55682   2.59139   2.59849   2.64088
  Beta virt. eigenvalues --    2.66291   2.67812   2.77434   2.85422   2.89986
  Beta virt. eigenvalues --    2.92558   2.95580   3.01167   3.02904   3.05035
  Beta virt. eigenvalues --    3.05892   3.07669   3.10475   3.13804   3.27536
  Beta virt. eigenvalues --    3.29660   3.43715   3.71658   4.02121
          Condensed to atoms (all electrons):
               1          2          3          4          5          6
     1  C    4.692615   0.400880  -0.047692  -0.005219   0.384402   0.390080
     2  C    0.400880   4.489028   0.277854  -0.048154  -0.015539  -0.022591
     3  O   -0.047692   0.277854   7.975598   0.096635   0.001567  -0.005507
     4  O   -0.005219  -0.048154   0.096635   7.988899  -0.000924   0.013734
     5  H    0.384402  -0.015539   0.001567  -0.000924   0.627438  -0.027058
     6  H    0.390080  -0.022591  -0.005507   0.013734  -0.027058   0.616102
     7  H    0.372222  -0.009939   0.003625   0.000125  -0.016683  -0.017083
     8  H   -0.022664   0.378895  -0.020027   0.005651  -0.009269   0.007649
     9  H   -0.049734   0.402201  -0.026940   0.001387   0.007468  -0.009266
    10  C   -0.001191   0.000313   0.000118   0.003763  -0.000462  -0.000402
    11  C   -0.000219  -0.002584   0.000369  -0.089590  -0.000916   0.002707
    12  H    0.000044  -0.000040   0.000145  -0.000062  -0.000022  -0.000009
    13  H    0.000022   0.000073  -0.000410   0.001519  -0.000035  -0.000026
    14  H   -0.001781   0.000078   0.011725  -0.001569   0.004186   0.000047
    15  H    0.003253   0.001478  -0.027484   0.218318  -0.000083  -0.000247
    16  H    0.001825   0.000080  -0.000176  -0.000118   0.000591   0.000296
    17  H    0.000013   0.000048   0.000288   0.001145   0.000098   0.000001
               7          8          9         10         11         12
     1  C    0.372222  -0.022664  -0.049734  -0.001191  -0.000219   0.000044
     2  C   -0.009939   0.378895   0.402201   0.000313  -0.002584  -0.000040
     3  O    0.003625  -0.020027  -0.026940   0.000118   0.000369   0.000145
     4  O    0.000125   0.005651   0.001387   0.003763  -0.089590  -0.000062
     5  H   -0.016683  -0.009269   0.007468  -0.000462  -0.000916  -0.000022
     6  H   -0.017083   0.007649  -0.009266  -0.000402   0.002707  -0.000009
     7  H    0.625995  -0.003254  -0.000974   0.000006   0.000173   0.000001
     8  H   -0.003254   0.647598  -0.026167  -0.000031   0.000183  -0.000002
     9  H   -0.000974  -0.026167   0.663117  -0.000003  -0.000291   0.000001
    10  C    0.000006  -0.000031  -0.000003   4.566490   0.396858   0.389235
    11  C    0.000173   0.000183  -0.000291   0.396858   5.027230  -0.023692
    12  H    0.000001  -0.000002   0.000001   0.389235  -0.023692   0.628143
    13  H   -0.000000  -0.000018  -0.000001   0.397832  -0.023600  -0.021947
    14  H    0.000005   0.000025   0.000220   0.395365  -0.027901  -0.021801
    15  H   -0.000154  -0.000708   0.000506  -0.010872   0.197728   0.002551
    16  H   -0.000035  -0.000047   0.000024  -0.024380   0.375184  -0.005816
    17  H   -0.000002   0.000002   0.000015  -0.020642   0.377533  -0.002976
              13         14         15         16         17
     1  C    0.000022  -0.001781   0.003253   0.001825   0.000013
     2  C    0.000073   0.000078   0.001478   0.000080   0.000048
     3  O   -0.000410   0.011725  -0.027484  -0.000176   0.000288
     4  O    0.001519  -0.001569   0.218318  -0.000118   0.001145
     5  H   -0.000035   0.004186  -0.000083   0.000591   0.000098
     6  H   -0.000026   0.000047  -0.000247   0.000296   0.000001
     7  H   -0.000000   0.000005  -0.000154  -0.000035  -0.000002
     8  H   -0.000018   0.000025  -0.000708  -0.000047   0.000002
     9  H   -0.000001   0.000220   0.000506   0.000024   0.000015
    10  C    0.397832   0.395365  -0.010872  -0.024380  -0.020642
    11  C   -0.023600  -0.027901   0.197728   0.375184   0.377533
    12  H   -0.021947  -0.021801   0.002551  -0.005816  -0.002976
    13  H    0.613344  -0.020442  -0.002738   0.006568  -0.008205
    14  H   -0.020442   0.614069  -0.005082  -0.005778   0.006555
    15  H   -0.002738  -0.005082   0.460386  -0.005122  -0.004042
    16  H    0.006568  -0.005778  -0.005122   0.616803  -0.024104
    17  H   -0.008205   0.006555  -0.004042  -0.024104   0.605264
          Atomic-Atomic Spin Densities.
               1          2          3          4          5          6
     1  C    0.014316  -0.000467  -0.003713   0.004094   0.000403  -0.001052
     2  C   -0.000467  -0.006816   0.004306  -0.003895  -0.000326   0.000450
     3  O   -0.003713   0.004306   0.083748  -0.041366   0.000009   0.000463
     4  O    0.004094  -0.003895  -0.041366   0.489208  -0.000138  -0.001165
     5  H    0.000403  -0.000326   0.000009  -0.000138  -0.000437   0.000138
     6  H   -0.001052   0.000450   0.000463  -0.001165   0.000138  -0.000405
     7  H   -0.002299   0.000755   0.000068  -0.000080   0.000022   0.000443
     8  H   -0.001415   0.001067  -0.000055  -0.000064   0.000067  -0.000048
     9  H   -0.003921  -0.001178  -0.001121   0.000867  -0.000006   0.000394
    10  C    0.000603  -0.000380  -0.002475   0.006145  -0.000106  -0.000092
    11  C   -0.004695   0.002196   0.012338  -0.082930   0.000371   0.001209
    12  H   -0.000079   0.000038   0.000158  -0.000374   0.000038   0.000022
    13  H    0.000033  -0.000026  -0.000266   0.000659  -0.000008  -0.000003
    14  H    0.000540  -0.000352  -0.001561   0.000857  -0.000187  -0.000046
    15  H   -0.002628   0.001950   0.005891  -0.017642   0.000291   0.000175
    16  H    0.000884  -0.000337  -0.000640   0.003132  -0.000169  -0.000231
    17  H    0.000088  -0.000045  -0.000187   0.002274  -0.000013  -0.000039
               7          8          9         10         11         12
     1  C   -0.002299  -0.001415  -0.003921   0.000603  -0.004695  -0.000079
     2  C    0.000755   0.001067  -0.001178  -0.000380   0.002196   0.000038
     3  O    0.000068  -0.000055  -0.001121  -0.002475   0.012338   0.000158
     4  O   -0.000080  -0.000064   0.000867   0.006145  -0.082930  -0.000374
     5  H    0.000022   0.000067  -0.000006  -0.000106   0.000371   0.000038
     6  H    0.000443  -0.000048   0.000394  -0.000092   0.001209   0.000022
     7  H    0.001148   0.000121   0.000481  -0.000015   0.000132   0.000002
     8  H    0.000121  -0.000898   0.000974  -0.000014   0.000055   0.000002
     9  H    0.000481   0.000974   0.005957  -0.000046   0.000546   0.000003
    10  C   -0.000015  -0.000014  -0.000046  -0.020546  -0.041744   0.005377
    11  C    0.000132   0.000055   0.000546  -0.041744   0.733903  -0.012815
    12  H    0.000002   0.000002   0.000003   0.005377  -0.012815   0.062145
    13  H   -0.000001  -0.000001  -0.000004   0.004346  -0.004384  -0.004483
    14  H   -0.000017  -0.000021  -0.000035   0.007740  -0.005844  -0.005010
    15  H    0.000055   0.000027   0.000617   0.000152   0.048118   0.000062
    16  H   -0.000068  -0.000002  -0.000061   0.002482  -0.008871  -0.002423
    17  H   -0.000002  -0.000001  -0.000011   0.001425  -0.006851  -0.001843
              13         14         15         16         17
     1  C    0.000033   0.000540  -0.002628   0.000884   0.000088
     2  C   -0.000026  -0.000352   0.001950  -0.000337  -0.000045
     3  O   -0.000266  -0.001561   0.005891  -0.000640  -0.000187
     4  O    0.000659   0.000857  -0.017642   0.003132   0.002274
     5  H   -0.000008  -0.000187   0.000291  -0.000169  -0.000013
     6  H   -0.000003  -0.000046   0.000175  -0.000231  -0.000039
     7  H   -0.000001  -0.000017   0.000055  -0.000068  -0.000002
     8  H   -0.000001  -0.000021   0.000027  -0.000002  -0.000001
     9  H   -0.000004  -0.000035   0.000617  -0.000061  -0.000011
    10  C    0.004346   0.007740   0.000152   0.002482   0.001425
    11  C   -0.004384  -0.005844   0.048118  -0.008871  -0.006851
    12  H   -0.004483  -0.005010   0.000062  -0.002423  -0.001843
    13  H    0.005618   0.001429  -0.000137   0.000155   0.001027
    14  H    0.001429   0.010889   0.000807   0.000919   0.000033
    15  H   -0.000137   0.000807  -0.068929   0.001141   0.001344
    16  H    0.000155   0.000919   0.001141  -0.018446   0.003925
    17  H    0.001027   0.000033   0.001344   0.003925  -0.019281
 Mulliken charges and spin densities:
               1          2
     1  C   -0.116855   0.000692
     2  C    0.147921  -0.003062
     3  O   -0.239688   0.055598
     4  O   -0.185540   0.359580
     5  H    0.045242  -0.000050
     6  H    0.051572   0.000213
     7  H    0.045973   0.000747
     8  H    0.042185  -0.000206
     9  H    0.038438   0.003454
    10  C   -0.091997  -0.037147
    11  C   -0.209170   0.630736
    12  H    0.056247   0.040820
    13  H    0.058064   0.003954
    14  H    0.052078   0.010142
    15  H    0.172313  -0.028708
    16  H    0.064206  -0.018610
    17  H    0.069009  -0.018153
 Sum of Mulliken charges =  -0.00000   1.00000
 Mulliken charges and spin densities with hydrogens summed into heavy atoms:
               1          2
     1  C    0.025932   0.001602
     2  C    0.228544   0.000187
     3  O   -0.239688   0.055598
     4  O   -0.013227   0.330872
    10  C    0.074393   0.017768
    11  C   -0.075955   0.593973
 Electronic spatial extent (au):  <R**2>=            811.8583
 Charge=             -0.0000 electrons
 Dipole moment (field-independent basis, Debye):
    X=             -0.0782    Y=              2.2097    Z=             -0.0006  Tot=              2.2111
 Quadrupole moment (field-independent basis, Debye-Ang):
   XX=            -33.1149   YY=            -41.6365   ZZ=            -39.2194
   XY=              1.1765   XZ=              0.8907   YZ=              0.0052
 Traceless Quadrupole moment (field-independent basis, Debye-Ang):
   XX=              4.8754   YY=             -3.6462   ZZ=             -1.2291
   XY=              1.1765   XZ=              0.8907   YZ=              0.0052
 Octapole moment (field-independent basis, Debye-Ang**2):
  XXX=              7.8294  YYY=             -3.9539  ZZZ=             -0.0036  XYY=              0.1795
  XXY=             -2.9410  XXZ=              0.7344  XZZ=              0.8437  YZZ=             -1.2793
  YYZ=              0.6289  XYZ=             -0.2695
 Hexadecapole moment (field-independent basis, Debye-Ang**3):
 XXXX=           -667.7109 YYYY=           -233.2253 ZZZZ=           -146.4544 XXXY=              0.4699
 XXXZ=              3.4841 YYYX=             -1.6126 YYYZ=             -0.1180 ZZZX=              6.6469
 ZZZY=              1.6239 XXYY=           -148.2934 XXZZ=           -135.9312 YYZZ=            -63.4737
 XXYZ=              2.9711 YYXZ=             -1.3705 ZZXY=              1.0313
 N-N= 2.600923652190D+02 E-N=-1.241269411914D+03  KE= 3.061005323468D+02
                          Isotropic Fermi Contact Couplings
        Atom                 a.u.       MegaHertz       Gauss      10(-4) cm-1
     1  C(13)              0.00611       6.86664       2.45019       2.29047
     2  C(13)             -0.00325      -3.65700      -1.30491      -1.21984
     3  O(17)              0.03267     -19.80372      -7.06646      -6.60581
     4  O(17)              0.16029     -97.16848     -34.67213     -32.41192
     5  H(1)              -0.00003      -0.14555      -0.05193      -0.04855
     6  H(1)              -0.00009      -0.38081      -0.13588      -0.12703
     7  H(1)               0.00015       0.67806       0.24195       0.22618
     8  H(1)              -0.00005      -0.23499      -0.08385      -0.07838
     9  H(1)               0.00039       1.72185       0.61440       0.57435
    10  C(13)             -0.01759     -19.77660      -7.05678      -6.59676
    11  C(13)              0.20029     225.16503      80.34448      75.10697
    12  H(1)               0.01934      86.44545      30.84589      28.83510
    13  H(1)               0.00187       8.33885       2.97551       2.78154
    14  H(1)               0.00587      26.23686       9.36196       8.75167
    15  H(1)              -0.02425    -108.39999     -38.67981     -36.15835
    16  H(1)              -0.00533     -23.84186      -8.50737      -7.95279
    17  H(1)              -0.00495     -22.12788      -7.89578      -7.38106
 --------------------------------------------------------
       Center         ----  Spin Dipole Couplings  ----
                      3XX-RR        3YY-RR        3ZZ-RR
 --------------------------------------------------------
     1   Atom       -0.000023      0.005944     -0.005921
     2   Atom        0.005895     -0.001923     -0.003972
     3   Atom        0.093075      0.122212     -0.215287
     4   Atom        0.350179      0.451026     -0.801206
     5   Atom        0.000349      0.002793     -0.003142
     6   Atom        0.002420      0.002135     -0.004555
     7   Atom        0.001474      0.000616     -0.002090
     8   Atom        0.003035     -0.001861     -0.001174
     9   Atom        0.008229     -0.003856     -0.004373
    10   Atom        0.010766     -0.011130      0.000364
    11   Atom        0.337041      0.022691     -0.359732
    12   Atom       -0.000101     -0.001919      0.002021
    13   Atom       -0.000683     -0.004118      0.004801
    14   Atom       -0.005517     -0.005616      0.011133
    15   Atom        0.115766      0.002707     -0.118473
    16   Atom       -0.002268      0.034069     -0.031801
    17   Atom        0.013441     -0.004175     -0.009266
 --------------------------------------------------------
                        XY            XZ            YZ
 --------------------------------------------------------
     1   Atom        0.004819      0.000244     -0.001192
     2   Atom        0.006287      0.004228      0.001112
     3   Atom       -0.265732      0.033754     -0.065191
     4   Atom       -1.231680     -0.130249      0.146702
     5   Atom        0.003508      0.001892      0.002558
     6   Atom        0.005383     -0.002068     -0.003026
     7   Atom        0.002561      0.000135      0.000048
     8   Atom        0.002307      0.003779      0.001699
     9   Atom        0.002749      0.000411      0.000094
    10   Atom       -0.013717     -0.014290      0.005792
    11   Atom       -0.511968     -0.001142      0.001600
    12   Atom       -0.006833     -0.006102      0.003278
    13   Atom        0.002295     -0.007857     -0.005755
    14   Atom       -0.000709      0.002341      0.006376
    15   Atom       -0.171837      0.016323     -0.009546
    16   Atom        0.012566     -0.014190     -0.030446
    17   Atom        0.009268      0.034928      0.030845
 --------------------------------------------------------


 ---------------------------------------------------------------------------------
              Anisotropic Spin Dipole Couplings in Principal Axis System
 ---------------------------------------------------------------------------------

       Atom             a.u.   MegaHertz   Gauss  10(-4) cm-1        Axes

              Baa    -0.0062    -0.827    -0.295    -0.276 -0.1658  0.1618  0.9728
     1 C(13)  Bbb    -0.0025    -0.339    -0.121    -0.113  0.8605 -0.4582  0.2229
              Bcc     0.0087     1.166     0.416     0.389  0.4818  0.8740 -0.0633
 
              Baa    -0.0064    -0.853    -0.304    -0.285 -0.5130  0.5655  0.6458
     2 C(13)  Bbb    -0.0043    -0.573    -0.204    -0.191  0.1322 -0.6913  0.7103
              Bcc     0.0106     1.426     0.509     0.476  0.8481  0.4498  0.2799
 
              Baa    -0.2294    16.596     5.922     5.536  0.1220  0.2693  0.9553
     3 O(17)  Bbb    -0.1528    11.054     3.944     3.687  0.7235  0.6348 -0.2713
              Bcc     0.3821   -27.650    -9.866    -9.223 -0.6795  0.7242 -0.1174
 
              Baa    -0.8353    60.438    21.566    20.160  0.6456  0.6617 -0.3812
     4 O(17)  Bbb    -0.8137    58.882    21.011    19.641  0.3270  0.2116  0.9210
              Bcc     1.6490  -119.320   -42.576   -39.801 -0.6901  0.7193  0.0798
 
              Baa    -0.0042    -2.246    -0.801    -0.749 -0.2067 -0.2427  0.9478
     5 H(1)   Bbb    -0.0021    -1.143    -0.408    -0.381  0.8085 -0.5880  0.0258
              Bcc     0.0064     3.389     1.209     1.130  0.5511  0.7716  0.3177
 
              Baa    -0.0057    -3.052    -1.089    -1.018 -0.0010  0.3600  0.9329
     6 H(1)   Bbb    -0.0029    -1.560    -0.557    -0.520  0.7335 -0.6338  0.2454
              Bcc     0.0086     4.612     1.646     1.538  0.6796  0.6846 -0.2635
 
              Baa    -0.0021    -1.119    -0.399    -0.373 -0.0775  0.0555  0.9954
     7 H(1)   Bbb    -0.0015    -0.825    -0.295    -0.275 -0.6414  0.7616 -0.0924
              Bcc     0.0036     1.945     0.694     0.649  0.7633  0.6457  0.0234
 
              Baa    -0.0035    -1.875    -0.669    -0.626 -0.3614 -0.3733  0.8544
     8 H(1)   Bbb    -0.0027    -1.463    -0.522    -0.488 -0.4650  0.8664  0.1819
              Bcc     0.0063     3.338     1.191     1.114  0.8082  0.3315  0.4867
 
              Baa    -0.0045    -2.375    -0.848    -0.792 -0.2087  0.9748 -0.0791
     9 H(1)   Bbb    -0.0044    -2.340    -0.835    -0.781 -0.0478  0.0706  0.9964
              Bcc     0.0088     4.716     1.683     1.573  0.9768  0.2118  0.0319
 
              Baa    -0.0178    -2.391    -0.853    -0.797  0.4653  0.8810  0.0851
    10 C(13)  Bbb    -0.0086    -1.159    -0.414    -0.387  0.4170 -0.3030  0.8569
              Bcc     0.0265     3.550     1.267     1.184  0.7808 -0.3633 -0.5083
 
              Baa    -0.3598   -48.285   -17.229   -16.106 -0.0851 -0.1180  0.9894
    11 C(13)  Bbb    -0.3556   -47.718   -17.027   -15.917  0.5882  0.7955  0.1454
              Bcc     0.7154    96.003    34.256    32.023  0.8042 -0.5944 -0.0017
 
              Baa    -0.0082    -4.400    -1.570    -1.468  0.7170  0.6633  0.2144
    12 H(1)   Bbb    -0.0028    -1.479    -0.528    -0.493  0.2969 -0.5689  0.7670
              Bcc     0.0110     5.879     2.098     1.961  0.6307 -0.4863 -0.6048
 
              Baa    -0.0077    -4.086    -1.458    -1.363  0.4444  0.6731  0.5912
    13 H(1)   Bbb    -0.0049    -2.620    -0.935    -0.874  0.7278 -0.6560  0.1999
              Bcc     0.0126     6.706     2.393     2.237 -0.5224 -0.3414  0.7814
 
              Baa    -0.0085    -4.530    -1.616    -1.511  0.4531  0.8305 -0.3239
    14 H(1)   Bbb    -0.0050    -2.670    -0.953    -0.891  0.8853 -0.4619  0.0541
              Bcc     0.0135     7.199     2.569     2.401  0.1047  0.3113  0.9445
 
              Baa    -0.1227   -65.466   -23.360   -21.837  0.5309  0.6900 -0.4920
    15 H(1)   Bbb    -0.1184   -63.183   -22.545   -21.076  0.2519  0.4259  0.8690
              Bcc     0.2411   128.649    45.905    42.913  0.8091 -0.5853  0.0523
 
              Baa    -0.0456   -24.315    -8.676    -8.111  0.2099  0.3201  0.9239
    16 H(1)   Bbb    -0.0058    -3.095    -1.104    -1.032  0.9293 -0.3591 -0.0867
              Bcc     0.0514    27.410     9.780     9.143  0.3040  0.8767 -0.3728
 
              Baa    -0.0459   -24.467    -8.731    -8.161 -0.3831 -0.4929  0.7812
    17 H(1)   Bbb    -0.0057    -3.065    -1.094    -1.022 -0.6450  0.7482  0.1557
              Bcc     0.0516    27.532     9.824     9.184  0.6612  0.4442  0.6045
 

 ---------------------------------------------------------------------------------

 No NMR shielding tensors so no spin-rotation constants.
 Leave Link  601 at Mon Jul  4 15:59:01 2022, MaxMem=   939524096 cpu:         2.4
 (Enter /Local/ce_dana/g09/l9999.exe)

 Test job not archived.
 1\1\GINC-TECH-WN204\FTS\UwB97XD\def2SVP\C4H11O2(2)\ALONGD\04-Jul-2022\
 0\\#P opt=(ts, calcfc, noeigentest, maxcycles=100) guess=mix uwb97xd/d
 ef2svp IOp(2/9=2000) scf=xqc\\TS0\\0,2\C,1.8264160474,0.8125818431,-0.
 0349118156\C,0.6324471921,1.744825537,-0.1156945292\O,-0.6049043985,1.
 0746197284,-0.2743110099\O,-0.9049768292,0.3775435693,0.8760730349\H,1
 .886628516,0.1686756349,-0.9253229856\H,1.7597579395,0.1759323499,0.85
 81812984\H,2.7560602738,1.3966843403,0.0319368942\H,0.6903635157,2.388
 1004824,-1.0068499033\H,0.5785810843,2.3944028337,0.7744980332\C,-0.76
 09401483,-1.999852398,-1.2257276167\C,-0.3400885669,-1.9893428665,0.21
 3000123\H,-0.465264093,-2.9439171675,-1.7180131406\H,-1.8505565196,-1.
 8952612326,-1.3280833979\H,-0.2917519519,-1.1747296933,-1.7832062081\H
 ,-0.6365324256,-0.7152262607,0.6423161361\H,0.7384614879,-2.0632036579
 ,0.4043709567\H,-0.9379819638,-2.5955904625,0.9059362901\\Version=ES64
 L-G09RevD.01\State=2-A\HF=-308.9959725\S2=0.758101\S2-1=0.\S2A=0.75003
 4\RMSD=4.808e-09\RMSF=1.065e-05\Dipole=0.7647606,-0.3301082,-0.2508321
 \Quadrupole=-1.1192619,2.3334597,-1.2141978,2.7222144,0.4547917,-0.401
 9703\PG=C01 [X(C4H11O2)]\\@


 WHERE THERE IS MUCH DESIRE TO LEARN, THERE OF NECESSITY WILL BE
 MUCH ARGUING, MUCH WRITING, MANY OPINIONS; FOR OPINION IN GOOD MEN
 IS BUT KNOWLEDGE IN THE MAKING. -- JOHN MILTON.
 Job cpu time:       0 days  1 hours 41 minutes 40.8 seconds.
 File lengths (MBytes):  RWF=     74 Int=      0 D2E=      0 Chk=      3 Scr=      1
 Normal termination of Gaussian 09 at Mon Jul  4 15:59:01 2022.
