 Entering Gaussian System, Link 0=/Local/ce_dana/g09/g09
 Initial command:
 /Local/ce_dana/g09/l1.exe "/storage/ce_dana/alongd/scratch/g09/Gau-3090.inp" -scrdir="/storage/ce_dana/alongd/scratch/g09/"
 Entering Link 1 = /Local/ce_dana/g09/l1.exe PID=      3100.
  
 Copyright (c) 1988,1990,1992,1993,1995,1998,2003,2009,2013,
            Gaussian, Inc.  All Rights Reserved.
  
 This is part of the Gaussian(R) 09 program.  It is based on
 the Gaussian(R) 03 system (copyright 2003, Gaussian, Inc.),
 the Gaussian(R) 98 system (copyright 1998, Gaussian, Inc.),
 the Gaussian(R) 94 system (copyright 1995, Gaussian, Inc.),
 the Gaussian 92(TM) system (copyright 1992, Gaussian, Inc.),
 the Gaussian 90(TM) system (copyright 1990, Gaussian, Inc.),
 the Gaussian 88(TM) system (copyright 1988, Gaussian, Inc.),
 the Gaussian 86(TM) system (copyright 1986, Carnegie Mellon
 University), and the Gaussian 82(TM) system (copyright 1983,
 Carnegie Mellon University). Gaussian is a federally registered
 trademark of Gaussian, Inc.
  
 This software contains proprietary and confidential information,
 including trade secrets, belonging to Gaussian, Inc.
  
 This software is provided under written license and may be
 used, copied, transmitted, or stored only in accord with that
 written license.
  
 The following legend is applicable only to US Government
 contracts under FAR:
  
                    RESTRICTED RIGHTS LEGEND
  
 Use, reproduction and disclosure by the US Government is
 subject to restrictions as set forth in subparagraphs (a)
 and (c) of the Commercial Computer Software - Restricted
 Rights clause in FAR 52.227-19.
  
 Gaussian, Inc.
 340 Quinnipiac St., Bldg. 40, Wallingford CT 06492
  
  
 ---------------------------------------------------------------
 Warning -- This program may not be used in any manner that
 competes with the business of Gaussian, Inc. or will provide
 assistance to any competitor of Gaussian, Inc.  The licensee
 of this program is prohibited from giving any competitor of
 Gaussian, Inc. access to this program.  By using this program,
 the user acknowledges that Gaussian, Inc. is engaged in the
 business of creating and licensing software in the field of
 computational chemistry and represents and warrants to the
 licensee that it is not a competitor of Gaussian, Inc. and that
 it will not use this program in any manner prohibited above.
 ---------------------------------------------------------------
  

 Cite this work as:
 Gaussian 09, Revision D.01,
 M. J. Frisch, G. W. Trucks, H. B. Schlegel, G. E. Scuseria, 
 M. A. Robb, J. R. Cheeseman, G. Scalmani, V. Barone, B. Mennucci, 
 G. A. Petersson, H. Nakatsuji, M. Caricato, X. Li, H. P. Hratchian, 
 A. F. Izmaylov, J. Bloino, G. Zheng, J. L. Sonnenberg, M. Hada, 
 M. Ehara, K. Toyota, R. Fukuda, J. Hasegawa, M. Ishida, T. Nakajima, 
 Y. Honda, O. Kitao, H. Nakai, T. Vreven, J. A. Montgomery, Jr., 
 J. E. Peralta, F. Ogliaro, M. Bearpark, J. J. Heyd, E. Brothers, 
 K. N. Kudin, V. N. Staroverov, T. Keith, R. Kobayashi, J. Normand, 
 K. Raghavachari, A. Rendell, J. C. Burant, S. S. Iyengar, J. Tomasi, 
 M. Cossi, N. Rega, J. M. Millam, M. Klene, J. E. Knox, J. B. Cross, 
 V. Bakken, C. Adamo, J. Jaramillo, R. Gomperts, R. E. Stratmann, 
 O. Yazyev, A. J. Austin, R. Cammi, C. Pomelli, J. W. Ochterski, 
 R. L. Martin, K. Morokuma, V. G. Zakrzewski, G. A. Voth, 
 P. Salvador, J. J. Dannenberg, S. Dapprich, A. D. Daniels, 
 O. Farkas, J. B. Foresman, J. V. Ortiz, J. Cioslowski, 
 and D. J. Fox, Gaussian, Inc., Wallingford CT, 2013.
 
 ******************************************
 Gaussian 09:  ES64L-G09RevD.01 24-Apr-2013
                 4-Jul-2022 
 ******************************************
 %chk=check.chk
 %mem=7168mb
 %NProcShared=10
 Will use up to   10 processors via shared memory.
 ----------------------------------------------------------------------
 #P opt=(ts, calcfc, noeigentest, maxcycles=100) guess=mix uwb97xd/def2
 svp IOp(2/9=2000) scf=xqc
 ----------------------------------------------------------------------
 1/5=1,6=100,10=4,11=1,14=-1,18=20,26=3,38=1/1,3;
 2/9=2000,12=2,17=6,18=5,40=1/2;
 3/5=43,7=101,11=2,16=1,25=1,30=1,71=2,74=-58,116=2,140=1/1,2,3;
 4/13=-1/1;
 5/5=2,8=3,13=1,38=5/2,8;
 8/6=4,10=90,11=11/1;
 11/6=1,8=1,9=11,15=111,16=1/1,2,10;
 10/6=1,13=1/2;
 6/7=2,8=2,9=2,10=2,28=1/1;
 7/10=1,18=20,25=1/1,2,3,16;
 1/5=1,6=100,10=4,11=1,14=-1,18=20,26=3/3(2);
 2/9=2000/2;
 99//99;
 2/9=2000/2;
 3/5=43,7=101,11=2,16=1,25=1,30=1,71=1,74=-58,116=2/1,2,3;
 4/5=5,16=3,69=1/1;
 5/5=2,8=3,13=1,38=5/2,8;
 7//1,2,3,16;
 1/5=1,6=100,11=1,14=-1,18=20,26=3/3(-5);
 2/9=2000/2;
 6/7=2,8=2,9=2,10=2,19=2,28=1/1;
 99/9=1/99;
 Leave Link    1 at Mon Jul  4 15:57:02 2022, MaxMem=   939524096 cpu:         0.1
 (Enter /Local/ce_dana/g09/l101.exe)
 ---
 TS0
 ---
 Symbolic Z-matrix:
 Charge =  0 Multiplicity = 2
 C                    -1.30927   2.20545  -0.02551 
 C                    -0.82155   1.55155   1.25915 
 O                    -0.4135    0.19563   1.08913 
 O                     0.82867   0.21635   0.32713 
 H                    -2.13727   1.63743  -0.4578 
 H                    -0.50066   2.26089  -0.75652 
 H                    -1.65685   3.22325   0.1732 
 H                    -1.6272    1.46525   1.9949 
 H                    -0.00143   2.1194    1.71195 
 C                     0.82867  -2.0857   -2.10389 
 C                     0.82867  -2.0857   -0.57349 
 H                     0.82867  -3.1041   -2.50232 
 H                    -0.05329  -1.57649  -2.50232 
 H                     1.71063  -1.5765   -2.50231 
 H                     0.82867  -0.86361  -0.09538 
 H                     1.71063  -2.5949   -0.17506 
 H                    -0.05329  -2.5949   -0.17506 
 
 Add virtual bond connecting atoms H15        and O4         Dist= 2.19D+00.
 Add virtual bond connecting atoms H15        and C11        Dist= 2.48D+00.
 NAtoms=     17 NQM=       17 NQMF=       0 NMMI=      0 NMMIF=      0
                NMic=       0 NMicF=      0.
                    Isotopes and Nuclear Properties:
 (Nuclear quadrupole moments (NQMom) in fm**2, nuclear magnetic moments (NMagM)
  in nuclear magnetons)

  Atom         1           2           3           4           5           6           7           8           9          10
 IAtWgt=          12          12          16          16           1           1           1           1           1          12
 AtmWgt=  12.0000000  12.0000000  15.9949146  15.9949146   1.0078250   1.0078250   1.0078250   1.0078250   1.0078250  12.0000000
 NucSpn=           0           0           0           0           1           1           1           1           1           0
 AtZEff=   0.0000000   0.0000000   0.0000000   0.0000000   0.0000000   0.0000000   0.0000000   0.0000000   0.0000000   0.0000000
 NQMom=    0.0000000   0.0000000   0.0000000   0.0000000   0.0000000   0.0000000   0.0000000   0.0000000   0.0000000   0.0000000
 NMagM=    0.0000000   0.0000000   0.0000000   0.0000000   2.7928460   2.7928460   2.7928460   2.7928460   2.7928460   0.0000000
 AtZNuc=   6.0000000   6.0000000   8.0000000   8.0000000   1.0000000   1.0000000   1.0000000   1.0000000   1.0000000   6.0000000

  Atom        11          12          13          14          15          16          17
 IAtWgt=          12           1           1           1           1           1           1
 AtmWgt=  12.0000000   1.0078250   1.0078250   1.0078250   1.0078250   1.0078250   1.0078250
 NucSpn=           0           1           1           1           1           1           1
 AtZEff=   0.0000000   0.0000000   0.0000000   0.0000000   0.0000000   0.0000000   0.0000000
 NQMom=    0.0000000   0.0000000   0.0000000   0.0000000   0.0000000   0.0000000   0.0000000
 NMagM=    0.0000000   2.7928460   2.7928460   2.7928460   2.7928460   2.7928460   2.7928460
 AtZNuc=   6.0000000   1.0000000   1.0000000   1.0000000   1.0000000   1.0000000   1.0000000
 Leave Link  101 at Mon Jul  4 15:57:03 2022, MaxMem=   939524096 cpu:         0.2
 (Enter /Local/ce_dana/g09/l103.exe)

 GradGradGradGradGradGradGradGradGradGradGradGradGradGradGradGradGradGrad
 Stoichiometry    C4H11O2(2)
 Framework group  C1[X(C4H11O2)]
 Deg. of freedom    45
 Full point group                 C1      NOp   1
 RotChk:  IX=0 Diff= 2.01D-15
 Largest Abelian subgroup         C1      NOp   1
 Largest concise Abelian subgroup C1      NOp   1
                         Standard orientation:                         
 ---------------------------------------------------------------------
 Center     Atomic      Atomic             Coordinates (Angstroms)
 Number     Number       Type             X           Y           Z
 ---------------------------------------------------------------------
      1          6           0       -1.017749    1.516754    0.145864
      2          6           0       -1.926495    0.357632   -0.220106
      3          8           0       -1.236344   -0.844339   -0.477519
      4          8           0       -0.675745   -1.297710    0.741676
      5          1           0       -0.286558    1.711676   -0.653304
      6          1           0       -0.472672    1.298221    1.074938
      7          1           0       -1.606862    2.432035    0.304641
      8          1           0       -2.457383    0.551251   -1.165149
      9          1           0       -2.683426    0.186640    0.565541
     10          6           0        2.621997    0.628411    0.149856
     11          6           0        2.064593   -0.605351   -0.464397
     12          1           0        2.224382    0.796045    1.170568
     13          1           0        3.717429    0.576350    0.253233
     14          1           0        2.370003    1.527664   -0.432137
     15          1           0        0.276267   -1.188341    0.561355
     16          1           0        2.546281   -1.574363   -0.307028
     17          1           0        1.215171   -0.565468   -1.153216
 ---------------------------------------------------------------------
 Rotational constants (GHZ):      4.2977317      1.7188940      1.3813608
 Leave Link  202 at Mon Jul  4 16:21:25 2022, MaxMem=   939524096 cpu:         0.0
 (Enter /Local/ce_dana/g09/l601.exe)
 Copying SCF densities to generalized density rwf, IOpCl= 1 IROHF=0.

 **********************************************************************

            Population analysis using the SCF density.

 **********************************************************************

 Orbital symmetries:
 Alpha Orbitals:
       Occupied  (A) (A) (A) (A) (A) (A) (A) (A) (A) (A) (A) (A)
                 (A) (A) (A) (A) (A) (A) (A) (A) (A) (A) (A) (A)
                 (A) (A)
       Virtual   (A) (A) (A) (A) (A) (A) (A) (A) (A) (A) (A) (A)
                 (A) (A) (A) (A) (A) (A) (A) (A) (A) (A) (A) (A)
                 (A) (A) (A) (A) (A) (A) (A) (A) (A) (A) (A) (A)
                 (A) (A) (A) (A) (A) (A) (A) (A) (A) (A) (A) (A)
                 (A) (A) (A) (A) (A) (A) (A) (A) (A) (A) (A) (A)
                 (A) (A) (A) (A) (A) (A) (A) (A) (A) (A) (A) (A)
                 (A) (A) (A) (A) (A) (A) (A) (A) (A) (A) (A) (A)
                 (A) (A) (A) (A) (A) (A) (A) (A) (A) (A) (A) (A)
                 (A) (A) (A) (A) (A) (A) (A) (A) (A) (A) (A) (A)
                 (A) (A) (A) (A) (A)
 Beta  Orbitals:
       Occupied  (A) (A) (A) (A) (A) (A) (A) (A) (A) (A) (A) (A)
                 (A) (A) (A) (A) (A) (A) (A) (A) (A) (A) (A) (A)
                 (A)
       Virtual   (A) (A) (A) (A) (A) (A) (A) (A) (A) (A) (A) (A)
                 (A) (A) (A) (A) (A) (A) (A) (A) (A) (A) (A) (A)
                 (A) (A) (A) (A) (A) (A) (A) (A) (A) (A) (A) (A)
                 (A) (A) (A) (A) (A) (A) (A) (A) (A) (A) (A) (A)
                 (A) (A) (A) (A) (A) (A) (A) (A) (A) (A) (A) (A)
                 (A) (A) (A) (A) (A) (A) (A) (A) (A) (A) (A) (A)
                 (A) (A) (A) (A) (A) (A) (A) (A) (A) (A) (A) (A)
                 (A) (A) (A) (A) (A) (A) (A) (A) (A) (A) (A) (A)
                 (A) (A) (A) (A) (A) (A) (A) (A) (A) (A) (A) (A)
                 (A) (A) (A) (A) (A) (A)
 The electronic state is 2-A.
 Alpha  occ. eigenvalues --  -19.30203 -19.29428 -10.34374 -10.31747 -10.30771
 Alpha  occ. eigenvalues --  -10.29421  -1.21539  -0.99014  -0.86236  -0.83311
 Alpha  occ. eigenvalues --   -0.71059  -0.70174  -0.62142  -0.56754  -0.55134
 Alpha  occ. eigenvalues --   -0.53912  -0.52343  -0.50853  -0.49106  -0.46674
 Alpha  occ. eigenvalues --   -0.45963  -0.44949  -0.43111  -0.37904  -0.34031
 Alpha  occ. eigenvalues --   -0.30004
 Alpha virt. eigenvalues --    0.12644   0.13938   0.16278   0.16334   0.17370
 Alpha virt. eigenvalues --    0.19528   0.20769   0.21748   0.22649   0.25430
 Alpha virt. eigenvalues --    0.26427   0.27757   0.29107   0.31217   0.32765
 Alpha virt. eigenvalues --    0.45141   0.49329   0.50822   0.52557   0.54353
 Alpha virt. eigenvalues --    0.57876   0.60320   0.63369   0.65431   0.67059
 Alpha virt. eigenvalues --    0.68393   0.70301   0.72738   0.73658   0.73777
 Alpha virt. eigenvalues --    0.74391   0.75469   0.76167   0.77298   0.77383
 Alpha virt. eigenvalues --    0.79240   0.81139   0.81911   0.82504   0.84966
 Alpha virt. eigenvalues --    0.96598   1.00511   1.03339   1.06184   1.13011
 Alpha virt. eigenvalues --    1.15800   1.18799   1.20327   1.23454   1.30504
 Alpha virt. eigenvalues --    1.33358   1.36856   1.40004   1.43178   1.50485
 Alpha virt. eigenvalues --    1.53308   1.55692   1.58934   1.61527   1.62054
 Alpha virt. eigenvalues --    1.62710   1.71485   1.74301   1.77912   1.82310
 Alpha virt. eigenvalues --    1.82654   1.83535   1.85414   1.86929   1.87254
 Alpha virt. eigenvalues --    1.87844   1.91494   1.93220   1.94430   1.96395
 Alpha virt. eigenvalues --    1.97698   1.99453   2.08355   2.11924   2.18734
 Alpha virt. eigenvalues --    2.20939   2.23898   2.25469   2.27652   2.33195
 Alpha virt. eigenvalues --    2.38737   2.44555   2.47902   2.52759   2.54119
 Alpha virt. eigenvalues --    2.55531   2.57227   2.60116   2.60714   2.64001
 Alpha virt. eigenvalues --    2.67656   2.77569   2.83530   2.86029   2.93035
 Alpha virt. eigenvalues --    2.95926   3.00394   3.03480   3.04659   3.06038
 Alpha virt. eigenvalues --    3.06715   3.14329   3.15304   3.25550   3.29144
 Alpha virt. eigenvalues --    3.43004   3.69309   3.99531
  Beta  occ. eigenvalues --  -19.30208 -19.29339 -10.34374 -10.30849 -10.30599
  Beta  occ. eigenvalues --  -10.29420  -1.21435  -0.98871  -0.84389  -0.83253
  Beta  occ. eigenvalues --   -0.70217  -0.68400  -0.61868  -0.56739  -0.54455
  Beta  occ. eigenvalues --   -0.53626  -0.52126  -0.49308  -0.48090  -0.46622
  Beta  occ. eigenvalues --   -0.45831  -0.44399  -0.43080  -0.37816  -0.33895
  Beta virt. eigenvalues --    0.00208   0.12748   0.14114   0.16333   0.16484
  Beta virt. eigenvalues --    0.17921   0.19946   0.20838   0.21796   0.22744
  Beta virt. eigenvalues --    0.25734   0.27413   0.28025   0.29698   0.31524
  Beta virt. eigenvalues --    0.33456   0.45197   0.49483   0.50835   0.53207
  Beta virt. eigenvalues --    0.55019   0.59716   0.61214   0.63777   0.65728
  Beta virt. eigenvalues --    0.67478   0.68783   0.71333   0.73127   0.73708
  Beta virt. eigenvalues --    0.74066   0.74693   0.75600   0.76654   0.77621
  Beta virt. eigenvalues --    0.78194   0.79741   0.81413   0.82082   0.82989
  Beta virt. eigenvalues --    0.85726   0.96807   1.01040   1.03533   1.06278
  Beta virt. eigenvalues --    1.13212   1.15834   1.19050   1.21244   1.24549
  Beta virt. eigenvalues --    1.30819   1.34878   1.36944   1.40223   1.43193
  Beta virt. eigenvalues --    1.50481   1.53421   1.55728   1.59120   1.61907
  Beta virt. eigenvalues --    1.62778   1.63764   1.71599   1.74652   1.78110
  Beta virt. eigenvalues --    1.82488   1.83612   1.84736   1.86420   1.87462
  Beta virt. eigenvalues --    1.87659   1.88002   1.91550   1.93694   1.94896
  Beta virt. eigenvalues --    1.96684   1.97743   1.99494   2.11482   2.12248
  Beta virt. eigenvalues --    2.19632   2.21148   2.25452   2.26183   2.31382
  Beta virt. eigenvalues --    2.33635   2.38962   2.44565   2.47909   2.52780
  Beta virt. eigenvalues --    2.54670   2.55729   2.57249   2.61130   2.62014
  Beta virt. eigenvalues --    2.64034   2.67686   2.77575   2.84791   2.86040
  Beta virt. eigenvalues --    2.93856   2.96295   3.00432   3.03524   3.04876
  Beta virt. eigenvalues --    3.06146   3.07420   3.14461   3.16127   3.25594
  Beta virt. eigenvalues --    3.29251   3.43012   3.69406   3.99651
          Condensed to atoms (all electrons):
               1          2          3          4          5          6
     1  C    4.714178   0.393168  -0.051824  -0.005154   0.379810   0.391923
     2  C    0.393168   4.482229   0.285349  -0.048101  -0.015665  -0.024078
     3  O   -0.051824   0.285349   7.986664   0.109538   0.002974  -0.006444
     4  O   -0.005154  -0.048101   0.109538   7.781135  -0.001035   0.017379
     5  H    0.379810  -0.015665   0.002974  -0.001035   0.633276  -0.026658
     6  H    0.391923  -0.024078  -0.006444   0.017379  -0.026658   0.618094
     7  H    0.369621  -0.009448   0.003713   0.000210  -0.016165  -0.017124
     8  H   -0.021964   0.379254  -0.020213   0.005757  -0.009732   0.007462
     9  H   -0.053906   0.403809  -0.027353   0.000567   0.007838  -0.008936
    10  C   -0.001430   0.000455   0.000015  -0.000615   0.000975   0.000516
    11  C    0.001014  -0.001286  -0.008651  -0.008650  -0.001850  -0.000045
    12  H   -0.000105  -0.000124  -0.000010   0.000706  -0.000445   0.002310
    13  H    0.000111  -0.000006  -0.000004  -0.000010   0.000002  -0.000001
    14  H   -0.000253   0.000014  -0.000069   0.000003   0.002108  -0.000050
    15  H    0.005812   0.000467  -0.029347   0.324768  -0.000091  -0.001556
    16  H   -0.000047   0.000038   0.000175   0.000066   0.000048  -0.000002
    17  H   -0.002224  -0.000232   0.024370  -0.004853   0.003276  -0.000303
               7          8          9         10         11         12
     1  C    0.369621  -0.021964  -0.053906  -0.001430   0.001014  -0.000105
     2  C   -0.009448   0.379254   0.403809   0.000455  -0.001286  -0.000124
     3  O    0.003713  -0.020213  -0.027353   0.000015  -0.008651  -0.000010
     4  O    0.000210   0.005757   0.000567  -0.000615  -0.008650   0.000706
     5  H   -0.016165  -0.009732   0.007838   0.000975  -0.001850  -0.000445
     6  H   -0.017124   0.007462  -0.008936   0.000516  -0.000045   0.002310
     7  H    0.629257  -0.002750  -0.000694  -0.000005   0.000072  -0.000024
     8  H   -0.002750   0.647874  -0.026276  -0.000024   0.000121   0.000002
     9  H   -0.000694  -0.026276   0.669217   0.000011  -0.000195  -0.000009
    10  C   -0.000005  -0.000024   0.000011   4.560953   0.382440   0.392610
    11  C    0.000072   0.000121  -0.000195   0.382440   5.159486  -0.036105
    12  H   -0.000024   0.000002  -0.000009   0.392610  -0.036105   0.628163
    13  H   -0.000003   0.000000   0.000000   0.396051  -0.023237  -0.023227
    14  H   -0.000023   0.000005  -0.000004   0.398658  -0.022753  -0.023517
    15  H   -0.000142  -0.000806  -0.000415  -0.002465   0.039055  -0.001440
    16  H   -0.000000  -0.000001   0.000003  -0.028281   0.398906   0.000452
    17  H    0.000064  -0.000195   0.000526  -0.025214   0.380993   0.002004
              13         14         15         16         17
     1  C    0.000111  -0.000253   0.005812  -0.000047  -0.002224
     2  C   -0.000006   0.000014   0.000467   0.000038  -0.000232
     3  O   -0.000004  -0.000069  -0.029347   0.000175   0.024370
     4  O   -0.000010   0.000003   0.324768   0.000066  -0.004853
     5  H    0.000002   0.002108  -0.000091   0.000048   0.003276
     6  H   -0.000001  -0.000050  -0.001556  -0.000002  -0.000303
     7  H   -0.000003  -0.000023  -0.000142  -0.000000   0.000064
     8  H    0.000000   0.000005  -0.000806  -0.000001  -0.000195
     9  H    0.000000  -0.000004  -0.000415   0.000003   0.000526
    10  C    0.396051   0.398658  -0.002465  -0.028281  -0.025214
    11  C   -0.023237  -0.022753   0.039055   0.398906   0.380993
    12  H   -0.023227  -0.023517  -0.001440   0.000452   0.002004
    13  H    0.619432  -0.020909   0.000245  -0.009425   0.004327
    14  H   -0.020909   0.616770   0.000165   0.005231  -0.011381
    15  H    0.000245   0.000165   0.483592   0.000317  -0.004405
    16  H   -0.009425   0.005231   0.000317   0.581713  -0.030124
    17  H    0.004327  -0.011381  -0.004405  -0.030124   0.572432
          Atomic-Atomic Spin Densities.
               1          2          3          4          5          6
     1  C   -0.000927   0.000753   0.000018   0.000163  -0.000037   0.000291
     2  C    0.000753  -0.000385   0.000090  -0.000365   0.000016   0.000005
     3  O    0.000018   0.000090  -0.001672  -0.001214   0.000011  -0.000010
     4  O    0.000163  -0.000365  -0.001214   0.040492  -0.000012  -0.000036
     5  H   -0.000037   0.000016   0.000011  -0.000012   0.000151   0.000051
     6  H    0.000291   0.000005  -0.000010  -0.000036   0.000051  -0.000334
     7  H   -0.000137  -0.000044   0.000006  -0.000008  -0.000033  -0.000069
     8  H   -0.000057  -0.000017  -0.000016  -0.000010   0.000006  -0.000021
     9  H    0.000025  -0.000163  -0.000003   0.000012   0.000000  -0.000013
    10  C    0.000047  -0.000000  -0.000004   0.000414   0.000021   0.000027
    11  C   -0.000221   0.000165   0.000514  -0.012435  -0.000013  -0.000278
    12  H   -0.000007  -0.000004  -0.000024   0.000575  -0.000005   0.000127
    13  H   -0.000000   0.000000   0.000001  -0.000019   0.000001  -0.000005
    14  H   -0.000030   0.000001   0.000005  -0.000050   0.000011  -0.000033
    15  H   -0.000452   0.000317   0.000657  -0.001173   0.000030   0.000011
    16  H    0.000005  -0.000004  -0.000004   0.000131   0.000003  -0.000001
    17  H    0.000058  -0.000027   0.000379   0.000793   0.000035   0.000024
               7          8          9         10         11         12
     1  C   -0.000137  -0.000057   0.000025   0.000047  -0.000221  -0.000007
     2  C   -0.000044  -0.000017  -0.000163  -0.000000   0.000165  -0.000004
     3  O    0.000006  -0.000016  -0.000003  -0.000004   0.000514  -0.000024
     4  O   -0.000008  -0.000010   0.000012   0.000414  -0.012435   0.000575
     5  H   -0.000033   0.000006   0.000000   0.000021  -0.000013  -0.000005
     6  H   -0.000069  -0.000021  -0.000013   0.000027  -0.000278   0.000127
     7  H    0.000479   0.000020   0.000036  -0.000011   0.000026  -0.000026
     8  H    0.000020   0.000043   0.000075  -0.000001   0.000020  -0.000002
     9  H    0.000036   0.000075  -0.000095  -0.000002   0.000029  -0.000005
    10  C   -0.000011  -0.000001  -0.000002  -0.054758  -0.056325   0.020936
    11  C    0.000026   0.000020   0.000029  -0.056325   1.141441  -0.036678
    12  H   -0.000026  -0.000002  -0.000005   0.020936  -0.036678   0.098035
    13  H    0.000001   0.000000   0.000000   0.005946  -0.008294  -0.013069
    14  H    0.000016   0.000002   0.000001   0.003872  -0.004621  -0.010265
    15  H    0.000018   0.000033   0.000111  -0.001408   0.020591  -0.002091
    16  H    0.000000  -0.000000  -0.000000  -0.000674   0.001847   0.000689
    17  H   -0.000007  -0.000014   0.000000  -0.000249  -0.002238   0.001301
              13         14         15         16         17
     1  C   -0.000000  -0.000030  -0.000452   0.000005   0.000058
     2  C    0.000000   0.000001   0.000317  -0.000004  -0.000027
     3  O    0.000001   0.000005   0.000657  -0.000004   0.000379
     4  O   -0.000019  -0.000050  -0.001173   0.000131   0.000793
     5  H    0.000001   0.000011   0.000030   0.000003   0.000035
     6  H   -0.000005  -0.000033   0.000011  -0.000001   0.000024
     7  H    0.000001   0.000016   0.000018   0.000000  -0.000007
     8  H    0.000000   0.000002   0.000033  -0.000000  -0.000014
     9  H    0.000000   0.000001   0.000111  -0.000000   0.000000
    10  C    0.005946   0.003872  -0.001408  -0.000674  -0.000249
    11  C   -0.008294  -0.004621   0.020591   0.001847  -0.002238
    12  H   -0.013069  -0.010265  -0.002091   0.000689   0.001301
    13  H    0.031254   0.005027   0.000196   0.000020  -0.000663
    14  H    0.005027   0.019031   0.000258  -0.000378  -0.000345
    15  H    0.000196   0.000258  -0.009206  -0.000288  -0.000397
    16  H    0.000020  -0.000378  -0.000288  -0.047909   0.002218
    17  H   -0.000663  -0.000345  -0.000397   0.002218  -0.043606
 Mulliken charges and spin densities:
               1          2
     1  C   -0.118728  -0.000508
     2  C    0.154158   0.000338
     3  O   -0.268882  -0.001265
     4  O   -0.171712   0.027258
     5  H    0.041334   0.000235
     6  H    0.047512  -0.000263
     7  H    0.043442   0.000267
     8  H    0.041487   0.000062
     9  H    0.035818   0.000008
    10  C   -0.074649  -0.082170
    11  C   -0.259315   1.043530
    12  H    0.058759   0.059487
    13  H    0.056654   0.020395
    14  H    0.056006   0.012502
    15  H    0.186245   0.007209
    16  H    0.080930  -0.044346
    17  H    0.090939  -0.042739
 Sum of Mulliken charges =  -0.00000   1.00000
 Mulliken charges and spin densities with hydrogens summed into heavy atoms:
               1          2
     1  C    0.013560  -0.000269
     2  C    0.231464   0.000409
     3  O   -0.268882  -0.001265
     4  O    0.014533   0.034467
    10  C    0.096771   0.010213
    11  C   -0.087446   0.956445
 Electronic spatial extent (au):  <R**2>=            912.0302
 Charge=             -0.0000 electrons
 Dipole moment (field-independent basis, Debye):
    X=              1.2343    Y=              2.0169    Z=              0.0069  Tot=              2.3647
 Quadrupole moment (field-independent basis, Debye-Ang):
   XX=            -35.4143   YY=            -40.6662   ZZ=            -40.0594
   XY=             -4.1147   XZ=              1.5565   YZ=             -0.1548
 Traceless Quadrupole moment (field-independent basis, Debye-Ang):
   XX=              3.2990   YY=             -1.9529   ZZ=             -1.3461
   XY=             -4.1147   XZ=              1.5565   YZ=             -0.1548
 Octapole moment (field-independent basis, Debye-Ang**2):
  XXX=             -9.3195  YYY=             -5.1556  ZZZ=              1.2640  XYY=              1.9784
  XXY=              1.1913  XXZ=              2.2899  XZZ=             -3.5412  YZZ=             -0.3337
  YYZ=             -0.4936  XYZ=             -0.6447
 Hexadecapole moment (field-independent basis, Debye-Ang**3):
 XXXX=           -763.6809 YYYY=           -295.7309 ZZZZ=           -100.4320 XXXY=             -0.8912
 XXXZ=             10.8297 YYYX=             -5.6652 YYYZ=             -1.6358 ZZZX=              7.3677
 ZZZY=             -3.0786 XXYY=           -180.2712 XXZZ=           -153.7320 YYZZ=            -68.2111
 XXYZ=             -3.1224 YYXZ=              0.2400 ZZXY=              1.1699
 N-N= 2.516097616754D+02 E-N=-1.224236018958D+03  KE= 3.060649078764D+02
                          Isotropic Fermi Contact Couplings
        Atom                 a.u.       MegaHertz       Gauss      10(-4) cm-1
     1  C(13)              0.00052       0.58721       0.20953       0.19587
     2  C(13)              0.00017       0.19206       0.06853       0.06406
     3  O(17)             -0.00033       0.19870       0.07090       0.06628
     4  O(17)              0.01558      -9.44743      -3.37108      -3.15132
     5  H(1)               0.00006       0.25891       0.09239       0.08636
     6  H(1)               0.00003       0.12264       0.04376       0.04091
     7  H(1)               0.00008       0.36752       0.13114       0.12259
     8  H(1)               0.00003       0.12064       0.04305       0.04024
     9  H(1)              -0.00003      -0.11330      -0.04043      -0.03779
    10  C(13)             -0.04138     -46.52308     -16.60059     -15.51843
    11  C(13)              0.18665     209.83078      74.87284      69.99201
    12  H(1)               0.02884     128.91378      45.99964      43.00101
    13  H(1)               0.00980      43.79178      15.62600      14.60737
    14  H(1)               0.00592      26.44625       9.43668       8.82152
    15  H(1)              -0.00334     -14.91072      -5.32051      -4.97368
    16  H(1)              -0.01329     -59.41344     -21.20019     -19.81819
    17  H(1)              -0.01336     -59.73036     -21.31328     -19.92390
 --------------------------------------------------------
       Center         ----  Spin Dipole Couplings  ----
                      3XX-RR        3YY-RR        3ZZ-RR
 --------------------------------------------------------
     1   Atom        0.002264      0.000266     -0.002530
     2   Atom        0.003543     -0.001532     -0.002011
     3   Atom        0.011989     -0.002517     -0.009473
     4   Atom        0.117485     -0.064946     -0.052538
     5   Atom        0.001570      0.001747     -0.003317
     6   Atom        0.002035      0.000214     -0.002249
     7   Atom        0.000905      0.000370     -0.001275
     8   Atom        0.002196     -0.001083     -0.001113
     9   Atom        0.002460     -0.001075     -0.001385
    10   Atom       -0.003233      0.000777      0.002456
    11   Atom        0.049417     -0.496385      0.446968
    12   Atom       -0.009325      0.002438      0.006888
    13   Atom        0.006010     -0.000908     -0.005102
    14   Atom       -0.007129      0.015831     -0.008702
    15   Atom        0.044345     -0.024770     -0.019575
    16   Atom       -0.019223      0.044033     -0.024810
    17   Atom        0.045887     -0.069660      0.023772
 --------------------------------------------------------
                        XY            XZ            YZ
 --------------------------------------------------------
     1   Atom       -0.003765     -0.000655      0.000435
     2   Atom       -0.001710      0.000248     -0.000390
     3   Atom        0.000973      0.004544      0.003919
     4   Atom        0.046349     -0.062192     -0.016109
     5   Atom       -0.005083      0.000758     -0.001082
     6   Atom       -0.004052     -0.002570      0.002272
     7   Atom       -0.001875     -0.000302      0.000238
     8   Atom       -0.000995      0.000824     -0.000310
     9   Atom       -0.000958     -0.000530      0.000037
    10   Atom        0.012547     -0.010090      0.004168
    11   Atom        0.130123     -0.747357     -0.176008
    12   Atom        0.003272      0.000408      0.013202
    13   Atom        0.009536      0.007520      0.004681
    14   Atom        0.002550      0.000110      0.000963
    15   Atom        0.017467     -0.025729     -0.007141
    16   Atom       -0.049846     -0.021342     -0.029566
    17   Atom        0.000791      0.037118     -0.011091
 --------------------------------------------------------


 ---------------------------------------------------------------------------------
              Anisotropic Spin Dipole Couplings in Principal Axis System
 ---------------------------------------------------------------------------------

       Atom             a.u.   MegaHertz   Gauss  10(-4) cm-1        Axes

              Baa    -0.0027    -0.359    -0.128    -0.120  0.5202  0.5721  0.6341
     1 C(13)  Bbb    -0.0026    -0.344    -0.123    -0.115 -0.3269 -0.5526  0.7667
              Bcc     0.0052     0.703     0.251     0.235  0.7890 -0.6061 -0.1004
 
              Baa    -0.0023    -0.314    -0.112    -0.105  0.1742  0.7002  0.6924
     2 C(13)  Bbb    -0.0017    -0.234    -0.083    -0.078 -0.2441 -0.6504  0.7193
              Bcc     0.0041     0.548     0.196     0.183  0.9540 -0.2944  0.0576
 
              Baa    -0.0118     0.857     0.306     0.286 -0.1596 -0.3683  0.9159
     3 O(17)  Bbb    -0.0013     0.092     0.033     0.031 -0.1839  0.9227  0.3390
              Bcc     0.0131    -0.949    -0.339    -0.316  0.9699  0.1143  0.2150
 
              Baa    -0.0764     5.530     1.973     1.844 -0.1301  0.9454  0.2989
     4 O(17)  Bbb    -0.0726     5.256     1.875     1.753  0.3538 -0.2374  0.9047
              Bcc     0.1491   -10.785    -3.848    -3.598  0.9262  0.2235 -0.3036
 
              Baa    -0.0037    -1.959    -0.699    -0.653  0.4043  0.5283  0.7466
     5 H(1)   Bbb    -0.0032    -1.727    -0.616    -0.576 -0.5964 -0.4666  0.6531
              Bcc     0.0069     3.686     1.315     1.230 -0.6934  0.7094 -0.1265
 
              Baa    -0.0036    -1.930    -0.689    -0.644  0.1102 -0.4183  0.9016
     6 H(1)   Bbb    -0.0030    -1.594    -0.569    -0.532  0.6808  0.6927  0.2382
              Bcc     0.0066     3.524     1.257     1.175  0.7241 -0.5876 -0.3611
 
              Baa    -0.0013    -0.703    -0.251    -0.235  0.2524  0.1453  0.9567
     7 H(1)   Bbb    -0.0013    -0.668    -0.238    -0.223  0.6090  0.7445 -0.2737
              Bcc     0.0026     1.371     0.489     0.457  0.7520 -0.6517 -0.0994
 
              Baa    -0.0014    -0.756    -0.270    -0.252  0.0901  0.8086  0.5814
     8 H(1)   Bbb    -0.0013    -0.672    -0.240    -0.224 -0.3373 -0.5245  0.7817
              Bcc     0.0027     1.428     0.510     0.476  0.9371 -0.2666  0.2255
 
              Baa    -0.0015    -0.800    -0.285    -0.267  0.2192  0.4186  0.8813
     9 H(1)   Bbb    -0.0013    -0.677    -0.242    -0.226  0.1601  0.8756 -0.4557
              Bcc     0.0028     1.477     0.527     0.493  0.9625 -0.2410 -0.1249
 
              Baa    -0.0190    -2.555    -0.912    -0.852  0.7136 -0.5446  0.4406
    10 C(13)  Bbb     0.0059     0.787     0.281     0.263 -0.0066  0.6238  0.7816
              Bcc     0.0132     1.767     0.631     0.589  0.7005  0.5607 -0.4416
 
              Baa    -0.5304   -71.180   -25.399   -23.743  0.4160  0.7848  0.4594
    11 C(13)  Bbb    -0.5220   -70.049   -24.995   -23.366  0.6805 -0.6038  0.4152
              Bcc     1.0525   141.229    50.394    47.109 -0.6032 -0.1399  0.7852
 
              Baa    -0.0114    -6.080    -2.170    -2.028  0.7653 -0.5298  0.3655
    12 H(1)   Bbb    -0.0069    -3.665    -1.308    -1.223  0.6376  0.5463 -0.5432
              Bcc     0.0183     9.745     3.477     3.251  0.0881  0.6487  0.7559
 
              Baa    -0.0089    -4.750    -1.695    -1.585 -0.4793  0.0590  0.8757
    13 H(1)   Bbb    -0.0074    -3.970    -1.417    -1.324 -0.4366  0.8495 -0.2962
              Bcc     0.0163     8.720     3.112     2.909  0.7613  0.5243  0.3814
 
              Baa    -0.0087    -4.663    -1.664    -1.555 -0.0076 -0.0384  0.9992
    14 H(1)   Bbb    -0.0074    -3.953    -1.411    -1.319  0.9940 -0.1092  0.0034
              Bcc     0.0161     8.616     3.074     2.874  0.1090  0.9933  0.0390
 
              Baa    -0.0298   -15.895    -5.672    -5.302  0.0424  0.7655  0.6420
    15 H(1)   Bbb    -0.0279   -14.902    -5.317    -4.971  0.3928 -0.6036  0.6938
              Bcc     0.0577    30.797    10.989    10.273  0.9186  0.2228 -0.3264
 
              Baa    -0.0710   -37.894   -13.522   -12.640  0.6714  0.4435  0.5938
    16 H(1)   Bbb    -0.0031    -1.670    -0.596    -0.557 -0.6012 -0.1425  0.7863
              Bcc     0.0742    39.564    14.117    13.197 -0.4333  0.8849 -0.1709
 
              Baa    -0.0712   -37.995   -13.557   -12.674 -0.0494  0.9896  0.1349
    17 H(1)   Bbb    -0.0026    -1.388    -0.495    -0.463 -0.6007 -0.1373  0.7876
              Bcc     0.0738    39.383    14.053    13.137  0.7980 -0.0421  0.6012
 

 ---------------------------------------------------------------------------------

 No NMR shielding tensors so no spin-rotation constants.
 Leave Link  601 at Mon Jul  4 16:21:25 2022, MaxMem=   939524096 cpu:         2.2
 (Enter /Local/ce_dana/g09/l9999.exe)


 IF YOU BELIEVE CERTAIN WORDS, YOU BELIEVE THEIR HIDDEN ARGUMENTS.
 WHEN YOU BELIEVE SOMETHING IS RIGHT OR WRONG, TRUE OR FALSE, 
 YOU BELIEVE THE ASSUMPTIONS IN THE WORDS WHICH EXPRESS THE ARGUMENTS.
 SUCH ASSUMPTIONS ARE OFTEN FULL OF HOLES, BUT REMAIN MOST PRECIOUS 
 TO THE CONVINCED.

                 -- THE OPEN-ENDED PROOF FROM THE PANOPLIA PROPHETICA
                    CHILDREN OF DUNE BY FRANK HERBERT
 Error termination request processed by link 9999.
 Error termination via Lnk1e in /Local/ce_dana/g09/l9999.exe at Mon Jul  4 16:21:25 2022.
 Job cpu time:       0 days  3 hours  7 minutes 21.3 seconds.
 File lengths (MBytes):  RWF=     74 Int=      0 D2E=      0 Chk=      3 Scr=      1
