 Entering Gaussian System, Link 0=/Local/ce_dana/g09/g09
 Initial command:
 /Local/ce_dana/g09/l1.exe "/storage/ce_dana/alongd/scratch/g09/Gau-238462.inp" -scrdir="/storage/ce_dana/alongd/scratch/g09/"
 Entering Link 1 = /Local/ce_dana/g09/l1.exe PID=    238463.
  
 Copyright (c) 1988,1990,1992,1993,1995,1998,2003,2009,2013,
            Gaussian, Inc.  All Rights Reserved.
  
 This is part of the Gaussian(R) 09 program.  It is based on
 the Gaussian(R) 03 system (copyright 2003, Gaussian, Inc.),
 the Gaussian(R) 98 system (copyright 1998, Gaussian, Inc.),
 the Gaussian(R) 94 system (copyright 1995, Gaussian, Inc.),
 the Gaussian 92(TM) system (copyright 1992, Gaussian, Inc.),
 the Gaussian 90(TM) system (copyright 1990, Gaussian, Inc.),
 the Gaussian 88(TM) system (copyright 1988, Gaussian, Inc.),
 the Gaussian 86(TM) system (copyright 1986, Carnegie Mellon
 University), and the Gaussian 82(TM) system (copyright 1983,
 Carnegie Mellon University). Gaussian is a federally registered
 trademark of Gaussian, Inc.
  
 This software contains proprietary and confidential information,
 including trade secrets, belonging to Gaussian, Inc.
  
 This software is provided under written license and may be
 used, copied, transmitted, or stored only in accord with that
 written license.
  
 The following legend is applicable only to US Government
 contracts under FAR:
  
                    RESTRICTED RIGHTS LEGEND
  
 Use, reproduction and disclosure by the US Government is
 subject to restrictions as set forth in subparagraphs (a)
 and (c) of the Commercial Computer Software - Restricted
 Rights clause in FAR 52.227-19.
  
 Gaussian, Inc.
 340 Quinnipiac St., Bldg. 40, Wallingford CT 06492
  
  
 ---------------------------------------------------------------
 Warning -- This program may not be used in any manner that
 competes with the business of Gaussian, Inc. or will provide
 assistance to any competitor of Gaussian, Inc.  The licensee
 of this program is prohibited from giving any competitor of
 Gaussian, Inc. access to this program.  By using this program,
 the user acknowledges that Gaussian, Inc. is engaged in the
 business of creating and licensing software in the field of
 computational chemistry and represents and warrants to the
 licensee that it is not a competitor of Gaussian, Inc. and that
 it will not use this program in any manner prohibited above.
 ---------------------------------------------------------------
  

 Cite this work as:
 Gaussian 09, Revision D.01,
 M. J. Frisch, G. W. Trucks, H. B. Schlegel, G. E. Scuseria, 
 M. A. Robb, J. R. Cheeseman, G. Scalmani, V. Barone, B. Mennucci, 
 G. A. Petersson, H. Nakatsuji, M. Caricato, X. Li, H. P. Hratchian, 
 A. F. Izmaylov, J. Bloino, G. Zheng, J. L. Sonnenberg, M. Hada, 
 M. Ehara, K. Toyota, R. Fukuda, J. Hasegawa, M. Ishida, T. Nakajima, 
 Y. Honda, O. Kitao, H. Nakai, T. Vreven, J. A. Montgomery, Jr., 
 J. E. Peralta, F. Ogliaro, M. Bearpark, J. J. Heyd, E. Brothers, 
 K. N. Kudin, V. N. Staroverov, T. Keith, R. Kobayashi, J. Normand, 
 K. Raghavachari, A. Rendell, J. C. Burant, S. S. Iyengar, J. Tomasi, 
 M. Cossi, N. Rega, J. M. Millam, M. Klene, J. E. Knox, J. B. Cross, 
 V. Bakken, C. Adamo, J. Jaramillo, R. Gomperts, R. E. Stratmann, 
 O. Yazyev, A. J. Austin, R. Cammi, C. Pomelli, J. W. Ochterski, 
 R. L. Martin, K. Morokuma, V. G. Zakrzewski, G. A. Voth, 
 P. Salvador, J. J. Dannenberg, S. Dapprich, A. D. Daniels, 
 O. Farkas, J. B. Foresman, J. V. Ortiz, J. Cioslowski, 
 and D. J. Fox, Gaussian, Inc., Wallingford CT, 2013.
 
 ******************************************
 Gaussian 09:  ES64L-G09RevD.01 24-Apr-2013
                 4-Jul-2022 
 ******************************************
 %chk=check.chk
 %mem=7168mb
 %NProcShared=10
 Will use up to   10 processors via shared memory.
 ----------------------------------------------------------------------
 #P opt=(ts, calcfc, noeigentest, maxcycles=100) guess=mix uwb97xd/def2
 svp IOp(2/9=2000) scf=xqc
 ----------------------------------------------------------------------
 1/5=1,6=100,10=4,11=1,14=-1,18=20,26=3,38=1/1,3;
 2/9=2000,12=2,17=6,18=5,40=1/2;
 3/5=43,7=101,11=2,16=1,25=1,30=1,71=2,74=-58,116=2,140=1/1,2,3;
 4/13=-1/1;
 5/5=2,8=3,13=1,38=5/2,8;
 8/6=4,10=90,11=11/1;
 11/6=1,8=1,9=11,15=111,16=1/1,2,10;
 10/6=1,13=1/2;
 6/7=2,8=2,9=2,10=2,28=1/1;
 7/10=1,18=20,25=1/1,2,3,16;
 1/5=1,6=100,10=4,11=1,14=-1,18=20,26=3/3(2);
 2/9=2000/2;
 99//99;
 2/9=2000/2;
 3/5=43,7=101,11=2,16=1,25=1,30=1,71=1,74=-58,116=2/1,2,3;
 4/5=5,16=3,69=1/1;
 5/5=2,8=3,13=1,38=5/2,8;
 7//1,2,3,16;
 1/5=1,6=100,11=1,14=-1,18=20,26=3/3(-5);
 2/9=2000/2;
 6/7=2,8=2,9=2,10=2,19=2,28=1/1;
 99/9=1/99;
 Leave Link    1 at Mon Jul  4 15:57:25 2022, MaxMem=   939524096 cpu:         0.1
 (Enter /Local/ce_dana/g09/l101.exe)
 ---
 TS0
 ---
 Symbolic Z-matrix:
 Charge =  0 Multiplicity = 2
 C                    -1.86066   0.39058   1.2868 
 C                    -0.59157   1.12098   1.70124 
 O                     0.59784   0.54728   1.16265 
 O                     0.59784   0.82929  -0.26722 
 H                    -1.81224  -0.66249   1.57627 
 H                    -2.00131   0.45269   0.20622 
 H                    -2.73358   0.84016   1.76857 
 H                    -0.42183   1.04732   2.77995 
 H                    -0.63294   2.18182   1.43108 
 C                     0.59784  -1.47276  -2.69824 
 C                     0.59784  -1.47276  -1.16784 
 H                     0.59784  -2.49116  -3.09667 
 H                    -0.28412  -0.96356  -3.09667 
 H                     1.4798   -0.96356  -3.09667 
 H                     0.59784  -0.25067  -0.68973 
 H                     1.4798   -1.98196  -0.76941 
 H                    -0.28412  -1.98196  -0.76941 
 
 Add virtual bond connecting atoms H15        and O4         Dist= 2.19D+00.
 Add virtual bond connecting atoms H15        and C11        Dist= 2.48D+00.
 NAtoms=     17 NQM=       17 NQMF=       0 NMMI=      0 NMMIF=      0
                NMic=       0 NMicF=      0.
                    Isotopes and Nuclear Properties:
 (Nuclear quadrupole moments (NQMom) in fm**2, nuclear magnetic moments (NMagM)
  in nuclear magnetons)

  Atom         1           2           3           4           5           6           7           8           9          10
 IAtWgt=          12          12          16          16           1           1           1           1           1          12
 AtmWgt=  12.0000000  12.0000000  15.9949146  15.9949146   1.0078250   1.0078250   1.0078250   1.0078250   1.0078250  12.0000000
 NucSpn=           0           0           0           0           1           1           1           1           1           0
 AtZEff=   0.0000000   0.0000000   0.0000000   0.0000000   0.0000000   0.0000000   0.0000000   0.0000000   0.0000000   0.0000000
 NQMom=    0.0000000   0.0000000   0.0000000   0.0000000   0.0000000   0.0000000   0.0000000   0.0000000   0.0000000   0.0000000
 NMagM=    0.0000000   0.0000000   0.0000000   0.0000000   2.7928460   2.7928460   2.7928460   2.7928460   2.7928460   0.0000000
 AtZNuc=   6.0000000   6.0000000   8.0000000   8.0000000   1.0000000   1.0000000   1.0000000   1.0000000   1.0000000   6.0000000

  Atom        11          12          13          14          15          16          17
 IAtWgt=          12           1           1           1           1           1           1
 AtmWgt=  12.0000000   1.0078250   1.0078250   1.0078250   1.0078250   1.0078250   1.0078250
 NucSpn=           0           1           1           1           1           1           1
 AtZEff=   0.0000000   0.0000000   0.0000000   0.0000000   0.0000000   0.0000000   0.0000000
 NQMom=    0.0000000   0.0000000   0.0000000   0.0000000   0.0000000   0.0000000   0.0000000
 NMagM=    0.0000000   2.7928460   2.7928460   2.7928460   2.7928460   2.7928460   2.7928460
 AtZNuc=   6.0000000   1.0000000   1.0000000   1.0000000   1.0000000   1.0000000   1.0000000
 Leave Link  101 at Mon Jul  4 15:57:25 2022, MaxMem=   939524096 cpu:         0.3
 (Enter /Local/ce_dana/g09/l103.exe)

 GradGradGradGradGradGradGradGradGradGradGradGradGradGradGradGradGradGrad
 Stoichiometry    C4H11O2(2)
 Framework group  C1[X(C4H11O2)]
 Deg. of freedom    45
 Full point group                 C1      NOp   1
 RotChk:  IX=0 Diff= 6.40D-16
 Largest Abelian subgroup         C1      NOp   1
 Largest concise Abelian subgroup C1      NOp   1
                         Standard orientation:                         
 ---------------------------------------------------------------------
 Center     Atomic      Atomic             Coordinates (Angstroms)
 Number     Number       Type             X           Y           Z
 ---------------------------------------------------------------------
      1          6           0        1.503678    1.312420   -0.238475
      2          6           0        1.861552   -0.055895    0.309982
      3          8           0        0.739015   -0.883609    0.555302
      4          8           0        0.152632   -1.235539   -0.641215
      5          1           0        0.816674    1.842656    0.438244
      6          1           0        1.028176    1.221010   -1.224843
      7          1           0        2.412570    1.921119   -0.353728
      8          1           0        2.339898    0.024849    1.297898
      9          1           0        2.556158   -0.582383   -0.366502
     10          6           0       -2.245513    0.315292    0.749506
     11          6           0       -1.862317    0.280231   -0.699322
     12          1           0       -3.053930    1.047209    0.927794
     13          1           0       -2.598933   -0.665986    1.097166
     14          1           0       -1.391049    0.605742    1.379802
     15          1           0       -0.764248   -0.549382   -0.738272
     16          1           0       -1.472580    1.215680   -1.121681
     17          1           0       -2.550318   -0.239611   -1.378729
 ---------------------------------------------------------------------
 Rotational constants (GHZ):      4.6181835      1.9110449      1.6889130
 Leave Link  202 at Mon Jul  4 16:17:17 2022, MaxMem=   939524096 cpu:         0.0
 (Enter /Local/ce_dana/g09/l601.exe)
 Copying SCF densities to generalized density rwf, IOpCl= 1 IROHF=0.

 **********************************************************************

            Population analysis using the SCF density.

 **********************************************************************

 Orbital symmetries:
 Alpha Orbitals:
       Occupied  (A) (A) (A) (A) (A) (A) (A) (A) (A) (A) (A) (A)
                 (A) (A) (A) (A) (A) (A) (A) (A) (A) (A) (A) (A)
                 (A) (A)
       Virtual   (A) (A) (A) (A) (A) (A) (A) (A) (A) (A) (A) (A)
                 (A) (A) (A) (A) (A) (A) (A) (A) (A) (A) (A) (A)
                 (A) (A) (A) (A) (A) (A) (A) (A) (A) (A) (A) (A)
                 (A) (A) (A) (A) (A) (A) (A) (A) (A) (A) (A) (A)
                 (A) (A) (A) (A) (A) (A) (A) (A) (A) (A) (A) (A)
                 (A) (A) (A) (A) (A) (A) (A) (A) (A) (A) (A) (A)
                 (A) (A) (A) (A) (A) (A) (A) (A) (A) (A) (A) (A)
                 (A) (A) (A) (A) (A) (A) (A) (A) (A) (A) (A) (A)
                 (A) (A) (A) (A) (A) (A) (A) (A) (A) (A) (A) (A)
                 (A) (A) (A) (A) (A)
 Beta  Orbitals:
       Occupied  (A) (A) (A) (A) (A) (A) (A) (A) (A) (A) (A) (A)
                 (A) (A) (A) (A) (A) (A) (A) (A) (A) (A) (A) (A)
                 (A)
       Virtual   (A) (A) (A) (A) (A) (A) (A) (A) (A) (A) (A) (A)
                 (A) (A) (A) (A) (A) (A) (A) (A) (A) (A) (A) (A)
                 (A) (A) (A) (A) (A) (A) (A) (A) (A) (A) (A) (A)
                 (A) (A) (A) (A) (A) (A) (A) (A) (A) (A) (A) (A)
                 (A) (A) (A) (A) (A) (A) (A) (A) (A) (A) (A) (A)
                 (A) (A) (A) (A) (A) (A) (A) (A) (A) (A) (A) (A)
                 (A) (A) (A) (A) (A) (A) (A) (A) (A) (A) (A) (A)
                 (A) (A) (A) (A) (A) (A) (A) (A) (A) (A) (A) (A)
                 (A) (A) (A) (A) (A) (A) (A) (A) (A) (A) (A) (A)
                 (A) (A) (A) (A) (A) (A)
 The electronic state is 2-A.
 Alpha  occ. eigenvalues --  -19.31112 -19.29944 -10.34610 -10.31545 -10.29875
 Alpha  occ. eigenvalues --  -10.29699  -1.22916  -0.97486  -0.86319  -0.83317
 Alpha  occ. eigenvalues --   -0.71749  -0.69886  -0.62269  -0.57423  -0.55420
 Alpha  occ. eigenvalues --   -0.54272  -0.52865  -0.49963  -0.47719  -0.47238
 Alpha  occ. eigenvalues --   -0.46329  -0.44290  -0.43120  -0.38104  -0.35887
 Alpha  occ. eigenvalues --   -0.30438
 Alpha virt. eigenvalues --    0.13480   0.15590   0.16325   0.17428   0.18320
 Alpha virt. eigenvalues --    0.20224   0.21026   0.21177   0.23576   0.24346
 Alpha virt. eigenvalues --    0.25258   0.27717   0.30413   0.32311   0.35430
 Alpha virt. eigenvalues --    0.46482   0.49671   0.50134   0.50967   0.53325
 Alpha virt. eigenvalues --    0.55981   0.59727   0.60052   0.65319   0.66895
 Alpha virt. eigenvalues --    0.69095   0.70477   0.71657   0.73491   0.73853
 Alpha virt. eigenvalues --    0.75300   0.75667   0.76147   0.77484   0.78668
 Alpha virt. eigenvalues --    0.79167   0.80060   0.80663   0.85485   0.86805
 Alpha virt. eigenvalues --    0.95824   1.04553   1.06425   1.09782   1.14145
 Alpha virt. eigenvalues --    1.17390   1.18090   1.20330   1.22892   1.28249
 Alpha virt. eigenvalues --    1.34747   1.42572   1.43075   1.47519   1.49390
 Alpha virt. eigenvalues --    1.52524   1.56484   1.58928   1.62494   1.62660
 Alpha virt. eigenvalues --    1.69152   1.75812   1.80121   1.81533   1.82625
 Alpha virt. eigenvalues --    1.83433   1.85578   1.86413   1.88228   1.88606
 Alpha virt. eigenvalues --    1.89658   1.91392   1.93232   1.93405   1.94608
 Alpha virt. eigenvalues --    1.97658   1.99392   2.06888   2.11075   2.11607
 Alpha virt. eigenvalues --    2.20831   2.24586   2.25915   2.36301   2.40018
 Alpha virt. eigenvalues --    2.43844   2.44227   2.47332   2.49834   2.55004
 Alpha virt. eigenvalues --    2.55226   2.58488   2.59175   2.63333   2.65976
 Alpha virt. eigenvalues --    2.67100   2.77333   2.85016   2.89122   2.90634
 Alpha virt. eigenvalues --    2.94057   3.00714   3.02847   3.04808   3.05774
 Alpha virt. eigenvalues --    3.06943   3.09578   3.13381   3.27007   3.28009
 Alpha virt. eigenvalues --    3.43448   3.69373   4.00539
  Beta  occ. eigenvalues --  -19.30943 -19.28922 -10.34617 -10.30706 -10.29905
  Beta  occ. eigenvalues --  -10.29691  -1.21664  -0.95802  -0.84980  -0.82941
  Beta  occ. eigenvalues --   -0.70649  -0.68975  -0.60539  -0.57214  -0.53977
  Beta  occ. eigenvalues --   -0.53516  -0.52016  -0.48773  -0.47255  -0.46712
  Beta  occ. eigenvalues --   -0.44846  -0.43945  -0.42837  -0.35883  -0.33851
  Beta virt. eigenvalues --   -0.03595   0.13608   0.16073   0.16511   0.17928
  Beta virt. eigenvalues --    0.18505   0.20494   0.21168   0.21297   0.23707
  Beta virt. eigenvalues --    0.24525   0.25602   0.27894   0.30804   0.32683
  Beta virt. eigenvalues --    0.37441   0.46746   0.49942   0.50611   0.51429
  Beta virt. eigenvalues --    0.53473   0.56413   0.59791   0.60612   0.67026
  Beta virt. eigenvalues --    0.67865   0.69366   0.70811   0.72385   0.73615
  Beta virt. eigenvalues --    0.74213   0.75875   0.76115   0.76298   0.77781
  Beta virt. eigenvalues --    0.79113   0.79286   0.80207   0.80875   0.85736
  Beta virt. eigenvalues --    0.87220   0.95998   1.05382   1.07049   1.10404
  Beta virt. eigenvalues --    1.14635   1.17752   1.19011   1.21337   1.23552
  Beta virt. eigenvalues --    1.28671   1.35551   1.42648   1.43339   1.48053
  Beta virt. eigenvalues --    1.49975   1.52669   1.57268   1.59116   1.62608
  Beta virt. eigenvalues --    1.62922   1.69727   1.78347   1.80671   1.81727
  Beta virt. eigenvalues --    1.82690   1.83581   1.85684   1.86625   1.88477
  Beta virt. eigenvalues --    1.88864   1.89811   1.91877   1.93389   1.93728
  Beta virt. eigenvalues --    1.94644   1.97736   1.99590   2.07582   2.11597
  Beta virt. eigenvalues --    2.12012   2.20984   2.25150   2.26444   2.38070
  Beta virt. eigenvalues --    2.40776   2.44055   2.45585   2.47555   2.50581
  Beta virt. eigenvalues --    2.55267   2.55682   2.59139   2.59849   2.64088
  Beta virt. eigenvalues --    2.66291   2.67812   2.77434   2.85422   2.89985
  Beta virt. eigenvalues --    2.92557   2.95580   3.01166   3.02904   3.05036
  Beta virt. eigenvalues --    3.05891   3.07669   3.10473   3.13803   3.27536
  Beta virt. eigenvalues --    3.29659   3.43714   3.71656   4.02120
          Condensed to atoms (all electrons):
               1          2          3          4          5          6
     1  C    4.692626   0.400874  -0.047693  -0.005216   0.384395   0.390084
     2  C    0.400874   4.489034   0.277852  -0.048156  -0.015540  -0.022591
     3  O   -0.047693   0.277852   7.975600   0.096634   0.001571  -0.005506
     4  O   -0.005216  -0.048156   0.096634   7.988917  -0.000924   0.013733
     5  H    0.384395  -0.015540   0.001571  -0.000924   0.627441  -0.027058
     6  H    0.390084  -0.022591  -0.005506   0.013733  -0.027058   0.616094
     7  H    0.372222  -0.009939   0.003625   0.000125  -0.016682  -0.017084
     8  H   -0.022662   0.378895  -0.020027   0.005651  -0.009268   0.007649
     9  H   -0.049735   0.402201  -0.026940   0.001387   0.007469  -0.009267
    10  C   -0.001188   0.000313   0.000115   0.003764  -0.000462  -0.000401
    11  C   -0.000219  -0.002584   0.000372  -0.089588  -0.000916   0.002703
    12  H    0.000044  -0.000040   0.000145  -0.000062  -0.000022  -0.000009
    13  H    0.000022   0.000073  -0.000410   0.001520  -0.000035  -0.000026
    14  H   -0.001779   0.000078   0.011724  -0.001569   0.004181   0.000047
    15  H    0.003254   0.001477  -0.027483   0.218302  -0.000083  -0.000246
    16  H    0.001825   0.000080  -0.000176  -0.000118   0.000592   0.000296
    17  H    0.000012   0.000048   0.000288   0.001145   0.000098   0.000001
               7          8          9         10         11         12
     1  C    0.372222  -0.022662  -0.049735  -0.001188  -0.000219   0.000044
     2  C   -0.009939   0.378895   0.402201   0.000313  -0.002584  -0.000040
     3  O    0.003625  -0.020027  -0.026940   0.000115   0.000372   0.000145
     4  O    0.000125   0.005651   0.001387   0.003764  -0.089588  -0.000062
     5  H   -0.016682  -0.009268   0.007469  -0.000462  -0.000916  -0.000022
     6  H   -0.017084   0.007649  -0.009267  -0.000401   0.002703  -0.000009
     7  H    0.625994  -0.003255  -0.000974   0.000006   0.000173   0.000001
     8  H   -0.003255   0.647597  -0.026168  -0.000031   0.000183  -0.000002
     9  H   -0.000974  -0.026168   0.663120  -0.000003  -0.000290   0.000001
    10  C    0.000006  -0.000031  -0.000003   4.566498   0.396858   0.389235
    11  C    0.000173   0.000183  -0.000290   0.396858   5.027199  -0.023692
    12  H    0.000001  -0.000002   0.000001   0.389235  -0.023692   0.628145
    13  H   -0.000000  -0.000018  -0.000001   0.397832  -0.023601  -0.021947
    14  H    0.000005   0.000025   0.000220   0.395366  -0.027899  -0.021802
    15  H   -0.000154  -0.000708   0.000505  -0.010873   0.197740   0.002551
    16  H   -0.000035  -0.000047   0.000024  -0.024379   0.375185  -0.005814
    17  H   -0.000002   0.000002   0.000015  -0.020643   0.377534  -0.002977
              13         14         15         16         17
     1  C    0.000022  -0.001779   0.003254   0.001825   0.000012
     2  C    0.000073   0.000078   0.001477   0.000080   0.000048
     3  O   -0.000410   0.011724  -0.027483  -0.000176   0.000288
     4  O    0.001520  -0.001569   0.218302  -0.000118   0.001145
     5  H   -0.000035   0.004181  -0.000083   0.000592   0.000098
     6  H   -0.000026   0.000047  -0.000246   0.000296   0.000001
     7  H   -0.000000   0.000005  -0.000154  -0.000035  -0.000002
     8  H   -0.000018   0.000025  -0.000708  -0.000047   0.000002
     9  H   -0.000001   0.000220   0.000505   0.000024   0.000015
    10  C    0.397832   0.395366  -0.010873  -0.024379  -0.020643
    11  C   -0.023601  -0.027899   0.197740   0.375185   0.377534
    12  H   -0.021947  -0.021802   0.002551  -0.005814  -0.002977
    13  H    0.613345  -0.020443  -0.002739   0.006568  -0.008204
    14  H   -0.020443   0.614068  -0.005081  -0.005780   0.006555
    15  H   -0.002739  -0.005081   0.460386  -0.005122  -0.004043
    16  H    0.006568  -0.005780  -0.005122   0.616803  -0.024105
    17  H   -0.008204   0.006555  -0.004043  -0.024105   0.605269
          Atomic-Atomic Spin Densities.
               1          2          3          4          5          6
     1  C    0.014311  -0.000467  -0.003713   0.004093   0.000400  -0.001052
     2  C   -0.000467  -0.006815   0.004307  -0.003895  -0.000325   0.000450
     3  O   -0.003713   0.004307   0.083748  -0.041367   0.000009   0.000463
     4  O    0.004093  -0.003895  -0.041367   0.489238  -0.000138  -0.001165
     5  H    0.000400  -0.000325   0.000009  -0.000138  -0.000433   0.000139
     6  H   -0.001052   0.000450   0.000463  -0.001165   0.000139  -0.000404
     7  H   -0.002298   0.000755   0.000068  -0.000080   0.000022   0.000442
     8  H   -0.001415   0.001067  -0.000055  -0.000064   0.000067  -0.000048
     9  H   -0.003922  -0.001178  -0.001121   0.000867  -0.000006   0.000394
    10  C    0.000602  -0.000380  -0.002474   0.006145  -0.000106  -0.000092
    11  C   -0.004693   0.002196   0.012338  -0.082929   0.000372   0.001209
    12  H   -0.000079   0.000038   0.000158  -0.000374   0.000038   0.000022
    13  H    0.000033  -0.000026  -0.000266   0.000660  -0.000008  -0.000003
    14  H    0.000539  -0.000352  -0.001560   0.000856  -0.000187  -0.000046
    15  H   -0.002628   0.001950   0.005891  -0.017644   0.000291   0.000175
    16  H    0.000884  -0.000337  -0.000640   0.003132  -0.000169  -0.000231
    17  H    0.000088  -0.000045  -0.000186   0.002274  -0.000013  -0.000039
               7          8          9         10         11         12
     1  C   -0.002298  -0.001415  -0.003922   0.000602  -0.004693  -0.000079
     2  C    0.000755   0.001067  -0.001178  -0.000380   0.002196   0.000038
     3  O    0.000068  -0.000055  -0.001121  -0.002474   0.012338   0.000158
     4  O   -0.000080  -0.000064   0.000867   0.006145  -0.082929  -0.000374
     5  H    0.000022   0.000067  -0.000006  -0.000106   0.000372   0.000038
     6  H    0.000442  -0.000048   0.000394  -0.000092   0.001209   0.000022
     7  H    0.001150   0.000121   0.000481  -0.000015   0.000132   0.000002
     8  H    0.000121  -0.000897   0.000975  -0.000014   0.000055   0.000002
     9  H    0.000481   0.000975   0.005956  -0.000046   0.000546   0.000003
    10  C   -0.000015  -0.000014  -0.000046  -0.020546  -0.041744   0.005377
    11  C    0.000132   0.000055   0.000546  -0.041744   0.733878  -0.012814
    12  H    0.000002   0.000002   0.000003   0.005377  -0.012814   0.062141
    13  H   -0.000001  -0.000001  -0.000004   0.004348  -0.004386  -0.004484
    14  H   -0.000016  -0.000021  -0.000035   0.007736  -0.005840  -0.005008
    15  H    0.000055   0.000027   0.000616   0.000151   0.048120   0.000062
    16  H   -0.000068  -0.000002  -0.000061   0.002482  -0.008871  -0.002423
    17  H   -0.000002  -0.000001  -0.000010   0.001426  -0.006850  -0.001843
              13         14         15         16         17
     1  C    0.000033   0.000539  -0.002628   0.000884   0.000088
     2  C   -0.000026  -0.000352   0.001950  -0.000337  -0.000045
     3  O   -0.000266  -0.001560   0.005891  -0.000640  -0.000186
     4  O    0.000660   0.000856  -0.017644   0.003132   0.002274
     5  H   -0.000008  -0.000187   0.000291  -0.000169  -0.000013
     6  H   -0.000003  -0.000046   0.000175  -0.000231  -0.000039
     7  H   -0.000001  -0.000016   0.000055  -0.000068  -0.000002
     8  H   -0.000001  -0.000021   0.000027  -0.000002  -0.000001
     9  H   -0.000004  -0.000035   0.000616  -0.000061  -0.000010
    10  C    0.004348   0.007736   0.000151   0.002482   0.001426
    11  C   -0.004386  -0.005840   0.048120  -0.008871  -0.006850
    12  H   -0.004484  -0.005008   0.000062  -0.002423  -0.001843
    13  H    0.005621   0.001428  -0.000137   0.000155   0.001027
    14  H    0.001428   0.010883   0.000807   0.000919   0.000033
    15  H   -0.000137   0.000807  -0.068932   0.001141   0.001344
    16  H    0.000155   0.000919   0.001141  -0.018446   0.003925
    17  H    0.001027   0.000033   0.001344   0.003925  -0.019281
 Mulliken charges and spin densities:
               1          2
     1  C   -0.116866   0.000683
     2  C    0.147926  -0.003058
     3  O   -0.239689   0.055598
     4  O   -0.185545   0.359608
     5  H    0.045244  -0.000046
     6  H    0.051580   0.000214
     7  H    0.045973   0.000748
     8  H    0.042185  -0.000205
     9  H    0.038438   0.003454
    10  C   -0.092007  -0.037148
    11  C   -0.209158   0.630717
    12  H    0.056246   0.040818
    13  H    0.058064   0.003956
    14  H    0.052084   0.010137
    15  H    0.172315  -0.028712
    16  H    0.064203  -0.018610
    17  H    0.069007  -0.018153
 Sum of Mulliken charges =  -0.00000   1.00000
 Mulliken charges and spin densities with hydrogens summed into heavy atoms:
               1          2
     1  C    0.025932   0.001599
     2  C    0.228549   0.000190
     3  O   -0.239689   0.055598
     4  O   -0.013230   0.330896
    10  C    0.074387   0.017763
    11  C   -0.075948   0.593954
 Electronic spatial extent (au):  <R**2>=            811.9162
 Charge=             -0.0000 electrons
 Dipole moment (field-independent basis, Debye):
    X=             -0.0779    Y=              2.2095    Z=             -0.0001  Tot=              2.2109
 Quadrupole moment (field-independent basis, Debye-Ang):
   XX=            -33.1142   YY=            -41.6361   ZZ=            -39.2194
   XY=              1.1754   XZ=              0.8912   YZ=              0.0047
 Traceless Quadrupole moment (field-independent basis, Debye-Ang):
   XX=              4.8757   YY=             -3.6463   ZZ=             -1.2295
   XY=              1.1754   XZ=              0.8912   YZ=              0.0047
 Octapole moment (field-independent basis, Debye-Ang**2):
  XXX=              7.8291  YYY=             -3.9549  ZZZ=             -0.0043  XYY=              0.1804
  XXY=             -2.9413  XXZ=              0.7339  XZZ=              0.8435  YZZ=             -1.2789
  YYZ=              0.6287  XYZ=             -0.2696
 Hexadecapole moment (field-independent basis, Debye-Ang**3):
 XXXX=           -667.8105 YYYY=           -233.1995 ZZZZ=           -146.4502 XXXY=              0.4679
 XXXZ=              3.4861 YYYX=             -1.6127 YYYZ=             -0.1171 ZZZX=              6.6494
 ZZZY=              1.6247 XXYY=           -148.3100 XXZZ=           -135.9476 YYZZ=            -63.4714
 XXYZ=              2.9709 YYXZ=             -1.3716 ZZXY=              1.0285
 N-N= 2.600884585658D+02 E-N=-1.241261636774D+03  KE= 3.061005012846D+02
                          Isotropic Fermi Contact Couplings
        Atom                 a.u.       MegaHertz       Gauss      10(-4) cm-1
     1  C(13)              0.00611       6.86899       2.45103       2.29125
     2  C(13)             -0.00325      -3.65566      -1.30443      -1.21940
     3  O(17)              0.03267     -19.80416      -7.06662      -6.60596
     4  O(17)              0.16030     -97.17404     -34.67411     -32.41377
     5  H(1)              -0.00003      -0.14353      -0.05121      -0.04788
     6  H(1)              -0.00009      -0.38014      -0.13564      -0.12680
     7  H(1)               0.00015       0.67904       0.24230       0.22650
     8  H(1)              -0.00005      -0.23466      -0.08373      -0.07827
     9  H(1)               0.00039       1.72127       0.61419       0.57415
    10  C(13)             -0.01759     -19.77770      -7.05717      -6.59713
    11  C(13)              0.20028     225.15423      80.34062      75.10337
    12  H(1)               0.01934      86.44177      30.84457      28.83387
    13  H(1)               0.00187       8.34357       2.97719       2.78312
    14  H(1)               0.00587      26.22347       9.35718       8.74721
    15  H(1)              -0.02425    -108.40072     -38.68007     -36.15859
    16  H(1)              -0.00533     -23.84122      -8.50714      -7.95258
    17  H(1)              -0.00495     -22.12704      -7.89548      -7.38078
 --------------------------------------------------------
       Center         ----  Spin Dipole Couplings  ----
                      3XX-RR        3YY-RR        3ZZ-RR
 --------------------------------------------------------
     1   Atom       -0.000021      0.005941     -0.005921
     2   Atom        0.005897     -0.001925     -0.003972
     3   Atom        0.092998      0.122319     -0.215317
     4   Atom        0.349982      0.451215     -0.801198
     5   Atom        0.000349      0.002792     -0.003141
     6   Atom        0.002420      0.002135     -0.004555
     7   Atom        0.001475      0.000615     -0.002090
     8   Atom        0.003035     -0.001862     -0.001173
     9   Atom        0.008230     -0.003857     -0.004373
    10   Atom        0.010767     -0.011133      0.000366
    11   Atom        0.336960      0.022757     -0.359717
    12   Atom       -0.000098     -0.001924      0.002021
    13   Atom       -0.000680     -0.004114      0.004794
    14   Atom       -0.005518     -0.005621      0.011138
    15   Atom        0.115748      0.002728     -0.118476
    16   Atom       -0.002262      0.034094     -0.031832
    17   Atom        0.013430     -0.004205     -0.009226
 --------------------------------------------------------
                        XY            XZ            YZ
 --------------------------------------------------------
     1   Atom        0.004821      0.000245     -0.001192
     2   Atom        0.006286      0.004230      0.001113
     3   Atom       -0.265736      0.033702     -0.065140
     4   Atom       -1.231721     -0.130479      0.146964
     5   Atom        0.003507      0.001893      0.002559
     6   Atom        0.005383     -0.002067     -0.003024
     7   Atom        0.002561      0.000136      0.000049
     8   Atom        0.002305      0.003780      0.001698
     9   Atom        0.002747      0.000412      0.000095
    10   Atom       -0.013712     -0.014294      0.005786
    11   Atom       -0.511970     -0.001262      0.001692
    12   Atom       -0.006830     -0.006105      0.003275
    13   Atom        0.002300     -0.007857     -0.005759
    14   Atom       -0.000711      0.002337      0.006368
    15   Atom       -0.171845      0.016287     -0.009522
    16   Atom        0.012579     -0.014181     -0.030411
    17   Atom        0.009245      0.034937      0.030845
 --------------------------------------------------------


 ---------------------------------------------------------------------------------
              Anisotropic Spin Dipole Couplings in Principal Axis System
 ---------------------------------------------------------------------------------

       Atom             a.u.   MegaHertz   Gauss  10(-4) cm-1        Axes

              Baa    -0.0062    -0.827    -0.295    -0.276 -0.1660  0.1619  0.9727
     1 C(13)  Bbb    -0.0025    -0.339    -0.121    -0.113  0.8603 -0.4584  0.2231
              Bcc     0.0087     1.166     0.416     0.389  0.4820  0.8739 -0.0632
 
              Baa    -0.0064    -0.853    -0.304    -0.285 -0.5130  0.5654  0.6458
     2 C(13)  Bbb    -0.0043    -0.573    -0.204    -0.191  0.1320 -0.6914  0.7103
              Bcc     0.0106     1.426     0.509     0.476  0.8482  0.4496  0.2801
 
              Baa    -0.2294    16.597     5.922     5.536  0.1220  0.2691  0.9554
     3 O(17)  Bbb    -0.1528    11.054     3.944     3.687  0.7236  0.6348 -0.2712
              Bcc     0.3821   -27.650    -9.866    -9.223 -0.6794  0.7243 -0.1173
 
              Baa    -0.8353    60.442    21.567    20.161  0.6457  0.6617 -0.3811
     4 O(17)  Bbb    -0.8138    58.885    21.012    19.642  0.3270  0.2114  0.9211
              Bcc     1.6491  -119.328   -42.579   -39.803 -0.6900  0.7193  0.0799
 
              Baa    -0.0042    -2.246    -0.801    -0.749 -0.2067 -0.2428  0.9478
     5 H(1)   Bbb    -0.0021    -1.143    -0.408    -0.381  0.8084 -0.5880  0.0256
              Bcc     0.0064     3.389     1.209     1.130  0.5511  0.7715  0.3178
 
              Baa    -0.0057    -3.051    -1.089    -1.018 -0.0011  0.3599  0.9330
     6 H(1)   Bbb    -0.0029    -1.560    -0.557    -0.520  0.7335 -0.6339  0.2454
              Bcc     0.0086     4.611     1.645     1.538  0.6797  0.6846 -0.2633
 
              Baa    -0.0021    -1.119    -0.399    -0.373 -0.0776  0.0554  0.9954
     7 H(1)   Bbb    -0.0015    -0.825    -0.295    -0.275 -0.6413  0.7617 -0.0924
              Bcc     0.0036     1.945     0.694     0.649  0.7633  0.6456  0.0236
 
              Baa    -0.0035    -1.875    -0.669    -0.626 -0.3615 -0.3735  0.8543
     8 H(1)   Bbb    -0.0027    -1.463    -0.522    -0.488 -0.4649  0.8664  0.1821
              Bcc     0.0063     3.338     1.191     1.114  0.8082  0.3313  0.4868
 
              Baa    -0.0045    -2.375    -0.848    -0.792 -0.2085  0.9747 -0.0801
     9 H(1)   Bbb    -0.0044    -2.340    -0.835    -0.781 -0.0481  0.0716  0.9963
              Bcc     0.0088     4.716     1.683     1.573  0.9768  0.2116  0.0320
 
              Baa    -0.0178    -2.391    -0.853    -0.797  0.4654  0.8809  0.0856
    10 C(13)  Bbb    -0.0086    -1.159    -0.414    -0.387  0.4168 -0.3034  0.8569
              Bcc     0.0265     3.549     1.267     1.184  0.7808 -0.3631 -0.5084
 
              Baa    -0.3598   -48.283   -17.229   -16.106 -0.0853 -0.1185  0.9893
    11 C(13)  Bbb    -0.3556   -47.716   -17.026   -15.916  0.5883  0.7954  0.1460
              Bcc     0.7154    95.999    34.255    32.022  0.8042 -0.5944 -0.0019
 
              Baa    -0.0082    -4.400    -1.570    -1.468  0.7169  0.6633  0.2148
    12 H(1)   Bbb    -0.0028    -1.479    -0.528    -0.493  0.2969 -0.5691  0.7668
              Bcc     0.0110     5.879     2.098     1.961  0.6308 -0.4860 -0.6049
 
              Baa    -0.0077    -4.086    -1.458    -1.363  0.4443  0.6729  0.5915
    13 H(1)   Bbb    -0.0049    -2.620    -0.935    -0.874  0.7277 -0.6561  0.1998
              Bcc     0.0126     6.706     2.393     2.237 -0.5225 -0.3417  0.7811
 
              Baa    -0.0085    -4.529    -1.616    -1.511  0.4532  0.8306 -0.3235
    14 H(1)   Bbb    -0.0050    -2.670    -0.953    -0.891  0.8852 -0.4620  0.0541
              Bcc     0.0135     7.199     2.569     2.401  0.1045  0.3109  0.9447
 
              Baa    -0.1227   -65.466   -23.360   -21.837  0.5309  0.6901 -0.4918
    15 H(1)   Bbb    -0.1184   -63.182   -22.545   -21.075  0.2519  0.4256  0.8691
              Bcc     0.2411   128.648    45.905    42.912  0.8091 -0.5853  0.0521
 
              Baa    -0.0456   -24.314    -8.676    -8.110  0.2097  0.3196  0.9240
    16 H(1)   Bbb    -0.0058    -3.094    -1.104    -1.032  0.9293 -0.3591 -0.0867
              Bcc     0.0514    27.408     9.780     9.142  0.3041  0.8769 -0.3723
 
              Baa    -0.0459   -24.466    -8.730    -8.161 -0.3833 -0.4932  0.7809
    17 H(1)   Bbb    -0.0057    -3.065    -1.094    -1.022 -0.6450  0.7481  0.1560
              Bcc     0.0516    27.531     9.824     9.183  0.6612  0.4439  0.6049
 

 ---------------------------------------------------------------------------------

 No NMR shielding tensors so no spin-rotation constants.
 Leave Link  601 at Mon Jul  4 16:17:17 2022, MaxMem=   939524096 cpu:         2.8
 (Enter /Local/ce_dana/g09/l9999.exe)

 Test job not archived.
 1\1\GINC-TECH-WN199\FTS\UwB97XD\def2SVP\C4H11O2(2)\ALONGD\04-Jul-2022\
 0\\#P opt=(ts, calcfc, noeigentest, maxcycles=100) guess=mix uwb97xd/d
 ef2svp IOp(2/9=2000) scf=xqc\\TS0\\0,2\C,-0.9737349153,-0.1690540942,1
 .5701658334\C,-0.2585556244,1.1378183674,1.2842167689\O,0.3503394735,1
 .1872541454,0.006647425\O,-0.6222881631,1.2117053046,-0.969442326\H,-0
 .2882726435,-1.0245710548,1.4737048941\H,-1.8142992132,-0.3092892376,0
 .8765038044\H,-1.3749324338,-0.1622087235,2.5943126508\H,0.584946722,1
 .2884053357,1.9749714577\H,-0.9459677169,1.9944464205,1.3888540986\C,0
 .8911514305,-1.4779042101,-1.7216293596\C,-0.5717372034,-1.1640580846,
 -1.8145179431\H,1.0823774109,-2.5436714245,-1.9420850573\H,1.478305829
 7,-0.8780347619,-2.4316200164\H,1.2780823694,-1.2742137039,-0.71141263
 4\H,-0.6666167473,0.1370902042,-1.3745833761\H,-1.2292762548,-1.702021
 4084,-1.1191152321\H,-0.9952414203,-1.0824338743,-2.8240502782\\Versio
 n=ES64L-G09RevD.01\State=2-A\HF=-308.9959724\S2=0.758102\S2-1=0.\S2A=0
 .750034\RMSD=6.458e-09\RMSF=1.074e-05\Dipole=-0.1569754,-0.7379328,0.4
 32899\Quadrupole=-0.9917761,-1.5861538,2.5779298,-0.3608245,-0.2718568
 ,2.5668095\PG=C01 [X(C4H11O2)]\\@


 ... IT CAN BE VERY DIFFICULT, IN THESE COMPLEX TIMES,
 TO UNDERSTAND JUST HOW SCIENTISTS DO WHAT THEY DO.

                     DON MOSER IN THE FEBRUARY 1979 SMITHSONIAN
 Job cpu time:       0 days  2 hours 37 minutes 28.2 seconds.
 File lengths (MBytes):  RWF=     74 Int=      0 D2E=      0 Chk=      3 Scr=      1
 Normal termination of Gaussian 09 at Mon Jul  4 16:17:17 2022.
