 Entering Gaussian System, Link 0=/Local/ce_dana/g09/g09
 Initial command:
 /Local/ce_dana/g09/l1.exe "/storage/ce_dana/alongd/scratch/g09/Gau-169613.inp" -scrdir="/storage/ce_dana/alongd/scratch/g09/"
 Entering Link 1 = /Local/ce_dana/g09/l1.exe PID=    169614.
  
 Copyright (c) 1988,1990,1992,1993,1995,1998,2003,2009,2013,
            Gaussian, Inc.  All Rights Reserved.
  
 This is part of the Gaussian(R) 09 program.  It is based on
 the Gaussian(R) 03 system (copyright 2003, Gaussian, Inc.),
 the Gaussian(R) 98 system (copyright 1998, Gaussian, Inc.),
 the Gaussian(R) 94 system (copyright 1995, Gaussian, Inc.),
 the Gaussian 92(TM) system (copyright 1992, Gaussian, Inc.),
 the Gaussian 90(TM) system (copyright 1990, Gaussian, Inc.),
 the Gaussian 88(TM) system (copyright 1988, Gaussian, Inc.),
 the Gaussian 86(TM) system (copyright 1986, Carnegie Mellon
 University), and the Gaussian 82(TM) system (copyright 1983,
 Carnegie Mellon University). Gaussian is a federally registered
 trademark of Gaussian, Inc.
  
 This software contains proprietary and confidential information,
 including trade secrets, belonging to Gaussian, Inc.
  
 This software is provided under written license and may be
 used, copied, transmitted, or stored only in accord with that
 written license.
  
 The following legend is applicable only to US Government
 contracts under FAR:
  
                    RESTRICTED RIGHTS LEGEND
  
 Use, reproduction and disclosure by the US Government is
 subject to restrictions as set forth in subparagraphs (a)
 and (c) of the Commercial Computer Software - Restricted
 Rights clause in FAR 52.227-19.
  
 Gaussian, Inc.
 340 Quinnipiac St., Bldg. 40, Wallingford CT 06492
  
  
 ---------------------------------------------------------------
 Warning -- This program may not be used in any manner that
 competes with the business of Gaussian, Inc. or will provide
 assistance to any competitor of Gaussian, Inc.  The licensee
 of this program is prohibited from giving any competitor of
 Gaussian, Inc. access to this program.  By using this program,
 the user acknowledges that Gaussian, Inc. is engaged in the
 business of creating and licensing software in the field of
 computational chemistry and represents and warrants to the
 licensee that it is not a competitor of Gaussian, Inc. and that
 it will not use this program in any manner prohibited above.
 ---------------------------------------------------------------
  

 Cite this work as:
 Gaussian 09, Revision D.01,
 M. J. Frisch, G. W. Trucks, H. B. Schlegel, G. E. Scuseria, 
 M. A. Robb, J. R. Cheeseman, G. Scalmani, V. Barone, B. Mennucci, 
 G. A. Petersson, H. Nakatsuji, M. Caricato, X. Li, H. P. Hratchian, 
 A. F. Izmaylov, J. Bloino, G. Zheng, J. L. Sonnenberg, M. Hada, 
 M. Ehara, K. Toyota, R. Fukuda, J. Hasegawa, M. Ishida, T. Nakajima, 
 Y. Honda, O. Kitao, H. Nakai, T. Vreven, J. A. Montgomery, Jr., 
 J. E. Peralta, F. Ogliaro, M. Bearpark, J. J. Heyd, E. Brothers, 
 K. N. Kudin, V. N. Staroverov, T. Keith, R. Kobayashi, J. Normand, 
 K. Raghavachari, A. Rendell, J. C. Burant, S. S. Iyengar, J. Tomasi, 
 M. Cossi, N. Rega, J. M. Millam, M. Klene, J. E. Knox, J. B. Cross, 
 V. Bakken, C. Adamo, J. Jaramillo, R. Gomperts, R. E. Stratmann, 
 O. Yazyev, A. J. Austin, R. Cammi, C. Pomelli, J. W. Ochterski, 
 R. L. Martin, K. Morokuma, V. G. Zakrzewski, G. A. Voth, 
 P. Salvador, J. J. Dannenberg, S. Dapprich, A. D. Daniels, 
 O. Farkas, J. B. Foresman, J. V. Ortiz, J. Cioslowski, 
 and D. J. Fox, Gaussian, Inc., Wallingford CT, 2013.
 
 ******************************************
 Gaussian 09:  ES64L-G09RevD.01 24-Apr-2013
                 4-Jul-2022 
 ******************************************
 %chk=check.chk
 %mem=7168mb
 %NProcShared=10
 Will use up to   10 processors via shared memory.
 ----------------------------------------------------------------------
 #P opt=(ts, calcfc, noeigentest, maxcycles=100) guess=mix uwb97xd/def2
 svp IOp(2/9=2000) scf=xqc
 ----------------------------------------------------------------------
 1/5=1,6=100,10=4,11=1,14=-1,18=20,26=3,38=1/1,3;
 2/9=2000,12=2,17=6,18=5,40=1/2;
 3/5=43,7=101,11=2,16=1,25=1,30=1,71=2,74=-58,116=2,140=1/1,2,3;
 4/13=-1/1;
 5/5=2,8=3,13=1,38=5/2,8;
 8/6=4,10=90,11=11/1;
 11/6=1,8=1,9=11,15=111,16=1/1,2,10;
 10/6=1,13=1/2;
 6/7=2,8=2,9=2,10=2,28=1/1;
 7/10=1,18=20,25=1/1,2,3,16;
 1/5=1,6=100,10=4,11=1,14=-1,18=20,26=3/3(2);
 2/9=2000/2;
 99//99;
 2/9=2000/2;
 3/5=43,7=101,11=2,16=1,25=1,30=1,71=1,74=-58,116=2/1,2,3;
 4/5=5,16=3,69=1/1;
 5/5=2,8=3,13=1,38=5/2,8;
 7//1,2,3,16;
 1/5=1,6=100,11=1,14=-1,18=20,26=3/3(-5);
 2/9=2000/2;
 6/7=2,8=2,9=2,10=2,19=2,28=1/1;
 99/9=1/99;
 Leave Link    1 at Mon Jul  4 15:57:26 2022, MaxMem=   939524096 cpu:         0.0
 (Enter /Local/ce_dana/g09/l101.exe)
 ---
 TS0
 ---
 Symbolic Z-matrix:
 Charge =  0 Multiplicity = 2
 C                    -0.86999  -0.64834   1.73563 
 C                    -0.18429   0.70246   1.88049 
 O                     0.7954    0.95495   0.87531 
 O                     0.07823   1.16695  -0.3756 
 H                    -0.13505  -1.45758   1.74542 
 H                    -1.43098  -0.69337   0.80045 
 H                    -1.57098  -0.81006   2.55945 
 H                     0.40371   0.75575   2.80205 
 H                    -0.91082   1.52232   1.888 
 C                     0.07823  -1.1351   -2.80663 
 C                     0.07823  -1.1351   -1.27622 
 H                     0.07823  -2.1535   -3.20505 
 H                    -0.80373  -0.62589  -3.20505 
 H                     0.96019  -0.6259   -3.20505 
 H                     0.07823   0.08699  -0.79811 
 H                     0.96019  -1.6443   -0.8778 
 H                    -0.80374  -1.64429  -0.8778 
 
 Add virtual bond connecting atoms H15        and O4         Dist= 2.19D+00.
 Add virtual bond connecting atoms H15        and C11        Dist= 2.48D+00.
 NAtoms=     17 NQM=       17 NQMF=       0 NMMI=      0 NMMIF=      0
                NMic=       0 NMicF=      0.
                    Isotopes and Nuclear Properties:
 (Nuclear quadrupole moments (NQMom) in fm**2, nuclear magnetic moments (NMagM)
  in nuclear magnetons)

  Atom         1           2           3           4           5           6           7           8           9          10
 IAtWgt=          12          12          16          16           1           1           1           1           1          12
 AtmWgt=  12.0000000  12.0000000  15.9949146  15.9949146   1.0078250   1.0078250   1.0078250   1.0078250   1.0078250  12.0000000
 NucSpn=           0           0           0           0           1           1           1           1           1           0
 AtZEff=   0.0000000   0.0000000   0.0000000   0.0000000   0.0000000   0.0000000   0.0000000   0.0000000   0.0000000   0.0000000
 NQMom=    0.0000000   0.0000000   0.0000000   0.0000000   0.0000000   0.0000000   0.0000000   0.0000000   0.0000000   0.0000000
 NMagM=    0.0000000   0.0000000   0.0000000   0.0000000   2.7928460   2.7928460   2.7928460   2.7928460   2.7928460   0.0000000
 AtZNuc=   6.0000000   6.0000000   8.0000000   8.0000000   1.0000000   1.0000000   1.0000000   1.0000000   1.0000000   6.0000000

  Atom        11          12          13          14          15          16          17
 IAtWgt=          12           1           1           1           1           1           1
 AtmWgt=  12.0000000   1.0078250   1.0078250   1.0078250   1.0078250   1.0078250   1.0078250
 NucSpn=           0           1           1           1           1           1           1
 AtZEff=   0.0000000   0.0000000   0.0000000   0.0000000   0.0000000   0.0000000   0.0000000
 NQMom=    0.0000000   0.0000000   0.0000000   0.0000000   0.0000000   0.0000000   0.0000000
 NMagM=    0.0000000   2.7928460   2.7928460   2.7928460   2.7928460   2.7928460   2.7928460
 AtZNuc=   6.0000000   1.0000000   1.0000000   1.0000000   1.0000000   1.0000000   1.0000000
 Leave Link  101 at Mon Jul  4 15:57:26 2022, MaxMem=   939524096 cpu:         0.3
 (Enter /Local/ce_dana/g09/l103.exe)

 GradGradGradGradGradGradGradGradGradGradGradGradGradGradGradGradGradGrad
 Stoichiometry    C4H11O2(2)
 Framework group  C1[X(C4H11O2)]
 Deg. of freedom    45
 Full point group                 C1      NOp   1
 RotChk:  IX=2 Diff= 1.57D-15
 Largest Abelian subgroup         C1      NOp   1
 Largest concise Abelian subgroup C1      NOp   1
                         Standard orientation:                         
 ---------------------------------------------------------------------
 Center     Atomic      Atomic             Coordinates (Angstroms)
 Number     Number       Type             X           Y           Z
 ---------------------------------------------------------------------
      1          6           0        1.800173    1.260336   -0.131490
      2          6           0        2.093545   -0.216706    0.053487
      3          8           0        0.972905   -0.966927    0.483189
      4          8           0        0.036541   -1.017636   -0.525952
      5          1           0        1.403600    1.700937    0.795528
      6          1           0        1.065246    1.411391   -0.934638
      7          1           0        2.719991    1.797796   -0.405329
      8          1           0        2.831698   -0.377584    0.853951
      9          1           0        2.492547   -0.659500   -0.875251
     10          6           0       -3.017168    0.003926   -0.003536
     11          6           0       -1.689974    0.679667    0.172064
     12          1           0       -3.834700    0.635941    0.387904
     13          1           0       -3.235403   -0.191140   -1.063973
     14          1           0       -3.054512   -0.953618    0.536246
     15          1           0       -0.741642   -0.220426   -0.248393
     16          1           0       -1.339055    0.806198    1.205203
     17          1           0       -1.502798    1.563170   -0.452301
 ---------------------------------------------------------------------
 Rotational constants (GHZ):      5.9560349      1.5328480      1.3159565
 Leave Link  202 at Mon Jul  4 16:04:23 2022, MaxMem=   939524096 cpu:         0.0
 (Enter /Local/ce_dana/g09/l601.exe)
 Copying SCF densities to generalized density rwf, IOpCl= 1 IROHF=0.

 **********************************************************************

            Population analysis using the SCF density.

 **********************************************************************

 Orbital symmetries:
 Alpha Orbitals:
       Occupied  (A) (A) (A) (A) (A) (A) (A) (A) (A) (A) (A) (A)
                 (A) (A) (A) (A) (A) (A) (A) (A) (A) (A) (A) (A)
                 (A) (A)
       Virtual   (A) (A) (A) (A) (A) (A) (A) (A) (A) (A) (A) (A)
                 (A) (A) (A) (A) (A) (A) (A) (A) (A) (A) (A) (A)
                 (A) (A) (A) (A) (A) (A) (A) (A) (A) (A) (A) (A)
                 (A) (A) (A) (A) (A) (A) (A) (A) (A) (A) (A) (A)
                 (A) (A) (A) (A) (A) (A) (A) (A) (A) (A) (A) (A)
                 (A) (A) (A) (A) (A) (A) (A) (A) (A) (A) (A) (A)
                 (A) (A) (A) (A) (A) (A) (A) (A) (A) (A) (A) (A)
                 (A) (A) (A) (A) (A) (A) (A) (A) (A) (A) (A) (A)
                 (A) (A) (A) (A) (A) (A) (A) (A) (A) (A) (A) (A)
                 (A) (A) (A) (A) (A)
 Beta  Orbitals:
       Occupied  (A) (A) (A) (A) (A) (A) (A) (A) (A) (A) (A) (A)
                 (A) (A) (A) (A) (A) (A) (A) (A) (A) (A) (A) (A)
                 (A)
       Virtual   (A) (A) (A) (A) (A) (A) (A) (A) (A) (A) (A) (A)
                 (A) (A) (A) (A) (A) (A) (A) (A) (A) (A) (A) (A)
                 (A) (A) (A) (A) (A) (A) (A) (A) (A) (A) (A) (A)
                 (A) (A) (A) (A) (A) (A) (A) (A) (A) (A) (A) (A)
                 (A) (A) (A) (A) (A) (A) (A) (A) (A) (A) (A) (A)
                 (A) (A) (A) (A) (A) (A) (A) (A) (A) (A) (A) (A)
                 (A) (A) (A) (A) (A) (A) (A) (A) (A) (A) (A) (A)
                 (A) (A) (A) (A) (A) (A) (A) (A) (A) (A) (A) (A)
                 (A) (A) (A) (A) (A) (A) (A) (A) (A) (A) (A) (A)
                 (A) (A) (A) (A) (A) (A)
 The electronic state is 2-A.
 Alpha  occ. eigenvalues --  -19.30852 -19.29913 -10.34438 -10.31637 -10.30138
 Alpha  occ. eigenvalues --  -10.29530  -1.22807  -0.97370  -0.86409  -0.83176
 Alpha  occ. eigenvalues --   -0.71772  -0.70037  -0.61986  -0.57260  -0.55209
 Alpha  occ. eigenvalues --   -0.54066  -0.53055  -0.50185  -0.48088  -0.47145
 Alpha  occ. eigenvalues --   -0.46099  -0.44353  -0.43122  -0.37627  -0.35917
 Alpha  occ. eigenvalues --   -0.30545
 Alpha virt. eigenvalues --    0.13787   0.15259   0.17036   0.17205   0.17830
 Alpha virt. eigenvalues --    0.20904   0.21174   0.21421   0.22262   0.23295
 Alpha virt. eigenvalues --    0.25964   0.27818   0.29364   0.32246   0.35718
 Alpha virt. eigenvalues --    0.45824   0.48715   0.49492   0.50503   0.53062
 Alpha virt. eigenvalues --    0.58755   0.60309   0.61999   0.64103   0.66259
 Alpha virt. eigenvalues --    0.69075   0.69248   0.72271   0.73525   0.73810
 Alpha virt. eigenvalues --    0.75261   0.75370   0.76510   0.76754   0.77103
 Alpha virt. eigenvalues --    0.79100   0.79981   0.80524   0.85586   0.88381
 Alpha virt. eigenvalues --    0.98400   1.00645   1.06311   1.08186   1.11965
 Alpha virt. eigenvalues --    1.15398   1.17558   1.20227   1.23471   1.29289
 Alpha virt. eigenvalues --    1.33230   1.41906   1.43071   1.47831   1.49723
 Alpha virt. eigenvalues --    1.53608   1.53934   1.60547   1.61554   1.62316
 Alpha virt. eigenvalues --    1.68906   1.75727   1.78531   1.81834   1.82504
 Alpha virt. eigenvalues --    1.84017   1.85634   1.86120   1.87968   1.88301
 Alpha virt. eigenvalues --    1.88979   1.90858   1.92321   1.94704   1.96295
 Alpha virt. eigenvalues --    1.98962   2.01333   2.06123   2.09505   2.11525
 Alpha virt. eigenvalues --    2.21035   2.24071   2.25656   2.35489   2.40243
 Alpha virt. eigenvalues --    2.43530   2.45028   2.47307   2.52430   2.54480
 Alpha virt. eigenvalues --    2.55443   2.57059   2.59416   2.62102   2.66282
 Alpha virt. eigenvalues --    2.66888   2.77408   2.84801   2.88836   2.91321
 Alpha virt. eigenvalues --    2.94146   3.01048   3.02724   3.04086   3.05818
 Alpha virt. eigenvalues --    3.07589   3.08596   3.13428   3.27272   3.27649
 Alpha virt. eigenvalues --    3.43650   3.69391   4.01000
  Beta  occ. eigenvalues --  -19.30691 -19.28887 -10.34445 -10.30792 -10.30172
  Beta  occ. eigenvalues --  -10.29521  -1.21553  -0.95686  -0.85056  -0.82822
  Beta  occ. eigenvalues --   -0.70421  -0.69359  -0.60286  -0.57057  -0.54043
  Beta  occ. eigenvalues --   -0.53076  -0.51914  -0.49055  -0.47558  -0.46667
  Beta  occ. eigenvalues --   -0.44889  -0.43915  -0.42868  -0.35575  -0.33760
  Beta virt. eigenvalues --   -0.03661   0.14040   0.15395   0.17287   0.17869
  Beta virt. eigenvalues --    0.18090   0.21024   0.21262   0.21546   0.22477
  Beta virt. eigenvalues --    0.23445   0.26259   0.28131   0.29856   0.32612
  Beta virt. eigenvalues --    0.37539   0.46267   0.48912   0.50262   0.50547
  Beta virt. eigenvalues --    0.53149   0.59411   0.60857   0.62539   0.64680
  Beta virt. eigenvalues --    0.67730   0.69290   0.70049   0.72548   0.73734
  Beta virt. eigenvalues --    0.74322   0.75376   0.75536   0.76706   0.77264
  Beta virt. eigenvalues --    0.77490   0.79420   0.80189   0.80783   0.85914
  Beta virt. eigenvalues --    0.88762   0.98972   1.00995   1.07015   1.08817
  Beta virt. eigenvalues --    1.12306   1.15991   1.18436   1.21188   1.24131
  Beta virt. eigenvalues --    1.30000   1.33701   1.42237   1.43155   1.48480
  Beta virt. eigenvalues --    1.50249   1.53754   1.54553   1.60831   1.61802
  Beta virt. eigenvalues --    1.62360   1.69568   1.78189   1.79040   1.82029
  Beta virt. eigenvalues --    1.82618   1.84161   1.85732   1.86434   1.88194
  Beta virt. eigenvalues --    1.88541   1.89145   1.91156   1.92538   1.94731
  Beta virt. eigenvalues --    1.96475   1.99068   2.01547   2.06956   2.10411
  Beta virt. eigenvalues --    2.11643   2.21121   2.24917   2.26035   2.37358
  Beta virt. eigenvalues --    2.40928   2.43681   2.45972   2.47716   2.53107
  Beta virt. eigenvalues --    2.54790   2.56025   2.58053   2.60200   2.62416
  Beta virt. eigenvalues --    2.66559   2.67636   2.77501   2.85239   2.89714
  Beta virt. eigenvalues --    2.93066   2.95788   3.01538   3.02817   3.04263
  Beta virt. eigenvalues --    3.05935   3.08311   3.09621   3.13756   3.27740
  Beta virt. eigenvalues --    3.29342   3.43906   3.71662   4.02620
          Condensed to atoms (all electrons):
               1          2          3          4          5          6
     1  C    4.700421   0.399221  -0.049748  -0.005213   0.377993   0.390355
     2  C    0.399221   4.485684   0.282562  -0.048024  -0.014492  -0.022079
     3  O   -0.049748   0.282562   7.980159   0.095144   0.003546  -0.005794
     4  O   -0.005213  -0.048024   0.095144   7.991091  -0.001130   0.013146
     5  H    0.377993  -0.014492   0.003546  -0.001130   0.631847  -0.026983
     6  H    0.390355  -0.022079  -0.005794   0.013146  -0.026983   0.618677
     7  H    0.372717  -0.010417   0.003643   0.000132  -0.016506  -0.017812
     8  H   -0.021821   0.378295  -0.020142   0.005706  -0.009408   0.007627
     9  H   -0.051408   0.402937  -0.027542   0.001410   0.008203  -0.009616
    10  C    0.000142   0.000072   0.000117   0.004220   0.000096   0.000063
    11  C    0.000179  -0.002791   0.001106  -0.090857  -0.001184   0.002812
    12  H    0.000003  -0.000002  -0.000015  -0.000039  -0.000007  -0.000006
    13  H   -0.000004   0.000005  -0.000020   0.000223   0.000001  -0.000002
    14  H   -0.000008   0.000006   0.000071   0.002189   0.000003  -0.000019
    15  H    0.003015   0.001258  -0.026270   0.218268   0.000337   0.000093
    16  H   -0.001053   0.000310   0.004442  -0.000439   0.002052  -0.000563
    17  H    0.000226   0.000083   0.000446   0.000258   0.000379   0.000690
               7          8          9         10         11         12
     1  C    0.372717  -0.021821  -0.051408   0.000142   0.000179   0.000003
     2  C   -0.010417   0.378295   0.402937   0.000072  -0.002791  -0.000002
     3  O    0.003643  -0.020142  -0.027542   0.000117   0.001106  -0.000015
     4  O    0.000132   0.005706   0.001410   0.004220  -0.090857  -0.000039
     5  H   -0.016506  -0.009408   0.008203   0.000096  -0.001184  -0.000007
     6  H   -0.017812   0.007627  -0.009616   0.000063   0.002812  -0.000006
     7  H    0.627188  -0.003289  -0.000836  -0.000002   0.000114   0.000000
     8  H   -0.003289   0.648513  -0.026736   0.000001   0.000159  -0.000000
     9  H   -0.000836  -0.026736   0.666245   0.000010  -0.000335  -0.000000
    10  C   -0.000002   0.000001   0.000010   4.554358   0.396091   0.389162
    11  C    0.000114   0.000159  -0.000335   0.396091   5.042155  -0.021080
    12  H    0.000000  -0.000000  -0.000000   0.389162  -0.021080   0.626953
    13  H    0.000000   0.000000  -0.000001   0.399738  -0.025743  -0.022644
    14  H    0.000000  -0.000002   0.000001   0.398007  -0.024902  -0.021397
    15  H   -0.000154  -0.000709   0.000841  -0.013300   0.195627   0.002490
    16  H    0.000016  -0.000009   0.000128  -0.018407   0.371357  -0.005577
    17  H   -0.000000  -0.000024   0.000052  -0.022522   0.373353  -0.004169
              13         14         15         16         17
     1  C   -0.000004  -0.000008   0.003015  -0.001053   0.000226
     2  C    0.000005   0.000006   0.001258   0.000310   0.000083
     3  O   -0.000020   0.000071  -0.026270   0.004442   0.000446
     4  O    0.000223   0.002189   0.218268  -0.000439   0.000258
     5  H    0.000001   0.000003   0.000337   0.002052   0.000379
     6  H   -0.000002  -0.000019   0.000093  -0.000563   0.000690
     7  H    0.000000   0.000000  -0.000154   0.000016  -0.000000
     8  H    0.000000  -0.000002  -0.000709  -0.000009  -0.000024
     9  H   -0.000001   0.000001   0.000841   0.000128   0.000052
    10  C    0.399738   0.398007  -0.013300  -0.018407  -0.022522
    11  C   -0.025743  -0.024902   0.195627   0.371357   0.373353
    12  H   -0.022644  -0.021397   0.002490  -0.005577  -0.004169
    13  H    0.619496  -0.021488  -0.002923   0.006131  -0.007248
    14  H   -0.021488   0.612381  -0.004246  -0.006589   0.006484
    15  H   -0.002923  -0.004246   0.460556  -0.003539  -0.004966
    16  H    0.006131  -0.006589  -0.003539   0.605563  -0.023624
    17  H   -0.007248   0.006484  -0.004966  -0.023624   0.613322
          Atomic-Atomic Spin Densities.
               1          2          3          4          5          6
     1  C    0.014504  -0.000310  -0.003714   0.004379   0.000013  -0.000905
     2  C   -0.000310  -0.007154   0.004146  -0.004055  -0.000265   0.000366
     3  O   -0.003714   0.004146   0.080615  -0.041094   0.000157   0.000417
     4  O    0.004379  -0.004055  -0.041094   0.491370  -0.000289  -0.001083
     5  H    0.000013  -0.000265   0.000157  -0.000289  -0.000374   0.000186
     6  H   -0.000905   0.000366   0.000417  -0.001083   0.000186  -0.000397
     7  H   -0.002736   0.000807   0.000075  -0.000092   0.000142   0.000427
     8  H   -0.001347   0.001112  -0.000079  -0.000064   0.000099  -0.000050
     9  H   -0.003692  -0.001142  -0.001127   0.000734   0.000041   0.000338
    10  C    0.000070  -0.000043  -0.000221   0.003681  -0.000015  -0.000022
    11  C   -0.004547   0.002146   0.010484  -0.081511   0.000600   0.001072
    12  H   -0.000008   0.000003   0.000015  -0.000252   0.000003   0.000006
    13  H    0.000010  -0.000004  -0.000018   0.000571  -0.000002  -0.000009
    14  H    0.000010  -0.000006  -0.000069   0.000745  -0.000002  -0.000002
    15  H   -0.002873   0.002097   0.005949  -0.016925   0.000430   0.000164
    16  H    0.000737  -0.000390  -0.001379   0.002754  -0.000308  -0.000073
    17  H    0.000651  -0.000220  -0.000394   0.002728  -0.000182  -0.000215
               7          8          9         10         11         12
     1  C   -0.002736  -0.001347  -0.003692   0.000070  -0.004547  -0.000008
     2  C    0.000807   0.001112  -0.001142  -0.000043   0.002146   0.000003
     3  O    0.000075  -0.000079  -0.001127  -0.000221   0.010484   0.000015
     4  O   -0.000092  -0.000064   0.000734   0.003681  -0.081511  -0.000252
     5  H    0.000142   0.000099   0.000041  -0.000015   0.000600   0.000003
     6  H    0.000427  -0.000050   0.000338  -0.000022   0.001072   0.000006
     7  H    0.001607   0.000116   0.000521  -0.000001   0.000134   0.000000
     8  H    0.000116  -0.000997   0.000909  -0.000000   0.000043   0.000000
     9  H    0.000521   0.000909   0.005544  -0.000009   0.000511   0.000000
    10  C   -0.000001  -0.000000  -0.000009  -0.026110  -0.036808   0.009980
    11  C    0.000134   0.000043   0.000511  -0.036808   0.736213  -0.013873
    12  H    0.000000   0.000000   0.000000   0.009980  -0.013873   0.057473
    13  H   -0.000000  -0.000000  -0.000002   0.004313  -0.005791  -0.005394
    14  H   -0.000000  -0.000000  -0.000002   0.004615  -0.006036  -0.005702
    15  H    0.000060   0.000020   0.000626   0.001114   0.045206  -0.000052
    16  H   -0.000023  -0.000008  -0.000041   0.000547  -0.004553  -0.001420
    17  H   -0.000044  -0.000001  -0.000044   0.001219  -0.007275  -0.002029
              13         14         15         16         17
     1  C    0.000010   0.000010  -0.002873   0.000737   0.000651
     2  C   -0.000004  -0.000006   0.002097  -0.000390  -0.000220
     3  O   -0.000018  -0.000069   0.005949  -0.001379  -0.000394
     4  O    0.000571   0.000745  -0.016925   0.002754   0.002728
     5  H   -0.000002  -0.000002   0.000430  -0.000308  -0.000182
     6  H   -0.000009  -0.000002   0.000164  -0.000073  -0.000215
     7  H   -0.000000  -0.000000   0.000060  -0.000023  -0.000044
     8  H   -0.000000  -0.000000   0.000020  -0.000008  -0.000001
     9  H   -0.000002  -0.000002   0.000626  -0.000041  -0.000044
    10  C    0.004313   0.004615   0.001114   0.000547   0.001219
    11  C   -0.005791  -0.006036   0.045206  -0.004553  -0.007275
    12  H   -0.005394  -0.005702  -0.000052  -0.001420  -0.002029
    13  H    0.009734   0.002195  -0.000184   0.000136   0.001293
    14  H    0.002195   0.010558  -0.000105   0.000981   0.000249
    15  H   -0.000184  -0.000105  -0.070060   0.003391   0.001232
    16  H    0.000136   0.000981   0.003391  -0.023244   0.003197
    17  H    0.001293   0.000249   0.001232   0.003197  -0.018959
 Mulliken charges and spin densities:
               1          2
     1  C   -0.115016   0.000241
     2  C    0.147371  -0.002913
     3  O   -0.241707   0.053762
     4  O   -0.186086   0.361596
     5  H    0.045251   0.000233
     6  H    0.049411   0.000218
     7  H    0.045206   0.000994
     8  H    0.041837  -0.000246
     9  H    0.036646   0.003165
    10  C   -0.087846  -0.037692
    11  C   -0.216063   0.636014
    12  H    0.056328   0.038752
    13  H    0.054479   0.006850
    14  H    0.059507   0.007428
    15  H    0.173621  -0.029910
    16  H    0.069801  -0.019694
    17  H    0.067259  -0.018796
 Sum of Mulliken charges =  -0.00000   1.00000
 Mulliken charges and spin densities with hydrogens summed into heavy atoms:
               1          2
     1  C    0.024852   0.001686
     2  C    0.225855   0.000006
     3  O   -0.241707   0.053762
     4  O   -0.012466   0.331686
    10  C    0.082469   0.015337
    11  C   -0.079003   0.597523
 Electronic spatial extent (au):  <R**2>=            945.4047
 Charge=              0.0000 electrons
 Dipole moment (field-independent basis, Debye):
    X=             -0.0615    Y=              2.1236    Z=              0.0855  Tot=              2.1263
 Quadrupole moment (field-independent basis, Debye-Ang):
   XX=            -31.9398   YY=            -41.4497   ZZ=            -39.2521
   XY=              0.4291   XZ=             -0.2548   YZ=             -0.1010
 Traceless Quadrupole moment (field-independent basis, Debye-Ang):
   XX=              5.6074   YY=             -3.9025   ZZ=             -1.7049
   XY=              0.4291   XZ=             -0.2548   YZ=             -0.1010
 Octapole moment (field-independent basis, Debye-Ang**2):
  XXX=              8.9782  YYY=             -4.9075  ZZZ=              0.3053  XYY=              0.5595
  XXY=             -2.1060  XXZ=              0.2290  XZZ=              0.9365  YZZ=             -1.1890
  YYZ=             -0.3641  XYZ=              0.8601
 Hexadecapole moment (field-independent basis, Debye-Ang**3):
 XXXX=           -900.5125 YYYY=           -230.1743 ZZZZ=            -81.1732 XXXY=             -6.2846
 XXXZ=              2.3736 YYYX=             -1.9683 YYYZ=             -1.1769 ZZZX=              4.2875
 ZZZY=              1.1310 XXYY=           -192.6715 XXZZ=           -166.4876 YYZZ=            -51.2124
 XXYZ=             -0.3351 YYXZ=             -1.5960 ZZXY=             -1.2110
 N-N= 2.537879546017D+02 E-N=-1.228680849892D+03  KE= 3.061026054690D+02
                          Isotropic Fermi Contact Couplings
        Atom                 a.u.       MegaHertz       Gauss      10(-4) cm-1
     1  C(13)              0.00697       7.83138       2.79443       2.61227
     2  C(13)             -0.00354      -3.97554      -1.41857      -1.32610
     3  O(17)              0.03062     -18.56133      -6.62314      -6.19139
     4  O(17)              0.15923     -96.52291     -34.44177     -32.19658
     5  H(1)               0.00000       0.01206       0.00430       0.00402
     6  H(1)              -0.00008      -0.34681      -0.12375      -0.11568
     7  H(1)               0.00023       1.02092       0.36429       0.34054
     8  H(1)              -0.00006      -0.28705      -0.10243      -0.09575
     9  H(1)               0.00032       1.45147       0.51792       0.48416
    10  C(13)             -0.02010     -22.59707      -8.06320      -7.53757
    11  C(13)              0.20105     226.01416      80.64747      75.39021
    12  H(1)               0.01866      83.41382      29.76412      27.82385
    13  H(1)               0.00331      14.81162       5.28515       4.94063
    14  H(1)               0.00350      15.62599       5.57574       5.21227
    15  H(1)              -0.02468    -110.29873     -39.35733     -36.79170
    16  H(1)              -0.00535     -23.90173      -8.52873      -7.97276
    17  H(1)              -0.00529     -23.63853      -8.43482      -7.88497
 --------------------------------------------------------
       Center         ----  Spin Dipole Couplings  ----
                      3XX-RR        3YY-RR        3ZZ-RR
 --------------------------------------------------------
     1   Atom        0.001196      0.004779     -0.005975
     2   Atom        0.008643     -0.003220     -0.005423
     3   Atom        0.004789      0.190598     -0.195387
     4   Atom       -0.167129      0.635351     -0.468223
     5   Atom        0.002221      0.000991     -0.003212
     6   Atom        0.002466      0.001902     -0.004369
     7   Atom        0.002026      0.000021     -0.002047
     8   Atom        0.005252     -0.002642     -0.002610
     9   Atom        0.008028     -0.004226     -0.003802
    10   Atom        0.023543     -0.009627     -0.013916
    11   Atom        0.081018      0.125778     -0.206796
    12   Atom        0.010141     -0.003312     -0.006829
    13   Atom        0.006495     -0.005035     -0.001460
    14   Atom        0.004371      0.001980     -0.006351
    15   Atom        0.060602      0.038766     -0.099368
    16   Atom       -0.015486     -0.026265      0.041751
    17   Atom       -0.024858      0.029568     -0.004711
 --------------------------------------------------------
                        XY            XZ            YZ
 --------------------------------------------------------
     1   Atom        0.005467     -0.000725     -0.000793
     2   Atom        0.004297      0.001773     -0.000489
     3   Atom       -0.236766     -0.078707      0.066014
     4   Atom       -0.989157     -0.476339      0.724945
     5   Atom        0.003731      0.001875      0.002385
     6   Atom        0.005053     -0.003336     -0.002910
     7   Atom        0.002383     -0.000440     -0.000182
     8   Atom        0.001227      0.002497      0.000671
     9   Atom        0.001364     -0.002779     -0.000366
    10   Atom       -0.004520     -0.006148      0.003613
    11   Atom       -0.465284     -0.258754      0.270327
    12   Atom       -0.001665     -0.002677      0.002496
    13   Atom        0.003501      0.008544      0.003624
    14   Atom        0.008590     -0.004312     -0.002827
    15   Atom       -0.172703     -0.062125      0.059861
    16   Atom       -0.016853      0.022534      0.015780
    17   Atom       -0.002892     -0.021918     -0.034269
 --------------------------------------------------------


 ---------------------------------------------------------------------------------
              Anisotropic Spin Dipole Couplings in Principal Axis System
 ---------------------------------------------------------------------------------

       Atom             a.u.   MegaHertz   Gauss  10(-4) cm-1        Axes

              Baa    -0.0061    -0.813    -0.290    -0.271  0.0720  0.0366  0.9967
     1 C(13)  Bbb    -0.0028    -0.371    -0.132    -0.124  0.8072 -0.5891 -0.0367
              Bcc     0.0088     1.183     0.422     0.395  0.5858  0.8072 -0.0720
 
              Baa    -0.0062    -0.833    -0.297    -0.278 -0.2403  0.4832  0.8419
     2 C(13)  Bbb    -0.0040    -0.534    -0.190    -0.178 -0.2055  0.8223 -0.5306
              Bcc     0.0102     1.367     0.488     0.456  0.9487  0.3005  0.0983
 
              Baa    -0.2239    16.201     5.781     5.404  0.4004  0.0834  0.9125
     3 O(17)  Bbb    -0.1455    10.528     3.757     3.512  0.7234  0.5824 -0.3707
              Bcc     0.3694   -26.729    -9.538    -8.916 -0.5624  0.8086  0.1729
 
              Baa    -0.8385    60.676    21.651    20.239  0.6174  0.6396 -0.4579
     4 O(17)  Bbb    -0.8172    59.135    21.101    19.725  0.5938  0.0028  0.8046
              Bcc     1.6558  -119.810   -42.751   -39.964 -0.5159  0.7687  0.3781
 
              Baa    -0.0043    -2.293    -0.818    -0.765 -0.0455 -0.3839  0.9223
     5 H(1)   Bbb    -0.0020    -1.079    -0.385    -0.360  0.6991 -0.6717 -0.2451
              Bcc     0.0063     3.372     1.203     1.125  0.7136  0.6336  0.2989
 
              Baa    -0.0059    -3.133    -1.118    -1.045  0.2705  0.1783  0.9461
     6 H(1)   Bbb    -0.0029    -1.530    -0.546    -0.510 -0.6696  0.7409  0.0518
              Bcc     0.0087     4.663     1.664     1.555  0.6917  0.6475 -0.3198
 
              Baa    -0.0021    -1.121    -0.400    -0.374  0.1601 -0.0957  0.9824
     7 H(1)   Bbb    -0.0015    -0.825    -0.294    -0.275 -0.5327  0.8295  0.1677
              Bcc     0.0036     1.946     0.694     0.649  0.8310  0.5502 -0.0818
 
              Baa    -0.0035    -1.856    -0.662    -0.619 -0.1929 -0.4261  0.8839
     8 H(1)   Bbb    -0.0027    -1.447    -0.516    -0.483 -0.2548  0.8916  0.3742
              Bcc     0.0062     3.302     1.178     1.102  0.9476  0.1530  0.2805
 
              Baa    -0.0045    -2.382    -0.850    -0.795  0.1176  0.5740  0.8104
     9 H(1)   Bbb    -0.0043    -2.314    -0.826    -0.772 -0.2118  0.8117 -0.5443
              Bcc     0.0088     4.696     1.676     1.566  0.9702  0.1077 -0.2170
 
              Baa    -0.0163    -2.181    -0.778    -0.728  0.0902 -0.4285  0.8990
    10 C(13)  Bbb    -0.0090    -1.208    -0.431    -0.403  0.2004  0.8920  0.4051
              Bcc     0.0253     3.389     1.209     1.131  0.9756 -0.1436 -0.1663
 
              Baa    -0.3625   -48.650   -17.359   -16.228  0.7554  0.6388  0.1462
    11 C(13)  Bbb    -0.3577   -48.003   -17.129   -16.012  0.1410 -0.3763  0.9157
              Bcc     0.7203    96.653    34.488    32.240 -0.6400  0.6711  0.3743
 
              Baa    -0.0083    -4.415    -1.575    -1.473  0.0929 -0.4223  0.9017
    12 H(1)   Bbb    -0.0026    -1.374    -0.490    -0.458  0.2010  0.8949  0.3984
              Bcc     0.0108     5.788     2.065     1.931  0.9752 -0.1442 -0.1680
 
              Baa    -0.0078    -4.160    -1.485    -1.388 -0.2983 -0.5979  0.7440
    13 H(1)   Bbb    -0.0055    -2.914    -1.040    -0.972 -0.5111  0.7584  0.4045
              Bcc     0.0133     7.075     2.524     2.360  0.8061  0.2596  0.5318
 
              Baa    -0.0079    -4.204    -1.500    -1.402  0.3613 -0.0478  0.9312
    14 H(1)   Bbb    -0.0053    -2.832    -1.010    -0.945 -0.5726  0.7768  0.2621
              Bcc     0.0132     7.036     2.510     2.347  0.7359  0.6280 -0.2533
 
              Baa    -0.1238   -66.049   -23.568   -22.032  0.5728  0.7391 -0.3545
    15 H(1)   Bbb    -0.1206   -64.341   -22.958   -21.462  0.4154  0.1111  0.9028
              Bcc     0.2444   130.390    46.526    43.493  0.7066 -0.6644 -0.2434
 
              Baa    -0.0464   -24.767    -8.837    -8.261  0.6114  0.7370 -0.2882
    16 H(1)   Bbb    -0.0044    -2.338    -0.834    -0.780  0.7366 -0.6631 -0.1330
              Bcc     0.0508    27.104     9.672     9.041  0.2891  0.1310  0.9483
 
              Baa    -0.0460   -24.524    -8.751    -8.180  0.7040  0.3156  0.6362
    17 H(1)   Bbb    -0.0059    -3.164    -1.129    -1.055  0.6990 -0.4664 -0.5421
              Bcc     0.0519    27.688     9.880     9.236  0.1256  0.8264 -0.5489
 

 ---------------------------------------------------------------------------------

 No NMR shielding tensors so no spin-rotation constants.
 Leave Link  601 at Mon Jul  4 16:04:24 2022, MaxMem=   939524096 cpu:         2.5
 (Enter /Local/ce_dana/g09/l9999.exe)

 Test job not archived.
 1\1\GINC-TECH-WN194\FTS\UwB97XD\def2SVP\C4H11O2(2)\ALONGD\04-Jul-2022\
 0\\#P opt=(ts, calcfc, noeigentest, maxcycles=100) guess=mix uwb97xd/d
 ef2svp IOp(2/9=2000) scf=xqc\\TS0\\0,2\C,-0.8818862657,-0.5869315668,1
 .9412875546\C,-0.1241739527,0.7262259445,1.8827475984\O,0.6828667078,0
 .8630943239,0.7280782156\O,-0.1199091163,0.9823782657,-0.385041843\H,-
 0.1916597142,-1.4415921076,1.8788075696\H,-1.6018545374,-0.6556237449,
 1.1136955414\H,-1.4402888207,-0.660218345,2.8861326176\H,0.5971785073,
 0.8055094386,2.7103097973\H,-0.8152648602,1.5842121423,1.946591444\C,0
 .2104627133,-1.0777359538,-2.8927169168\C,-0.037919412,-1.308121224,-1
 .4318488833\H,0.3761611122,-2.0351975908,-3.4188684648\H,-0.6454804916
 ,-0.5841264956,-3.3763653473\H,1.1022838614,-0.4548161935,-3.054814666
 8\H,-0.1299003264,-0.0643404369,-0.8566684803\H,0.8096192418,-1.689455
 0606,-0.846363109\H,-0.9891976266,-1.7872435256,-1.1654756672\\Version
 =ES64L-G09RevD.01\State=2-A\HF=-308.9948276\S2=0.758215\S2-1=0.\S2A=0.
 750035\RMSD=2.636e-09\RMSF=7.072e-06\Dipole=-0.3169476,-0.7488004,0.19
 65481\Quadrupole=-1.3922345,-2.1365694,3.5288039,-0.7891508,-0.6078226
 ,1.8373787\PG=C01 [X(C4H11O2)]\\@


 WOE UNTO THEM THAT CALL EVIL GOOD, AND GOOD EVIL      
 Job cpu time:       0 days  0 hours 55 minutes 44.3 seconds.
 File lengths (MBytes):  RWF=     74 Int=      0 D2E=      0 Chk=      3 Scr=      1
 Normal termination of Gaussian 09 at Mon Jul  4 16:04:24 2022.
