 Entering Gaussian System, Link 0=/Local/ce_dana/g09/g09
 Initial command:
 /Local/ce_dana/g09/l1.exe "/storage/ce_dana/alongd/scratch/g09/Gau-182421.inp" -scrdir="/storage/ce_dana/alongd/scratch/g09/"
 Entering Link 1 = /Local/ce_dana/g09/l1.exe PID=    182431.
  
 Copyright (c) 1988,1990,1992,1993,1995,1998,2003,2009,2013,
            Gaussian, Inc.  All Rights Reserved.
  
 This is part of the Gaussian(R) 09 program.  It is based on
 the Gaussian(R) 03 system (copyright 2003, Gaussian, Inc.),
 the Gaussian(R) 98 system (copyright 1998, Gaussian, Inc.),
 the Gaussian(R) 94 system (copyright 1995, Gaussian, Inc.),
 the Gaussian 92(TM) system (copyright 1992, Gaussian, Inc.),
 the Gaussian 90(TM) system (copyright 1990, Gaussian, Inc.),
 the Gaussian 88(TM) system (copyright 1988, Gaussian, Inc.),
 the Gaussian 86(TM) system (copyright 1986, Carnegie Mellon
 University), and the Gaussian 82(TM) system (copyright 1983,
 Carnegie Mellon University). Gaussian is a federally registered
 trademark of Gaussian, Inc.
  
 This software contains proprietary and confidential information,
 including trade secrets, belonging to Gaussian, Inc.
  
 This software is provided under written license and may be
 used, copied, transmitted, or stored only in accord with that
 written license.
  
 The following legend is applicable only to US Government
 contracts under FAR:
  
                    RESTRICTED RIGHTS LEGEND
  
 Use, reproduction and disclosure by the US Government is
 subject to restrictions as set forth in subparagraphs (a)
 and (c) of the Commercial Computer Software - Restricted
 Rights clause in FAR 52.227-19.
  
 Gaussian, Inc.
 340 Quinnipiac St., Bldg. 40, Wallingford CT 06492
  
  
 ---------------------------------------------------------------
 Warning -- This program may not be used in any manner that
 competes with the business of Gaussian, Inc. or will provide
 assistance to any competitor of Gaussian, Inc.  The licensee
 of this program is prohibited from giving any competitor of
 Gaussian, Inc. access to this program.  By using this program,
 the user acknowledges that Gaussian, Inc. is engaged in the
 business of creating and licensing software in the field of
 computational chemistry and represents and warrants to the
 licensee that it is not a competitor of Gaussian, Inc. and that
 it will not use this program in any manner prohibited above.
 ---------------------------------------------------------------
  

 Cite this work as:
 Gaussian 09, Revision D.01,
 M. J. Frisch, G. W. Trucks, H. B. Schlegel, G. E. Scuseria, 
 M. A. Robb, J. R. Cheeseman, G. Scalmani, V. Barone, B. Mennucci, 
 G. A. Petersson, H. Nakatsuji, M. Caricato, X. Li, H. P. Hratchian, 
 A. F. Izmaylov, J. Bloino, G. Zheng, J. L. Sonnenberg, M. Hada, 
 M. Ehara, K. Toyota, R. Fukuda, J. Hasegawa, M. Ishida, T. Nakajima, 
 Y. Honda, O. Kitao, H. Nakai, T. Vreven, J. A. Montgomery, Jr., 
 J. E. Peralta, F. Ogliaro, M. Bearpark, J. J. Heyd, E. Brothers, 
 K. N. Kudin, V. N. Staroverov, T. Keith, R. Kobayashi, J. Normand, 
 K. Raghavachari, A. Rendell, J. C. Burant, S. S. Iyengar, J. Tomasi, 
 M. Cossi, N. Rega, J. M. Millam, M. Klene, J. E. Knox, J. B. Cross, 
 V. Bakken, C. Adamo, J. Jaramillo, R. Gomperts, R. E. Stratmann, 
 O. Yazyev, A. J. Austin, R. Cammi, C. Pomelli, J. W. Ochterski, 
 R. L. Martin, K. Morokuma, V. G. Zakrzewski, G. A. Voth, 
 P. Salvador, J. J. Dannenberg, S. Dapprich, A. D. Daniels, 
 O. Farkas, J. B. Foresman, J. V. Ortiz, J. Cioslowski, 
 and D. J. Fox, Gaussian, Inc., Wallingford CT, 2013.
 
 ******************************************
 Gaussian 09:  ES64L-G09RevD.01 24-Apr-2013
                 4-Jul-2022 
 ******************************************
 %chk=check.chk
 %mem=7168mb
 %NProcShared=10
 Will use up to   10 processors via shared memory.
 ----------------------------------------------------------------------
 #P opt=(ts, calcfc, noeigentest, maxcycles=100) guess=mix uwb97xd/def2
 svp IOp(2/9=2000) scf=xqc
 ----------------------------------------------------------------------
 1/5=1,6=100,10=4,11=1,14=-1,18=20,26=3,38=1/1,3;
 2/9=2000,12=2,17=6,18=5,40=1/2;
 3/5=43,7=101,11=2,16=1,25=1,30=1,71=2,74=-58,116=2,140=1/1,2,3;
 4/13=-1/1;
 5/5=2,8=3,13=1,38=5/2,8;
 8/6=4,10=90,11=11/1;
 11/6=1,8=1,9=11,15=111,16=1/1,2,10;
 10/6=1,13=1/2;
 6/7=2,8=2,9=2,10=2,28=1/1;
 7/10=1,18=20,25=1/1,2,3,16;
 1/5=1,6=100,10=4,11=1,14=-1,18=20,26=3/3(2);
 2/9=2000/2;
 99//99;
 2/9=2000/2;
 3/5=43,7=101,11=2,16=1,25=1,30=1,71=1,74=-58,116=2/1,2,3;
 4/5=5,16=3,69=1/1;
 5/5=2,8=3,13=1,38=5/2,8;
 7//1,2,3,16;
 1/5=1,6=100,11=1,14=-1,18=20,26=3/3(-5);
 2/9=2000/2;
 6/7=2,8=2,9=2,10=2,19=2,28=1/1;
 99/9=1/99;
 Leave Link    1 at Mon Jul  4 15:57:36 2022, MaxMem=   939524096 cpu:         0.1
 (Enter /Local/ce_dana/g09/l101.exe)
 ---
 TS0
 ---
 Symbolic Z-matrix:
 Charge =  0 Multiplicity = 2
 C                     1.56758  -0.51363   0.81121 
 C                     1.29205   0.98251   0.84952 
 O                     0.23662   1.39002  -0.01876 
 O                    -1.00555   0.88816   0.555 
 H                     1.8006   -0.8375   -0.20659 
 H                     0.69963  -1.07093   1.16811 
 H                     2.41705  -0.76118   1.45412 
 H                     2.14398   1.55593   0.47102 
 H                     1.07224   1.32394   1.86697 
 C                    -1.00555  -1.41389  -1.87603 
 C                    -1.00555  -1.41389  -0.34562 
 H                    -1.00555  -2.43229  -2.27445 
 H                    -1.88751  -0.90469  -2.27445 
 H                    -0.12359  -0.90469  -2.27445 
 H                    -1.00555  -0.1918    0.13249 
 H                    -0.12359  -1.92309   0.0528 
 H                    -1.88751  -1.92309   0.0528 
 
 Add virtual bond connecting atoms H15        and O4         Dist= 2.19D+00.
 Add virtual bond connecting atoms H15        and C11        Dist= 2.48D+00.
 NAtoms=     17 NQM=       17 NQMF=       0 NMMI=      0 NMMIF=      0
                NMic=       0 NMicF=      0.
                    Isotopes and Nuclear Properties:
 (Nuclear quadrupole moments (NQMom) in fm**2, nuclear magnetic moments (NMagM)
  in nuclear magnetons)

  Atom         1           2           3           4           5           6           7           8           9          10
 IAtWgt=          12          12          16          16           1           1           1           1           1          12
 AtmWgt=  12.0000000  12.0000000  15.9949146  15.9949146   1.0078250   1.0078250   1.0078250   1.0078250   1.0078250  12.0000000
 NucSpn=           0           0           0           0           1           1           1           1           1           0
 AtZEff=   0.0000000   0.0000000   0.0000000   0.0000000   0.0000000   0.0000000   0.0000000   0.0000000   0.0000000   0.0000000
 NQMom=    0.0000000   0.0000000   0.0000000   0.0000000   0.0000000   0.0000000   0.0000000   0.0000000   0.0000000   0.0000000
 NMagM=    0.0000000   0.0000000   0.0000000   0.0000000   2.7928460   2.7928460   2.7928460   2.7928460   2.7928460   0.0000000
 AtZNuc=   6.0000000   6.0000000   8.0000000   8.0000000   1.0000000   1.0000000   1.0000000   1.0000000   1.0000000   6.0000000

  Atom        11          12          13          14          15          16          17
 IAtWgt=          12           1           1           1           1           1           1
 AtmWgt=  12.0000000   1.0078250   1.0078250   1.0078250   1.0078250   1.0078250   1.0078250
 NucSpn=           0           1           1           1           1           1           1
 AtZEff=   0.0000000   0.0000000   0.0000000   0.0000000   0.0000000   0.0000000   0.0000000
 NQMom=    0.0000000   0.0000000   0.0000000   0.0000000   0.0000000   0.0000000   0.0000000
 NMagM=    0.0000000   2.7928460   2.7928460   2.7928460   2.7928460   2.7928460   2.7928460
 AtZNuc=   6.0000000   1.0000000   1.0000000   1.0000000   1.0000000   1.0000000   1.0000000
 Leave Link  101 at Mon Jul  4 15:57:36 2022, MaxMem=   939524096 cpu:         0.3
 (Enter /Local/ce_dana/g09/l103.exe)

 GradGradGradGradGradGradGradGradGradGradGradGradGradGradGradGradGradGrad
 Stoichiometry    C4H11O2(2)
 Framework group  C1[X(C4H11O2)]
 Deg. of freedom    45
 Full point group                 C1      NOp   1
 RotChk:  IX=2 Diff= 2.56D-15
 Largest Abelian subgroup         C1      NOp   1
 Largest concise Abelian subgroup C1      NOp   1
                         Standard orientation:                         
 ---------------------------------------------------------------------
 Center     Atomic      Atomic             Coordinates (Angstroms)
 Number     Number       Type             X           Y           Z
 ---------------------------------------------------------------------
      1          6           0       -1.492814    1.313812    0.250121
      2          6           0       -1.859680   -0.047992   -0.308503
      3          8           0       -0.742261   -0.880181   -0.562015
      4          8           0       -0.155985   -1.244540    0.630800
      5          1           0       -0.803105    1.844935   -0.423158
      6          1           0       -1.016964    1.211892    1.235277
      7          1           0       -2.397707    1.927369    0.370868
      8          1           0       -2.339001    0.043251   -1.295041
      9          1           0       -2.556280   -0.575720    0.364955
     10          6           0        2.236183    0.327873   -0.749538
     11          6           0        1.864683    0.263481    0.701298
     12          1           0        3.045988    1.060419   -0.918791
     13          1           0        2.582846   -0.647030   -1.121096
     14          1           0        1.377831    0.635030   -1.366524
     15          1           0        0.763641   -0.562953    0.732702
     16          1           0        1.482716    1.191443    1.146590
     17          1           0        2.555771   -0.273912    1.363675
 ---------------------------------------------------------------------
 Rotational constants (GHZ):      4.6047063      1.9181987      1.6929551
 Leave Link  202 at Mon Jul  4 16:23:15 2022, MaxMem=   939524096 cpu:         0.0
 (Enter /Local/ce_dana/g09/l601.exe)
 Copying SCF densities to generalized density rwf, IOpCl= 1 IROHF=0.

 **********************************************************************

            Population analysis using the SCF density.

 **********************************************************************

 Orbital symmetries:
 Alpha Orbitals:
       Occupied  (A) (A) (A) (A) (A) (A) (A) (A) (A) (A) (A) (A)
                 (A) (A) (A) (A) (A) (A) (A) (A) (A) (A) (A) (A)
                 (A) (A)
       Virtual   (A) (A) (A) (A) (A) (A) (A) (A) (A) (A) (A) (A)
                 (A) (A) (A) (A) (A) (A) (A) (A) (A) (A) (A) (A)
                 (A) (A) (A) (A) (A) (A) (A) (A) (A) (A) (A) (A)
                 (A) (A) (A) (A) (A) (A) (A) (A) (A) (A) (A) (A)
                 (A) (A) (A) (A) (A) (A) (A) (A) (A) (A) (A) (A)
                 (A) (A) (A) (A) (A) (A) (A) (A) (A) (A) (A) (A)
                 (A) (A) (A) (A) (A) (A) (A) (A) (A) (A) (A) (A)
                 (A) (A) (A) (A) (A) (A) (A) (A) (A) (A) (A) (A)
                 (A) (A) (A) (A) (A) (A) (A) (A) (A) (A) (A) (A)
                 (A) (A) (A) (A) (A)
 Beta  Orbitals:
       Occupied  (A) (A) (A) (A) (A) (A) (A) (A) (A) (A) (A) (A)
                 (A) (A) (A) (A) (A) (A) (A) (A) (A) (A) (A) (A)
                 (A)
       Virtual   (A) (A) (A) (A) (A) (A) (A) (A) (A) (A) (A) (A)
                 (A) (A) (A) (A) (A) (A) (A) (A) (A) (A) (A) (A)
                 (A) (A) (A) (A) (A) (A) (A) (A) (A) (A) (A) (A)
                 (A) (A) (A) (A) (A) (A) (A) (A) (A) (A) (A) (A)
                 (A) (A) (A) (A) (A) (A) (A) (A) (A) (A) (A) (A)
                 (A) (A) (A) (A) (A) (A) (A) (A) (A) (A) (A) (A)
                 (A) (A) (A) (A) (A) (A) (A) (A) (A) (A) (A) (A)
                 (A) (A) (A) (A) (A) (A) (A) (A) (A) (A) (A) (A)
                 (A) (A) (A) (A) (A) (A) (A) (A) (A) (A) (A) (A)
                 (A) (A) (A) (A) (A) (A)
 The electronic state is 2-A.
 Alpha  occ. eigenvalues --  -19.31112 -19.29941 -10.34611 -10.31547 -10.29882
 Alpha  occ. eigenvalues --  -10.29704  -1.22917  -0.97485  -0.86325  -0.83319
 Alpha  occ. eigenvalues --   -0.71756  -0.69884  -0.62274  -0.57426  -0.55417
 Alpha  occ. eigenvalues --   -0.54280  -0.52859  -0.49976  -0.47724  -0.47242
 Alpha  occ. eigenvalues --   -0.46322  -0.44307  -0.43115  -0.38102  -0.35892
 Alpha  occ. eigenvalues --   -0.30433
 Alpha virt. eigenvalues --    0.13475   0.15587   0.16331   0.17420   0.18302
 Alpha virt. eigenvalues --    0.20226   0.21029   0.21171   0.23556   0.24406
 Alpha virt. eigenvalues --    0.25303   0.27738   0.30401   0.32360   0.35434
 Alpha virt. eigenvalues --    0.46426   0.49654   0.50136   0.50958   0.53332
 Alpha virt. eigenvalues --    0.56069   0.59728   0.60072   0.65306   0.66912
 Alpha virt. eigenvalues --    0.69101   0.70472   0.71664   0.73500   0.73867
 Alpha virt. eigenvalues --    0.75295   0.75648   0.76163   0.77474   0.78688
 Alpha virt. eigenvalues --    0.79193   0.80096   0.80755   0.85499   0.86876
 Alpha virt. eigenvalues --    0.95859   1.04547   1.06323   1.09784   1.14244
 Alpha virt. eigenvalues --    1.17434   1.18054   1.20372   1.22862   1.28275
 Alpha virt. eigenvalues --    1.34752   1.42567   1.43069   1.47508   1.49432
 Alpha virt. eigenvalues --    1.52551   1.56512   1.58896   1.62494   1.62674
 Alpha virt. eigenvalues --    1.69077   1.75802   1.80111   1.81563   1.82606
 Alpha virt. eigenvalues --    1.83459   1.85582   1.86429   1.88260   1.88605
 Alpha virt. eigenvalues --    1.89713   1.91444   1.93247   1.93450   1.94604
 Alpha virt. eigenvalues --    1.97658   1.99398   2.06939   2.11063   2.11599
 Alpha virt. eigenvalues --    2.20869   2.24549   2.25972   2.36279   2.40027
 Alpha virt. eigenvalues --    2.43819   2.44218   2.47327   2.49830   2.54984
 Alpha virt. eigenvalues --    2.55247   2.58483   2.59182   2.63342   2.65976
 Alpha virt. eigenvalues --    2.67109   2.77333   2.85021   2.89136   2.90652
 Alpha virt. eigenvalues --    2.94057   3.00734   3.02851   3.04795   3.05801
 Alpha virt. eigenvalues --    3.06931   3.09608   3.13394   3.27012   3.28031
 Alpha virt. eigenvalues --    3.43440   3.69393   4.00551
  Beta  occ. eigenvalues --  -19.30942 -19.28920 -10.34618 -10.30707 -10.29912
  Beta  occ. eigenvalues --  -10.29696  -1.21665  -0.95802  -0.84987  -0.82942
  Beta  occ. eigenvalues --   -0.70656  -0.68972  -0.60545  -0.57216  -0.53970
  Beta  occ. eigenvalues --   -0.53532  -0.52006  -0.48786  -0.47256  -0.46717
  Beta  occ. eigenvalues --   -0.44842  -0.43962  -0.42832  -0.35874  -0.33860
  Beta virt. eigenvalues --   -0.03593   0.13600   0.16067   0.16518   0.17921
  Beta virt. eigenvalues --    0.18487   0.20493   0.21164   0.21302   0.23689
  Beta virt. eigenvalues --    0.24591   0.25645   0.27913   0.30796   0.32725
  Beta virt. eigenvalues --    0.37447   0.46689   0.49931   0.50595   0.51429
  Beta virt. eigenvalues --    0.53483   0.56510   0.59795   0.60619   0.67036
  Beta virt. eigenvalues --    0.67873   0.69363   0.70807   0.72393   0.73622
  Beta virt. eigenvalues --    0.74231   0.75856   0.76107   0.76313   0.77791
  Beta virt. eigenvalues --    0.79128   0.79298   0.80247   0.80965   0.85759
  Beta virt. eigenvalues --    0.87280   0.96032   1.05371   1.06953   1.10407
  Beta virt. eigenvalues --    1.14735   1.17807   1.18966   1.21374   1.23521
  Beta virt. eigenvalues --    1.28703   1.35552   1.42643   1.43334   1.48044
  Beta virt. eigenvalues --    1.50012   1.52695   1.57297   1.59086   1.62618
  Beta virt. eigenvalues --    1.62926   1.69654   1.78340   1.80655   1.81757
  Beta virt. eigenvalues --    1.82677   1.83605   1.85686   1.86642   1.88508
  Beta virt. eigenvalues --    1.88861   1.89868   1.91925   1.93416   1.93769
  Beta virt. eigenvalues --    1.94637   1.97736   1.99597   2.07633   2.11598
  Beta virt. eigenvalues --    2.11993   2.21019   2.25128   2.26489   2.38050
  Beta virt. eigenvalues --    2.40785   2.44035   2.45574   2.47553   2.50580
  Beta virt. eigenvalues --    2.55260   2.55685   2.59133   2.59852   2.64098
  Beta virt. eigenvalues --    2.66289   2.67823   2.77434   2.85427   2.89998
  Beta virt. eigenvalues --    2.92573   2.95579   3.01190   3.02907   3.05020
  Beta virt. eigenvalues --    3.05922   3.07659   3.10502   3.13813   3.27537
  Beta virt. eigenvalues --    3.29684   3.43707   3.71676   4.02130
          Condensed to atoms (all electrons):
               1          2          3          4          5          6
     1  C    4.692427   0.400885  -0.047655  -0.005219   0.384721   0.390015
     2  C    0.400885   4.488963   0.277902  -0.048155  -0.015620  -0.022572
     3  O   -0.047655   0.277902   7.975538   0.096658   0.001457  -0.005500
     4  O   -0.005219  -0.048155   0.096658   7.988851  -0.000930   0.013743
     5  H    0.384721  -0.015620   0.001457  -0.000930   0.627273  -0.027054
     6  H    0.390015  -0.022572  -0.005500   0.013743  -0.027054   0.616168
     7  H    0.372266  -0.009917   0.003624   0.000126  -0.016680  -0.017071
     8  H   -0.022672   0.378886  -0.020024   0.005654  -0.009266   0.007650
     9  H   -0.049712   0.402195  -0.026942   0.001392   0.007438  -0.009271
    10  C   -0.001294   0.000294   0.000397   0.003647  -0.000476  -0.000428
    11  C   -0.000167  -0.002561   0.000149  -0.089459  -0.000923   0.002787
    12  H    0.000046  -0.000041   0.000149  -0.000064  -0.000023  -0.000008
    13  H    0.000025   0.000076  -0.000406   0.001503  -0.000036  -0.000026
    14  H   -0.001819   0.000080   0.011533  -0.001522   0.004408   0.000044
    15  H    0.003226   0.001479  -0.027376   0.218352  -0.000081  -0.000278
    16  H    0.001764   0.000079  -0.000158  -0.000119   0.000560   0.000301
    17  H    0.000016   0.000047   0.000284   0.001142   0.000097   0.000001
               7          8          9         10         11         12
     1  C    0.372266  -0.022672  -0.049712  -0.001294  -0.000167   0.000046
     2  C   -0.009917   0.378886   0.402195   0.000294  -0.002561  -0.000041
     3  O    0.003624  -0.020024  -0.026942   0.000397   0.000149   0.000149
     4  O    0.000126   0.005654   0.001392   0.003647  -0.089459  -0.000064
     5  H   -0.016680  -0.009266   0.007438  -0.000476  -0.000923  -0.000023
     6  H   -0.017071   0.007650  -0.009271  -0.000428   0.002787  -0.000008
     7  H    0.625870  -0.003261  -0.000971   0.000009   0.000170   0.000001
     8  H   -0.003261   0.647604  -0.026154  -0.000032   0.000184  -0.000002
     9  H   -0.000971  -0.026154   0.663090  -0.000001  -0.000298   0.000001
    10  C    0.000009  -0.000032  -0.000001   4.566263   0.396866   0.389196
    11  C    0.000170   0.000184  -0.000298   0.396866   5.027283  -0.023712
    12  H    0.000001  -0.000002   0.000001   0.389196  -0.023712   0.628142
    13  H   -0.000000  -0.000019  -0.000001   0.397745  -0.023542  -0.021952
    14  H    0.000005   0.000029   0.000223   0.395529  -0.028024  -0.021776
    15  H   -0.000153  -0.000711   0.000516  -0.010888   0.197687   0.002548
    16  H   -0.000034  -0.000047   0.000024  -0.024389   0.375224  -0.005826
    17  H   -0.000002   0.000002   0.000015  -0.020599   0.377505  -0.002968
              13         14         15         16         17
     1  C    0.000025  -0.001819   0.003226   0.001764   0.000016
     2  C    0.000076   0.000080   0.001479   0.000079   0.000047
     3  O   -0.000406   0.011533  -0.027376  -0.000158   0.000284
     4  O    0.001503  -0.001522   0.218352  -0.000119   0.001142
     5  H   -0.000036   0.004408  -0.000081   0.000560   0.000097
     6  H   -0.000026   0.000044  -0.000278   0.000301   0.000001
     7  H   -0.000000   0.000005  -0.000153  -0.000034  -0.000002
     8  H   -0.000019   0.000029  -0.000711  -0.000047   0.000002
     9  H   -0.000001   0.000223   0.000516   0.000024   0.000015
    10  C    0.397745   0.395529  -0.010888  -0.024389  -0.020599
    11  C   -0.023542  -0.028024   0.197687   0.375224   0.377505
    12  H   -0.021952  -0.021776   0.002548  -0.005826  -0.002968
    13  H    0.613273  -0.020404  -0.002726   0.006566  -0.008206
    14  H   -0.020404   0.614258  -0.005081  -0.005778   0.006556
    15  H   -0.002726  -0.005081   0.460255  -0.005117  -0.004027
    16  H    0.006566  -0.005778  -0.005117   0.616796  -0.024097
    17  H   -0.008206   0.006556  -0.004027  -0.024097   0.605194
          Atomic-Atomic Spin Densities.
               1          2          3          4          5          6
     1  C    0.014299  -0.000499  -0.003718   0.004116   0.000403  -0.001048
     2  C   -0.000499  -0.006810   0.004308  -0.003906  -0.000309   0.000449
     3  O   -0.003718   0.004308   0.083916  -0.041390  -0.000000   0.000463
     4  O    0.004116  -0.003906  -0.041390   0.488967  -0.000130  -0.001169
     5  H    0.000403  -0.000309  -0.000000  -0.000130  -0.000431   0.000140
     6  H   -0.001048   0.000449   0.000463  -0.001169   0.000140  -0.000400
     7  H   -0.002282   0.000749   0.000068  -0.000080   0.000010   0.000439
     8  H   -0.001406   0.001066  -0.000054  -0.000065   0.000066  -0.000049
     9  H   -0.003934  -0.001154  -0.001121   0.000860  -0.000009   0.000394
    10  C    0.000616  -0.000389  -0.002482   0.006090  -0.000103  -0.000094
    11  C   -0.004726   0.002218   0.012332  -0.082822   0.000353   0.001219
    12  H   -0.000081   0.000039   0.000159  -0.000374   0.000038   0.000023
    13  H    0.000035  -0.000027  -0.000274   0.000662  -0.000008  -0.000003
    14  H    0.000559  -0.000364  -0.001574   0.000864  -0.000191  -0.000048
    15  H   -0.002637   0.001958   0.005898  -0.017660   0.000286   0.000180
    16  H    0.000875  -0.000334  -0.000630   0.003121  -0.000161  -0.000234
    17  H    0.000088  -0.000045  -0.000188   0.002284  -0.000012  -0.000038
               7          8          9         10         11         12
     1  C   -0.002282  -0.001406  -0.003934   0.000616  -0.004726  -0.000081
     2  C    0.000749   0.001066  -0.001154  -0.000389   0.002218   0.000039
     3  O    0.000068  -0.000054  -0.001121  -0.002482   0.012332   0.000159
     4  O   -0.000080  -0.000065   0.000860   0.006090  -0.082822  -0.000374
     5  H    0.000010   0.000066  -0.000009  -0.000103   0.000353   0.000038
     6  H    0.000439  -0.000049   0.000394  -0.000094   0.001219   0.000023
     7  H    0.001164   0.000120   0.000478  -0.000015   0.000133   0.000002
     8  H    0.000120  -0.000905   0.000970  -0.000014   0.000055   0.000002
     9  H    0.000478   0.000970   0.005963  -0.000047   0.000547   0.000003
    10  C   -0.000015  -0.000014  -0.000047  -0.020813  -0.041504   0.005418
    11  C    0.000133   0.000055   0.000547  -0.041504   0.733677  -0.012877
    12  H    0.000002   0.000002   0.000003   0.005418  -0.012877   0.062320
    13  H   -0.000001  -0.000001  -0.000004   0.004324  -0.004376  -0.004501
    14  H   -0.000018  -0.000021  -0.000036   0.007730  -0.005857  -0.005062
    15  H    0.000055   0.000027   0.000619   0.000194   0.048091   0.000067
    16  H   -0.000067  -0.000002  -0.000061   0.002446  -0.008831  -0.002430
    17  H   -0.000002  -0.000001  -0.000011   0.001412  -0.006846  -0.001851
              13         14         15         16         17
     1  C    0.000035   0.000559  -0.002637   0.000875   0.000088
     2  C   -0.000027  -0.000364   0.001958  -0.000334  -0.000045
     3  O   -0.000274  -0.001574   0.005898  -0.000630  -0.000188
     4  O    0.000662   0.000864  -0.017660   0.003121   0.002284
     5  H   -0.000008  -0.000191   0.000286  -0.000161  -0.000012
     6  H   -0.000003  -0.000048   0.000180  -0.000234  -0.000038
     7  H   -0.000001  -0.000018   0.000055  -0.000067  -0.000002
     8  H   -0.000001  -0.000021   0.000027  -0.000002  -0.000001
     9  H   -0.000004  -0.000036   0.000619  -0.000061  -0.000011
    10  C    0.004324   0.007730   0.000194   0.002446   0.001412
    11  C   -0.004376  -0.005857   0.048091  -0.008831  -0.006846
    12  H   -0.004501  -0.005062   0.000067  -0.002430  -0.001851
    13  H    0.005646   0.001445  -0.000143   0.000156   0.001031
    14  H    0.001445   0.010999   0.000796   0.000929   0.000036
    15  H   -0.000143   0.000796  -0.068861   0.001123   0.001340
    16  H    0.000156   0.000929   0.001123  -0.018462   0.003934
    17  H    0.001031   0.000036   0.001340   0.003934  -0.019292
 Mulliken charges and spin densities:
               1          2
     1  C   -0.116854   0.000660
     2  C    0.147979  -0.003052
     3  O   -0.239628   0.055713
     4  O   -0.185600   0.359368
     5  H    0.045137  -0.000059
     6  H    0.051499   0.000225
     7  H    0.046020   0.000754
     8  H    0.042180  -0.000212
     9  H    0.038455   0.003457
    10  C   -0.091840  -0.037229
    11  C   -0.209169   0.630786
    12  H    0.056290   0.040896
    13  H    0.058131   0.003961
    14  H    0.051739   0.010186
    15  H    0.172374  -0.028666
    16  H    0.064249  -0.018628
    17  H    0.069039  -0.018160
 Sum of Mulliken charges =  -0.00000   1.00000
 Mulliken charges and spin densities with hydrogens summed into heavy atoms:
               1          2
     1  C    0.025802   0.001580
     2  C    0.228615   0.000193
     3  O   -0.239628   0.055713
     4  O   -0.013226   0.330702
    10  C    0.074319   0.017814
    11  C   -0.075881   0.593998
 Electronic spatial extent (au):  <R**2>=            810.3737
 Charge=             -0.0000 electrons
 Dipole moment (field-independent basis, Debye):
    X=              0.0874    Y=              2.2150    Z=              0.0190  Tot=              2.2168
 Quadrupole moment (field-independent basis, Debye-Ang):
   XX=            -33.1332   YY=            -41.6435   ZZ=            -39.2226
   XY=             -1.2152   XZ=              0.8717   YZ=             -0.0250
 Traceless Quadrupole moment (field-independent basis, Debye-Ang):
   XX=              4.8666   YY=             -3.6437   ZZ=             -1.2229
   XY=             -1.2152   XZ=              0.8717   YZ=             -0.0250
 Octapole moment (field-independent basis, Debye-Ang**2):
  XXX=             -7.8418  YYY=             -3.9224  ZZZ=             -0.0287  XYY=             -0.1544
  XXY=             -2.9225  XXZ=             -0.7624  XZZ=             -0.8551  YZZ=             -1.2926
  YYZ=             -0.6321  XYZ=             -0.2591
 Hexadecapole moment (field-independent basis, Debye-Ang**3):
 XXXX=           -664.9476 YYYY=           -233.9744 ZZZZ=           -146.7001 XXXY=             -0.5213
 XXXZ=              3.4196 YYYX=              1.5987 YYYZ=              0.1516 ZZZX=              6.5223
 ZZZY=             -1.5651 XXYY=           -147.8107 XXZZ=           -135.5375 YYZZ=            -63.5280
 XXYZ=             -2.9810 YYXZ=             -1.2995 ZZXY=             -1.1423
 N-N= 2.601782717982D+02 E-N=-1.241440158627D+03  KE= 3.061005756594D+02
                          Isotropic Fermi Contact Couplings
        Atom                 a.u.       MegaHertz       Gauss      10(-4) cm-1
     1  C(13)              0.00612       6.87531       2.45328       2.29336
     2  C(13)             -0.00328      -3.68887      -1.31628      -1.23048
     3  O(17)              0.03272     -19.83365      -7.07714      -6.61579
     4  O(17)              0.16015     -97.08081     -34.64085     -32.38267
     5  H(1)              -0.00002      -0.10730      -0.03829      -0.03579
     6  H(1)              -0.00009      -0.38073      -0.13585      -0.12700
     7  H(1)               0.00015       0.69133       0.24668       0.23060
     8  H(1)              -0.00005      -0.24448      -0.08724      -0.08155
     9  H(1)               0.00039       1.73867       0.62040       0.57996
    10  C(13)             -0.01760     -19.78296      -7.05905      -6.59889
    11  C(13)              0.20031     225.19089      80.35371      75.11560
    12  H(1)               0.01937      86.57904      30.89355      28.87966
    13  H(1)               0.00187       8.36272       2.98403       2.78950
    14  H(1)               0.00589      26.33436       9.39675       8.78420
    15  H(1)              -0.02426    -108.45433     -38.69920     -36.17647
    16  H(1)              -0.00533     -23.84283      -8.50772      -7.95311
    17  H(1)              -0.00496     -22.16881      -7.91038      -7.39472
 --------------------------------------------------------
       Center         ----  Spin Dipole Couplings  ----
                      3XX-RR        3YY-RR        3ZZ-RR
 --------------------------------------------------------
     1   Atom       -0.000041      0.005988     -0.005947
     2   Atom        0.005838     -0.001842     -0.003996
     3   Atom        0.095857      0.118739     -0.214596
     4   Atom        0.360171      0.442681     -0.802851
     5   Atom        0.000327      0.002859     -0.003186
     6   Atom        0.002381      0.002130     -0.004512
     7   Atom        0.001452      0.000644     -0.002096
     8   Atom        0.003021     -0.001808     -0.001212
     9   Atom        0.008197     -0.003822     -0.004375
    10   Atom        0.010640     -0.010978      0.000338
    11   Atom        0.341679      0.018097     -0.359776
    12   Atom       -0.000145     -0.001831      0.001977
    13   Atom       -0.000829     -0.004334      0.005163
    14   Atom       -0.005480     -0.005340      0.010820
    15   Atom        0.116957      0.001354     -0.118311
    16   Atom       -0.002617      0.032894     -0.030277
    17   Atom        0.013919     -0.002804     -0.011114
 --------------------------------------------------------
                        XY            XZ            YZ
 --------------------------------------------------------
     1   Atom       -0.004757      0.000190      0.001261
     2   Atom       -0.006350      0.004156     -0.001099
     3   Atom        0.266076      0.035793      0.067313
     4   Atom        1.232396     -0.122248     -0.137473
     5   Atom       -0.003515      0.001849     -0.002528
     6   Atom       -0.005369     -0.002106      0.003096
     7   Atom       -0.002569      0.000112     -0.000027
     8   Atom       -0.002364      0.003747     -0.001720
     9   Atom       -0.002812      0.000371     -0.000086
    10   Atom        0.013891     -0.014092     -0.006079
    11   Atom        0.510574      0.003853      0.002206
    12   Atom        0.006927     -0.005955     -0.003391
    13   Atom       -0.002098     -0.007831      0.005611
    14   Atom        0.000606      0.002472     -0.006733
    15   Atom        0.171268      0.017680      0.010421
    16   Atom       -0.011861     -0.014543      0.031944
    17   Atom       -0.010312      0.034394     -0.030781
 --------------------------------------------------------


 ---------------------------------------------------------------------------------
              Anisotropic Spin Dipole Couplings in Principal Axis System
 ---------------------------------------------------------------------------------

       Atom             a.u.   MegaHertz   Gauss  10(-4) cm-1        Axes

              Baa    -0.0062    -0.830    -0.296    -0.277 -0.1552 -0.1616  0.9746
     1 C(13)  Bbb    -0.0025    -0.334    -0.119    -0.111  0.8653  0.4538  0.2130
              Bcc     0.0087     1.164     0.415     0.388 -0.4767  0.8763  0.0694
 
              Baa    -0.0064    -0.853    -0.304    -0.284 -0.5147 -0.5679  0.6423
     2 C(13)  Bbb    -0.0043    -0.571    -0.204    -0.190  0.1366  0.6853  0.7153
              Bcc     0.0106     1.424     0.508     0.475  0.8464 -0.4559  0.2752
 
              Baa    -0.2296    16.614     5.928     5.542  0.1218 -0.2772  0.9531
     3 O(17)  Bbb    -0.1530    11.074     3.952     3.694  0.7200 -0.6362 -0.2771
              Bcc     0.3826   -27.688    -9.880    -9.236  0.6832  0.7200  0.1221
 
              Baa    -0.8349    60.412    21.556    20.151 -0.6427  0.6615  0.3864
     4 O(17)  Bbb    -0.8134    58.858    21.002    19.633  0.3265 -0.2197  0.9193
              Bcc     1.6483  -119.269   -42.558   -39.784  0.6931  0.7170 -0.0748
 
              Baa    -0.0042    -2.249    -0.803    -0.750 -0.2014  0.2394  0.9498
     5 H(1)   Bbb    -0.0021    -1.143    -0.408    -0.381  0.8119  0.5833  0.0251
              Bcc     0.0064     3.392     1.210     1.131 -0.5480  0.7762 -0.3118
 
              Baa    -0.0057    -3.058    -1.091    -1.020 -0.0016 -0.3674  0.9301
     6 H(1)   Bbb    -0.0029    -1.559    -0.556    -0.520  0.7361  0.6291  0.2498
              Bcc     0.0087     4.617     1.647     1.540 -0.6769  0.6850  0.2694
 
              Baa    -0.0021    -1.122    -0.400    -0.374 -0.0755 -0.0610  0.9953
     7 H(1)   Bbb    -0.0015    -0.826    -0.295    -0.275  0.6454  0.7578  0.0954
              Bcc     0.0037     1.948     0.695     0.650  0.7601 -0.6496  0.0179
 
              Baa    -0.0035    -1.876    -0.670    -0.626 -0.3593  0.3668  0.8581
     8 H(1)   Bbb    -0.0027    -1.462    -0.522    -0.488  0.4685  0.8661 -0.1741
              Bcc     0.0063     3.339     1.191     1.114  0.8071 -0.3395  0.4831
 
              Baa    -0.0044    -2.373    -0.847    -0.792  0.2150  0.9747  0.0618
     9 H(1)   Bbb    -0.0044    -2.340    -0.835    -0.781 -0.0415 -0.0541  0.9977
              Bcc     0.0088     4.713     1.682     1.572  0.9757 -0.2170  0.0288
 
              Baa    -0.0178    -2.391    -0.853    -0.797 -0.4629  0.8841 -0.0633
    10 C(13)  Bbb    -0.0086    -1.157    -0.413    -0.386  0.4244  0.2837  0.8599
              Bcc     0.0264     3.548     1.266     1.183  0.7782  0.3712 -0.5066
 
              Baa    -0.3599   -48.289   -17.231   -16.107 -0.0735  0.0935  0.9929
    11 C(13)  Bbb    -0.3556   -47.725   -17.029   -15.919 -0.5862  0.8014 -0.1188
              Bcc     0.7155    96.013    34.260    32.027  0.8069  0.5907  0.0041
 
              Baa    -0.0082    -4.401    -1.570    -1.468  0.7162 -0.6702  0.1948
    12 H(1)   Bbb    -0.0028    -1.479    -0.528    -0.493  0.3051  0.5516  0.7763
              Bcc     0.0110     5.880     2.098     1.961  0.6277  0.4965 -0.5995
 
              Baa    -0.0077    -4.085    -1.458    -1.363 -0.4469  0.6866 -0.5735
    13 H(1)   Bbb    -0.0049    -2.619    -0.934    -0.873  0.7317  0.6494  0.2072
              Bcc     0.0126     6.704     2.392     2.236 -0.5147  0.3271  0.7925
 
              Baa    -0.0085    -4.529    -1.616    -1.511 -0.4493  0.8241  0.3449
    14 H(1)   Bbb    -0.0050    -2.672    -0.953    -0.891  0.8864  0.4594  0.0570
              Bcc     0.0135     7.201     2.569     2.402  0.1115 -0.3313  0.9369
 
              Baa    -0.1227   -65.449   -23.354   -21.831 -0.5280  0.6872  0.4990
    15 H(1)   Bbb    -0.1184   -63.178   -22.543   -21.074  0.2514 -0.4348  0.8647
              Bcc     0.2411   128.627    45.897    42.905  0.8112  0.5820  0.0568
 
              Baa    -0.0456   -24.316    -8.677    -8.111  0.2160 -0.3400  0.9153
    16 H(1)   Bbb    -0.0058    -3.099    -1.106    -1.034  0.9301  0.3568 -0.0870
              Bcc     0.0514    27.415     9.782     9.145 -0.2970  0.8701  0.3933
 
              Baa    -0.0459   -24.469    -8.731    -8.162 -0.3745  0.4782  0.7944
    17 H(1)   Bbb    -0.0057    -3.062    -1.092    -1.021  0.6471  0.7484 -0.1454
              Bcc     0.0516    27.531     9.824     9.183  0.6641 -0.4596  0.5898
 

 ---------------------------------------------------------------------------------

 No NMR shielding tensors so no spin-rotation constants.
 Leave Link  601 at Mon Jul  4 16:23:16 2022, MaxMem=   939524096 cpu:         2.4
 (Enter /Local/ce_dana/g09/l9999.exe)

 Test job not archived.
 1\1\GINC-TECH-WN177\FTS\UwB97XD\def2SVP\C4H11O2(2)\ALONGD\04-Jul-2022\
 0\\#P opt=(ts, calcfc, noeigentest, maxcycles=100) guess=mix uwb97xd/d
 ef2svp IOp(2/9=2000) scf=xqc\\TS0\\0,2\C,1.7701606608,-0.4512501739,0.
 9071039789\C,1.3401152271,0.9885179853,0.6990366837\O,0.1498584343,1.1
 246337361,-0.0560739373\O,-0.9174594613,0.6433237996,0.6708791236\H,1.
 9022875581,-0.9677890825,-0.0556128675\H,1.0229859545,-0.9956891016,1.
 5009656375\H,2.7262105986,-0.4838327805,1.4500316037\H,2.0832067829,1.
 543433879,0.1064038432\H,1.2147157321,1.5060583244,1.6653295355\C,-0.9
 862879226,-1.3015814522,-1.8416670254\C,-1.3158538118,-1.6005027981,-0
 .4101943179\H,-0.9900798359,-2.2241598559,-2.4498516945\H,-1.711100026
 2,-0.6042929875,-2.2856286282\H,0.0128957739,-0.8488212349,-1.93346715
 58\H,-1.1276126763,-0.4004801289,0.2384840198\H,-0.6250869853,-2.27107
 09246,0.1175144901\H,-2.3691734131,-1.806593434,-0.1795774195\\Version
 =ES64L-G09RevD.01\State=2-A\HF=-308.9959804\S2=0.758101\S2-1=0.\S2A=0.
 750034\RMSD=6.339e-09\RMSF=1.132e-05\Dipole=0.5381314,-0.6837903,-0.05
 94261\Quadrupole=1.4604439,-1.1604711,-0.2999728,2.6253059,1.6659662,0
 .6421755\PG=C01 [X(C4H11O2)]\\@


 EVANS BOLDLY PUT 50 ATM. OF ETHYLENE IN A CELL WITH 25 ATM. OF OXYGEN.
 THE APPARATUS SUBSEQUENTLY BLEW UP, BUT LUCKILY NOT BEFORE HE
 OBTAINED THE SPECTRA SHOWN IN FIGURE 8.
 A.J.MERER AND R.S.MULLIKEN, CHEM.REV. 69, 645 (1969)
 Job cpu time:       0 days  3 hours 21 minutes 32.0 seconds.
 File lengths (MBytes):  RWF=     74 Int=      0 D2E=      0 Chk=      3 Scr=      1
 Normal termination of Gaussian 09 at Mon Jul  4 16:23:16 2022.
