 Entering Gaussian System, Link 0=/Local/ce_dana/g09/g09
 Initial command:
 /Local/ce_dana/g09/l1.exe "/storage/ce_dana/alongd/scratch/g09/Gau-22869.inp" -scrdir="/storage/ce_dana/alongd/scratch/g09/"
 Entering Link 1 = /Local/ce_dana/g09/l1.exe PID=     22870.
  
 Copyright (c) 1988,1990,1992,1993,1995,1998,2003,2009,2013,
            Gaussian, Inc.  All Rights Reserved.
  
 This is part of the Gaussian(R) 09 program.  It is based on
 the Gaussian(R) 03 system (copyright 2003, Gaussian, Inc.),
 the Gaussian(R) 98 system (copyright 1998, Gaussian, Inc.),
 the Gaussian(R) 94 system (copyright 1995, Gaussian, Inc.),
 the Gaussian 92(TM) system (copyright 1992, Gaussian, Inc.),
 the Gaussian 90(TM) system (copyright 1990, Gaussian, Inc.),
 the Gaussian 88(TM) system (copyright 1988, Gaussian, Inc.),
 the Gaussian 86(TM) system (copyright 1986, Carnegie Mellon
 University), and the Gaussian 82(TM) system (copyright 1983,
 Carnegie Mellon University). Gaussian is a federally registered
 trademark of Gaussian, Inc.
  
 This software contains proprietary and confidential information,
 including trade secrets, belonging to Gaussian, Inc.
  
 This software is provided under written license and may be
 used, copied, transmitted, or stored only in accord with that
 written license.
  
 The following legend is applicable only to US Government
 contracts under FAR:
  
                    RESTRICTED RIGHTS LEGEND
  
 Use, reproduction and disclosure by the US Government is
 subject to restrictions as set forth in subparagraphs (a)
 and (c) of the Commercial Computer Software - Restricted
 Rights clause in FAR 52.227-19.
  
 Gaussian, Inc.
 340 Quinnipiac St., Bldg. 40, Wallingford CT 06492
  
  
 ---------------------------------------------------------------
 Warning -- This program may not be used in any manner that
 competes with the business of Gaussian, Inc. or will provide
 assistance to any competitor of Gaussian, Inc.  The licensee
 of this program is prohibited from giving any competitor of
 Gaussian, Inc. access to this program.  By using this program,
 the user acknowledges that Gaussian, Inc. is engaged in the
 business of creating and licensing software in the field of
 computational chemistry and represents and warrants to the
 licensee that it is not a competitor of Gaussian, Inc. and that
 it will not use this program in any manner prohibited above.
 ---------------------------------------------------------------
  

 Cite this work as:
 Gaussian 09, Revision D.01,
 M. J. Frisch, G. W. Trucks, H. B. Schlegel, G. E. Scuseria, 
 M. A. Robb, J. R. Cheeseman, G. Scalmani, V. Barone, B. Mennucci, 
 G. A. Petersson, H. Nakatsuji, M. Caricato, X. Li, H. P. Hratchian, 
 A. F. Izmaylov, J. Bloino, G. Zheng, J. L. Sonnenberg, M. Hada, 
 M. Ehara, K. Toyota, R. Fukuda, J. Hasegawa, M. Ishida, T. Nakajima, 
 Y. Honda, O. Kitao, H. Nakai, T. Vreven, J. A. Montgomery, Jr., 
 J. E. Peralta, F. Ogliaro, M. Bearpark, J. J. Heyd, E. Brothers, 
 K. N. Kudin, V. N. Staroverov, T. Keith, R. Kobayashi, J. Normand, 
 K. Raghavachari, A. Rendell, J. C. Burant, S. S. Iyengar, J. Tomasi, 
 M. Cossi, N. Rega, J. M. Millam, M. Klene, J. E. Knox, J. B. Cross, 
 V. Bakken, C. Adamo, J. Jaramillo, R. Gomperts, R. E. Stratmann, 
 O. Yazyev, A. J. Austin, R. Cammi, C. Pomelli, J. W. Ochterski, 
 R. L. Martin, K. Morokuma, V. G. Zakrzewski, G. A. Voth, 
 P. Salvador, J. J. Dannenberg, S. Dapprich, A. D. Daniels, 
 O. Farkas, J. B. Foresman, J. V. Ortiz, J. Cioslowski, 
 and D. J. Fox, Gaussian, Inc., Wallingford CT, 2013.
 
 ******************************************
 Gaussian 09:  ES64L-G09RevD.01 24-Apr-2013
                 4-Jul-2022 
 ******************************************
 %chk=check.chk
 %mem=7168mb
 %NProcShared=10
 Will use up to   10 processors via shared memory.
 ----------------------------------------------------------------------
 #P opt=(ts, calcfc, noeigentest, maxcycles=100) guess=mix uwb97xd/def2
 svp IOp(2/9=2000) scf=xqc
 ----------------------------------------------------------------------
 1/5=1,6=100,10=4,11=1,14=-1,18=20,26=3,38=1/1,3;
 2/9=2000,12=2,17=6,18=5,40=1/2;
 3/5=43,7=101,11=2,16=1,25=1,30=1,71=2,74=-58,116=2,140=1/1,2,3;
 4/13=-1/1;
 5/5=2,8=3,13=1,38=5/2,8;
 8/6=4,10=90,11=11/1;
 11/6=1,8=1,9=11,15=111,16=1/1,2,10;
 10/6=1,13=1/2;
 6/7=2,8=2,9=2,10=2,28=1/1;
 7/10=1,18=20,25=1/1,2,3,16;
 1/5=1,6=100,10=4,11=1,14=-1,18=20,26=3/3(2);
 2/9=2000/2;
 99//99;
 2/9=2000/2;
 3/5=43,7=101,11=2,16=1,25=1,30=1,71=1,74=-58,116=2/1,2,3;
 4/5=5,16=3,69=1/1;
 5/5=2,8=3,13=1,38=5/2,8;
 7//1,2,3,16;
 1/5=1,6=100,11=1,14=-1,18=20,26=3/3(-5);
 2/9=2000/2;
 6/7=2,8=2,9=2,10=2,19=2,28=1/1;
 99/9=1/99;
 Leave Link    1 at Mon Jul  4 15:57:57 2022, MaxMem=   939524096 cpu:         0.0
 (Enter /Local/ce_dana/g09/l101.exe)
 ---
 TS0
 ---
 Symbolic Z-matrix:
 Charge =  0 Multiplicity = 2
 C                     1.90412   0.08245   0.30316 
 C                     1.15157   1.40511   0.29418 
 O                    -0.20566   1.28569  -0.12722 
 O                    -0.92283   0.59255   0.93546 
 H                     1.87943  -0.38268  -0.68585 
 H                     1.46067  -0.6042    1.02646 
 H                     2.94951   0.2408    0.58301 
 H                     1.56811   2.09728  -0.44422 
 H                     1.18153   1.89029   1.2759 
 C                    -0.92283  -1.7095   -1.49556 
 C                    -0.92283  -1.7095    0.03484 
 H                    -0.92283  -2.7279   -1.89399 
 H                    -1.80479  -1.20029  -1.89399 
 H                    -0.04087  -1.2003   -1.89399 
 H                    -0.92283  -0.48741   0.51295 
 H                    -0.04087  -2.2187    0.43327 
 H                    -1.80479  -2.2187    0.43327 
 
 Add virtual bond connecting atoms H15        and O4         Dist= 2.19D+00.
 Add virtual bond connecting atoms H15        and C11        Dist= 2.48D+00.
 NAtoms=     17 NQM=       17 NQMF=       0 NMMI=      0 NMMIF=      0
                NMic=       0 NMicF=      0.
                    Isotopes and Nuclear Properties:
 (Nuclear quadrupole moments (NQMom) in fm**2, nuclear magnetic moments (NMagM)
  in nuclear magnetons)

  Atom         1           2           3           4           5           6           7           8           9          10
 IAtWgt=          12          12          16          16           1           1           1           1           1          12
 AtmWgt=  12.0000000  12.0000000  15.9949146  15.9949146   1.0078250   1.0078250   1.0078250   1.0078250   1.0078250  12.0000000
 NucSpn=           0           0           0           0           1           1           1           1           1           0
 AtZEff=   0.0000000   0.0000000   0.0000000   0.0000000   0.0000000   0.0000000   0.0000000   0.0000000   0.0000000   0.0000000
 NQMom=    0.0000000   0.0000000   0.0000000   0.0000000   0.0000000   0.0000000   0.0000000   0.0000000   0.0000000   0.0000000
 NMagM=    0.0000000   0.0000000   0.0000000   0.0000000   2.7928460   2.7928460   2.7928460   2.7928460   2.7928460   0.0000000
 AtZNuc=   6.0000000   6.0000000   8.0000000   8.0000000   1.0000000   1.0000000   1.0000000   1.0000000   1.0000000   6.0000000

  Atom        11          12          13          14          15          16          17
 IAtWgt=          12           1           1           1           1           1           1
 AtmWgt=  12.0000000   1.0078250   1.0078250   1.0078250   1.0078250   1.0078250   1.0078250
 NucSpn=           0           1           1           1           1           1           1
 AtZEff=   0.0000000   0.0000000   0.0000000   0.0000000   0.0000000   0.0000000   0.0000000
 NQMom=    0.0000000   0.0000000   0.0000000   0.0000000   0.0000000   0.0000000   0.0000000
 NMagM=    0.0000000   2.7928460   2.7928460   2.7928460   2.7928460   2.7928460   2.7928460
 AtZNuc=   6.0000000   1.0000000   1.0000000   1.0000000   1.0000000   1.0000000   1.0000000
 Leave Link  101 at Mon Jul  4 15:57:58 2022, MaxMem=   939524096 cpu:         0.3
 (Enter /Local/ce_dana/g09/l103.exe)

 GradGradGradGradGradGradGradGradGradGradGradGradGradGradGradGradGradGrad
 Stoichiometry    C4H11O2(2)
 Framework group  C1[X(C4H11O2)]
 Deg. of freedom    45
 Full point group                 C1      NOp   1
 RotChk:  IX=0 Diff= 9.57D-16
 Largest Abelian subgroup         C1      NOp   1
 Largest concise Abelian subgroup C1      NOp   1
                         Standard orientation:                         
 ---------------------------------------------------------------------
 Center     Atomic      Atomic             Coordinates (Angstroms)
 Number     Number       Type             X           Y           Z
 ---------------------------------------------------------------------
      1          6           0        1.492898    1.313816   -0.250067
      2          6           0        1.859712   -0.048043    0.308448
      3          8           0        0.742268   -0.880191    0.561969
      4          8           0        0.155889   -1.244545   -0.630788
      5          1           0        0.803452    1.845050    0.423394
      6          1           0        1.016766    1.211947   -1.235091
      7          1           0        2.397853    1.927225   -0.371092
      8          1           0        2.339060    0.043107    1.294981
      9          1           0        2.556269   -0.575755   -0.365068
     10          6           0       -2.236164    0.327857    0.749559
     11          6           0       -1.864736    0.263556   -0.701299
     12          1           0       -3.046824    1.059480    0.918715
     13          1           0       -2.581643   -0.647369    1.121375
     14          1           0       -1.378116    0.636174    1.366381
     15          1           0       -0.763699   -0.562916   -0.732689
     16          1           0       -1.482766    1.191559   -1.146493
     17          1           0       -2.555877   -0.273728   -1.363711
 ---------------------------------------------------------------------
 Rotational constants (GHZ):      4.6047297      1.9181598      1.6929093
 Leave Link  202 at Mon Jul  4 16:06:07 2022, MaxMem=   939524096 cpu:         0.0
 (Enter /Local/ce_dana/g09/l601.exe)
 Copying SCF densities to generalized density rwf, IOpCl= 1 IROHF=0.

 **********************************************************************

            Population analysis using the SCF density.

 **********************************************************************

 Orbital symmetries:
 Alpha Orbitals:
       Occupied  (A) (A) (A) (A) (A) (A) (A) (A) (A) (A) (A) (A)
                 (A) (A) (A) (A) (A) (A) (A) (A) (A) (A) (A) (A)
                 (A) (A)
       Virtual   (A) (A) (A) (A) (A) (A) (A) (A) (A) (A) (A) (A)
                 (A) (A) (A) (A) (A) (A) (A) (A) (A) (A) (A) (A)
                 (A) (A) (A) (A) (A) (A) (A) (A) (A) (A) (A) (A)
                 (A) (A) (A) (A) (A) (A) (A) (A) (A) (A) (A) (A)
                 (A) (A) (A) (A) (A) (A) (A) (A) (A) (A) (A) (A)
                 (A) (A) (A) (A) (A) (A) (A) (A) (A) (A) (A) (A)
                 (A) (A) (A) (A) (A) (A) (A) (A) (A) (A) (A) (A)
                 (A) (A) (A) (A) (A) (A) (A) (A) (A) (A) (A) (A)
                 (A) (A) (A) (A) (A) (A) (A) (A) (A) (A) (A) (A)
                 (A) (A) (A) (A) (A)
 Beta  Orbitals:
       Occupied  (A) (A) (A) (A) (A) (A) (A) (A) (A) (A) (A) (A)
                 (A) (A) (A) (A) (A) (A) (A) (A) (A) (A) (A) (A)
                 (A)
       Virtual   (A) (A) (A) (A) (A) (A) (A) (A) (A) (A) (A) (A)
                 (A) (A) (A) (A) (A) (A) (A) (A) (A) (A) (A) (A)
                 (A) (A) (A) (A) (A) (A) (A) (A) (A) (A) (A) (A)
                 (A) (A) (A) (A) (A) (A) (A) (A) (A) (A) (A) (A)
                 (A) (A) (A) (A) (A) (A) (A) (A) (A) (A) (A) (A)
                 (A) (A) (A) (A) (A) (A) (A) (A) (A) (A) (A) (A)
                 (A) (A) (A) (A) (A) (A) (A) (A) (A) (A) (A) (A)
                 (A) (A) (A) (A) (A) (A) (A) (A) (A) (A) (A) (A)
                 (A) (A) (A) (A) (A) (A) (A) (A) (A) (A) (A) (A)
                 (A) (A) (A) (A) (A) (A)
 The electronic state is 2-A.
 Alpha  occ. eigenvalues --  -19.31112 -19.29941 -10.34611 -10.31547 -10.29882
 Alpha  occ. eigenvalues --  -10.29704  -1.22917  -0.97485  -0.86326  -0.83319
 Alpha  occ. eigenvalues --   -0.71756  -0.69884  -0.62274  -0.57425  -0.55417
 Alpha  occ. eigenvalues --   -0.54280  -0.52859  -0.49976  -0.47724  -0.47242
 Alpha  occ. eigenvalues --   -0.46323  -0.44307  -0.43115  -0.38101  -0.35892
 Alpha  occ. eigenvalues --   -0.30433
 Alpha virt. eigenvalues --    0.13475   0.15587   0.16332   0.17420   0.18301
 Alpha virt. eigenvalues --    0.20230   0.21030   0.21171   0.23552   0.24409
 Alpha virt. eigenvalues --    0.25301   0.27737   0.30401   0.32361   0.35434
 Alpha virt. eigenvalues --    0.46425   0.49654   0.50137   0.50957   0.53332
 Alpha virt. eigenvalues --    0.56068   0.59727   0.60067   0.65307   0.66910
 Alpha virt. eigenvalues --    0.69101   0.70471   0.71665   0.73500   0.73868
 Alpha virt. eigenvalues --    0.75295   0.75649   0.76163   0.77474   0.78688
 Alpha virt. eigenvalues --    0.79192   0.80097   0.80757   0.85500   0.86873
 Alpha virt. eigenvalues --    0.95854   1.04547   1.06320   1.09784   1.14248
 Alpha virt. eigenvalues --    1.17435   1.18057   1.20371   1.22857   1.28277
 Alpha virt. eigenvalues --    1.34751   1.42567   1.43071   1.47508   1.49433
 Alpha virt. eigenvalues --    1.52552   1.56513   1.58897   1.62492   1.62673
 Alpha virt. eigenvalues --    1.69075   1.75802   1.80112   1.81562   1.82606
 Alpha virt. eigenvalues --    1.83459   1.85582   1.86430   1.88259   1.88607
 Alpha virt. eigenvalues --    1.89715   1.91450   1.93248   1.93448   1.94603
 Alpha virt. eigenvalues --    1.97661   1.99397   2.06938   2.11057   2.11600
 Alpha virt. eigenvalues --    2.20869   2.24548   2.25973   2.36279   2.40032
 Alpha virt. eigenvalues --    2.43820   2.44221   2.47327   2.49831   2.54982
 Alpha virt. eigenvalues --    2.55244   2.58481   2.59182   2.63340   2.65977
 Alpha virt. eigenvalues --    2.67107   2.77333   2.85021   2.89136   2.90653
 Alpha virt. eigenvalues --    2.94058   3.00732   3.02852   3.04794   3.05800
 Alpha virt. eigenvalues --    3.06942   3.09600   3.13394   3.27012   3.28031
 Alpha virt. eigenvalues --    3.43443   3.69393   4.00552
  Beta  occ. eigenvalues --  -19.30941 -19.28920 -10.34618 -10.30707 -10.29912
  Beta  occ. eigenvalues --  -10.29696  -1.21665  -0.95802  -0.84987  -0.82942
  Beta  occ. eigenvalues --   -0.70656  -0.68972  -0.60545  -0.57216  -0.53970
  Beta  occ. eigenvalues --   -0.53532  -0.52007  -0.48786  -0.47256  -0.46717
  Beta  occ. eigenvalues --   -0.44842  -0.43962  -0.42832  -0.35874  -0.33859
  Beta virt. eigenvalues --   -0.03593   0.13600   0.16068   0.16518   0.17921
  Beta virt. eigenvalues --    0.18485   0.20497   0.21165   0.21301   0.23686
  Beta virt. eigenvalues --    0.24594   0.25644   0.27913   0.30796   0.32726
  Beta virt. eigenvalues --    0.37447   0.46688   0.49931   0.50596   0.51428
  Beta virt. eigenvalues --    0.53482   0.56510   0.59794   0.60614   0.67034
  Beta virt. eigenvalues --    0.67873   0.69363   0.70808   0.72393   0.73623
  Beta virt. eigenvalues --    0.74232   0.75857   0.76108   0.76313   0.77791
  Beta virt. eigenvalues --    0.79127   0.79298   0.80247   0.80967   0.85760
  Beta virt. eigenvalues --    0.87277   0.96027   1.05371   1.06949   1.10406
  Beta virt. eigenvalues --    1.14739   1.17808   1.18969   1.21373   1.23516
  Beta virt. eigenvalues --    1.28706   1.35551   1.42643   1.43335   1.48045
  Beta virt. eigenvalues --    1.50014   1.52697   1.57298   1.59086   1.62618
  Beta virt. eigenvalues --    1.62923   1.69652   1.78339   1.80656   1.81755
  Beta virt. eigenvalues --    1.82677   1.83605   1.85686   1.86643   1.88507
  Beta virt. eigenvalues --    1.88863   1.89870   1.91930   1.93417   1.93767
  Beta virt. eigenvalues --    1.94636   1.97739   1.99596   2.07631   2.11598
  Beta virt. eigenvalues --    2.11989   2.21018   2.25128   2.26488   2.38050
  Beta virt. eigenvalues --    2.40790   2.44037   2.45577   2.47553   2.50581
  Beta virt. eigenvalues --    2.55259   2.55679   2.59131   2.59852   2.64096
  Beta virt. eigenvalues --    2.66290   2.67821   2.77435   2.85427   2.89998
  Beta virt. eigenvalues --    2.92573   2.95581   3.01188   3.02908   3.05020
  Beta virt. eigenvalues --    3.05921   3.07669   3.10496   3.13812   3.27536
  Beta virt. eigenvalues --    3.29686   3.43710   3.71677   4.02130
          Condensed to atoms (all electrons):
               1          2          3          4          5          6
     1  C    4.692419   0.400894  -0.047650  -0.005226   0.384723   0.390010
     2  C    0.400894   4.488942   0.277909  -0.048144  -0.015620  -0.022574
     3  O   -0.047650   0.277909   7.975552   0.096651   0.001457  -0.005503
     4  O   -0.005226  -0.048144   0.096651   7.988838  -0.000930   0.013746
     5  H    0.384723  -0.015620   0.001457  -0.000930   0.627272  -0.027055
     6  H    0.390010  -0.022574  -0.005503   0.013746  -0.027055   0.616179
     7  H    0.372265  -0.009916   0.003624   0.000125  -0.016682  -0.017071
     8  H   -0.022674   0.378887  -0.020026   0.005653  -0.009270   0.007651
     9  H   -0.049712   0.402194  -0.026943   0.001393   0.007438  -0.009269
    10  C   -0.001295   0.000292   0.000424   0.003638  -0.000475  -0.000428
    11  C   -0.000168  -0.002559   0.000141  -0.089450  -0.000923   0.002790
    12  H    0.000046  -0.000041   0.000149  -0.000064  -0.000023  -0.000008
    13  H    0.000025   0.000076  -0.000407   0.001510  -0.000036  -0.000026
    14  H   -0.001814   0.000081   0.011498  -0.001519   0.004407   0.000044
    15  H    0.003223   0.001477  -0.027369   0.218352  -0.000080  -0.000276
    16  H    0.001763   0.000079  -0.000158  -0.000119   0.000560   0.000301
    17  H    0.000016   0.000047   0.000284   0.001142   0.000097   0.000001
               7          8          9         10         11         12
     1  C    0.372265  -0.022674  -0.049712  -0.001295  -0.000168   0.000046
     2  C   -0.009916   0.378887   0.402194   0.000292  -0.002559  -0.000041
     3  O    0.003624  -0.020026  -0.026943   0.000424   0.000141   0.000149
     4  O    0.000125   0.005653   0.001393   0.003638  -0.089450  -0.000064
     5  H   -0.016682  -0.009270   0.007438  -0.000475  -0.000923  -0.000023
     6  H   -0.017071   0.007651  -0.009269  -0.000428   0.002790  -0.000008
     7  H    0.625873  -0.003258  -0.000974   0.000009   0.000170   0.000001
     8  H   -0.003258   0.647605  -0.026153  -0.000032   0.000184  -0.000002
     9  H   -0.000974  -0.026153   0.663093  -0.000000  -0.000298   0.000001
    10  C    0.000009  -0.000032  -0.000000   4.566249   0.396860   0.389191
    11  C    0.000170   0.000184  -0.000298   0.396860   5.027291  -0.023710
    12  H    0.000001  -0.000002   0.000001   0.389191  -0.023710   0.628138
    13  H   -0.000000  -0.000019  -0.000001   0.397743  -0.023557  -0.021950
    14  H    0.000005   0.000029   0.000222   0.395545  -0.028010  -0.021776
    15  H   -0.000153  -0.000711   0.000517  -0.010891   0.197688   0.002548
    16  H   -0.000034  -0.000047   0.000024  -0.024390   0.375221  -0.005812
    17  H   -0.000002   0.000002   0.000015  -0.020599   0.377504  -0.002981
              13         14         15         16         17
     1  C    0.000025  -0.001814   0.003223   0.001763   0.000016
     2  C    0.000076   0.000081   0.001477   0.000079   0.000047
     3  O   -0.000407   0.011498  -0.027369  -0.000158   0.000284
     4  O    0.001510  -0.001519   0.218352  -0.000119   0.001142
     5  H   -0.000036   0.004407  -0.000080   0.000560   0.000097
     6  H   -0.000026   0.000044  -0.000276   0.000301   0.000001
     7  H   -0.000000   0.000005  -0.000153  -0.000034  -0.000002
     8  H   -0.000019   0.000029  -0.000711  -0.000047   0.000002
     9  H   -0.000001   0.000222   0.000517   0.000024   0.000015
    10  C    0.397743   0.395545  -0.010891  -0.024390  -0.020599
    11  C   -0.023557  -0.028010   0.197688   0.375221   0.377504
    12  H   -0.021950  -0.021776   0.002548  -0.005812  -0.002981
    13  H    0.613251  -0.020407  -0.002733   0.006567  -0.008191
    14  H   -0.020407   0.614291  -0.005070  -0.005795   0.006557
    15  H   -0.002733  -0.005070   0.460245  -0.005119  -0.004026
    16  H    0.006567  -0.005795  -0.005119   0.616803  -0.024097
    17  H   -0.008191   0.006557  -0.004026  -0.024097   0.605193
          Atomic-Atomic Spin Densities.
               1          2          3          4          5          6
     1  C    0.014299  -0.000498  -0.003717   0.004115   0.000404  -0.001047
     2  C   -0.000498  -0.006811   0.004306  -0.003905  -0.000310   0.000449
     3  O   -0.003717   0.004306   0.083915  -0.041391  -0.000001   0.000464
     4  O    0.004115  -0.003905  -0.041391   0.488959  -0.000130  -0.001169
     5  H    0.000404  -0.000310  -0.000001  -0.000130  -0.000431   0.000140
     6  H   -0.001047   0.000449   0.000464  -0.001169   0.000140  -0.000400
     7  H   -0.002283   0.000749   0.000068  -0.000080   0.000011   0.000439
     8  H   -0.001405   0.001066  -0.000054  -0.000065   0.000065  -0.000049
     9  H   -0.003934  -0.001154  -0.001121   0.000859  -0.000009   0.000394
    10  C    0.000616  -0.000389  -0.002481   0.006088  -0.000103  -0.000094
    11  C   -0.004724   0.002217   0.012330  -0.082816   0.000353   0.001219
    12  H   -0.000081   0.000039   0.000159  -0.000374   0.000037   0.000023
    13  H    0.000035  -0.000027  -0.000275   0.000666  -0.000008  -0.000003
    14  H    0.000558  -0.000364  -0.001568   0.000861  -0.000191  -0.000048
    15  H   -0.002636   0.001957   0.005899  -0.017658   0.000286   0.000180
    16  H    0.000875  -0.000334  -0.000630   0.003121  -0.000161  -0.000234
    17  H    0.000088  -0.000045  -0.000188   0.002283  -0.000012  -0.000038
               7          8          9         10         11         12
     1  C   -0.002283  -0.001405  -0.003934   0.000616  -0.004724  -0.000081
     2  C    0.000749   0.001066  -0.001154  -0.000389   0.002217   0.000039
     3  O    0.000068  -0.000054  -0.001121  -0.002481   0.012330   0.000159
     4  O   -0.000080  -0.000065   0.000859   0.006088  -0.082816  -0.000374
     5  H    0.000011   0.000065  -0.000009  -0.000103   0.000353   0.000037
     6  H    0.000439  -0.000049   0.000394  -0.000094   0.001219   0.000023
     7  H    0.001164   0.000120   0.000479  -0.000015   0.000133   0.000002
     8  H    0.000120  -0.000905   0.000970  -0.000014   0.000055   0.000002
     9  H    0.000479   0.000970   0.005963  -0.000047   0.000547   0.000003
    10  C   -0.000015  -0.000014  -0.000047  -0.020828  -0.041484   0.005423
    11  C    0.000133   0.000055   0.000547  -0.041484   0.733661  -0.012883
    12  H    0.000002   0.000002   0.000003   0.005423  -0.012883   0.062342
    13  H   -0.000001  -0.000001  -0.000004   0.004338  -0.004395  -0.004518
    14  H   -0.000018  -0.000021  -0.000036   0.007708  -0.005840  -0.005052
    15  H    0.000055   0.000027   0.000619   0.000199   0.048088   0.000067
    16  H   -0.000067  -0.000002  -0.000061   0.002446  -0.008833  -0.002430
    17  H   -0.000002  -0.000001  -0.000011   0.001411  -0.006845  -0.001852
              13         14         15         16         17
     1  C    0.000035   0.000558  -0.002636   0.000875   0.000088
     2  C   -0.000027  -0.000364   0.001957  -0.000334  -0.000045
     3  O   -0.000275  -0.001568   0.005899  -0.000630  -0.000188
     4  O    0.000666   0.000861  -0.017658   0.003121   0.002283
     5  H   -0.000008  -0.000191   0.000286  -0.000161  -0.000012
     6  H   -0.000003  -0.000048   0.000180  -0.000234  -0.000038
     7  H   -0.000001  -0.000018   0.000055  -0.000067  -0.000002
     8  H   -0.000001  -0.000021   0.000027  -0.000002  -0.000001
     9  H   -0.000004  -0.000036   0.000619  -0.000061  -0.000011
    10  C    0.004338   0.007708   0.000199   0.002446   0.001411
    11  C   -0.004395  -0.005840   0.048088  -0.008833  -0.006845
    12  H   -0.004518  -0.005052   0.000067  -0.002430  -0.001852
    13  H    0.005687   0.001447  -0.000144   0.000158   0.001033
    14  H    0.001447   0.010956   0.000794   0.000928   0.000035
    15  H   -0.000144   0.000794  -0.068861   0.001122   0.001340
    16  H    0.000158   0.000928   0.001122  -0.018459   0.003935
    17  H    0.001033   0.000035   0.001340   0.003935  -0.019291
 Mulliken charges and spin densities:
               1          2
     1  C   -0.116844   0.000663
     2  C    0.147976  -0.003054
     3  O   -0.239632   0.055714
     4  O   -0.185596   0.359365
     5  H    0.045140  -0.000059
     6  H    0.051489   0.000225
     7  H    0.046017   0.000754
     8  H    0.042181  -0.000212
     9  H    0.038453   0.003457
    10  C   -0.091842  -0.037227
    11  C   -0.209172   0.630782
    12  H    0.056296   0.040909
    13  H    0.058155   0.003987
    14  H    0.051712   0.010150
    15  H    0.172377  -0.028667
    16  H    0.064251  -0.018627
    17  H    0.069038  -0.018160
 Sum of Mulliken charges =   0.00000   1.00000
 Mulliken charges and spin densities with hydrogens summed into heavy atoms:
               1          2
     1  C    0.025802   0.001582
     2  C    0.228610   0.000191
     3  O   -0.239632   0.055714
     4  O   -0.013218   0.330698
    10  C    0.074321   0.017819
    11  C   -0.075882   0.593996
 Electronic spatial extent (au):  <R**2>=            810.3871
 Charge=              0.0000 electrons
 Dipole moment (field-independent basis, Debye):
    X=             -0.0874    Y=              2.2150    Z=             -0.0190  Tot=              2.2168
 Quadrupole moment (field-independent basis, Debye-Ang):
   XX=            -33.1323   YY=            -41.6437   ZZ=            -39.2227
   XY=              1.2149   XZ=              0.8715   YZ=              0.0248
 Traceless Quadrupole moment (field-independent basis, Debye-Ang):
   XX=              4.8673   YY=             -3.6441   ZZ=             -1.2232
   XY=              1.2149   XZ=              0.8715   YZ=              0.0248
 Octapole moment (field-independent basis, Debye-Ang**2):
  XXX=              7.8382  YYY=             -3.9241  ZZZ=              0.0291  XYY=              0.1558
  XXY=             -2.9213  XXZ=              0.7612  XZZ=              0.8548  YZZ=             -1.2926
  YYZ=              0.6326  XYZ=             -0.2589
 Hexadecapole moment (field-independent basis, Debye-Ang**3):
 XXXX=           -664.9459 YYYY=           -233.9795 ZZZZ=           -146.6980 XXXY=              0.5111
 XXXZ=              3.4196 YYYX=             -1.5950 YYYZ=             -0.1529 ZZZX=              6.5229
 ZZZY=              1.5653 XXYY=           -147.8219 XXZZ=           -135.5388 YYZZ=            -63.5262
 XXYZ=              2.9797 YYXZ=             -1.2997 ZZXY=              1.1425
 N-N= 2.601769934680D+02 E-N=-1.241437616770D+03  KE= 3.061005843522D+02
                          Isotropic Fermi Contact Couplings
        Atom                 a.u.       MegaHertz       Gauss      10(-4) cm-1
     1  C(13)              0.00612       6.87587       2.45348       2.29354
     2  C(13)             -0.00328      -3.68989      -1.31664      -1.23082
     3  O(17)              0.03271     -19.83059      -7.07605      -6.61477
     4  O(17)              0.16014     -97.07333     -34.63818     -32.38018
     5  H(1)              -0.00002      -0.10830      -0.03864      -0.03612
     6  H(1)              -0.00009      -0.38071      -0.13585      -0.12699
     7  H(1)               0.00015       0.69139       0.24671       0.23062
     8  H(1)              -0.00005      -0.24442      -0.08722      -0.08153
     9  H(1)               0.00039       1.73909       0.62055       0.58010
    10  C(13)             -0.01760     -19.78533      -7.05990      -6.59968
    11  C(13)              0.20033     225.20646      80.35926      75.12079
    12  H(1)               0.01938      86.60662      30.90339      28.88886
    13  H(1)               0.00188       8.41998       3.00446       2.80860
    14  H(1)               0.00587      26.24651       9.36541       8.75489
    15  H(1)              -0.02426    -108.46118     -38.70165     -36.17876
    16  H(1)              -0.00533     -23.84148      -8.50723      -7.95266
    17  H(1)              -0.00496     -22.16614      -7.90943      -7.39383
 --------------------------------------------------------
       Center         ----  Spin Dipole Couplings  ----
                      3XX-RR        3YY-RR        3ZZ-RR
 --------------------------------------------------------
     1   Atom       -0.000042      0.005989     -0.005947
     2   Atom        0.005838     -0.001843     -0.003996
     3   Atom        0.095823      0.118769     -0.214591
     4   Atom        0.359918      0.442930     -0.802848
     5   Atom        0.000326      0.002858     -0.003185
     6   Atom        0.002382      0.002131     -0.004513
     7   Atom        0.001453      0.000643     -0.002096
     8   Atom        0.003021     -0.001808     -0.001213
     9   Atom        0.008197     -0.003822     -0.004375
    10   Atom        0.010626     -0.010971      0.000345
    11   Atom        0.341656      0.018121     -0.359777
    12   Atom       -0.000129     -0.001849      0.001977
    13   Atom       -0.000836     -0.004334      0.005170
    14   Atom       -0.005482     -0.005330      0.010813
    15   Atom        0.116945      0.001365     -0.118311
    16   Atom       -0.002618      0.032902     -0.030284
    17   Atom        0.013922     -0.002813     -0.011108
 --------------------------------------------------------
                        XY            XZ            YZ
 --------------------------------------------------------
     1   Atom        0.004757      0.000190     -0.001260
     2   Atom        0.006349      0.004155      0.001098
     3   Atom       -0.266067      0.035803     -0.067333
     4   Atom       -1.232375     -0.122225      0.137477
     5   Atom        0.003514      0.001849      0.002528
     6   Atom        0.005370     -0.002106     -0.003096
     7   Atom        0.002569      0.000112      0.000026
     8   Atom        0.002363      0.003747      0.001720
     9   Atom        0.002812      0.000370      0.000086
    10   Atom       -0.013885     -0.014095      0.006082
    11   Atom       -0.510582      0.003770     -0.002146
    12   Atom       -0.006928     -0.005955      0.003385
    13   Atom        0.002099     -0.007828     -0.005618
    14   Atom       -0.000607      0.002467      0.006740
    15   Atom       -0.171271      0.017687     -0.010427
    16   Atom        0.011862     -0.014543     -0.031937
    17   Atom        0.010309      0.034395      0.030780
 --------------------------------------------------------


 ---------------------------------------------------------------------------------
              Anisotropic Spin Dipole Couplings in Principal Axis System
 ---------------------------------------------------------------------------------

       Atom             a.u.   MegaHertz   Gauss  10(-4) cm-1        Axes

              Baa    -0.0062    -0.830    -0.296    -0.277 -0.1552  0.1615  0.9746
     1 C(13)  Bbb    -0.0025    -0.334    -0.119    -0.111  0.8653 -0.4538  0.2130
              Bcc     0.0087     1.164     0.415     0.388  0.4767  0.8764 -0.0693
 
              Baa    -0.0064    -0.853    -0.304    -0.284 -0.5146  0.5679  0.6424
     2 C(13)  Bbb    -0.0043    -0.571    -0.204    -0.190  0.1366 -0.6853  0.7153
              Bcc     0.0106     1.424     0.508     0.475  0.8465  0.4559  0.2751
 
              Baa    -0.2296    16.614     5.928     5.542  0.1218  0.2772  0.9530
     3 O(17)  Bbb    -0.1530    11.074     3.951     3.694  0.7200  0.6362 -0.2771
              Bcc     0.3826   -27.688    -9.880    -9.236 -0.6831  0.7200 -0.1221
 
              Baa    -0.8349    60.411    21.556    20.151  0.6427  0.6615 -0.3865
     4 O(17)  Bbb    -0.8134    58.857    21.002    19.633  0.3266  0.2198  0.9193
              Bcc     1.6483  -119.268   -42.558   -39.784 -0.6930  0.7171  0.0748
 
              Baa    -0.0042    -2.248    -0.802    -0.750 -0.2015 -0.2393  0.9498
     5 H(1)   Bbb    -0.0021    -1.142    -0.408    -0.381  0.8118 -0.5834  0.0253
              Bcc     0.0064     3.391     1.210     1.131  0.5480  0.7762  0.3119
 
              Baa    -0.0057    -3.058    -1.091    -1.020 -0.0017  0.3673  0.9301
     6 H(1)   Bbb    -0.0029    -1.559    -0.556    -0.520  0.7361 -0.6291  0.2498
              Bcc     0.0087     4.617     1.648     1.540  0.6769  0.6850 -0.2693
 
              Baa    -0.0021    -1.122    -0.400    -0.374 -0.0754  0.0610  0.9953
     7 H(1)   Bbb    -0.0015    -0.826    -0.295    -0.275 -0.6454  0.7579 -0.0954
              Bcc     0.0037     1.948     0.695     0.650  0.7601  0.6495  0.0178
 
              Baa    -0.0035    -1.876    -0.670    -0.626 -0.3593 -0.3668  0.8581
     8 H(1)   Bbb    -0.0027    -1.462    -0.522    -0.488 -0.4685  0.8662  0.1740
              Bcc     0.0063     3.339     1.191     1.114  0.8071  0.3395  0.4830
 
              Baa    -0.0044    -2.373    -0.847    -0.792 -0.2150  0.9748 -0.0602
     9 H(1)   Bbb    -0.0044    -2.340    -0.835    -0.781 -0.0411  0.0526  0.9978
              Bcc     0.0088     4.713     1.682     1.572  0.9757  0.2170  0.0288
 
              Baa    -0.0178    -2.390    -0.853    -0.797  0.4631  0.8840  0.0634
    10 C(13)  Bbb    -0.0086    -1.157    -0.413    -0.386  0.4245 -0.2841  0.8597
              Bcc     0.0264     3.547     1.266     1.183  0.7780 -0.3712 -0.5069
 
              Baa    -0.3599   -48.289   -17.231   -16.107 -0.0733 -0.0934  0.9929
    11 C(13)  Bbb    -0.3556   -47.725   -17.029   -15.919  0.5862  0.8014  0.1187
              Bcc     0.7155    96.013    34.260    32.027  0.8069 -0.5907  0.0040
 
              Baa    -0.0082    -4.401    -1.571    -1.468  0.7152  0.6714  0.1943
    12 H(1)   Bbb    -0.0028    -1.479    -0.528    -0.493  0.3061 -0.5508  0.7765
              Bcc     0.0110     5.880     2.098     1.961  0.6283 -0.4959 -0.5994
 
              Baa    -0.0077    -4.086    -1.458    -1.363  0.4465  0.6870  0.5733
    13 H(1)   Bbb    -0.0049    -2.620    -0.935    -0.874  0.7322 -0.6488  0.2071
              Bcc     0.0126     6.706     2.393     2.237 -0.5142 -0.3273  0.7927
 
              Baa    -0.0085    -4.528    -1.616    -1.510  0.4499  0.8237 -0.3452
    14 H(1)   Bbb    -0.0050    -2.671    -0.953    -0.891  0.8861 -0.4599  0.0577
              Bcc     0.0135     7.199     2.569     2.401  0.1112  0.3318  0.9368
 
              Baa    -0.1227   -65.449   -23.354   -21.831  0.5280  0.6871 -0.4991
    15 H(1)   Bbb    -0.1184   -63.178   -22.544   -21.074  0.2515  0.4348  0.8647
              Bcc     0.2411   128.627    45.897    42.905  0.8112 -0.5820  0.0568
 
              Baa    -0.0456   -24.317    -8.677    -8.111  0.2161  0.3398  0.9153
    16 H(1)   Bbb    -0.0058    -3.099    -1.106    -1.034  0.9301 -0.3568 -0.0871
              Bcc     0.0514    27.415     9.782     9.145  0.2970  0.8702 -0.3932
 
              Baa    -0.0459   -24.468    -8.731    -8.162 -0.3745 -0.4783  0.7943
    17 H(1)   Bbb    -0.0057    -3.063    -1.093    -1.022 -0.6471  0.7484  0.1456
              Bcc     0.0516    27.531     9.824     9.183  0.6641  0.4595  0.5898
 

 ---------------------------------------------------------------------------------

 No NMR shielding tensors so no spin-rotation constants.
 Leave Link  601 at Mon Jul  4 16:06:07 2022, MaxMem=   939524096 cpu:         2.4
 (Enter /Local/ce_dana/g09/l9999.exe)

 Test job not archived.
 1\1\GINC-TECH-WN201\FTS\UwB97XD\def2SVP\C4H11O2(2)\ALONGD\04-Jul-2022\
 0\\#P opt=(ts, calcfc, noeigentest, maxcycles=100) guess=mix uwb97xd/d
 ef2svp IOp(2/9=2000) scf=xqc\\TS0\\0,2\C,1.9803412082,0.1174945952,0.4
 186125448\C,1.1694328984,1.3866045527,0.2371212107\O,-0.1564376367,1.1
 578111364,-0.2046322186\O,-0.8765114927,0.5369695494,0.7930214713\H,2.
 01525501,-0.4664495051,-0.5135273862\H,1.5471444599,-0.5076944067,1.21
 16001947\H,3.0116852169,0.3678680008,0.7075851696\H,1.5962722301,2.021
 0244569,-0.5544908916\H,1.141657714,1.9735980546,1.1709107932\C,-1.026
 7746209,-1.6582016207,-1.5000919971\C,-0.9377537802,-1.8512616608,-0.0
 162172817\H,-0.9397367032,-2.6234540608,-2.0309096828\H,-1.9831709778,
 -1.2006192952,-1.7909418057\H,-0.218958137,-1.005664075,-1.8653353436\
 H,-0.9123603679,-0.5712201448,0.4909048835\H,-0.0005374679,-2.27960194
 4,0.3625135397\H,-1.8257350633,-2.2621905928,0.4815458298\\Version=ES6
 4L-G09RevD.01\State=2-A\HF=-308.9959804\S2=0.758102\S2-1=0.\S2A=0.7500
 34\RMSD=7.982e-09\RMSF=1.100e-05\Dipole=0.6635138,-0.5458373,-0.14988\
 Quadrupole=0.6143808,0.3777503,-0.9921311,3.2190354,0.8455007,0.194450
 9\PG=C01 [X(C4H11O2)]\\@


            ARSENIC

 FOR SMELTER FUMES HAVE I BEEN NAMED,
    I AM AN EVIL POISONOUS SMOKE...
 BUT WHEN FROM POISON I AM FREED,
    THROUGH ART AND SLEIGHT OF HAND,
 THEN CAN I CURE BOTH MAN AND BEAST,
    FROM DIRE DISEASE OFTTIMES DIRECT THEM;
 BUT PREPARE ME CORRECTLY, AND TAKE GREAT CARE
    THAT YOU FAITHFULLY KEEP WATCHFUL GUARD OVER ME;
 FOR ELSE I AM POISON, AND POISON REMAIN,
    THAT PIERCES THE HEART OF MANY A ONE.

 ATTRIBUTED TO THE PROBABLY MYTHICAL 15TH
 CENTURY MONK, BASILIUS VALENTINUS
 Job cpu time:       0 days  1 hours  6 minutes 40.9 seconds.
 File lengths (MBytes):  RWF=     74 Int=      0 D2E=      0 Chk=      3 Scr=      1
 Normal termination of Gaussian 09 at Mon Jul  4 16:06:07 2022.
