 Entering Gaussian System, Link 0=/Local/ce_dana/g09/g09
 Initial command:
 /Local/ce_dana/g09/l1.exe "/storage/ce_dana/alongd/scratch/g09/Gau-243730.inp" -scrdir="/storage/ce_dana/alongd/scratch/g09/"
 Entering Link 1 = /Local/ce_dana/g09/l1.exe PID=    243731.
  
 Copyright (c) 1988,1990,1992,1993,1995,1998,2003,2009,2013,
            Gaussian, Inc.  All Rights Reserved.
  
 This is part of the Gaussian(R) 09 program.  It is based on
 the Gaussian(R) 03 system (copyright 2003, Gaussian, Inc.),
 the Gaussian(R) 98 system (copyright 1998, Gaussian, Inc.),
 the Gaussian(R) 94 system (copyright 1995, Gaussian, Inc.),
 the Gaussian 92(TM) system (copyright 1992, Gaussian, Inc.),
 the Gaussian 90(TM) system (copyright 1990, Gaussian, Inc.),
 the Gaussian 88(TM) system (copyright 1988, Gaussian, Inc.),
 the Gaussian 86(TM) system (copyright 1986, Carnegie Mellon
 University), and the Gaussian 82(TM) system (copyright 1983,
 Carnegie Mellon University). Gaussian is a federally registered
 trademark of Gaussian, Inc.
  
 This software contains proprietary and confidential information,
 including trade secrets, belonging to Gaussian, Inc.
  
 This software is provided under written license and may be
 used, copied, transmitted, or stored only in accord with that
 written license.
  
 The following legend is applicable only to US Government
 contracts under FAR:
  
                    RESTRICTED RIGHTS LEGEND
  
 Use, reproduction and disclosure by the US Government is
 subject to restrictions as set forth in subparagraphs (a)
 and (c) of the Commercial Computer Software - Restricted
 Rights clause in FAR 52.227-19.
  
 Gaussian, Inc.
 340 Quinnipiac St., Bldg. 40, Wallingford CT 06492
  
  
 ---------------------------------------------------------------
 Warning -- This program may not be used in any manner that
 competes with the business of Gaussian, Inc. or will provide
 assistance to any competitor of Gaussian, Inc.  The licensee
 of this program is prohibited from giving any competitor of
 Gaussian, Inc. access to this program.  By using this program,
 the user acknowledges that Gaussian, Inc. is engaged in the
 business of creating and licensing software in the field of
 computational chemistry and represents and warrants to the
 licensee that it is not a competitor of Gaussian, Inc. and that
 it will not use this program in any manner prohibited above.
 ---------------------------------------------------------------
  

 Cite this work as:
 Gaussian 09, Revision D.01,
 M. J. Frisch, G. W. Trucks, H. B. Schlegel, G. E. Scuseria, 
 M. A. Robb, J. R. Cheeseman, G. Scalmani, V. Barone, B. Mennucci, 
 G. A. Petersson, H. Nakatsuji, M. Caricato, X. Li, H. P. Hratchian, 
 A. F. Izmaylov, J. Bloino, G. Zheng, J. L. Sonnenberg, M. Hada, 
 M. Ehara, K. Toyota, R. Fukuda, J. Hasegawa, M. Ishida, T. Nakajima, 
 Y. Honda, O. Kitao, H. Nakai, T. Vreven, J. A. Montgomery, Jr., 
 J. E. Peralta, F. Ogliaro, M. Bearpark, J. J. Heyd, E. Brothers, 
 K. N. Kudin, V. N. Staroverov, T. Keith, R. Kobayashi, J. Normand, 
 K. Raghavachari, A. Rendell, J. C. Burant, S. S. Iyengar, J. Tomasi, 
 M. Cossi, N. Rega, J. M. Millam, M. Klene, J. E. Knox, J. B. Cross, 
 V. Bakken, C. Adamo, J. Jaramillo, R. Gomperts, R. E. Stratmann, 
 O. Yazyev, A. J. Austin, R. Cammi, C. Pomelli, J. W. Ochterski, 
 R. L. Martin, K. Morokuma, V. G. Zakrzewski, G. A. Voth, 
 P. Salvador, J. J. Dannenberg, S. Dapprich, A. D. Daniels, 
 O. Farkas, J. B. Foresman, J. V. Ortiz, J. Cioslowski, 
 and D. J. Fox, Gaussian, Inc., Wallingford CT, 2013.
 
 ******************************************
 Gaussian 09:  ES64L-G09RevD.01 24-Apr-2013
                 4-Jul-2022 
 ******************************************
 %chk=check.chk
 %mem=7168mb
 %NProcShared=10
 Will use up to   10 processors via shared memory.
 ----------------------------------------------------------------------
 #P opt=(ts, calcfc, noeigentest, maxcycles=100) guess=mix uwb97xd/def2
 svp IOp(2/9=2000) scf=xqc
 ----------------------------------------------------------------------
 1/5=1,6=100,10=4,11=1,14=-1,18=20,26=3,38=1/1,3;
 2/9=2000,12=2,17=6,18=5,40=1/2;
 3/5=43,7=101,11=2,16=1,25=1,30=1,71=2,74=-58,116=2,140=1/1,2,3;
 4/13=-1/1;
 5/5=2,8=3,13=1,38=5/2,8;
 8/6=4,10=90,11=11/1;
 11/6=1,8=1,9=11,15=111,16=1/1,2,10;
 10/6=1,13=1/2;
 6/7=2,8=2,9=2,10=2,28=1/1;
 7/10=1,18=20,25=1/1,2,3,16;
 1/5=1,6=100,10=4,11=1,14=-1,18=20,26=3/3(2);
 2/9=2000/2;
 99//99;
 2/9=2000/2;
 3/5=43,7=101,11=2,16=1,25=1,30=1,71=1,74=-58,116=2/1,2,3;
 4/5=5,16=3,69=1/1;
 5/5=2,8=3,13=1,38=5/2,8;
 7//1,2,3,16;
 1/5=1,6=100,11=1,14=-1,18=20,26=3/3(-5);
 2/9=2000/2;
 6/7=2,8=2,9=2,10=2,19=2,28=1/1;
 99/9=1/99;
 Leave Link    1 at Mon Jul  4 15:52:21 2022, MaxMem=   939524096 cpu:         0.0
 (Enter /Local/ce_dana/g09/l101.exe)
 ---
 TS0
 ---
 Symbolic Z-matrix:
 Charge =  0 Multiplicity = 2
 C                     0.28265   2.34084  -0.69771 
 C                    -0.7038    1.89005   0.36978 
 O                    -0.83111   0.47286   0.46606 
 O                     0.41106  -0.029     1.03982 
 H                     0.00148   1.9427   -1.67625 
 H                     1.29046   1.99932  -0.45488 
 H                     0.30121   3.43247  -0.76271 
 H                    -1.72451   2.20306   0.12894 
 H                    -0.44285   2.29494   1.35368 
 C                     0.41106  -2.33105  -1.3912 
 C                     0.41106  -2.33105   0.1392 
 H                     0.41106  -3.34945  -1.78963 
 H                    -0.4709   -1.82185  -1.78963 
 H                     1.29302  -1.82185  -1.78963 
 H                     0.41106  -1.10897   0.61731 
 H                     1.29302  -2.84025   0.53763 
 H                    -0.4709   -2.84025   0.53763 
 
 Add virtual bond connecting atoms H15        and O4         Dist= 2.19D+00.
 Add virtual bond connecting atoms H15        and C11        Dist= 2.48D+00.
 NAtoms=     17 NQM=       17 NQMF=       0 NMMI=      0 NMMIF=      0
                NMic=       0 NMicF=      0.
                    Isotopes and Nuclear Properties:
 (Nuclear quadrupole moments (NQMom) in fm**2, nuclear magnetic moments (NMagM)
  in nuclear magnetons)

  Atom         1           2           3           4           5           6           7           8           9          10
 IAtWgt=          12          12          16          16           1           1           1           1           1          12
 AtmWgt=  12.0000000  12.0000000  15.9949146  15.9949146   1.0078250   1.0078250   1.0078250   1.0078250   1.0078250  12.0000000
 NucSpn=           0           0           0           0           1           1           1           1           1           0
 AtZEff=   0.0000000   0.0000000   0.0000000   0.0000000   0.0000000   0.0000000   0.0000000   0.0000000   0.0000000   0.0000000
 NQMom=    0.0000000   0.0000000   0.0000000   0.0000000   0.0000000   0.0000000   0.0000000   0.0000000   0.0000000   0.0000000
 NMagM=    0.0000000   0.0000000   0.0000000   0.0000000   2.7928460   2.7928460   2.7928460   2.7928460   2.7928460   0.0000000
 AtZNuc=   6.0000000   6.0000000   8.0000000   8.0000000   1.0000000   1.0000000   1.0000000   1.0000000   1.0000000   6.0000000

  Atom        11          12          13          14          15          16          17
 IAtWgt=          12           1           1           1           1           1           1
 AtmWgt=  12.0000000   1.0078250   1.0078250   1.0078250   1.0078250   1.0078250   1.0078250
 NucSpn=           0           1           1           1           1           1           1
 AtZEff=   0.0000000   0.0000000   0.0000000   0.0000000   0.0000000   0.0000000   0.0000000
 NQMom=    0.0000000   0.0000000   0.0000000   0.0000000   0.0000000   0.0000000   0.0000000
 NMagM=    0.0000000   2.7928460   2.7928460   2.7928460   2.7928460   2.7928460   2.7928460
 AtZNuc=   6.0000000   1.0000000   1.0000000   1.0000000   1.0000000   1.0000000   1.0000000
 Leave Link  101 at Mon Jul  4 15:52:21 2022, MaxMem=   939524096 cpu:         0.3
 (Enter /Local/ce_dana/g09/l103.exe)

 GradGradGradGradGradGradGradGradGradGradGradGradGradGradGradGradGradGrad
 Stoichiometry    C4H11O2(2)
 Framework group  C1[X(C4H11O2)]
 Deg. of freedom    45
 Full point group                 C1      NOp   1
 RotChk:  IX=0 Diff= 4.44D-16
 Largest Abelian subgroup         C1      NOp   1
 Largest concise Abelian subgroup C1      NOp   1
                         Standard orientation:                         
 ---------------------------------------------------------------------
 Center     Atomic      Atomic             Coordinates (Angstroms)
 Number     Number       Type             X           Y           Z
 ---------------------------------------------------------------------
      1          6           0        1.202283    1.474975    0.058374
      2          6           0        1.988498    0.182495   -0.053200
      3          8           0        1.251668   -0.965813    0.321887
      4          8           0        0.241126   -1.183933   -0.589405
      5          1           0        0.822422    1.619050    1.080937
      6          1           0        0.351539    1.467993   -0.637121
      7          1           0        1.843447    2.331503   -0.197050
      8          1           0        2.841851    0.175269    0.641862
      9          1           0        2.378798    0.046215   -1.076533
     10          6           0       -2.592218    0.562519   -0.310270
     11          6           0       -1.829987   -0.359989    0.593225
     12          1           0       -3.508458    0.927556    0.188107
     13          1           0       -2.000659    1.448395   -0.585707
     14          1           0       -2.906765    0.057541   -1.235682
     15          1           0       -0.714040   -0.818212   -0.066116
     16          1           0       -2.317645   -1.313815    0.832681
     17          1           0       -1.344301    0.096471    1.465984
 ---------------------------------------------------------------------
 Rotational constants (GHZ):      4.8071835      1.7865924      1.4575962
 Leave Link  202 at Mon Jul  4 16:03:11 2022, MaxMem=   939524096 cpu:         0.0
 (Enter /Local/ce_dana/g09/l601.exe)
 Copying SCF densities to generalized density rwf, IOpCl= 1 IROHF=0.

 **********************************************************************

            Population analysis using the SCF density.

 **********************************************************************

 Orbital symmetries:
 Alpha Orbitals:
       Occupied  (A) (A) (A) (A) (A) (A) (A) (A) (A) (A) (A) (A)
                 (A) (A) (A) (A) (A) (A) (A) (A) (A) (A) (A) (A)
                 (A) (A)
       Virtual   (A) (A) (A) (A) (A) (A) (A) (A) (A) (A) (A) (A)
                 (A) (A) (A) (A) (A) (A) (A) (A) (A) (A) (A) (A)
                 (A) (A) (A) (A) (A) (A) (A) (A) (A) (A) (A) (A)
                 (A) (A) (A) (A) (A) (A) (A) (A) (A) (A) (A) (A)
                 (A) (A) (A) (A) (A) (A) (A) (A) (A) (A) (A) (A)
                 (A) (A) (A) (A) (A) (A) (A) (A) (A) (A) (A) (A)
                 (A) (A) (A) (A) (A) (A) (A) (A) (A) (A) (A) (A)
                 (A) (A) (A) (A) (A) (A) (A) (A) (A) (A) (A) (A)
                 (A) (A) (A) (A) (A) (A) (A) (A) (A) (A) (A) (A)
                 (A) (A) (A) (A) (A)
 Beta  Orbitals:
       Occupied  (A) (A) (A) (A) (A) (A) (A) (A) (A) (A) (A) (A)
                 (A) (A) (A) (A) (A) (A) (A) (A) (A) (A) (A) (A)
                 (A)
       Virtual   (A) (A) (A) (A) (A) (A) (A) (A) (A) (A) (A) (A)
                 (A) (A) (A) (A) (A) (A) (A) (A) (A) (A) (A) (A)
                 (A) (A) (A) (A) (A) (A) (A) (A) (A) (A) (A) (A)
                 (A) (A) (A) (A) (A) (A) (A) (A) (A) (A) (A) (A)
                 (A) (A) (A) (A) (A) (A) (A) (A) (A) (A) (A) (A)
                 (A) (A) (A) (A) (A) (A) (A) (A) (A) (A) (A) (A)
                 (A) (A) (A) (A) (A) (A) (A) (A) (A) (A) (A) (A)
                 (A) (A) (A) (A) (A) (A) (A) (A) (A) (A) (A) (A)
                 (A) (A) (A) (A) (A) (A) (A) (A) (A) (A) (A) (A)
                 (A) (A) (A) (A) (A) (A)
 The electronic state is 2-A.
 Alpha  occ. eigenvalues --  -19.30829 -19.29886 -10.34476 -10.31647 -10.30438
 Alpha  occ. eigenvalues --  -10.29626  -1.22762  -0.97379  -0.86575  -0.83203
 Alpha  occ. eigenvalues --   -0.72085  -0.69951  -0.61956  -0.57293  -0.55032
 Alpha  occ. eigenvalues --   -0.54434  -0.53245  -0.50399  -0.48051  -0.47149
 Alpha  occ. eigenvalues --   -0.46203  -0.44509  -0.43324  -0.37819  -0.35668
 Alpha  occ. eigenvalues --   -0.30600
 Alpha virt. eigenvalues --    0.13081   0.15588   0.16997   0.17213   0.17824
 Alpha virt. eigenvalues --    0.20338   0.20925   0.21334   0.22648   0.23789
 Alpha virt. eigenvalues --    0.26245   0.28618   0.31014   0.32599   0.35889
 Alpha virt. eigenvalues --    0.45733   0.48766   0.49819   0.50734   0.53372
 Alpha virt. eigenvalues --    0.56708   0.59792   0.60685   0.65928   0.66785
 Alpha virt. eigenvalues --    0.68975   0.69767   0.71733   0.73562   0.73961
 Alpha virt. eigenvalues --    0.75200   0.75652   0.76091   0.76392   0.78847
 Alpha virt. eigenvalues --    0.79793   0.80668   0.83369   0.85408   0.87655
 Alpha virt. eigenvalues --    0.96597   1.03322   1.05749   1.08439   1.13640
 Alpha virt. eigenvalues --    1.15128   1.18078   1.19196   1.23962   1.28302
 Alpha virt. eigenvalues --    1.35005   1.42311   1.43065   1.46349   1.49551
 Alpha virt. eigenvalues --    1.52794   1.55667   1.59378   1.61364   1.63066
 Alpha virt. eigenvalues --    1.69745   1.75695   1.80126   1.81450   1.81774
 Alpha virt. eigenvalues --    1.83045   1.85436   1.86824   1.87489   1.88102
 Alpha virt. eigenvalues --    1.89148   1.91141   1.92542   1.94050   1.95076
 Alpha virt. eigenvalues --    1.97812   1.99711   2.06399   2.09978   2.11750
 Alpha virt. eigenvalues --    2.20677   2.24662   2.26006   2.35752   2.39385
 Alpha virt. eigenvalues --    2.43810   2.45115   2.47319   2.51098   2.54630
 Alpha virt. eigenvalues --    2.55452   2.56786   2.58942   2.62026   2.66164
 Alpha virt. eigenvalues --    2.66940   2.77447   2.84872   2.87956   2.90744
 Alpha virt. eigenvalues --    2.95879   3.00539   3.03127   3.04209   3.05993
 Alpha virt. eigenvalues --    3.07637   3.09586   3.13701   3.27152   3.27602
 Alpha virt. eigenvalues --    3.43794   3.69294   4.00850
  Beta  occ. eigenvalues --  -19.30670 -19.28857 -10.34483 -10.30802 -10.30471
  Beta  occ. eigenvalues --  -10.29618  -1.21507  -0.95687  -0.85257  -0.82847
  Beta  occ. eigenvalues --   -0.70720  -0.69263  -0.60261  -0.57093  -0.53998
  Beta  occ. eigenvalues --   -0.53342  -0.52094  -0.49285  -0.47461  -0.46797
  Beta  occ. eigenvalues --   -0.44957  -0.43999  -0.43040  -0.35816  -0.33470
  Beta virt. eigenvalues --   -0.03707   0.13234   0.15742   0.17305   0.17894
  Beta virt. eigenvalues --    0.18057   0.20551   0.21095   0.21376   0.22812
  Beta virt. eigenvalues --    0.24035   0.26518   0.28924   0.31262   0.33154
  Beta virt. eigenvalues --    0.37842   0.45915   0.49119   0.50493   0.50884
  Beta virt. eigenvalues --    0.53484   0.57116   0.60010   0.61477   0.67021
  Beta virt. eigenvalues --    0.68190   0.69154   0.70086   0.72260   0.73869
  Beta virt. eigenvalues --    0.74179   0.75590   0.75867   0.76653   0.76886
  Beta virt. eigenvalues --    0.78913   0.79951   0.81126   0.83537   0.85600
  Beta virt. eigenvalues --    0.88153   0.96795   1.03952   1.06703   1.08741
  Beta virt. eigenvalues --    1.14150   1.15653   1.18986   1.19997   1.24744
  Beta virt. eigenvalues --    1.28825   1.35708   1.42490   1.43208   1.47074
  Beta virt. eigenvalues --    1.49964   1.52996   1.56459   1.59573   1.61546
  Beta virt. eigenvalues --    1.63151   1.70145   1.78261   1.80668   1.81752
  Beta virt. eigenvalues --    1.81860   1.83173   1.85538   1.87049   1.87670
  Beta virt. eigenvalues --    1.88274   1.89700   1.91307   1.92693   1.94292
  Beta virt. eigenvalues --    1.95200   1.97923   1.99966   2.07122   2.10757
  Beta virt. eigenvalues --    2.11906   2.20799   2.25147   2.26617   2.37467
  Beta virt. eigenvalues --    2.40146   2.44062   2.46346   2.47527   2.52002
  Beta virt. eigenvalues --    2.54930   2.56077   2.57602   2.59611   2.62369
  Beta virt. eigenvalues --    2.66461   2.67670   2.77538   2.85343   2.88827
  Beta virt. eigenvalues --    2.92392   2.97677   3.00884   3.03191   3.04463
  Beta virt. eigenvalues --    3.06194   3.08236   3.10603   3.14065   3.27842
  Beta virt. eigenvalues --    3.29096   3.44053   3.71565   4.02475
          Condensed to atoms (all electrons):
               1          2          3          4          5          6
     1  C    4.706176   0.397614  -0.049294  -0.005498   0.379312   0.389152
     2  C    0.397614   4.484373   0.283782  -0.048673  -0.015251  -0.022863
     3  O   -0.049294   0.283782   7.979632   0.094200   0.003386  -0.006248
     4  O   -0.005498  -0.048673   0.094200   7.992472  -0.001073   0.015945
     5  H    0.379312  -0.015251   0.003386  -0.001073   0.630903  -0.026996
     6  H    0.389152  -0.022863  -0.006248   0.015945  -0.026996   0.615698
     7  H    0.370989  -0.009806   0.003603   0.000170  -0.016394  -0.016524
     8  H   -0.021450   0.378645  -0.020125   0.005688  -0.009452   0.007745
     9  H   -0.050530   0.402743  -0.027730   0.000922   0.008140  -0.010078
    10  C   -0.002841   0.000218   0.000333   0.004508  -0.000049  -0.000472
    11  C    0.001967  -0.002837   0.001341  -0.090368  -0.001355   0.002343
    12  H    0.000064  -0.000012  -0.000014  -0.000047  -0.000035   0.000002
    13  H    0.000371   0.000111   0.000126  -0.000531   0.000452   0.005441
    14  H    0.000024   0.000013  -0.000020   0.000382   0.000001  -0.000159
    15  H    0.003514   0.001717  -0.024976   0.216988   0.000289  -0.001695
    16  H   -0.000027   0.000071   0.000328   0.001459   0.000048   0.000101
    17  H   -0.000535   0.000318   0.003307   0.000002   0.002985  -0.000993
               7          8          9         10         11         12
     1  C    0.370989  -0.021450  -0.050530  -0.002841   0.001967   0.000064
     2  C   -0.009806   0.378645   0.402743   0.000218  -0.002837  -0.000012
     3  O    0.003603  -0.020125  -0.027730   0.000333   0.001341  -0.000014
     4  O    0.000170   0.005688   0.000922   0.004508  -0.090368  -0.000047
     5  H   -0.016394  -0.009452   0.008140  -0.000049  -0.001355  -0.000035
     6  H   -0.016524   0.007745  -0.010078  -0.000472   0.002343   0.000002
     7  H    0.626897  -0.003201  -0.000948   0.000059   0.000081  -0.000003
     8  H   -0.003201   0.647793  -0.027146  -0.000012   0.000191   0.000001
     9  H   -0.000948  -0.027146   0.667628   0.000034  -0.000360  -0.000001
    10  C    0.000059  -0.000012   0.000034   4.569596   0.389825   0.385941
    11  C    0.000081   0.000191  -0.000360   0.389825   5.028511  -0.019897
    12  H   -0.000003   0.000001  -0.000001   0.385941  -0.019897   0.628071
    13  H   -0.000107  -0.000004   0.000039   0.399794  -0.028519  -0.021461
    14  H    0.000001  -0.000000  -0.000001   0.398966  -0.026617  -0.022692
    15  H   -0.000136  -0.000778   0.000839  -0.010402   0.195753   0.002549
    16  H   -0.000003   0.000001   0.000010  -0.021520   0.378294  -0.004927
    17  H    0.000050  -0.000077   0.000140  -0.021658   0.374959  -0.004955
              13         14         15         16         17
     1  C    0.000371   0.000024   0.003514  -0.000027  -0.000535
     2  C    0.000111   0.000013   0.001717   0.000071   0.000318
     3  O    0.000126  -0.000020  -0.024976   0.000328   0.003307
     4  O   -0.000531   0.000382   0.216988   0.001459   0.000002
     5  H    0.000452   0.000001   0.000289   0.000048   0.002985
     6  H    0.005441  -0.000159  -0.001695   0.000101  -0.000993
     7  H   -0.000107   0.000001  -0.000136  -0.000003   0.000050
     8  H   -0.000004  -0.000000  -0.000778   0.000001  -0.000077
     9  H    0.000039  -0.000001   0.000839   0.000010   0.000140
    10  C    0.399794   0.398966  -0.010402  -0.021520  -0.021658
    11  C   -0.028519  -0.026617   0.195753   0.378294   0.374959
    12  H   -0.021461  -0.022692   0.002549  -0.004927  -0.004955
    13  H    0.620797  -0.021293  -0.003505   0.006395  -0.006733
    14  H   -0.021293   0.616763  -0.003108  -0.006309   0.006206
    15  H   -0.003505  -0.003108   0.459635  -0.003830  -0.005188
    16  H    0.006395  -0.006309  -0.003830   0.600951  -0.021697
    17  H   -0.006733   0.006206  -0.005188  -0.021697   0.606214
          Atomic-Atomic Spin Densities.
               1          2          3          4          5          6
     1  C    0.012493  -0.000201  -0.003411   0.003911  -0.000432   0.000713
     2  C   -0.000201  -0.006828   0.004351  -0.004119  -0.000048   0.000042
     3  O   -0.003411   0.004351   0.079479  -0.040828   0.000271   0.000154
     4  O    0.003911  -0.004119  -0.040828   0.493229  -0.000336  -0.000757
     5  H   -0.000432  -0.000048   0.000271  -0.000336  -0.000086   0.000063
     6  H    0.000713   0.000042   0.000154  -0.000757   0.000063  -0.001050
     7  H   -0.001994   0.000683   0.000058  -0.000079   0.000175   0.000115
     8  H   -0.001670   0.001181  -0.000132  -0.000061   0.000132  -0.000084
     9  H   -0.003449  -0.001185  -0.001237   0.000935   0.000083   0.000079
    10  C    0.000410  -0.000171  -0.000260   0.003894  -0.000110  -0.000129
    11  C   -0.004092   0.002253   0.010366  -0.081681   0.000769   0.000197
    12  H   -0.000038   0.000013   0.000014  -0.000229   0.000028   0.000017
    13  H    0.000175  -0.000085  -0.000066   0.000612  -0.000085  -0.000053
    14  H    0.000040  -0.000015  -0.000022   0.000634  -0.000009  -0.000021
    15  H   -0.002752   0.001971   0.005973  -0.017441   0.000380   0.000285
    16  H    0.000087  -0.000059  -0.000329   0.002625  -0.000025  -0.000007
    17  H    0.000952  -0.000488  -0.001396   0.002784  -0.000388  -0.000046
               7          8          9         10         11         12
     1  C   -0.001994  -0.001670  -0.003449   0.000410  -0.004092  -0.000038
     2  C    0.000683   0.001181  -0.001185  -0.000171   0.002253   0.000013
     3  O    0.000058  -0.000132  -0.001237  -0.000260   0.010366   0.000014
     4  O   -0.000079  -0.000061   0.000935   0.003894  -0.081681  -0.000229
     5  H    0.000175   0.000132   0.000083  -0.000110   0.000769   0.000028
     6  H    0.000115  -0.000084   0.000079  -0.000129   0.000197   0.000017
     7  H    0.001074   0.000129   0.000449  -0.000021   0.000117   0.000003
     8  H    0.000129  -0.000668   0.001091  -0.000002   0.000055   0.000000
     9  H    0.000449   0.001091   0.005459  -0.000037   0.000494   0.000002
    10  C   -0.000021  -0.000002  -0.000037  -0.024188  -0.039008   0.009695
    11  C    0.000117   0.000055   0.000494  -0.039008   0.737439  -0.013432
    12  H    0.000003   0.000000   0.000002   0.009695  -0.013432   0.056647
    13  H   -0.000034  -0.000001  -0.000023   0.004264  -0.005096  -0.005232
    14  H   -0.000002  -0.000000  -0.000006   0.004990  -0.006683  -0.005817
    15  H    0.000054   0.000032   0.000598   0.000378   0.046137  -0.000068
    16  H   -0.000001  -0.000001  -0.000010   0.001466  -0.007020  -0.001874
    17  H   -0.000039  -0.000009  -0.000051   0.000856  -0.004644  -0.001396
              13         14         15         16         17
     1  C    0.000175   0.000040  -0.002752   0.000087   0.000952
     2  C   -0.000085  -0.000015   0.001971  -0.000059  -0.000488
     3  O   -0.000066  -0.000022   0.005973  -0.000329  -0.001396
     4  O    0.000612   0.000634  -0.017441   0.002625   0.002784
     5  H   -0.000085  -0.000009   0.000380  -0.000025  -0.000388
     6  H   -0.000053  -0.000021   0.000285  -0.000007  -0.000046
     7  H   -0.000034  -0.000002   0.000054  -0.000001  -0.000039
     8  H   -0.000001  -0.000000   0.000032  -0.000001  -0.000009
     9  H   -0.000023  -0.000006   0.000598  -0.000010  -0.000051
    10  C    0.004264   0.004990   0.000378   0.001466   0.000856
    11  C   -0.005096  -0.006683   0.046137  -0.007020  -0.004644
    12  H   -0.005232  -0.005817  -0.000068  -0.001874  -0.001396
    13  H    0.008566   0.002148  -0.000094   0.000175   0.000980
    14  H    0.002148   0.011451  -0.000151   0.001238   0.000160
    15  H   -0.000094  -0.000151  -0.069671   0.001341   0.003277
    16  H    0.000175   0.001238   0.001341  -0.019643   0.002947
    17  H    0.000980   0.000160   0.003277   0.002947  -0.023164
 Mulliken charges and spin densities:
               1          2
     1  C   -0.119009   0.000741
     2  C    0.149837  -0.002705
     3  O   -0.241630   0.052985
     4  O   -0.186547   0.363096
     5  H    0.045090   0.000382
     6  H    0.049601  -0.000481
     7  H    0.045272   0.000687
     8  H    0.042183  -0.000008
     9  H    0.036298   0.003191
    10  C   -0.092319  -0.037972
    11  C   -0.203312   0.636171
    12  H    0.057419   0.038333
    13  H    0.048626   0.006153
    14  H    0.057845   0.007935
    15  H    0.172335  -0.029752
    16  H    0.070656  -0.019090
    17  H    0.067655  -0.019665
 Sum of Mulliken charges =  -0.00000   1.00000
 Mulliken charges and spin densities with hydrogens summed into heavy atoms:
               1          2
     1  C    0.020954   0.001328
     2  C    0.228318   0.000478
     3  O   -0.241630   0.052985
     4  O   -0.014212   0.333344
    10  C    0.071570   0.014448
    11  C   -0.065001   0.597417
 Electronic spatial extent (au):  <R**2>=            872.9291
 Charge=             -0.0000 electrons
 Dipole moment (field-independent basis, Debye):
    X=             -0.7299    Y=              2.2208    Z=              0.3935  Tot=              2.3706
 Quadrupole moment (field-independent basis, Debye-Ang):
   XX=            -33.3598   YY=            -41.4422   ZZ=            -39.3603
   XY=              2.9236   XZ=             -0.4525   YZ=             -0.3911
 Traceless Quadrupole moment (field-independent basis, Debye-Ang):
   XX=              4.6943   YY=             -3.3881   ZZ=             -1.3062
   XY=              2.9236   XZ=             -0.4525   YZ=             -0.3911
 Octapole moment (field-independent basis, Debye-Ang**2):
  XXX=              8.2383  YYY=             -4.2446  ZZZ=             -0.4769  XYY=             -0.7102
  XXY=             -0.5399  XXZ=             -0.9397  XZZ=              2.0410  YZZ=             -1.5202
  YYZ=              0.2390  XYZ=              0.5485
 Hexadecapole moment (field-independent basis, Debye-Ang**3):
 XXXX=           -743.2856 YYYY=           -267.8802 ZZZZ=            -99.3006 XXXY=              0.0706
 XXXZ=              2.1511 YYYX=              3.1822 YYYZ=             -1.9741 ZZZX=              2.7052
 ZZZY=              2.9963 XXYY=           -171.6715 XXZZ=           -143.8319 YYZZ=            -61.8791
 XXYZ=              2.2514 YYXZ=             -2.5286 ZZXY=             -0.5557
 N-N= 2.562285108831D+02 E-N=-1.233527493560D+03  KE= 3.061037127564D+02
                          Isotropic Fermi Contact Couplings
        Atom                 a.u.       MegaHertz       Gauss      10(-4) cm-1
     1  C(13)              0.00553       6.21206       2.21662       2.07212
     2  C(13)             -0.00300      -3.37563      -1.20451      -1.12599
     3  O(17)              0.03064     -18.57316      -6.62737      -6.19534
     4  O(17)              0.16085     -97.50361     -34.79171     -32.52370
     5  H(1)              -0.00001      -0.03835      -0.01368      -0.01279
     6  H(1)              -0.00006      -0.27037      -0.09647      -0.09018
     7  H(1)               0.00014       0.64428       0.22989       0.21491
     8  H(1)               0.00002       0.08700       0.03104       0.02902
     9  H(1)               0.00028       1.26685       0.45204       0.42258
    10  C(13)             -0.01990     -22.37204      -7.98290      -7.46251
    11  C(13)              0.20279     227.97952      81.34876      76.04578
    12  H(1)               0.01851      82.75581      29.52933      27.60437
    13  H(1)               0.00284      12.71152       4.53579       4.24011
    14  H(1)               0.00383      17.10079       6.10199       5.70421
    15  H(1)              -0.02479    -110.82193     -39.54402     -36.96622
    16  H(1)              -0.00540     -24.13648      -8.61250      -8.05106
    17  H(1)              -0.00525     -23.46305      -8.37220      -7.82643
 --------------------------------------------------------
       Center         ----  Spin Dipole Couplings  ----
                      3XX-RR        3YY-RR        3ZZ-RR
 --------------------------------------------------------
     1   Atom       -0.001428      0.007528     -0.006101
     2   Atom        0.005035      0.000959     -0.005994
     3   Atom        0.138050     -0.012491     -0.125559
     4   Atom        0.338582     -0.369107      0.030526
     5   Atom       -0.000086      0.002674     -0.002588
     6   Atom       -0.001474      0.006186     -0.004712
     7   Atom        0.000180      0.001859     -0.002038
     8   Atom        0.004095     -0.001369     -0.002726
     9   Atom        0.004927     -0.001516     -0.003410
    10   Atom        0.011525     -0.001819     -0.009706
    11   Atom        0.283292     -0.270971     -0.012321
    12   Atom        0.005286     -0.001947     -0.003339
    13   Atom       -0.005444      0.008492     -0.003048
    14   Atom        0.001832     -0.006756      0.004924
    15   Atom        0.138666     -0.087076     -0.051591
    16   Atom       -0.004845      0.034226     -0.029382
    17   Atom        0.004798     -0.026907      0.022109
 --------------------------------------------------------
                        XY            XZ            YZ
 --------------------------------------------------------
     1   Atom        0.001983     -0.000047     -0.000170
     2   Atom        0.007121      0.001435      0.000245
     3   Atom       -0.202385     -0.186767      0.096308
     4   Atom       -0.741991     -0.991727      0.638925
     5   Atom        0.003438      0.000997      0.003150
     6   Atom        0.003724     -0.001982     -0.002842
     7   Atom        0.002468     -0.000306     -0.000166
     8   Atom        0.003376      0.001689      0.001203
     9   Atom        0.005168     -0.003016     -0.001736
    10   Atom       -0.019253     -0.000342     -0.002540
    11   Atom       -0.236230     -0.472627      0.176574
    12   Atom       -0.008382     -0.000748     -0.001914
    13   Atom       -0.003816      0.000633     -0.007657
    14   Atom       -0.003110      0.008996     -0.002889
    15   Atom       -0.096389     -0.134314      0.051462
    16   Atom        0.025763     -0.025277     -0.008158
    17   Atom        0.010452      0.017931      0.036381
 --------------------------------------------------------


 ---------------------------------------------------------------------------------
              Anisotropic Spin Dipole Couplings in Principal Axis System
 ---------------------------------------------------------------------------------

       Atom             a.u.   MegaHertz   Gauss  10(-4) cm-1        Axes

              Baa    -0.0061    -0.819    -0.292    -0.273  0.0050  0.0118  0.9999
     1 C(13)  Bbb    -0.0018    -0.248    -0.088    -0.083  0.9783 -0.2070 -0.0025
              Bcc     0.0079     1.067     0.381     0.356  0.2069  0.9783 -0.0126
 
              Baa    -0.0063    -0.849    -0.303    -0.283 -0.2558  0.2183  0.9418
     2 C(13)  Bbb    -0.0042    -0.561    -0.200    -0.187 -0.5455  0.7717 -0.3270
              Bcc     0.0105     1.410     0.503     0.470  0.7981  0.5974  0.0783
 
              Baa    -0.2229    16.130     5.756     5.381  0.4912  0.0752  0.8678
     3 O(17)  Bbb    -0.1441    10.430     3.722     3.479  0.4118  0.8579 -0.3074
              Bcc     0.3671   -26.561    -9.478    -8.860  0.7676 -0.5083 -0.3904
 
              Baa    -0.8417    60.906    21.733    20.316  0.2642  0.8963 -0.3561
     4 O(17)  Bbb    -0.8188    59.251    21.142    19.764  0.6802  0.0886  0.7276
              Bcc     1.6606  -120.156   -42.875   -40.080  0.6837 -0.4345 -0.5863
 
              Baa    -0.0042    -2.230    -0.796    -0.744  0.2080 -0.4927  0.8450
     5 H(1)   Bbb    -0.0020    -1.056    -0.377    -0.352  0.8440 -0.3462 -0.4097
              Bcc     0.0062     3.286     1.173     1.096  0.4944  0.7984  0.3438
 
              Baa    -0.0058    -3.079    -1.099    -1.027  0.3277  0.1207  0.9370
     6 H(1)   Bbb    -0.0028    -1.489    -0.531    -0.497  0.8651 -0.4369 -0.2463
              Bcc     0.0086     4.568     1.630     1.524  0.3797  0.8914 -0.2476
 
              Baa    -0.0021    -1.121    -0.400    -0.374  0.2621 -0.1234  0.9571
     7 H(1)   Bbb    -0.0015    -0.823    -0.294    -0.275  0.7693 -0.5721 -0.2844
              Bcc     0.0036     1.944     0.694     0.648  0.5827  0.8108 -0.0550
 
              Baa    -0.0035    -1.842    -0.657    -0.615  0.0983 -0.6121  0.7846
     8 H(1)   Bbb    -0.0027    -1.453    -0.518    -0.485 -0.4726  0.6652  0.5781
              Bcc     0.0062     3.295     1.176     1.099  0.8758  0.4276  0.2239
 
              Baa    -0.0044    -2.372    -0.847    -0.791 -0.1298  0.6647  0.7357
     9 H(1)   Bbb    -0.0043    -2.316    -0.827    -0.773  0.5264 -0.5826  0.6192
              Bcc     0.0088     4.689     1.673     1.564  0.8403  0.4677 -0.2743
 
              Baa    -0.0163    -2.188    -0.781    -0.730  0.5405  0.7755  0.3264
    10 C(13)  Bbb    -0.0090    -1.203    -0.429    -0.401 -0.2163 -0.2469  0.9446
              Bcc     0.0253     3.391     1.210     1.131  0.8131 -0.5811  0.0343
 
              Baa    -0.3616   -48.523   -17.314   -16.186  0.3090 -0.6124  0.7277
    11 C(13)  Bbb    -0.3570   -47.904   -17.093   -15.979  0.5557  0.7372  0.3844
              Bcc     0.7186    96.427    34.407    32.164  0.7718 -0.2856 -0.5681
 
              Baa    -0.0083    -4.417    -1.576    -1.473  0.5017  0.7783  0.3775
    12 H(1)   Bbb    -0.0025    -1.351    -0.482    -0.451 -0.2322 -0.2992  0.9255
              Bcc     0.0108     5.768     2.058     1.924  0.8333 -0.5520  0.0306
 
              Baa    -0.0077    -4.104    -1.464    -1.369  0.5845  0.4555  0.6715
    13 H(1)   Bbb    -0.0054    -2.860    -1.021    -0.954  0.7872 -0.1178 -0.6053
              Bcc     0.0131     6.964     2.485     2.323 -0.1967  0.8824 -0.4274
 
              Baa    -0.0078    -4.143    -1.478    -1.382  0.3133  0.9497 -0.0059
    14 H(1)   Bbb    -0.0056    -3.001    -1.071    -1.001  0.7061 -0.2370 -0.6672
              Bcc     0.0134     7.143     2.549     2.383  0.6350 -0.2049  0.7448
 
              Baa    -0.1238   -66.049   -23.568   -22.031  0.0442  0.8505 -0.5241
    15 H(1)   Bbb    -0.1204   -64.226   -22.918   -21.424  0.5361  0.4225  0.7308
              Bcc     0.2442   130.275    46.485    43.455  0.8430 -0.3132 -0.4373
 
              Baa    -0.0459   -24.480    -8.735    -8.166  0.5661 -0.0987  0.8184
    16 H(1)   Bbb    -0.0057    -3.034    -1.083    -1.012  0.6632 -0.5351 -0.5233
              Bcc     0.0516    27.514     9.818     9.178  0.4896  0.8390 -0.2374
 
              Baa    -0.0463   -24.692    -8.811    -8.236 -0.0174  0.8846 -0.4660
    17 H(1)   Bbb    -0.0045    -2.420    -0.864    -0.807  0.9115 -0.1775 -0.3710
              Bcc     0.0508    27.113     9.674     9.044  0.4109  0.4312  0.8032
 

 ---------------------------------------------------------------------------------

 No NMR shielding tensors so no spin-rotation constants.
 Leave Link  601 at Mon Jul  4 16:03:11 2022, MaxMem=   939524096 cpu:         2.2
 (Enter /Local/ce_dana/g09/l9999.exe)

 Test job not archived.
 1\1\GINC-TECH-WN215\FTS\UwB97XD\def2SVP\C4H11O2(2)\ALONGD\04-Jul-2022\
 0\\#P opt=(ts, calcfc, noeigentest, maxcycles=100) guess=mix uwb97xd/d
 ef2svp IOp(2/9=2000) scf=xqc\\TS0\\0,2\C,-0.4472538499,1.559481253,-0.
 85732597\C,-0.5063813496,1.8365089761,0.6329255062\O,-0.5594898823,0.6
 66781048,1.4273651063\O,0.6339020232,-0.0149116535,1.3257042704\H,-1.3
 06647123,0.9531799051,-1.1806327948\H,0.4784062653,1.0248163796,-1.111
 9098994\H,-0.4593555821,2.5051388084,-1.4190717234\H,-1.4315569508,2.3
 686450147,0.9017305189\H,0.3499894972,2.4549917748,0.9526528864\C,1.14
 59637688,-1.9926072726,-1.3167115382\C,0.1090962462,-1.9264508136,-0.2
 355789206\H,0.9372730967,-2.8302692095,-2.006564752\H,1.1665032902,-1.
 0741773515,-1.9222265705\H,2.1530579321,-2.1559014189,-0.9050974426\H,
 0.4137307519,-0.8945209286,0.6201988874\H,0.0944242478,-2.7656306379,0
 .4718789573\H,-0.8985734216,-1.6125286936,-0.5389071414\\Version=ES64L
 -G09RevD.01\State=2-A\HF=-308.9946785\S2=0.758245\S2-1=0.\S2A=0.750035
 \RMSD=5.144e-09\RMSF=8.471e-06\Dipole=-0.1116879,0.0033958,-0.925946\Q
 uadrupole=-0.6896736,3.9067514,-3.2170777,-1.216333,-0.1452808,0.33517
 28\PG=C01 [X(C4H11O2)]\\@


 IT IS UNWORTHY OF EXCELLENT MEN TO LOSE HOURS LIKE SLAVES IN THE LABOR
 OF CALCULATION WHICH COULD BE SAFELY RELEGATED TO ANYONE ELSE
 IF A MACHINE WERE USED.
    -- G.W. VON LEIBNIZ
 Job cpu time:       0 days  1 hours 26 minutes 53.5 seconds.
 File lengths (MBytes):  RWF=     74 Int=      0 D2E=      0 Chk=      3 Scr=      1
 Normal termination of Gaussian 09 at Mon Jul  4 16:03:11 2022.
