 Entering Gaussian System, Link 0=/Local/ce_dana/g09/g09
 Initial command:
 /Local/ce_dana/g09/l1.exe "/storage/ce_dana/alongd/scratch/g09/Gau-3051.inp" -scrdir="/storage/ce_dana/alongd/scratch/g09/"
 Entering Link 1 = /Local/ce_dana/g09/l1.exe PID=      3064.
  
 Copyright (c) 1988,1990,1992,1993,1995,1998,2003,2009,2013,
            Gaussian, Inc.  All Rights Reserved.
  
 This is part of the Gaussian(R) 09 program.  It is based on
 the Gaussian(R) 03 system (copyright 2003, Gaussian, Inc.),
 the Gaussian(R) 98 system (copyright 1998, Gaussian, Inc.),
 the Gaussian(R) 94 system (copyright 1995, Gaussian, Inc.),
 the Gaussian 92(TM) system (copyright 1992, Gaussian, Inc.),
 the Gaussian 90(TM) system (copyright 1990, Gaussian, Inc.),
 the Gaussian 88(TM) system (copyright 1988, Gaussian, Inc.),
 the Gaussian 86(TM) system (copyright 1986, Carnegie Mellon
 University), and the Gaussian 82(TM) system (copyright 1983,
 Carnegie Mellon University). Gaussian is a federally registered
 trademark of Gaussian, Inc.
  
 This software contains proprietary and confidential information,
 including trade secrets, belonging to Gaussian, Inc.
  
 This software is provided under written license and may be
 used, copied, transmitted, or stored only in accord with that
 written license.
  
 The following legend is applicable only to US Government
 contracts under FAR:
  
                    RESTRICTED RIGHTS LEGEND
  
 Use, reproduction and disclosure by the US Government is
 subject to restrictions as set forth in subparagraphs (a)
 and (c) of the Commercial Computer Software - Restricted
 Rights clause in FAR 52.227-19.
  
 Gaussian, Inc.
 340 Quinnipiac St., Bldg. 40, Wallingford CT 06492
  
  
 ---------------------------------------------------------------
 Warning -- This program may not be used in any manner that
 competes with the business of Gaussian, Inc. or will provide
 assistance to any competitor of Gaussian, Inc.  The licensee
 of this program is prohibited from giving any competitor of
 Gaussian, Inc. access to this program.  By using this program,
 the user acknowledges that Gaussian, Inc. is engaged in the
 business of creating and licensing software in the field of
 computational chemistry and represents and warrants to the
 licensee that it is not a competitor of Gaussian, Inc. and that
 it will not use this program in any manner prohibited above.
 ---------------------------------------------------------------
  

 Cite this work as:
 Gaussian 09, Revision D.01,
 M. J. Frisch, G. W. Trucks, H. B. Schlegel, G. E. Scuseria, 
 M. A. Robb, J. R. Cheeseman, G. Scalmani, V. Barone, B. Mennucci, 
 G. A. Petersson, H. Nakatsuji, M. Caricato, X. Li, H. P. Hratchian, 
 A. F. Izmaylov, J. Bloino, G. Zheng, J. L. Sonnenberg, M. Hada, 
 M. Ehara, K. Toyota, R. Fukuda, J. Hasegawa, M. Ishida, T. Nakajima, 
 Y. Honda, O. Kitao, H. Nakai, T. Vreven, J. A. Montgomery, Jr., 
 J. E. Peralta, F. Ogliaro, M. Bearpark, J. J. Heyd, E. Brothers, 
 K. N. Kudin, V. N. Staroverov, T. Keith, R. Kobayashi, J. Normand, 
 K. Raghavachari, A. Rendell, J. C. Burant, S. S. Iyengar, J. Tomasi, 
 M. Cossi, N. Rega, J. M. Millam, M. Klene, J. E. Knox, J. B. Cross, 
 V. Bakken, C. Adamo, J. Jaramillo, R. Gomperts, R. E. Stratmann, 
 O. Yazyev, A. J. Austin, R. Cammi, C. Pomelli, J. W. Ochterski, 
 R. L. Martin, K. Morokuma, V. G. Zakrzewski, G. A. Voth, 
 P. Salvador, J. J. Dannenberg, S. Dapprich, A. D. Daniels, 
 O. Farkas, J. B. Foresman, J. V. Ortiz, J. Cioslowski, 
 and D. J. Fox, Gaussian, Inc., Wallingford CT, 2013.
 
 ******************************************
 Gaussian 09:  ES64L-G09RevD.01 24-Apr-2013
                 4-Jul-2022 
 ******************************************
 %chk=check.chk
 %mem=7168mb
 %NProcShared=10
 Will use up to   10 processors via shared memory.
 ----------------------------------------------------------------------
 #P opt=(ts, calcfc, noeigentest, maxcycles=100) guess=mix uwb97xd/def2
 svp IOp(2/9=2000) scf=xqc
 ----------------------------------------------------------------------
 1/5=1,6=100,10=4,11=1,14=-1,18=20,26=3,38=1/1,3;
 2/9=2000,12=2,17=6,18=5,40=1/2;
 3/5=43,7=101,11=2,16=1,25=1,30=1,71=2,74=-58,116=2,140=1/1,2,3;
 4/13=-1/1;
 5/5=2,8=3,13=1,38=5/2,8;
 8/6=4,10=90,11=11/1;
 11/6=1,8=1,9=11,15=111,16=1/1,2,10;
 10/6=1,13=1/2;
 6/7=2,8=2,9=2,10=2,28=1/1;
 7/10=1,18=20,25=1/1,2,3,16;
 1/5=1,6=100,10=4,11=1,14=-1,18=20,26=3/3(2);
 2/9=2000/2;
 99//99;
 2/9=2000/2;
 3/5=43,7=101,11=2,16=1,25=1,30=1,71=1,74=-58,116=2/1,2,3;
 4/5=5,16=3,69=1/1;
 5/5=2,8=3,13=1,38=5/2,8;
 7//1,2,3,16;
 1/5=1,6=100,11=1,14=-1,18=20,26=3/3(-5);
 2/9=2000/2;
 6/7=2,8=2,9=2,10=2,19=2,28=1/1;
 99/9=1/99;
 Leave Link    1 at Mon Jul  4 15:57:02 2022, MaxMem=   939524096 cpu:         0.1
 (Enter /Local/ce_dana/g09/l101.exe)
 ---
 TS0
 ---
 Symbolic Z-matrix:
 Charge =  0 Multiplicity = 2
 C                    -0.59409   2.42474  -0.45516 
 C                    -0.89718   1.71219   0.85489 
 O                    -0.71425   0.29927   0.79069 
 O                     0.72009   0.0587    0.69657 
 H                    -1.21006   2.02375  -1.26442 
 H                     0.45779   2.30469  -0.72057 
 H                    -0.80046   3.49488  -0.36341 
 H                    -1.9544    1.8015    1.12349 
 H                    -0.29768   2.11496   1.67857 
 C                     0.72009  -2.24335  -1.73445 
 C                     0.72009  -2.24335  -0.20404 
 H                     0.72009  -3.26175  -2.13287 
 H                    -0.16187  -1.73414  -2.13287 
 H                     1.60205  -1.73415  -2.13287 
 H                     0.72009  -1.02126   0.27406 
 H                     1.60205  -2.75255   0.19438 
 H                    -0.16187  -2.75255   0.19438 
 
 Add virtual bond connecting atoms H15        and O4         Dist= 2.19D+00.
 Add virtual bond connecting atoms H15        and C11        Dist= 2.48D+00.
 NAtoms=     17 NQM=       17 NQMF=       0 NMMI=      0 NMMIF=      0
                NMic=       0 NMicF=      0.
                    Isotopes and Nuclear Properties:
 (Nuclear quadrupole moments (NQMom) in fm**2, nuclear magnetic moments (NMagM)
  in nuclear magnetons)

  Atom         1           2           3           4           5           6           7           8           9          10
 IAtWgt=          12          12          16          16           1           1           1           1           1          12
 AtmWgt=  12.0000000  12.0000000  15.9949146  15.9949146   1.0078250   1.0078250   1.0078250   1.0078250   1.0078250  12.0000000
 NucSpn=           0           0           0           0           1           1           1           1           1           0
 AtZEff=   0.0000000   0.0000000   0.0000000   0.0000000   0.0000000   0.0000000   0.0000000   0.0000000   0.0000000   0.0000000
 NQMom=    0.0000000   0.0000000   0.0000000   0.0000000   0.0000000   0.0000000   0.0000000   0.0000000   0.0000000   0.0000000
 NMagM=    0.0000000   0.0000000   0.0000000   0.0000000   2.7928460   2.7928460   2.7928460   2.7928460   2.7928460   0.0000000
 AtZNuc=   6.0000000   6.0000000   8.0000000   8.0000000   1.0000000   1.0000000   1.0000000   1.0000000   1.0000000   6.0000000

  Atom        11          12          13          14          15          16          17
 IAtWgt=          12           1           1           1           1           1           1
 AtmWgt=  12.0000000   1.0078250   1.0078250   1.0078250   1.0078250   1.0078250   1.0078250
 NucSpn=           0           1           1           1           1           1           1
 AtZEff=   0.0000000   0.0000000   0.0000000   0.0000000   0.0000000   0.0000000   0.0000000
 NQMom=    0.0000000   0.0000000   0.0000000   0.0000000   0.0000000   0.0000000   0.0000000
 NMagM=    0.0000000   2.7928460   2.7928460   2.7928460   2.7928460   2.7928460   2.7928460
 AtZNuc=   6.0000000   1.0000000   1.0000000   1.0000000   1.0000000   1.0000000   1.0000000
 Leave Link  101 at Mon Jul  4 15:57:02 2022, MaxMem=   939524096 cpu:         0.1
 (Enter /Local/ce_dana/g09/l103.exe)

 GradGradGradGradGradGradGradGradGradGradGradGradGradGradGradGradGradGrad
 Stoichiometry    C4H11O2(2)
 Framework group  C1[X(C4H11O2)]
 Deg. of freedom    45
 Full point group                 C1      NOp   1
 RotChk:  IX=2 Diff= 1.29D-15
 Largest Abelian subgroup         C1      NOp   1
 Largest concise Abelian subgroup C1      NOp   1
                         Standard orientation:                         
 ---------------------------------------------------------------------
 Center     Atomic      Atomic             Coordinates (Angstroms)
 Number     Number       Type             X           Y           Z
 ---------------------------------------------------------------------
      1          6           0       -1.202440    1.474989   -0.058497
      2          6           0       -1.988460    0.182428    0.053507
      3          8           0       -1.251695   -0.965813   -0.321890
      4          8           0       -0.240956   -1.184104    0.589160
      5          1           0       -0.822904    1.618940   -1.081196
      6          1           0       -0.351484    1.468239    0.636742
      7          1           0       -1.843634    2.331479    0.196984
      8          1           0       -2.842151    0.175103   -0.641144
      9          1           0       -2.378244    0.046133    1.077031
     10          6           0        2.592228    0.562386    0.310516
     11          6           0        1.829964   -0.359645   -0.593440
     12          1           0        3.508360    0.927834   -0.187757
     13          1           0        2.000620    1.448038    0.586574
     14          1           0        2.906938    0.056880    1.235584
     15          1           0        0.714086   -0.818179    0.065830
     16          1           0        2.317612   -1.313355   -0.833381
     17          1           0        1.344260    0.097273   -1.465946
 ---------------------------------------------------------------------
 Rotational constants (GHZ):      4.8070414      1.7865578      1.4575835
 Leave Link  202 at Mon Jul  4 16:06:22 2022, MaxMem=   939524096 cpu:         0.0
 (Enter /Local/ce_dana/g09/l601.exe)
 Copying SCF densities to generalized density rwf, IOpCl= 1 IROHF=0.

 **********************************************************************

            Population analysis using the SCF density.

 **********************************************************************

 Orbital symmetries:
 Alpha Orbitals:
       Occupied  (A) (A) (A) (A) (A) (A) (A) (A) (A) (A) (A) (A)
                 (A) (A) (A) (A) (A) (A) (A) (A) (A) (A) (A) (A)
                 (A) (A)
       Virtual   (A) (A) (A) (A) (A) (A) (A) (A) (A) (A) (A) (A)
                 (A) (A) (A) (A) (A) (A) (A) (A) (A) (A) (A) (A)
                 (A) (A) (A) (A) (A) (A) (A) (A) (A) (A) (A) (A)
                 (A) (A) (A) (A) (A) (A) (A) (A) (A) (A) (A) (A)
                 (A) (A) (A) (A) (A) (A) (A) (A) (A) (A) (A) (A)
                 (A) (A) (A) (A) (A) (A) (A) (A) (A) (A) (A) (A)
                 (A) (A) (A) (A) (A) (A) (A) (A) (A) (A) (A) (A)
                 (A) (A) (A) (A) (A) (A) (A) (A) (A) (A) (A) (A)
                 (A) (A) (A) (A) (A) (A) (A) (A) (A) (A) (A) (A)
                 (A) (A) (A) (A) (A)
 Beta  Orbitals:
       Occupied  (A) (A) (A) (A) (A) (A) (A) (A) (A) (A) (A) (A)
                 (A) (A) (A) (A) (A) (A) (A) (A) (A) (A) (A) (A)
                 (A)
       Virtual   (A) (A) (A) (A) (A) (A) (A) (A) (A) (A) (A) (A)
                 (A) (A) (A) (A) (A) (A) (A) (A) (A) (A) (A) (A)
                 (A) (A) (A) (A) (A) (A) (A) (A) (A) (A) (A) (A)
                 (A) (A) (A) (A) (A) (A) (A) (A) (A) (A) (A) (A)
                 (A) (A) (A) (A) (A) (A) (A) (A) (A) (A) (A) (A)
                 (A) (A) (A) (A) (A) (A) (A) (A) (A) (A) (A) (A)
                 (A) (A) (A) (A) (A) (A) (A) (A) (A) (A) (A) (A)
                 (A) (A) (A) (A) (A) (A) (A) (A) (A) (A) (A) (A)
                 (A) (A) (A) (A) (A) (A) (A) (A) (A) (A) (A) (A)
                 (A) (A) (A) (A) (A) (A)
 The electronic state is 2-A.
 Alpha  occ. eigenvalues --  -19.30828 -19.29886 -10.34476 -10.31647 -10.30438
 Alpha  occ. eigenvalues --  -10.29627  -1.22761  -0.97379  -0.86575  -0.83203
 Alpha  occ. eigenvalues --   -0.72085  -0.69951  -0.61956  -0.57293  -0.55032
 Alpha  occ. eigenvalues --   -0.54434  -0.53244  -0.50398  -0.48052  -0.47150
 Alpha  occ. eigenvalues --   -0.46203  -0.44509  -0.43324  -0.37818  -0.35668
 Alpha  occ. eigenvalues --   -0.30600
 Alpha virt. eigenvalues --    0.13081   0.15588   0.16995   0.17213   0.17824
 Alpha virt. eigenvalues --    0.20338   0.20926   0.21333   0.22647   0.23790
 Alpha virt. eigenvalues --    0.26248   0.28621   0.31015   0.32601   0.35888
 Alpha virt. eigenvalues --    0.45734   0.48766   0.49818   0.50734   0.53372
 Alpha virt. eigenvalues --    0.56706   0.59793   0.60684   0.65927   0.66786
 Alpha virt. eigenvalues --    0.68975   0.69768   0.71733   0.73562   0.73962
 Alpha virt. eigenvalues --    0.75200   0.75652   0.76091   0.76392   0.78847
 Alpha virt. eigenvalues --    0.79792   0.80670   0.83372   0.85411   0.87656
 Alpha virt. eigenvalues --    0.96597   1.03321   1.05748   1.08440   1.13640
 Alpha virt. eigenvalues --    1.15130   1.18079   1.19195   1.23960   1.28298
 Alpha virt. eigenvalues --    1.35008   1.42311   1.43064   1.46354   1.49550
 Alpha virt. eigenvalues --    1.52794   1.55669   1.59379   1.61364   1.63063
 Alpha virt. eigenvalues --    1.69741   1.75694   1.80127   1.81451   1.81775
 Alpha virt. eigenvalues --    1.83046   1.85436   1.86826   1.87489   1.88102
 Alpha virt. eigenvalues --    1.89147   1.91142   1.92540   1.94049   1.95075
 Alpha virt. eigenvalues --    1.97811   1.99709   2.06397   2.09979   2.11750
 Alpha virt. eigenvalues --    2.20678   2.24661   2.26007   2.35753   2.39385
 Alpha virt. eigenvalues --    2.43811   2.45116   2.47319   2.51100   2.54629
 Alpha virt. eigenvalues --    2.55452   2.56786   2.58941   2.62028   2.66164
 Alpha virt. eigenvalues --    2.66940   2.77447   2.84871   2.87957   2.90745
 Alpha virt. eigenvalues --    2.95877   3.00541   3.03124   3.04209   3.05996
 Alpha virt. eigenvalues --    3.07636   3.09585   3.13701   3.27154   3.27601
 Alpha virt. eigenvalues --    3.43795   3.69296   4.00849
  Beta  occ. eigenvalues --  -19.30669 -19.28857 -10.34483 -10.30802 -10.30471
  Beta  occ. eigenvalues --  -10.29618  -1.21506  -0.95688  -0.85257  -0.82847
  Beta  occ. eigenvalues --   -0.70720  -0.69263  -0.60261  -0.57093  -0.53997
  Beta  occ. eigenvalues --   -0.53342  -0.52093  -0.49285  -0.47462  -0.46797
  Beta  occ. eigenvalues --   -0.44957  -0.43999  -0.43040  -0.35815  -0.33471
  Beta virt. eigenvalues --   -0.03707   0.13234   0.15742   0.17304   0.17894
  Beta virt. eigenvalues --    0.18057   0.20551   0.21096   0.21375   0.22810
  Beta virt. eigenvalues --    0.24036   0.26522   0.28927   0.31262   0.33155
  Beta virt. eigenvalues --    0.37840   0.45917   0.49119   0.50492   0.50884
  Beta virt. eigenvalues --    0.53483   0.57114   0.60010   0.61477   0.67022
  Beta virt. eigenvalues --    0.68190   0.69154   0.70086   0.72260   0.73869
  Beta virt. eigenvalues --    0.74179   0.75591   0.75868   0.76653   0.76886
  Beta virt. eigenvalues --    0.78912   0.79949   0.81128   0.83541   0.85602
  Beta virt. eigenvalues --    0.88154   0.96796   1.03951   1.06703   1.08742
  Beta virt. eigenvalues --    1.14151   1.15655   1.18986   1.19996   1.24742
  Beta virt. eigenvalues --    1.28821   1.35711   1.42490   1.43208   1.47078
  Beta virt. eigenvalues --    1.49964   1.52997   1.56460   1.59573   1.61546
  Beta virt. eigenvalues --    1.63148   1.70142   1.78260   1.80669   1.81752
  Beta virt. eigenvalues --    1.81860   1.83174   1.85538   1.87050   1.87670
  Beta virt. eigenvalues --    1.88274   1.89700   1.91308   1.92692   1.94291
  Beta virt. eigenvalues --    1.95199   1.97921   1.99964   2.07121   2.10757
  Beta virt. eigenvalues --    2.11906   2.20799   2.25146   2.26616   2.37468
  Beta virt. eigenvalues --    2.40146   2.44063   2.46346   2.47528   2.52004
  Beta virt. eigenvalues --    2.54929   2.56076   2.57602   2.59610   2.62371
  Beta virt. eigenvalues --    2.66461   2.67670   2.77538   2.85342   2.88828
  Beta virt. eigenvalues --    2.92393   2.97675   3.00886   3.03189   3.04462
  Beta virt. eigenvalues --    3.06197   3.08235   3.10602   3.14065   3.27841
  Beta virt. eigenvalues --    3.29095   3.44054   3.71567   4.02473
          Condensed to atoms (all electrons):
               1          2          3          4          5          6
     1  C    4.706164   0.397627  -0.049303  -0.005493   0.379310   0.389150
     2  C    0.397627   4.484349   0.283788  -0.048661  -0.015252  -0.022856
     3  O   -0.049303   0.283788   7.979626   0.094202   0.003387  -0.006244
     4  O   -0.005493  -0.048661   0.094202   7.992458  -0.001072   0.015930
     5  H    0.379310  -0.015252   0.003387  -0.001072   0.630891  -0.026995
     6  H    0.389150  -0.022856  -0.006244   0.015930  -0.026995   0.615728
     7  H    0.370986  -0.009805   0.003603   0.000170  -0.016392  -0.016527
     8  H   -0.021463   0.378651  -0.020126   0.005688  -0.009449   0.007746
     9  H   -0.050528   0.402737  -0.027727   0.000925   0.008140  -0.010081
    10  C   -0.002842   0.000218   0.000333   0.004511  -0.000048  -0.000472
    11  C    0.001969  -0.002837   0.001344  -0.090373  -0.001356   0.002344
    12  H    0.000064  -0.000012  -0.000014  -0.000047  -0.000035   0.000002
    13  H    0.000368   0.000111   0.000126  -0.000531   0.000450   0.005446
    14  H    0.000024   0.000013  -0.000020   0.000382   0.000001  -0.000160
    15  H    0.003511   0.001716  -0.024973   0.217000   0.000289  -0.001696
    16  H   -0.000027   0.000071   0.000327   0.001458   0.000048   0.000101
    17  H   -0.000532   0.000317   0.003301   0.000003   0.002986  -0.000994
               7          8          9         10         11         12
     1  C    0.370986  -0.021463  -0.050528  -0.002842   0.001969   0.000064
     2  C   -0.009805   0.378651   0.402737   0.000218  -0.002837  -0.000012
     3  O    0.003603  -0.020126  -0.027727   0.000333   0.001344  -0.000014
     4  O    0.000170   0.005688   0.000925   0.004511  -0.090373  -0.000047
     5  H   -0.016392  -0.009449   0.008140  -0.000048  -0.001356  -0.000035
     6  H   -0.016527   0.007746  -0.010081  -0.000472   0.002344   0.000002
     7  H    0.626900  -0.003203  -0.000945   0.000059   0.000081  -0.000003
     8  H   -0.003203   0.647789  -0.027140  -0.000012   0.000191   0.000001
     9  H   -0.000945  -0.027140   0.667619   0.000034  -0.000360  -0.000001
    10  C    0.000059  -0.000012   0.000034   4.569602   0.389827   0.385940
    11  C    0.000081   0.000191  -0.000360   0.389827   5.028519  -0.019898
    12  H   -0.000003   0.000001  -0.000001   0.385940  -0.019898   0.628071
    13  H   -0.000107  -0.000004   0.000039   0.399796  -0.028522  -0.021459
    14  H    0.000001  -0.000000  -0.000001   0.398963  -0.026614  -0.022692
    15  H   -0.000135  -0.000778   0.000840  -0.010402   0.195739   0.002549
    16  H   -0.000003   0.000001   0.000010  -0.021521   0.378295  -0.004925
    17  H    0.000050  -0.000076   0.000140  -0.021660   0.374965  -0.004957
              13         14         15         16         17
     1  C    0.000368   0.000024   0.003511  -0.000027  -0.000532
     2  C    0.000111   0.000013   0.001716   0.000071   0.000317
     3  O    0.000126  -0.000020  -0.024973   0.000327   0.003301
     4  O   -0.000531   0.000382   0.217000   0.001458   0.000003
     5  H    0.000450   0.000001   0.000289   0.000048   0.002986
     6  H    0.005446  -0.000160  -0.001696   0.000101  -0.000994
     7  H   -0.000107   0.000001  -0.000135  -0.000003   0.000050
     8  H   -0.000004  -0.000000  -0.000778   0.000001  -0.000076
     9  H    0.000039  -0.000001   0.000840   0.000010   0.000140
    10  C    0.399796   0.398963  -0.010402  -0.021521  -0.021660
    11  C   -0.028522  -0.026614   0.195739   0.378295   0.374965
    12  H   -0.021459  -0.022692   0.002549  -0.004925  -0.004957
    13  H    0.620789  -0.021290  -0.003505   0.006395  -0.006730
    14  H   -0.021290   0.616759  -0.003107  -0.006311   0.006206
    15  H   -0.003505  -0.003107   0.459627  -0.003829  -0.005187
    16  H    0.006395  -0.006311  -0.003829   0.600948  -0.021698
    17  H   -0.006730   0.006206  -0.005187  -0.021698   0.606209
          Atomic-Atomic Spin Densities.
               1          2          3          4          5          6
     1  C    0.012482  -0.000195  -0.003409   0.003909  -0.000429   0.000714
     2  C   -0.000195  -0.006828   0.004348  -0.004117  -0.000050   0.000041
     3  O   -0.003409   0.004348   0.079474  -0.040825   0.000270   0.000153
     4  O    0.003909  -0.004117  -0.040825   0.493204  -0.000335  -0.000755
     5  H   -0.000429  -0.000050   0.000270  -0.000335  -0.000088   0.000062
     6  H    0.000714   0.000041   0.000153  -0.000755   0.000062  -0.001051
     7  H   -0.001995   0.000683   0.000058  -0.000079   0.000175   0.000115
     8  H   -0.001670   0.001181  -0.000132  -0.000061   0.000132  -0.000084
     9  H   -0.003447  -0.001187  -0.001236   0.000934   0.000083   0.000079
    10  C    0.000410  -0.000170  -0.000259   0.003894  -0.000110  -0.000129
    11  C   -0.004091   0.002251   0.010366  -0.081683   0.000769   0.000196
    12  H   -0.000038   0.000013   0.000014  -0.000229   0.000028   0.000017
    13  H    0.000175  -0.000085  -0.000066   0.000613  -0.000085  -0.000053
    14  H    0.000040  -0.000015  -0.000022   0.000634  -0.000009  -0.000021
    15  H   -0.002751   0.001970   0.005972  -0.017437   0.000380   0.000285
    16  H    0.000087  -0.000059  -0.000329   0.002625  -0.000025  -0.000007
    17  H    0.000952  -0.000488  -0.001395   0.002784  -0.000387  -0.000046
               7          8          9         10         11         12
     1  C   -0.001995  -0.001670  -0.003447   0.000410  -0.004091  -0.000038
     2  C    0.000683   0.001181  -0.001187  -0.000170   0.002251   0.000013
     3  O    0.000058  -0.000132  -0.001236  -0.000259   0.010366   0.000014
     4  O   -0.000079  -0.000061   0.000934   0.003894  -0.081683  -0.000229
     5  H    0.000175   0.000132   0.000083  -0.000110   0.000769   0.000028
     6  H    0.000115  -0.000084   0.000079  -0.000129   0.000196   0.000017
     7  H    0.001074   0.000129   0.000449  -0.000021   0.000117   0.000003
     8  H    0.000129  -0.000666   0.001091  -0.000002   0.000055   0.000000
     9  H    0.000449   0.001091   0.005456  -0.000037   0.000494   0.000002
    10  C   -0.000021  -0.000002  -0.000037  -0.024189  -0.039009   0.009695
    11  C    0.000117   0.000055   0.000494  -0.039009   0.737472  -0.013432
    12  H    0.000003   0.000000   0.000002   0.009695  -0.013432   0.056648
    13  H   -0.000034  -0.000001  -0.000023   0.004266  -0.005098  -0.005234
    14  H   -0.000002  -0.000000  -0.000006   0.004989  -0.006680  -0.005815
    15  H    0.000054   0.000032   0.000598   0.000378   0.046135  -0.000068
    16  H   -0.000001  -0.000001  -0.000010   0.001466  -0.007021  -0.001874
    17  H   -0.000039  -0.000009  -0.000051   0.000857  -0.004648  -0.001396
              13         14         15         16         17
     1  C    0.000175   0.000040  -0.002751   0.000087   0.000952
     2  C   -0.000085  -0.000015   0.001970  -0.000059  -0.000488
     3  O   -0.000066  -0.000022   0.005972  -0.000329  -0.001395
     4  O    0.000613   0.000634  -0.017437   0.002625   0.002784
     5  H   -0.000085  -0.000009   0.000380  -0.000025  -0.000387
     6  H   -0.000053  -0.000021   0.000285  -0.000007  -0.000046
     7  H   -0.000034  -0.000002   0.000054  -0.000001  -0.000039
     8  H   -0.000001  -0.000000   0.000032  -0.000001  -0.000009
     9  H   -0.000023  -0.000006   0.000598  -0.000010  -0.000051
    10  C    0.004266   0.004989   0.000378   0.001466   0.000857
    11  C   -0.005098  -0.006680   0.046135  -0.007021  -0.004648
    12  H   -0.005234  -0.005815  -0.000068  -0.001874  -0.001396
    13  H    0.008573   0.002148  -0.000094   0.000175   0.000980
    14  H    0.002148   0.011443  -0.000151   0.001238   0.000160
    15  H   -0.000094  -0.000151  -0.069669   0.001340   0.003275
    16  H    0.000175   0.001238   0.001340  -0.019642   0.002947
    17  H    0.000980   0.000160   0.003275   0.002947  -0.023161
 Mulliken charges and spin densities:
               1          2
     1  C   -0.118987   0.000745
     2  C    0.149824  -0.002708
     3  O   -0.241632   0.052981
     4  O   -0.186550   0.363076
     5  H    0.045096   0.000381
     6  H    0.049578  -0.000482
     7  H    0.045272   0.000687
     8  H    0.042188  -0.000006
     9  H    0.036300   0.003189
    10  C   -0.092325  -0.037972
    11  C   -0.203312   0.636194
    12  H    0.057419   0.038333
    13  H    0.048629   0.006158
    14  H    0.057847   0.007930
    15  H    0.172340  -0.029750
    16  H    0.070659  -0.019090
    17  H    0.067657  -0.019664
 Sum of Mulliken charges =  -0.00000   1.00000
 Mulliken charges and spin densities with hydrogens summed into heavy atoms:
               1          2
     1  C    0.020959   0.001331
     2  C    0.228312   0.000474
     3  O   -0.241632   0.052981
     4  O   -0.014211   0.333325
    10  C    0.071569   0.014449
    11  C   -0.064997   0.597440
 Electronic spatial extent (au):  <R**2>=            872.9410
 Charge=             -0.0000 electrons
 Dipole moment (field-independent basis, Debye):
    X=              0.7299    Y=              2.2211    Z=             -0.3931  Tot=              2.3708
 Quadrupole moment (field-independent basis, Debye-Ang):
   XX=            -33.3596   YY=            -41.4428   ZZ=            -39.3600
   XY=             -2.9232   XZ=             -0.4536   YZ=              0.3911
 Traceless Quadrupole moment (field-independent basis, Debye-Ang):
   XX=              4.6946   YY=             -3.3887   ZZ=             -1.3059
   XY=             -2.9232   XZ=             -0.4536   YZ=              0.3911
 Octapole moment (field-independent basis, Debye-Ang**2):
  XXX=             -8.2385  YYY=             -4.2439  ZZZ=              0.4768  XYY=              0.7105
  XXY=             -0.5401  XXZ=              0.9404  XZZ=             -2.0405  YZZ=             -1.5210
  YYZ=             -0.2391  XYZ=              0.5492
 Hexadecapole moment (field-independent basis, Debye-Ang**3):
 XXXX=           -743.2898 YYYY=           -267.8803 ZZZZ=            -99.3156 XXXY=             -0.0704
 XXXZ=              2.1519 YYYX=             -3.1796 YYYZ=              1.9761 ZZZX=              2.7012
 ZZZY=             -2.9967 XXYY=           -171.6692 XXZZ=           -143.8384 YYZZ=            -61.8773
 XXYZ=             -2.2505 YYXZ=             -2.5291 ZZXY=              0.5537
 N-N= 2.562269499711D+02 E-N=-1.233524356354D+03  KE= 3.061036916279D+02
                          Isotropic Fermi Contact Couplings
        Atom                 a.u.       MegaHertz       Gauss      10(-4) cm-1
     1  C(13)              0.00553       6.21179       2.21652       2.07203
     2  C(13)             -0.00300      -3.37664      -1.20487      -1.12633
     3  O(17)              0.03064     -18.57165      -6.62683      -6.19484
     4  O(17)              0.16083     -97.49671     -34.78925     -32.52140
     5  H(1)              -0.00001      -0.03910      -0.01395      -0.01304
     6  H(1)              -0.00006      -0.27084      -0.09664      -0.09034
     7  H(1)               0.00014       0.64438       0.22993       0.21494
     8  H(1)               0.00002       0.08978       0.03203       0.02995
     9  H(1)               0.00028       1.26401       0.45103       0.42163
    10  C(13)             -0.01990     -22.37412      -7.98364      -7.46320
    11  C(13)              0.20281     227.99210      81.35325      76.04998
    12  H(1)               0.01851      82.75755      29.52995      27.60495
    13  H(1)               0.00285      12.72152       4.53935       4.24344
    14  H(1)               0.00382      17.08998       6.09813       5.70060
    15  H(1)              -0.02479    -110.82298     -39.54439     -36.96657
    16  H(1)              -0.00540     -24.13676      -8.61260      -8.05116
    17  H(1)              -0.00525     -23.46237      -8.37196      -7.82620
 --------------------------------------------------------
       Center         ----  Spin Dipole Couplings  ----
                      3XX-RR        3YY-RR        3ZZ-RR
 --------------------------------------------------------
     1   Atom       -0.001427      0.007528     -0.006101
     2   Atom        0.005036      0.000958     -0.005994
     3   Atom        0.137981     -0.012439     -0.125542
     4   Atom        0.338119     -0.368678      0.030559
     5   Atom       -0.000085      0.002673     -0.002588
     6   Atom       -0.001472      0.006184     -0.004711
     7   Atom        0.000180      0.001858     -0.002038
     8   Atom        0.004097     -0.001369     -0.002727
     9   Atom        0.004925     -0.001516     -0.003409
    10   Atom        0.011525     -0.001822     -0.009703
    11   Atom        0.283285     -0.270807     -0.012478
    12   Atom        0.005284     -0.001948     -0.003336
    13   Atom       -0.005445      0.008484     -0.003039
    14   Atom        0.001834     -0.006759      0.004925
    15   Atom        0.138620     -0.087032     -0.051588
    16   Atom       -0.004847      0.034220     -0.029373
    17   Atom        0.004798     -0.026870      0.022072
 --------------------------------------------------------
                        XY            XZ            YZ
 --------------------------------------------------------
     1   Atom       -0.001983     -0.000047      0.000170
     2   Atom       -0.007119      0.001432     -0.000243
     3   Atom        0.202403     -0.186759     -0.096313
     4   Atom        0.742135     -0.991504     -0.639191
     5   Atom       -0.003438      0.000997     -0.003149
     6   Atom       -0.003724     -0.001983      0.002842
     7   Atom       -0.002468     -0.000307      0.000166
     8   Atom       -0.003376      0.001686     -0.001201
     9   Atom       -0.005168     -0.003019      0.001738
    10   Atom        0.019253     -0.000332      0.002545
    11   Atom        0.236468     -0.472534     -0.176712
    12   Atom        0.008384     -0.000744      0.001913
    13   Atom        0.003816      0.000635      0.007664
    14   Atom        0.003106      0.008998      0.002883
    15   Atom        0.096440     -0.134308     -0.051495
    16   Atom       -0.025751     -0.025291      0.008191
    17   Atom       -0.010463      0.017927     -0.036408
 --------------------------------------------------------


 ---------------------------------------------------------------------------------
              Anisotropic Spin Dipole Couplings in Principal Axis System
 ---------------------------------------------------------------------------------

       Atom             a.u.   MegaHertz   Gauss  10(-4) cm-1        Axes

              Baa    -0.0061    -0.819    -0.292    -0.273  0.0050 -0.0117  0.9999
     1 C(13)  Bbb    -0.0018    -0.248    -0.088    -0.083  0.9783  0.2070 -0.0025
              Bcc     0.0079     1.067     0.381     0.356 -0.2070  0.9783  0.0125
 
              Baa    -0.0063    -0.849    -0.303    -0.283 -0.2555 -0.2183  0.9418
     2 C(13)  Bbb    -0.0042    -0.561    -0.200    -0.187  0.5455  0.7717  0.3269
              Bcc     0.0105     1.409     0.503     0.470  0.7982 -0.5973  0.0781
 
              Baa    -0.2229    16.130     5.756     5.380  0.4913 -0.0754  0.8677
     3 O(17)  Bbb    -0.1441    10.430     3.722     3.479 -0.4117  0.8578  0.3077
              Bcc     0.3671   -26.560    -9.477    -8.859  0.7675  0.5084 -0.3904
 
              Baa    -0.8417    60.903    21.732    20.315 -0.2642  0.8962  0.3564
     4 O(17)  Bbb    -0.8188    59.248    21.141    19.763  0.6804 -0.0887  0.7275
              Bcc     1.6605  -120.150   -42.873   -40.078  0.6836  0.4347 -0.5863
 
              Baa    -0.0042    -2.230    -0.796    -0.744  0.2080  0.4927  0.8450
     5 H(1)   Bbb    -0.0020    -1.056    -0.377    -0.352  0.8439  0.3464 -0.4097
              Bcc     0.0062     3.286     1.173     1.096 -0.4945  0.7983 -0.3438
 
              Baa    -0.0058    -3.079    -1.099    -1.027  0.3277 -0.1207  0.9371
     6 H(1)   Bbb    -0.0028    -1.488    -0.531    -0.496  0.8651  0.4370 -0.2462
              Bcc     0.0086     4.567     1.630     1.523 -0.3798  0.8913  0.2476
 
              Baa    -0.0021    -1.121    -0.400    -0.374  0.2621  0.1233  0.9571
     7 H(1)   Bbb    -0.0015    -0.823    -0.294    -0.275  0.7692  0.5722 -0.2844
              Bcc     0.0036     1.944     0.694     0.648 -0.5828  0.8108  0.0551
 
              Baa    -0.0035    -1.842    -0.657    -0.615  0.0984  0.6120  0.7847
     8 H(1)   Bbb    -0.0027    -1.453    -0.518    -0.485  0.4724  0.6653 -0.5781
              Bcc     0.0062     3.295     1.176     1.099  0.8759 -0.4276  0.2236
 
              Baa    -0.0044    -2.373    -0.847    -0.791 -0.1284 -0.6635  0.7371
     9 H(1)   Bbb    -0.0043    -2.316    -0.827    -0.773  0.5269  0.5840  0.6175
              Bcc     0.0088     4.689     1.673     1.564  0.8402 -0.4677 -0.2746
 
              Baa    -0.0163    -2.188    -0.781    -0.730 -0.5404  0.7756 -0.3261
    10 C(13)  Bbb    -0.0090    -1.203    -0.429    -0.401 -0.2163  0.2465  0.9447
              Bcc     0.0253     3.391     1.210     1.131  0.8131  0.5811  0.0346
 
              Baa    -0.3616   -48.525   -17.315   -16.186  0.3090  0.6120  0.7280
    11 C(13)  Bbb    -0.3570   -47.905   -17.094   -15.980 -0.5557  0.7374 -0.3840
              Bcc     0.7186    96.430    34.409    32.166  0.7718  0.2859 -0.5680
 
              Baa    -0.0083    -4.417    -1.576    -1.473 -0.5019  0.7785 -0.3769
    12 H(1)   Bbb    -0.0025    -1.351    -0.482    -0.451 -0.2321  0.2985  0.9257
              Bcc     0.0108     5.768     2.058     1.924  0.8332  0.5521  0.0308
 
              Baa    -0.0077    -4.104    -1.464    -1.369  0.5846 -0.4559  0.6711
    13 H(1)   Bbb    -0.0054    -2.860    -1.021    -0.954  0.7871  0.1182 -0.6054
              Bcc     0.0131     6.964     2.485     2.323  0.1967  0.8822  0.4279
 
              Baa    -0.0078    -4.143    -1.478    -1.382 -0.3132  0.9497  0.0064
    14 H(1)   Bbb    -0.0056    -3.000    -1.071    -1.001  0.7061  0.2374 -0.6672
              Bcc     0.0134     7.143     2.549     2.383  0.6351  0.2045  0.7449
 
              Baa    -0.1238   -66.049   -23.568   -22.032 -0.0441  0.8504  0.5244
    15 H(1)   Bbb    -0.1204   -64.228   -22.918   -21.424  0.5363 -0.4227  0.7306
              Bcc     0.2442   130.277    46.486    43.456  0.8429  0.3134 -0.4373
 
              Baa    -0.0459   -24.481    -8.735    -8.166  0.5661  0.0983  0.8185
    16 H(1)   Bbb    -0.0057    -3.034    -1.083    -1.012  0.6632  0.5353 -0.5230
              Bcc     0.0516    27.515     9.818     9.178 -0.4895  0.8389  0.2379
 
              Baa    -0.0463   -24.693    -8.811    -8.237  0.0174  0.8844  0.4665
    17 H(1)   Bbb    -0.0045    -2.421    -0.864    -0.808  0.9115  0.1777 -0.3709
              Bcc     0.0508    27.114     9.675     9.044  0.4109 -0.4317  0.8030
 

 ---------------------------------------------------------------------------------

 No NMR shielding tensors so no spin-rotation constants.
 Leave Link  601 at Mon Jul  4 16:06:22 2022, MaxMem=   939524096 cpu:         2.1
 (Enter /Local/ce_dana/g09/l9999.exe)

 Test job not archived.
 1\1\GINC-TECH-WN035\FTS\UwB97XD\def2SVP\C4H11O2(2)\ALONGD\04-Jul-2022\
 0\\#P opt=(ts, calcfc, noeigentest, maxcycles=100) guess=mix uwb97xd/d
 ef2svp IOp(2/9=2000) scf=xqc\\TS0\\0,2\C,-0.9530345142,1.4603938296,-0
 .5344194105\C,-0.6814879826,1.6307836417,0.9482523033\O,-0.3128125671,
 0.4305516278,1.6007289932\O,0.9207221429,0.0176808008,1.1455507651\H,-
 1.7383220414,0.7095373391,-0.7082638271\H,-0.0399649498,1.1448076171,-
 1.0580979266\H,-1.2830661371,2.4145350436,-0.9710745177\H,-1.589975262
 7,1.9433870422,1.4851992127\H,0.0979235763,2.3929460488,1.1206941654\C
 ,1.1033245472,-1.6512691883,-1.7416733692\C,0.3810670226,-1.8652239763
 ,-0.4451813502\H,0.8856025489,-2.4715053683,-2.4494417693\H,0.79875565
 64,-0.714147507,-2.2311919725\H,2.1941086804,-1.6269351269,-1.60051333
 19\H,0.6958700205,-0.8451112844,0.4210423461\H,0.702506494,-2.72968162
 14,0.1500692845\H,-0.7107544143,-1.7491571479,-0.4653079253\\Version=E
 S64L-G09RevD.01\State=2-A\HF=-308.9946785\S2=0.758245\S2-1=0.\S2A=0.75
 0035\RMSD=7.856e-09\RMSF=8.600e-06\Dipole=-0.3418503,0.0349646,-0.8671
 243\Quadrupole=-0.3668165,3.1582672,-2.7914507,-1.7893253,-1.0670117,1
 .169113\PG=C01 [X(C4H11O2)]\\@


 CHILDREN YOU ARE VERY LITTLE,
 AND YOUR BONES ARE VERY BRITTLE;
 IF YOU WOULD GROW GREAT AND STATELY
 YOU MUST TRY TO WALK SEDATELY.
 YOU MUST STILL BE BRIGHT AND QUIET,
 AND CONTENT WITH SIMPLE DIET;
 AND REMAIN, THROUGH ALL BEWILD'RING
 INNOCENT AND HONEST CHILDREN.
     -- A CHILD'S GARDEN OF VERSE,
        ROBERT LOUIS STEVENSON
 Job cpu time:       0 days  1 hours 13 minutes  3.7 seconds.
 File lengths (MBytes):  RWF=     74 Int=      0 D2E=      0 Chk=      3 Scr=      1
 Normal termination of Gaussian 09 at Mon Jul  4 16:06:22 2022.
