 Entering Gaussian System, Link 0=/Local/ce_dana/g09/g09
 Initial command:
 /Local/ce_dana/g09/l1.exe "/storage/ce_dana/alongd/scratch/g09/Gau-41738.inp" -scrdir="/storage/ce_dana/alongd/scratch/g09/"
 Entering Link 1 = /Local/ce_dana/g09/l1.exe PID=     41739.
  
 Copyright (c) 1988,1990,1992,1993,1995,1998,2003,2009,2013,
            Gaussian, Inc.  All Rights Reserved.
  
 This is part of the Gaussian(R) 09 program.  It is based on
 the Gaussian(R) 03 system (copyright 2003, Gaussian, Inc.),
 the Gaussian(R) 98 system (copyright 1998, Gaussian, Inc.),
 the Gaussian(R) 94 system (copyright 1995, Gaussian, Inc.),
 the Gaussian 92(TM) system (copyright 1992, Gaussian, Inc.),
 the Gaussian 90(TM) system (copyright 1990, Gaussian, Inc.),
 the Gaussian 88(TM) system (copyright 1988, Gaussian, Inc.),
 the Gaussian 86(TM) system (copyright 1986, Carnegie Mellon
 University), and the Gaussian 82(TM) system (copyright 1983,
 Carnegie Mellon University). Gaussian is a federally registered
 trademark of Gaussian, Inc.
  
 This software contains proprietary and confidential information,
 including trade secrets, belonging to Gaussian, Inc.
  
 This software is provided under written license and may be
 used, copied, transmitted, or stored only in accord with that
 written license.
  
 The following legend is applicable only to US Government
 contracts under FAR:
  
                    RESTRICTED RIGHTS LEGEND
  
 Use, reproduction and disclosure by the US Government is
 subject to restrictions as set forth in subparagraphs (a)
 and (c) of the Commercial Computer Software - Restricted
 Rights clause in FAR 52.227-19.
  
 Gaussian, Inc.
 340 Quinnipiac St., Bldg. 40, Wallingford CT 06492
  
  
 ---------------------------------------------------------------
 Warning -- This program may not be used in any manner that
 competes with the business of Gaussian, Inc. or will provide
 assistance to any competitor of Gaussian, Inc.  The licensee
 of this program is prohibited from giving any competitor of
 Gaussian, Inc. access to this program.  By using this program,
 the user acknowledges that Gaussian, Inc. is engaged in the
 business of creating and licensing software in the field of
 computational chemistry and represents and warrants to the
 licensee that it is not a competitor of Gaussian, Inc. and that
 it will not use this program in any manner prohibited above.
 ---------------------------------------------------------------
  

 Cite this work as:
 Gaussian 09, Revision D.01,
 M. J. Frisch, G. W. Trucks, H. B. Schlegel, G. E. Scuseria, 
 M. A. Robb, J. R. Cheeseman, G. Scalmani, V. Barone, B. Mennucci, 
 G. A. Petersson, H. Nakatsuji, M. Caricato, X. Li, H. P. Hratchian, 
 A. F. Izmaylov, J. Bloino, G. Zheng, J. L. Sonnenberg, M. Hada, 
 M. Ehara, K. Toyota, R. Fukuda, J. Hasegawa, M. Ishida, T. Nakajima, 
 Y. Honda, O. Kitao, H. Nakai, T. Vreven, J. A. Montgomery, Jr., 
 J. E. Peralta, F. Ogliaro, M. Bearpark, J. J. Heyd, E. Brothers, 
 K. N. Kudin, V. N. Staroverov, T. Keith, R. Kobayashi, J. Normand, 
 K. Raghavachari, A. Rendell, J. C. Burant, S. S. Iyengar, J. Tomasi, 
 M. Cossi, N. Rega, J. M. Millam, M. Klene, J. E. Knox, J. B. Cross, 
 V. Bakken, C. Adamo, J. Jaramillo, R. Gomperts, R. E. Stratmann, 
 O. Yazyev, A. J. Austin, R. Cammi, C. Pomelli, J. W. Ochterski, 
 R. L. Martin, K. Morokuma, V. G. Zakrzewski, G. A. Voth, 
 P. Salvador, J. J. Dannenberg, S. Dapprich, A. D. Daniels, 
 O. Farkas, J. B. Foresman, J. V. Ortiz, J. Cioslowski, 
 and D. J. Fox, Gaussian, Inc., Wallingford CT, 2013.
 
 ******************************************
 Gaussian 09:  ES64L-G09RevD.01 24-Apr-2013
                 4-Jul-2022 
 ******************************************
 %chk=check.chk
 %mem=7168mb
 %NProcShared=10
 Will use up to   10 processors via shared memory.
 ----------------------------------------------------------------------
 #P opt=(ts, calcfc, noeigentest, maxcycles=100) guess=mix uwb97xd/def2
 svp IOp(2/9=2000) scf=xqc
 ----------------------------------------------------------------------
 1/5=1,6=100,10=4,11=1,14=-1,18=20,26=3,38=1/1,3;
 2/9=2000,12=2,17=6,18=5,40=1/2;
 3/5=43,7=101,11=2,16=1,25=1,30=1,71=2,74=-58,116=2,140=1/1,2,3;
 4/13=-1/1;
 5/5=2,8=3,13=1,38=5/2,8;
 8/6=4,10=90,11=11/1;
 11/6=1,8=1,9=11,15=111,16=1/1,2,10;
 10/6=1,13=1/2;
 6/7=2,8=2,9=2,10=2,28=1/1;
 7/10=1,18=20,25=1/1,2,3,16;
 1/5=1,6=100,10=4,11=1,14=-1,18=20,26=3/3(2);
 2/9=2000/2;
 99//99;
 2/9=2000/2;
 3/5=43,7=101,11=2,16=1,25=1,30=1,71=1,74=-58,116=2/1,2,3;
 4/5=5,16=3,69=1/1;
 5/5=2,8=3,13=1,38=5/2,8;
 7//1,2,3,16;
 1/5=1,6=100,11=1,14=-1,18=20,26=3/3(-5);
 2/9=2000/2;
 6/7=2,8=2,9=2,10=2,19=2,28=1/1;
 99/9=1/99;
 Leave Link    1 at Mon Jul  4 15:46:42 2022, MaxMem=   939524096 cpu:         0.1
 (Enter /Local/ce_dana/g09/l101.exe)
 ---
 TS0
 ---
 Symbolic Z-matrix:
 Charge =  0 Multiplicity = 2
 C                     1.22107   1.8685   -0.64098 
 C                    -0.15796   1.97296  -0.006 
 O                    -0.79848   0.71182   0.17614 
 O                    -0.08131   0.01868   1.23882 
 H                     1.16444   1.35689  -1.60542 
 H                     1.90076   1.31687   0.01095 
 H                     1.64186   2.86477  -0.80407 
 H                    -0.85959   2.5022   -0.65827 
 H                    -0.11844   2.49785   0.95473 
 C                    -0.08131  -2.28337  -1.19221 
 C                    -0.08131  -2.28337   0.3382 
 H                    -0.08131  -3.30177  -1.59063 
 H                    -0.96327  -1.77416  -1.59063 
 H                     0.80065  -1.77417  -1.59063 
 H                    -0.08131  -1.06128   0.81631 
 H                     0.80065  -2.79257   0.73662 
 H                    -0.96328  -2.79256   0.73662 
 
 Add virtual bond connecting atoms H15        and O4         Dist= 2.19D+00.
 Add virtual bond connecting atoms H15        and C11        Dist= 2.48D+00.
 NAtoms=     17 NQM=       17 NQMF=       0 NMMI=      0 NMMIF=      0
                NMic=       0 NMicF=      0.
                    Isotopes and Nuclear Properties:
 (Nuclear quadrupole moments (NQMom) in fm**2, nuclear magnetic moments (NMagM)
  in nuclear magnetons)

  Atom         1           2           3           4           5           6           7           8           9          10
 IAtWgt=          12          12          16          16           1           1           1           1           1          12
 AtmWgt=  12.0000000  12.0000000  15.9949146  15.9949146   1.0078250   1.0078250   1.0078250   1.0078250   1.0078250  12.0000000
 NucSpn=           0           0           0           0           1           1           1           1           1           0
 AtZEff=   0.0000000   0.0000000   0.0000000   0.0000000   0.0000000   0.0000000   0.0000000   0.0000000   0.0000000   0.0000000
 NQMom=    0.0000000   0.0000000   0.0000000   0.0000000   0.0000000   0.0000000   0.0000000   0.0000000   0.0000000   0.0000000
 NMagM=    0.0000000   0.0000000   0.0000000   0.0000000   2.7928460   2.7928460   2.7928460   2.7928460   2.7928460   0.0000000
 AtZNuc=   6.0000000   6.0000000   8.0000000   8.0000000   1.0000000   1.0000000   1.0000000   1.0000000   1.0000000   6.0000000

  Atom        11          12          13          14          15          16          17
 IAtWgt=          12           1           1           1           1           1           1
 AtmWgt=  12.0000000   1.0078250   1.0078250   1.0078250   1.0078250   1.0078250   1.0078250
 NucSpn=           0           1           1           1           1           1           1
 AtZEff=   0.0000000   0.0000000   0.0000000   0.0000000   0.0000000   0.0000000   0.0000000
 NQMom=    0.0000000   0.0000000   0.0000000   0.0000000   0.0000000   0.0000000   0.0000000
 NMagM=    0.0000000   2.7928460   2.7928460   2.7928460   2.7928460   2.7928460   2.7928460
 AtZNuc=   6.0000000   1.0000000   1.0000000   1.0000000   1.0000000   1.0000000   1.0000000
 Leave Link  101 at Mon Jul  4 15:46:42 2022, MaxMem=   939524096 cpu:         0.3
 (Enter /Local/ce_dana/g09/l103.exe)

 GradGradGradGradGradGradGradGradGradGradGradGradGradGradGradGradGradGrad
 Stoichiometry    C4H11O2(2)
 Framework group  C1[X(C4H11O2)]
 Deg. of freedom    45
 Full point group                 C1      NOp   1
 RotChk:  IX=3 Diff= 1.03D-15
 Largest Abelian subgroup         C1      NOp   1
 Largest concise Abelian subgroup C1      NOp   1
                         Standard orientation:                         
 ---------------------------------------------------------------------
 Center     Atomic      Atomic             Coordinates (Angstroms)
 Number     Number       Type             X           Y           Z
 ---------------------------------------------------------------------
      1          6           0        1.436283   -1.455227   -0.329132
      2          6           0        1.467062   -0.385953    0.739814
      3          8           0        1.923002    0.876152    0.212799
      4          8           0        1.061152    1.414417   -0.587912
      5          1           0        2.434314   -1.605623   -0.765072
      6          1           0        0.736857   -1.175071   -1.128550
      7          1           0        1.099011   -2.406073    0.107923
      8          1           0        2.190100   -0.612862    1.535247
      9          1           0        0.475071   -0.220106    1.186369
     10          6           0       -3.227219    0.289660    0.365937
     11          6           0       -2.131297   -0.429460   -0.410583
     12          1           0       -4.074375   -0.377982    0.585745
     13          1           0       -2.851834    0.675012    1.326597
     14          1           0       -3.620127    1.148410   -0.198971
     15          1           0       -1.282964    0.239611   -0.620437
     16          1           0       -2.504003   -0.808607   -1.374703
     17          1           0       -1.744256   -1.295386    0.150543
 ---------------------------------------------------------------------
 Rotational constants (GHZ):      4.3391700      1.2749443      1.1053016
 Leave Link  202 at Mon Jul  4 16:15:27 2022, MaxMem=   939524096 cpu:         0.0
 (Enter /Local/ce_dana/g09/l601.exe)
 Copying SCF densities to generalized density rwf, IOpCl= 1 IROHF=0.

 **********************************************************************

            Population analysis using the SCF density.

 **********************************************************************

 Orbital symmetries:
 Alpha Orbitals:
       Occupied  (A) (A) (A) (A) (A) (A) (A) (A) (A) (A) (A) (A)
                 (A) (A) (A) (A) (A) (A) (A) (A) (A) (A) (A) (A)
                 (A) (A)
       Virtual   (A) (A) (A) (A) (A) (A) (A) (A) (A) (A) (A) (A)
                 (A) (A) (A) (A) (A) (A) (A) (A) (A) (A) (A) (A)
                 (A) (A) (A) (A) (A) (A) (A) (A) (A) (A) (A) (A)
                 (A) (A) (A) (A) (A) (A) (A) (A) (A) (A) (A) (A)
                 (A) (A) (A) (A) (A) (A) (A) (A) (A) (A) (A) (A)
                 (A) (A) (A) (A) (A) (A) (A) (A) (A) (A) (A) (A)
                 (A) (A) (A) (A) (A) (A) (A) (A) (A) (A) (A) (A)
                 (A) (A) (A) (A) (A) (A) (A) (A) (A) (A) (A) (A)
                 (A) (A) (A) (A) (A) (A) (A) (A) (A) (A) (A) (A)
                 (A) (A) (A) (A) (A)
 Beta  Orbitals:
       Occupied  (A) (A) (A) (A) (A) (A) (A) (A) (A) (A) (A) (A)
                 (A) (A) (A) (A) (A) (A) (A) (A) (A) (A) (A) (A)
                 (A)
       Virtual   (A) (A) (A) (A) (A) (A) (A) (A) (A) (A) (A) (A)
                 (A) (A) (A) (A) (A) (A) (A) (A) (A) (A) (A) (A)
                 (A) (A) (A) (A) (A) (A) (A) (A) (A) (A) (A) (A)
                 (A) (A) (A) (A) (A) (A) (A) (A) (A) (A) (A) (A)
                 (A) (A) (A) (A) (A) (A) (A) (A) (A) (A) (A) (A)
                 (A) (A) (A) (A) (A) (A) (A) (A) (A) (A) (A) (A)
                 (A) (A) (A) (A) (A) (A) (A) (A) (A) (A) (A) (A)
                 (A) (A) (A) (A) (A) (A) (A) (A) (A) (A) (A) (A)
                 (A) (A) (A) (A) (A) (A) (A) (A) (A) (A) (A) (A)
                 (A) (A) (A) (A) (A) (A)
 The electronic state is 2-A.
 Alpha  occ. eigenvalues --  -19.37048 -19.31961 -10.36568 -10.30917 -10.28617
 Alpha  occ. eigenvalues --  -10.28529  -1.30156  -0.97468  -0.84594  -0.84042
 Alpha  occ. eigenvalues --   -0.71936  -0.69918  -0.62043  -0.60546  -0.59177
 Alpha  occ. eigenvalues --   -0.52838  -0.51718  -0.51534  -0.49198  -0.48002
 Alpha  occ. eigenvalues --   -0.45255  -0.44713  -0.42051  -0.42021  -0.36394
 Alpha  occ. eigenvalues --   -0.36111
 Alpha virt. eigenvalues --    0.12829   0.15333   0.16724   0.18257   0.19079
 Alpha virt. eigenvalues --    0.19439   0.20382   0.20968   0.22794   0.23456
 Alpha virt. eigenvalues --    0.25074   0.26581   0.29275   0.30050   0.32743
 Alpha virt. eigenvalues --    0.46871   0.50099   0.50446   0.51491   0.53707
 Alpha virt. eigenvalues --    0.55708   0.56933   0.61120   0.64685   0.66698
 Alpha virt. eigenvalues --    0.68031   0.71635   0.72650   0.73218   0.74030
 Alpha virt. eigenvalues --    0.76408   0.77320   0.77695   0.78019   0.79019
 Alpha virt. eigenvalues --    0.80735   0.80967   0.81822   0.83176   0.86776
 Alpha virt. eigenvalues --    0.94327   0.96560   1.01227   1.07127   1.09480
 Alpha virt. eigenvalues --    1.10909   1.11775   1.18508   1.19892   1.23318
 Alpha virt. eigenvalues --    1.25663   1.34775   1.40876   1.45161   1.46036
 Alpha virt. eigenvalues --    1.48933   1.52049   1.60641   1.61745   1.63160
 Alpha virt. eigenvalues --    1.65178   1.79020   1.81118   1.83518   1.84743
 Alpha virt. eigenvalues --    1.84995   1.86903   1.87040   1.88057   1.88907
 Alpha virt. eigenvalues --    1.90758   1.91131   1.92227   1.93883   1.96394
 Alpha virt. eigenvalues --    1.96512   1.99613   2.09397   2.12607   2.13320
 Alpha virt. eigenvalues --    2.15987   2.25350   2.27741   2.32937   2.41529
 Alpha virt. eigenvalues --    2.45271   2.45853   2.46536   2.50855   2.53760
 Alpha virt. eigenvalues --    2.57213   2.59843   2.64001   2.64295   2.66354
 Alpha virt. eigenvalues --    2.69635   2.72272   2.73355   2.77219   2.85025
 Alpha virt. eigenvalues --    2.92627   2.97117   3.01704   3.03879   3.04071
 Alpha virt. eigenvalues --    3.05119   3.08534   3.10967   3.12018   3.22811
 Alpha virt. eigenvalues --    3.28367   3.47058   3.97213
  Beta  occ. eigenvalues --  -19.36175 -19.30257 -10.36606 -10.30888 -10.28617
  Beta  occ. eigenvalues --  -10.28529  -1.27376  -0.94702  -0.84194  -0.83305
  Beta  occ. eigenvalues --   -0.70921  -0.69907  -0.60210  -0.59474  -0.55232
  Beta  occ. eigenvalues --   -0.51921  -0.51710  -0.51113  -0.48457  -0.45521
  Beta  occ. eigenvalues --   -0.44896  -0.44035  -0.42036  -0.41994  -0.34416
  Beta virt. eigenvalues --   -0.02390   0.12907   0.15369   0.16844   0.18437
  Beta virt. eigenvalues --    0.19163   0.19793   0.20755   0.21122   0.22878
  Beta virt. eigenvalues --    0.23528   0.25283   0.26892   0.29656   0.31125
  Beta virt. eigenvalues --    0.32782   0.46896   0.50131   0.50489   0.51533
  Beta virt. eigenvalues --    0.53981   0.55837   0.57087   0.61136   0.64759
  Beta virt. eigenvalues --    0.66792   0.68108   0.71680   0.72719   0.73212
  Beta virt. eigenvalues --    0.74104   0.76439   0.77379   0.77713   0.78045
  Beta virt. eigenvalues --    0.79056   0.80952   0.81058   0.81852   0.83303
  Beta virt. eigenvalues --    0.86836   0.95375   0.97979   1.03445   1.07534
  Beta virt. eigenvalues --    1.10277   1.11597   1.15122   1.18557   1.19968
  Beta virt. eigenvalues --    1.24247   1.26515   1.35995   1.40951   1.45219
  Beta virt. eigenvalues --    1.46058   1.49379   1.52443   1.60654   1.61919
  Beta virt. eigenvalues --    1.63167   1.65371   1.79145   1.81181   1.83561
  Beta virt. eigenvalues --    1.84819   1.85027   1.86913   1.87046   1.88072
  Beta virt. eigenvalues --    1.88964   1.90778   1.91152   1.92292   1.93974
  Beta virt. eigenvalues --    1.96445   1.96623   1.99657   2.09683   2.12610
  Beta virt. eigenvalues --    2.13326   2.16341   2.25476   2.31103   2.32999
  Beta virt. eigenvalues --    2.41773   2.45496   2.45926   2.46660   2.51216
  Beta virt. eigenvalues --    2.53796   2.57662   2.61141   2.64007   2.64338
  Beta virt. eigenvalues --    2.71173   2.72684   2.73690   2.75510   2.78193
  Beta virt. eigenvalues --    2.86075   2.92642   2.97951   3.01871   3.03916
  Beta virt. eigenvalues --    3.04090   3.05284   3.09318   3.10982   3.12027
  Beta virt. eigenvalues --    3.24556   3.32622   3.47946   3.99157
          Condensed to atoms (all electrons):
               1          2          3          4          5          6
     1  C    4.601631   0.428375  -0.038179  -0.004701   0.385985   0.400646
     2  C    0.428375   4.540940   0.235251  -0.046185  -0.018210  -0.020019
     3  O   -0.038179   0.235251   7.913279   0.080639   0.001611  -0.005382
     4  O   -0.004701  -0.046185   0.080639   8.083111  -0.000349   0.008717
     5  H    0.385985  -0.018210   0.001611  -0.000349   0.612923  -0.020959
     6  H    0.400646  -0.020019  -0.005382   0.008717  -0.020959   0.582328
     7  H    0.384813  -0.016163   0.003350   0.000102  -0.016808  -0.016855
     8  H   -0.021641   0.381374  -0.017869   0.005005  -0.008638   0.006437
     9  H   -0.032195   0.399791  -0.020352  -0.001096   0.007240  -0.009351
    10  C    0.000122  -0.000097  -0.000001   0.000022  -0.000003   0.000080
    11  C   -0.000492  -0.001903   0.000502  -0.006903   0.000040   0.000987
    12  H   -0.000005  -0.000000   0.000000  -0.000002   0.000000   0.000005
    13  H   -0.000011   0.000110  -0.000005   0.000045   0.000000   0.000005
    14  H    0.000000  -0.000006   0.000000  -0.000003   0.000000  -0.000003
    15  H   -0.003331   0.000687  -0.002597   0.025219   0.000090   0.003377
    16  H   -0.000075   0.000135  -0.000004   0.000087  -0.000003   0.000215
    17  H    0.001533  -0.001657   0.000006  -0.000023   0.000025  -0.000156
               7          8          9         10         11         12
     1  C    0.384813  -0.021641  -0.032195   0.000122  -0.000492  -0.000005
     2  C   -0.016163   0.381374   0.399791  -0.000097  -0.001903  -0.000000
     3  O    0.003350  -0.017869  -0.020352  -0.000001   0.000502   0.000000
     4  O    0.000102   0.005005  -0.001096   0.000022  -0.006903  -0.000002
     5  H   -0.016808  -0.008638   0.007240  -0.000003   0.000040   0.000000
     6  H   -0.016855   0.006437  -0.009351   0.000080   0.000987   0.000005
     7  H    0.612443  -0.003158  -0.002650  -0.000007  -0.000261  -0.000000
     8  H   -0.003158   0.628039  -0.024618   0.000004  -0.000019   0.000000
     9  H   -0.002650  -0.024618   0.616357  -0.000362   0.002294  -0.000005
    10  C   -0.000007   0.000004  -0.000362   4.557049   0.426608   0.397144
    11  C   -0.000261  -0.000019   0.002294   0.426608   4.622501  -0.023149
    12  H   -0.000000   0.000000  -0.000005   0.397144  -0.023149   0.645519
    13  H    0.000002  -0.000005   0.000184   0.397348  -0.025506  -0.024610
    14  H    0.000000  -0.000000   0.000012   0.398517  -0.022841  -0.023743
    15  H   -0.000137   0.000233   0.002546  -0.022641   0.387063   0.006265
    16  H    0.000010  -0.000003  -0.000102  -0.023252   0.390791  -0.006646
    17  H    0.000849   0.000003   0.002113  -0.025119   0.393249  -0.007258
              13         14         15         16         17
     1  C   -0.000011   0.000000  -0.003331  -0.000075   0.001533
     2  C    0.000110  -0.000006   0.000687   0.000135  -0.001657
     3  O   -0.000005   0.000000  -0.002597  -0.000004   0.000006
     4  O    0.000045  -0.000003   0.025219   0.000087  -0.000023
     5  H    0.000000   0.000000   0.000090  -0.000003   0.000025
     6  H    0.000005  -0.000003   0.003377   0.000215  -0.000156
     7  H    0.000002   0.000000  -0.000137   0.000010   0.000849
     8  H   -0.000005  -0.000000   0.000233  -0.000003   0.000003
     9  H    0.000184   0.000012   0.002546  -0.000102   0.002113
    10  C    0.397348   0.398517  -0.022641  -0.023252  -0.025119
    11  C   -0.025506  -0.022841   0.387063   0.390791   0.393249
    12  H   -0.024610  -0.023743   0.006265  -0.006646  -0.007258
    13  H    0.647652  -0.023327  -0.006222   0.007069  -0.006770
    14  H   -0.023327   0.635943  -0.006791  -0.006809   0.007088
    15  H   -0.006222  -0.006791   0.610968  -0.019184  -0.027658
    16  H    0.007069  -0.006809  -0.019184   0.643547  -0.023935
    17  H   -0.006770   0.007088  -0.027658  -0.023935   0.659772
          Atomic-Atomic Spin Densities.
               1          2          3          4          5          6
     1  C    0.051606  -0.011701  -0.012522   0.004573  -0.002797   0.001565
     2  C   -0.011701  -0.025181   0.012643  -0.004434   0.001496   0.000635
     3  O   -0.012522   0.012643   0.428933  -0.130269   0.001214  -0.000991
     4  O    0.004573  -0.004434  -0.130269   0.830863  -0.000618   0.000747
     5  H   -0.002797   0.001496   0.001214  -0.000618  -0.000366  -0.000281
     6  H    0.001565   0.000635  -0.000991   0.000747  -0.000281  -0.001931
     7  H   -0.002077   0.002067   0.000059  -0.000128   0.000483  -0.000411
     8  H   -0.001046   0.002297  -0.000235  -0.000113   0.000055  -0.000126
     9  H   -0.010607   0.002143  -0.006135   0.003444   0.000355  -0.000718
    10  C   -0.000004   0.000000  -0.000001   0.000002   0.000000  -0.000005
    11  C   -0.000033   0.000097  -0.000028   0.000583  -0.000003   0.000277
    12  H   -0.000000   0.000000  -0.000000   0.000000   0.000000   0.000000
    13  H   -0.000002  -0.000002  -0.000001   0.000006   0.000000  -0.000002
    14  H    0.000000   0.000000   0.000000  -0.000000  -0.000000   0.000000
    15  H    0.000078  -0.000112   0.000183  -0.002506   0.000005  -0.000272
    16  H    0.000002   0.000001   0.000000  -0.000009   0.000000  -0.000030
    17  H   -0.000000   0.000001   0.000001  -0.000002   0.000000   0.000003
               7          8          9         10         11         12
     1  C   -0.002077  -0.001046  -0.010607  -0.000004  -0.000033  -0.000000
     2  C    0.002067   0.002297   0.002143   0.000000   0.000097   0.000000
     3  O    0.000059  -0.000235  -0.006135  -0.000001  -0.000028  -0.000000
     4  O   -0.000128  -0.000113   0.003444   0.000002   0.000583   0.000000
     5  H    0.000483   0.000055   0.000355   0.000000  -0.000003   0.000000
     6  H   -0.000411  -0.000126  -0.000718  -0.000005   0.000277   0.000000
     7  H   -0.001510   0.000004   0.000843   0.000002  -0.000029   0.000000
     8  H    0.000004  -0.001798   0.000600   0.000000   0.000009   0.000000
     9  H    0.000843   0.000600   0.023373   0.000033  -0.000458  -0.000000
    10  C    0.000002   0.000000   0.000033   0.000057   0.000058   0.000014
    11  C   -0.000029   0.000009  -0.000458   0.000058  -0.003931  -0.000034
    12  H    0.000000   0.000000  -0.000000   0.000014  -0.000034  -0.000060
    13  H    0.000000  -0.000000   0.000032   0.000007   0.000008   0.000011
    14  H   -0.000000   0.000000  -0.000001  -0.000011   0.000011   0.000001
    15  H    0.000035  -0.000024   0.000367  -0.000088   0.003253   0.000037
    16  H    0.000003  -0.000000   0.000019   0.000015   0.000106   0.000007
    17  H   -0.000006   0.000000  -0.000006   0.000012   0.000092   0.000002
              13         14         15         16         17
     1  C   -0.000002   0.000000   0.000078   0.000002  -0.000000
     2  C   -0.000002   0.000000  -0.000112   0.000001   0.000001
     3  O   -0.000001   0.000000   0.000183   0.000000   0.000001
     4  O    0.000006  -0.000000  -0.002506  -0.000009  -0.000002
     5  H    0.000000  -0.000000   0.000005   0.000000   0.000000
     6  H   -0.000002   0.000000  -0.000272  -0.000030   0.000003
     7  H    0.000000  -0.000000   0.000035   0.000003  -0.000006
     8  H   -0.000000   0.000000  -0.000024  -0.000000   0.000000
     9  H    0.000032  -0.000001   0.000367   0.000019  -0.000006
    10  C    0.000007  -0.000011  -0.000088   0.000015   0.000012
    11  C    0.000008   0.000011   0.003253   0.000106   0.000092
    12  H    0.000011   0.000001   0.000037   0.000007   0.000002
    13  H   -0.000042  -0.000001  -0.000040   0.000003  -0.000001
    14  H   -0.000001   0.000002   0.000002  -0.000003  -0.000001
    15  H   -0.000040   0.000002  -0.003045  -0.000145  -0.000050
    16  H    0.000003  -0.000003  -0.000145   0.000122  -0.000003
    17  H   -0.000001  -0.000001  -0.000050  -0.000003  -0.000056
 Mulliken charges and spin densities:
               1          2
     1  C   -0.102474   0.017033
     2  C    0.117579  -0.020050
     3  O   -0.150251   0.292852
     4  O   -0.143685   0.702140
     5  H    0.057057  -0.000458
     6  H    0.069926  -0.001541
     7  H    0.054471  -0.000665
     8  H    0.054856  -0.000375
     9  H    0.060194   0.013283
    10  C   -0.105410   0.000093
    11  C   -0.142962  -0.000022
    12  H    0.036486  -0.000022
    13  H    0.034041  -0.000022
    14  H    0.041963  -0.000001
    15  H    0.052112  -0.002322
    16  H    0.038161   0.000090
    17  H    0.027937  -0.000014
 Sum of Mulliken charges =  -0.00000   1.00000
 Mulliken charges and spin densities with hydrogens summed into heavy atoms:
               1          2
     1  C    0.078980   0.014370
     2  C    0.232629  -0.007142
     3  O   -0.150251   0.292852
     4  O   -0.143685   0.702140
    10  C    0.007079   0.000047
    11  C   -0.024752  -0.002268
 Electronic spatial extent (au):  <R**2>=           1108.8169
 Charge=             -0.0000 electrons
 Dipole moment (field-independent basis, Debye):
    X=              0.1132    Y=             -2.4047    Z=              1.1921  Tot=              2.6863
 Quadrupole moment (field-independent basis, Debye-Ang):
   XX=            -39.3134   YY=            -40.7571   ZZ=            -38.0472
   XY=             -3.7963   XZ=              1.6733   YZ=              0.4636
 Traceless Quadrupole moment (field-independent basis, Debye-Ang):
   XX=              0.0591   YY=             -1.3845   ZZ=              1.3254
   XY=             -3.7963   XZ=              1.6733   YZ=              0.4636
 Octapole moment (field-independent basis, Debye-Ang**2):
  XXX=             16.0801  YYY=              3.6205  ZZZ=              0.0255  XYY=              2.0416
  XXY=             -4.3882  XXZ=             -0.0923  XZZ=              6.5490  YZZ=              1.8118
  YYZ=              1.7315  XYZ=              0.5808
 Hexadecapole moment (field-independent basis, Debye-Ang**3):
 XXXX=          -1062.6474 YYYY=           -267.3069 ZZZZ=           -119.9557 XXXY=              1.0633
 XXXZ=              7.7653 YYYX=              4.7807 YYYZ=             -2.7270 ZZZX=              4.4467
 ZZZY=             -2.3258 XXYY=           -223.9251 XXZZ=           -192.0680 YYZZ=            -65.5651
 XXYZ=             -3.5395 YYXZ=              2.4234 ZZXY=              2.2296
 N-N= 2.416604703630D+02 E-N=-1.204027513349D+03  KE= 3.061509877470D+02
                          Isotropic Fermi Contact Couplings
        Atom                 a.u.       MegaHertz       Gauss      10(-4) cm-1
     1  C(13)              0.01028      11.55562       4.12333       3.85454
     2  C(13)             -0.01719     -19.32105      -6.89423      -6.44481
     3  O(17)              0.14373     -87.12641     -31.08887     -29.06224
     4  O(17)              0.26915    -163.15685     -58.21842     -54.42327
     5  H(1)              -0.00027      -1.20622      -0.43041      -0.40235
     6  H(1)              -0.00014      -0.63819      -0.22772      -0.21288
     7  H(1)              -0.00033      -1.45651      -0.51972      -0.48584
     8  H(1)              -0.00004      -0.16350      -0.05834      -0.05454
     9  H(1)               0.00378      16.88865       6.02629       5.63345
    10  C(13)              0.00000       0.00094       0.00034       0.00031
    11  C(13)             -0.00019      -0.21753      -0.07762      -0.07256
    12  H(1)              -0.00001      -0.04112      -0.01467      -0.01372
    13  H(1)               0.00000       0.00670       0.00239       0.00223
    14  H(1)              -0.00000      -0.00317      -0.00113      -0.00106
    15  H(1)               0.00006       0.28249       0.10080       0.09423
    16  H(1)               0.00004       0.15941       0.05688       0.05318
    17  H(1)               0.00002       0.07901       0.02819       0.02636
 --------------------------------------------------------
       Center         ----  Spin Dipole Couplings  ----
                      3XX-RR        3YY-RR        3ZZ-RR
 --------------------------------------------------------
     1   Atom       -0.013889      0.012327      0.001562
     2   Atom       -0.009990      0.014395     -0.004404
     3   Atom       -0.393460     -0.216606      0.610067
     4   Atom       -0.722141     -0.426311      1.148452
     5   Atom       -0.002828      0.006981     -0.004153
     6   Atom       -0.005853      0.011310     -0.005457
     7   Atom       -0.003441      0.006047     -0.002606
     8   Atom       -0.007313      0.004866      0.002447
     9   Atom       -0.003877      0.002861      0.001016
    10   Atom        0.002445     -0.001178     -0.001267
    11   Atom        0.003259     -0.001007     -0.002252
    12   Atom        0.001287     -0.000577     -0.000710
    13   Atom        0.002363     -0.001461     -0.000902
    14   Atom        0.002436     -0.001226     -0.001210
    15   Atom        0.008753     -0.002851     -0.005902
    16   Atom        0.001875     -0.000487     -0.001388
    17   Atom        0.001505      0.000483     -0.001988
 --------------------------------------------------------
                        XY            XZ            YZ
 --------------------------------------------------------
     1   Atom        0.005980      0.006913      0.014728
     2   Atom        0.004466      0.000844     -0.011750
     3   Atom       -0.434176     -0.750191      0.828255
     4   Atom       -0.837751     -1.369428      1.628751
     5   Atom       -0.004388     -0.001588      0.003006
     6   Atom        0.003621      0.002619      0.004105
     7   Atom        0.001532     -0.000157     -0.001420
     8   Atom       -0.003646      0.002277     -0.011081
     9   Atom        0.007755     -0.006274     -0.011663
    10   Atom        0.000909     -0.000597     -0.000159
    11   Atom        0.002640      0.000312      0.000109
    12   Atom        0.000648     -0.000360     -0.000122
    13   Atom        0.000605     -0.001576     -0.000280
    14   Atom        0.000149     -0.000141     -0.000011
    15   Atom        0.006872      0.001083      0.000540
    16   Atom        0.001932      0.000864      0.000481
    17   Atom        0.003030     -0.000555     -0.000512
 --------------------------------------------------------


 ---------------------------------------------------------------------------------
              Anisotropic Spin Dipole Couplings in Principal Axis System
 ---------------------------------------------------------------------------------

       Atom             a.u.   MegaHertz   Gauss  10(-4) cm-1        Axes

              Baa    -0.0165    -2.219    -0.792    -0.740  0.9392 -0.0197 -0.3427
     1 C(13)  Bbb    -0.0081    -1.091    -0.389    -0.364  0.2594 -0.6130  0.7463
              Bcc     0.0247     3.310     1.181     1.104  0.2248  0.7898  0.5707
 
              Baa    -0.0129    -1.734    -0.619    -0.579  0.7269 -0.3682 -0.5797
     2 C(13)  Bbb    -0.0076    -1.014    -0.362    -0.338  0.6761  0.2360  0.6980
              Bcc     0.0205     2.749     0.981     0.917  0.1201  0.8993 -0.4205
 
              Baa    -0.7948    57.511    20.521    19.183  0.8597 -0.0776  0.5048
     3 O(17)  Bbb    -0.7209    52.161    18.612    17.399  0.3001  0.8765 -0.3763
              Bcc     1.5156  -109.671   -39.133   -36.582 -0.4133  0.4750  0.7769
 
              Baa    -1.4597   105.626    37.690    35.233  0.5301 -0.5657  0.6316
     4 O(17)  Bbb    -1.4249   103.103    36.790    34.391  0.7441  0.6676 -0.0266
              Bcc     2.8846  -208.729   -74.480   -69.625 -0.4066  0.4840  0.7748
 
              Baa    -0.0052    -2.781    -0.992    -0.928  0.5317 -0.0175  0.8468
     5 H(1)   Bbb    -0.0043    -2.284    -0.815    -0.762  0.7699  0.4267 -0.4746
              Bcc     0.0095     5.065     1.807     1.689 -0.3530  0.9042  0.2403
 
              Baa    -0.0083    -4.420    -1.577    -1.474  0.7263  0.0098 -0.6873
     6 H(1)   Bbb    -0.0049    -2.602    -0.929    -0.868  0.6535 -0.3201  0.6859
              Bcc     0.0132     7.022     2.506     2.342  0.2133  0.9473  0.2389
 
              Baa    -0.0037    -1.967    -0.702    -0.656  0.9834 -0.1656 -0.0741
     7 H(1)   Bbb    -0.0028    -1.507    -0.538    -0.503  0.0980  0.1407  0.9852
              Bcc     0.0065     3.474     1.240     1.159  0.1527  0.9761 -0.1546
 
              Baa    -0.0086    -4.578    -1.634    -1.527  0.8187  0.4808  0.3140
     8 H(1)   Bbb    -0.0070    -3.738    -1.334    -1.247 -0.5446  0.4767  0.6900
              Bcc     0.0156     8.316     2.967     2.774 -0.1820  0.7359 -0.6521
 
              Baa    -0.0100    -5.327    -1.901    -1.777 -0.3206  0.7355  0.5969
     9 H(1)   Bbb    -0.0082    -4.352    -1.553    -1.452  0.8529 -0.0501  0.5197
              Bcc     0.0181     9.679     3.454     3.229  0.4122  0.6757 -0.6112
 
              Baa    -0.0014    -0.188    -0.067    -0.063 -0.1544  0.9082  0.3891
    10 C(13)  Bbb    -0.0014    -0.182    -0.065    -0.061  0.2267 -0.3507  0.9086
              Bcc     0.0028     0.370     0.132     0.123  0.9616  0.2285 -0.1518
 
              Baa    -0.0023    -0.309    -0.110    -0.103 -0.3348  0.6218  0.7080
    11 C(13)  Bbb    -0.0022    -0.300    -0.107    -0.100  0.2746 -0.6544  0.7045
              Bcc     0.0045     0.609     0.217     0.203  0.9014  0.4303  0.0483
 
              Baa    -0.0008    -0.419    -0.150    -0.140 -0.1539  0.8082  0.5685
    12 H(1)   Bbb    -0.0008    -0.410    -0.146    -0.137  0.3017 -0.5094  0.8059
              Bcc     0.0016     0.829     0.296     0.276  0.9409  0.2956 -0.1654
 
              Baa    -0.0016    -0.845    -0.301    -0.282  0.1163  0.7942  0.5964
    13 H(1)   Bbb    -0.0015    -0.808    -0.288    -0.269  0.3813 -0.5901  0.7116
              Bcc     0.0031     1.652     0.590     0.551  0.9171  0.1446 -0.3715
 
              Baa    -0.0012    -0.658    -0.235    -0.220 -0.0281  0.9586  0.2834
    14 H(1)   Bbb    -0.0012    -0.647    -0.231    -0.216  0.0486 -0.2819  0.9582
              Bcc     0.0024     1.306     0.466     0.436  0.9984  0.0407 -0.0386
 
              Baa    -0.0061    -3.232    -1.153    -1.078 -0.3597  0.8394 -0.4075
    15 H(1)   Bbb    -0.0060    -3.184    -1.136    -1.062 -0.2278  0.3445  0.9107
              Bcc     0.0120     6.417     2.290     2.140  0.9048  0.4204  0.0673
 
              Baa    -0.0016    -0.855    -0.305    -0.285 -0.2368 -0.0085  0.9715
    16 H(1)   Bbb    -0.0016    -0.838    -0.299    -0.279 -0.4660  0.8784 -0.1059
              Bcc     0.0032     1.693     0.604     0.565  0.8525  0.4779  0.2120
 
              Baa    -0.0021    -1.127    -0.402    -0.376 -0.3841  0.5888  0.7112
    17 H(1)   Bbb    -0.0020    -1.092    -0.390    -0.364  0.5278 -0.4920  0.6924
              Bcc     0.0042     2.219     0.792     0.740  0.7576  0.6413 -0.1217
 

 ---------------------------------------------------------------------------------

 No NMR shielding tensors so no spin-rotation constants.
 Leave Link  601 at Mon Jul  4 16:15:28 2022, MaxMem=   939524096 cpu:         2.4
 (Enter /Local/ce_dana/g09/l9999.exe)

 Test job not archived.
 1\1\GINC-TECH-WN096\FTS\UwB97XD\def2SVP\C4H11O2(2)\ALONGD\04-Jul-2022\
 0\\#P opt=(ts, calcfc, noeigentest, maxcycles=100) guess=mix uwb97xd/d
 ef2svp IOp(2/9=2000) scf=xqc\\TS0\\0,2\C,0.7709135914,1.9250214079,0.3
 375068828\C,0.2743241076,1.7550504987,-1.0807484805\O,1.365953325,1.58
 21049456,-2.0064746391\O,1.9578226729,0.4410273978,-1.8605729682\H,1.4
 335945728,2.798286857,0.4211182053\H,1.3195606821,1.0293458694,0.65923
 00363\H,-0.0836067779,2.0687982811,1.0142653785\H,-0.2423775205,2.6509
 676267,-1.4513389914\H,-0.3894511708,0.8834345309,-1.1839546623\C,-0.7
 783829072,-2.8164919691,-0.2899752405\C,-0.0071303777,-1.704826178,0.4
 104027864\H,-1.5158548462,-3.2839768931,0.3803445459\H,-1.3236222469,-
 2.4356386538,-1.1674399576\H,-0.1031975672,-3.6098541551,-0.6444464342
 \H,0.7227704955,-1.2348678692,-0.2661672942\H,0.5443715736,-2.08630491
 09,1.2836207438\H,-0.6838541663,-0.9147705661,0.7741982489\\Version=ES
 64L-G09RevD.01\State=2-A\HF=-309.0353566\S2=0.753191\S2-1=0.\S2A=0.750
 007\RMSD=3.985e-09\RMSF=1.042e-05\Dipole=-0.747418,0.493134,0.5614274\
 Quadrupole=-1.1364075,2.2586053,-1.1221978,-1.3407921,2.074074,0.85067
 6\PG=C01 [X(C4H11O2)]\\@


 TOWERING GENIUS DISDAINS A BEATEN PATH.  IT SEEKS 
 REGIONS HITHERTO UNEXPLORED.

                                -- ABRAHAM LINCOLN
 Job cpu time:       0 days  3 hours 26 minutes 39.8 seconds.
 File lengths (MBytes):  RWF=     74 Int=      0 D2E=      0 Chk=      3 Scr=      1
 Normal termination of Gaussian 09 at Mon Jul  4 16:15:28 2022.
