 Entering Gaussian System, Link 0=/Local/ce_dana/g09/g09
 Initial command:
 /Local/ce_dana/g09/l1.exe "/storage/ce_dana/alongd/scratch/g09/Gau-182169.inp" -scrdir="/storage/ce_dana/alongd/scratch/g09/"
 Entering Link 1 = /Local/ce_dana/g09/l1.exe PID=    182180.
  
 Copyright (c) 1988,1990,1992,1993,1995,1998,2003,2009,2013,
            Gaussian, Inc.  All Rights Reserved.
  
 This is part of the Gaussian(R) 09 program.  It is based on
 the Gaussian(R) 03 system (copyright 2003, Gaussian, Inc.),
 the Gaussian(R) 98 system (copyright 1998, Gaussian, Inc.),
 the Gaussian(R) 94 system (copyright 1995, Gaussian, Inc.),
 the Gaussian 92(TM) system (copyright 1992, Gaussian, Inc.),
 the Gaussian 90(TM) system (copyright 1990, Gaussian, Inc.),
 the Gaussian 88(TM) system (copyright 1988, Gaussian, Inc.),
 the Gaussian 86(TM) system (copyright 1986, Carnegie Mellon
 University), and the Gaussian 82(TM) system (copyright 1983,
 Carnegie Mellon University). Gaussian is a federally registered
 trademark of Gaussian, Inc.
  
 This software contains proprietary and confidential information,
 including trade secrets, belonging to Gaussian, Inc.
  
 This software is provided under written license and may be
 used, copied, transmitted, or stored only in accord with that
 written license.
  
 The following legend is applicable only to US Government
 contracts under FAR:
  
                    RESTRICTED RIGHTS LEGEND
  
 Use, reproduction and disclosure by the US Government is
 subject to restrictions as set forth in subparagraphs (a)
 and (c) of the Commercial Computer Software - Restricted
 Rights clause in FAR 52.227-19.
  
 Gaussian, Inc.
 340 Quinnipiac St., Bldg. 40, Wallingford CT 06492
  
  
 ---------------------------------------------------------------
 Warning -- This program may not be used in any manner that
 competes with the business of Gaussian, Inc. or will provide
 assistance to any competitor of Gaussian, Inc.  The licensee
 of this program is prohibited from giving any competitor of
 Gaussian, Inc. access to this program.  By using this program,
 the user acknowledges that Gaussian, Inc. is engaged in the
 business of creating and licensing software in the field of
 computational chemistry and represents and warrants to the
 licensee that it is not a competitor of Gaussian, Inc. and that
 it will not use this program in any manner prohibited above.
 ---------------------------------------------------------------
  

 Cite this work as:
 Gaussian 09, Revision D.01,
 M. J. Frisch, G. W. Trucks, H. B. Schlegel, G. E. Scuseria, 
 M. A. Robb, J. R. Cheeseman, G. Scalmani, V. Barone, B. Mennucci, 
 G. A. Petersson, H. Nakatsuji, M. Caricato, X. Li, H. P. Hratchian, 
 A. F. Izmaylov, J. Bloino, G. Zheng, J. L. Sonnenberg, M. Hada, 
 M. Ehara, K. Toyota, R. Fukuda, J. Hasegawa, M. Ishida, T. Nakajima, 
 Y. Honda, O. Kitao, H. Nakai, T. Vreven, J. A. Montgomery, Jr., 
 J. E. Peralta, F. Ogliaro, M. Bearpark, J. J. Heyd, E. Brothers, 
 K. N. Kudin, V. N. Staroverov, T. Keith, R. Kobayashi, J. Normand, 
 K. Raghavachari, A. Rendell, J. C. Burant, S. S. Iyengar, J. Tomasi, 
 M. Cossi, N. Rega, J. M. Millam, M. Klene, J. E. Knox, J. B. Cross, 
 V. Bakken, C. Adamo, J. Jaramillo, R. Gomperts, R. E. Stratmann, 
 O. Yazyev, A. J. Austin, R. Cammi, C. Pomelli, J. W. Ochterski, 
 R. L. Martin, K. Morokuma, V. G. Zakrzewski, G. A. Voth, 
 P. Salvador, J. J. Dannenberg, S. Dapprich, A. D. Daniels, 
 O. Farkas, J. B. Foresman, J. V. Ortiz, J. Cioslowski, 
 and D. J. Fox, Gaussian, Inc., Wallingford CT, 2013.
 
 ******************************************
 Gaussian 09:  ES64L-G09RevD.01 24-Apr-2013
                 4-Jul-2022 
 ******************************************
 %chk=check.chk
 %mem=7168mb
 %NProcShared=10
 Will use up to   10 processors via shared memory.
 ----------------------------------------------------------------------
 #P opt=(ts, calcfc, noeigentest, maxcycles=100) guess=mix uwb97xd/def2
 svp IOp(2/9=2000) scf=xqc
 ----------------------------------------------------------------------
 1/5=1,6=100,10=4,11=1,14=-1,18=20,26=3,38=1/1,3;
 2/9=2000,12=2,17=6,18=5,40=1/2;
 3/5=43,7=101,11=2,16=1,25=1,30=1,71=2,74=-58,116=2,140=1/1,2,3;
 4/13=-1/1;
 5/5=2,8=3,13=1,38=5/2,8;
 8/6=4,10=90,11=11/1;
 11/6=1,8=1,9=11,15=111,16=1/1,2,10;
 10/6=1,13=1/2;
 6/7=2,8=2,9=2,10=2,28=1/1;
 7/10=1,18=20,25=1/1,2,3,16;
 1/5=1,6=100,10=4,11=1,14=-1,18=20,26=3/3(2);
 2/9=2000/2;
 99//99;
 2/9=2000/2;
 3/5=43,7=101,11=2,16=1,25=1,30=1,71=1,74=-58,116=2/1,2,3;
 4/5=5,16=3,69=1/1;
 5/5=2,8=3,13=1,38=5/2,8;
 7//1,2,3,16;
 1/5=1,6=100,11=1,14=-1,18=20,26=3/3(-5);
 2/9=2000/2;
 6/7=2,8=2,9=2,10=2,19=2,28=1/1;
 99/9=1/99;
 Leave Link    1 at Mon Jul  4 15:57:34 2022, MaxMem=   939524096 cpu:         0.1
 (Enter /Local/ce_dana/g09/l101.exe)
 ---
 TS0
 ---
 Symbolic Z-matrix:
 Charge =  0 Multiplicity = 2
 C                     1.02877  -0.84268   1.27205 
 C                     1.03538   0.67336   1.40403 
 O                     0.57458   1.34911   0.23573 
 O                    -0.85975   1.10854   0.14161 
 H                     1.63343  -1.15864   0.41785 
 H                     0.00975  -1.20972   1.1372 
 H                     1.43907  -1.30544   2.17412 
 H                     2.05295   1.06075   1.51507 
 H                     0.44554   1.00348   2.26612 
 C                    -0.85975  -1.1935   -2.28941 
 C                    -0.85975  -1.1935   -0.75901 
 H                    -0.85975  -2.21191  -2.68784 
 H                    -1.74171  -0.6843   -2.68784 
 H                     0.02221  -0.6843   -2.68784 
 H                    -0.85975   0.02858  -0.2809 
 H                     0.02221  -1.70271  -0.36058 
 H                    -1.74172  -1.7027   -0.36058 
 
 Add virtual bond connecting atoms H15        and O4         Dist= 2.19D+00.
 Add virtual bond connecting atoms H15        and C11        Dist= 2.48D+00.
 NAtoms=     17 NQM=       17 NQMF=       0 NMMI=      0 NMMIF=      0
                NMic=       0 NMicF=      0.
                    Isotopes and Nuclear Properties:
 (Nuclear quadrupole moments (NQMom) in fm**2, nuclear magnetic moments (NMagM)
  in nuclear magnetons)

  Atom         1           2           3           4           5           6           7           8           9          10
 IAtWgt=          12          12          16          16           1           1           1           1           1          12
 AtmWgt=  12.0000000  12.0000000  15.9949146  15.9949146   1.0078250   1.0078250   1.0078250   1.0078250   1.0078250  12.0000000
 NucSpn=           0           0           0           0           1           1           1           1           1           0
 AtZEff=   0.0000000   0.0000000   0.0000000   0.0000000   0.0000000   0.0000000   0.0000000   0.0000000   0.0000000   0.0000000
 NQMom=    0.0000000   0.0000000   0.0000000   0.0000000   0.0000000   0.0000000   0.0000000   0.0000000   0.0000000   0.0000000
 NMagM=    0.0000000   0.0000000   0.0000000   0.0000000   2.7928460   2.7928460   2.7928460   2.7928460   2.7928460   0.0000000
 AtZNuc=   6.0000000   6.0000000   8.0000000   8.0000000   1.0000000   1.0000000   1.0000000   1.0000000   1.0000000   6.0000000

  Atom        11          12          13          14          15          16          17
 IAtWgt=          12           1           1           1           1           1           1
 AtmWgt=  12.0000000   1.0078250   1.0078250   1.0078250   1.0078250   1.0078250   1.0078250
 NucSpn=           0           1           1           1           1           1           1
 AtZEff=   0.0000000   0.0000000   0.0000000   0.0000000   0.0000000   0.0000000   0.0000000
 NQMom=    0.0000000   0.0000000   0.0000000   0.0000000   0.0000000   0.0000000   0.0000000
 NMagM=    0.0000000   2.7928460   2.7928460   2.7928460   2.7928460   2.7928460   2.7928460
 AtZNuc=   6.0000000   1.0000000   1.0000000   1.0000000   1.0000000   1.0000000   1.0000000
 Leave Link  101 at Mon Jul  4 15:57:35 2022, MaxMem=   939524096 cpu:         0.4
 (Enter /Local/ce_dana/g09/l103.exe)

 GradGradGradGradGradGradGradGradGradGradGradGradGradGradGradGradGradGrad
 Stoichiometry    C4H11O2(2)
 Framework group  C1[X(C4H11O2)]
 Deg. of freedom    45
 Full point group                 C1      NOp   1
 RotChk:  IX=2 Diff= 3.20D-15
 Largest Abelian subgroup         C1      NOp   1
 Largest concise Abelian subgroup C1      NOp   1
                         Standard orientation:                         
 ---------------------------------------------------------------------
 Center     Atomic      Atomic             Coordinates (Angstroms)
 Number     Number       Type             X           Y           Z
 ---------------------------------------------------------------------
      1          6           0       -1.198520    1.475201   -0.057422
      2          6           0       -1.987939    0.184451    0.051519
      3          8           0       -1.252458   -0.965300   -0.321899
      4          8           0       -0.243040   -1.184245    0.590466
      5          1           0       -0.816705    1.619505   -1.079232
      6          1           0       -0.348889    1.465307    0.639378
      7          1           0       -1.838012    2.332988    0.197959
      8          1           0       -2.839231    0.179212   -0.646063
      9          1           0       -2.381523    0.048707    1.073683
     10          6           0        2.591366    0.562464    0.308965
     11          6           0        1.828833   -0.362184   -0.592107
     12          1           0        2.904374    0.060211    1.236397
     13          1           0        3.508648    0.924360   -0.189789
     14          1           0        2.000831    1.450118    0.580784
     15          1           0        0.712860   -0.819326    0.067895
     16          1           0        2.316553   -1.316474   -0.829586
     17          1           0        1.342641    0.092163   -1.465688
 ---------------------------------------------------------------------
 Rotational constants (GHZ):      4.8062158      1.7882921      1.4584747
 Leave Link  202 at Mon Jul  4 16:22:01 2022, MaxMem=   939524096 cpu:         0.0
 (Enter /Local/ce_dana/g09/l601.exe)
 Copying SCF densities to generalized density rwf, IOpCl= 1 IROHF=0.

 **********************************************************************

            Population analysis using the SCF density.

 **********************************************************************

 Orbital symmetries:
 Alpha Orbitals:
       Occupied  (A) (A) (A) (A) (A) (A) (A) (A) (A) (A) (A) (A)
                 (A) (A) (A) (A) (A) (A) (A) (A) (A) (A) (A) (A)
                 (A) (A)
       Virtual   (A) (A) (A) (A) (A) (A) (A) (A) (A) (A) (A) (A)
                 (A) (A) (A) (A) (A) (A) (A) (A) (A) (A) (A) (A)
                 (A) (A) (A) (A) (A) (A) (A) (A) (A) (A) (A) (A)
                 (A) (A) (A) (A) (A) (A) (A) (A) (A) (A) (A) (A)
                 (A) (A) (A) (A) (A) (A) (A) (A) (A) (A) (A) (A)
                 (A) (A) (A) (A) (A) (A) (A) (A) (A) (A) (A) (A)
                 (A) (A) (A) (A) (A) (A) (A) (A) (A) (A) (A) (A)
                 (A) (A) (A) (A) (A) (A) (A) (A) (A) (A) (A) (A)
                 (A) (A) (A) (A) (A) (A) (A) (A) (A) (A) (A) (A)
                 (A) (A) (A) (A) (A)
 Beta  Orbitals:
       Occupied  (A) (A) (A) (A) (A) (A) (A) (A) (A) (A) (A) (A)
                 (A) (A) (A) (A) (A) (A) (A) (A) (A) (A) (A) (A)
                 (A)
       Virtual   (A) (A) (A) (A) (A) (A) (A) (A) (A) (A) (A) (A)
                 (A) (A) (A) (A) (A) (A) (A) (A) (A) (A) (A) (A)
                 (A) (A) (A) (A) (A) (A) (A) (A) (A) (A) (A) (A)
                 (A) (A) (A) (A) (A) (A) (A) (A) (A) (A) (A) (A)
                 (A) (A) (A) (A) (A) (A) (A) (A) (A) (A) (A) (A)
                 (A) (A) (A) (A) (A) (A) (A) (A) (A) (A) (A) (A)
                 (A) (A) (A) (A) (A) (A) (A) (A) (A) (A) (A) (A)
                 (A) (A) (A) (A) (A) (A) (A) (A) (A) (A) (A) (A)
                 (A) (A) (A) (A) (A) (A) (A) (A) (A) (A) (A) (A)
                 (A) (A) (A) (A) (A) (A)
 The electronic state is 2-A.
 Alpha  occ. eigenvalues --  -19.30829 -19.29887 -10.34477 -10.31648 -10.30439
 Alpha  occ. eigenvalues --  -10.29627  -1.22762  -0.97379  -0.86576  -0.83204
 Alpha  occ. eigenvalues --   -0.72088  -0.69950  -0.61954  -0.57295  -0.55031
 Alpha  occ. eigenvalues --   -0.54435  -0.53249  -0.50401  -0.48052  -0.47145
 Alpha  occ. eigenvalues --   -0.46201  -0.44511  -0.43327  -0.37814  -0.35673
 Alpha  occ. eigenvalues --   -0.30601
 Alpha virt. eigenvalues --    0.13083   0.15586   0.17005   0.17211   0.17824
 Alpha virt. eigenvalues --    0.20339   0.20922   0.21336   0.22654   0.23790
 Alpha virt. eigenvalues --    0.26218   0.28601   0.31010   0.32604   0.35896
 Alpha virt. eigenvalues --    0.45721   0.48769   0.49830   0.50731   0.53373
 Alpha virt. eigenvalues --    0.56723   0.59785   0.60690   0.65929   0.66783
 Alpha virt. eigenvalues --    0.68983   0.69770   0.71739   0.73567   0.73963
 Alpha virt. eigenvalues --    0.75193   0.75655   0.76089   0.76394   0.78844
 Alpha virt. eigenvalues --    0.79802   0.80667   0.83362   0.85423   0.87653
 Alpha virt. eigenvalues --    0.96592   1.03332   1.05750   1.08430   1.13650
 Alpha virt. eigenvalues --    1.15147   1.18064   1.19219   1.23966   1.28338
 Alpha virt. eigenvalues --    1.34977   1.42312   1.43069   1.46326   1.49543
 Alpha virt. eigenvalues --    1.52800   1.55653   1.59382   1.61363   1.63092
 Alpha virt. eigenvalues --    1.69765   1.75698   1.80123   1.81442   1.81776
 Alpha virt. eigenvalues --    1.83035   1.85443   1.86818   1.87489   1.88118
 Alpha virt. eigenvalues --    1.89159   1.91142   1.92558   1.94054   1.95080
 Alpha virt. eigenvalues --    1.97829   1.99724   2.06403   2.09976   2.11747
 Alpha virt. eigenvalues --    2.20676   2.24677   2.26002   2.35744   2.39385
 Alpha virt. eigenvalues --    2.43802   2.45110   2.47315   2.51103   2.54639
 Alpha virt. eigenvalues --    2.55456   2.56784   2.58944   2.62005   2.66166
 Alpha virt. eigenvalues --    2.66941   2.77450   2.84872   2.87954   2.90734
 Alpha virt. eigenvalues --    2.95896   3.00530   3.03143   3.04208   3.05973
 Alpha virt. eigenvalues --    3.07650   3.09595   3.13709   3.27145   3.27591
 Alpha virt. eigenvalues --    3.43792   3.69285   4.00853
  Beta  occ. eigenvalues --  -19.30670 -19.28858 -10.34484 -10.30803 -10.30472
  Beta  occ. eigenvalues --  -10.29618  -1.21507  -0.95687  -0.85258  -0.82848
  Beta  occ. eigenvalues --   -0.70722  -0.69263  -0.60259  -0.57095  -0.53999
  Beta  occ. eigenvalues --   -0.53343  -0.52095  -0.49287  -0.47462  -0.46794
  Beta  occ. eigenvalues --   -0.44956  -0.44000  -0.43043  -0.35811  -0.33477
  Beta virt. eigenvalues --   -0.03707   0.13236   0.15740   0.17313   0.17895
  Beta virt. eigenvalues --    0.18055   0.20551   0.21091   0.21378   0.22820
  Beta virt. eigenvalues --    0.24033   0.26491   0.28905   0.31261   0.33158
  Beta virt. eigenvalues --    0.37850   0.45902   0.49119   0.50505   0.50883
  Beta virt. eigenvalues --    0.53485   0.57130   0.60006   0.61480   0.67018
  Beta virt. eigenvalues --    0.68192   0.69159   0.70091   0.72263   0.73872
  Beta virt. eigenvalues --    0.74185   0.75584   0.75866   0.76653   0.76889
  Beta virt. eigenvalues --    0.78913   0.79962   0.81119   0.83530   0.85617
  Beta virt. eigenvalues --    0.88150   0.96791   1.03968   1.06695   1.08733
  Beta virt. eigenvalues --    1.14160   1.15673   1.18980   1.20013   1.24746
  Beta virt. eigenvalues --    1.28860   1.35681   1.42492   1.43209   1.47055
  Beta virt. eigenvalues --    1.49953   1.53001   1.56445   1.59578   1.61544
  Beta virt. eigenvalues --    1.63177   1.70166   1.78266   1.80661   1.81745
  Beta virt. eigenvalues --    1.81861   1.83163   1.85545   1.87043   1.87670
  Beta virt. eigenvalues --    1.88290   1.89709   1.91309   1.92710   1.94295
  Beta virt. eigenvalues --    1.95205   1.97939   1.99980   2.07126   2.10756
  Beta virt. eigenvalues --    2.11903   2.20798   2.25156   2.26617   2.37459
  Beta virt. eigenvalues --    2.40146   2.44054   2.46346   2.47521   2.52006
  Beta virt. eigenvalues --    2.54939   2.56085   2.57597   2.59612   2.62347
  Beta virt. eigenvalues --    2.66460   2.67672   2.77541   2.85346   2.88823
  Beta virt. eigenvalues --    2.92380   2.97693   3.00876   3.03207   3.04462
  Beta virt. eigenvalues --    3.06175   3.08249   3.10612   3.14072   3.27827
  Beta virt. eigenvalues --    3.29092   3.44051   3.71556   4.02477
          Condensed to atoms (all electrons):
               1          2          3          4          5          6
     1  C    4.706339   0.397566  -0.049244  -0.005559   0.379325   0.389111
     2  C    0.397566   4.484413   0.283743  -0.048682  -0.015239  -0.022900
     3  O   -0.049244   0.283743   7.979693   0.094243   0.003379  -0.006273
     4  O   -0.005559  -0.048682   0.094243   7.992348  -0.001074   0.016047
     5  H    0.379325  -0.015239   0.003379  -0.001074   0.630974  -0.027018
     6  H    0.389111  -0.022900  -0.006273   0.016047  -0.027018   0.615597
     7  H    0.370984  -0.009801   0.003601   0.000173  -0.016407  -0.016497
     8  H   -0.021383   0.378618  -0.020123   0.005687  -0.009478   0.007747
     9  H   -0.050531   0.402764  -0.027751   0.000915   0.008138  -0.010057
    10  C   -0.002866   0.000219   0.000336   0.004486  -0.000055  -0.000479
    11  C    0.001967  -0.002843   0.001324  -0.090344  -0.001357   0.002358
    12  H    0.000023   0.000013  -0.000020   0.000385   0.000001  -0.000157
    13  H    0.000065  -0.000012  -0.000014  -0.000047  -0.000035   0.000003
    14  H    0.000388   0.000112   0.000126  -0.000537   0.000464   0.005430
    15  H    0.003546   0.001714  -0.025032   0.216991   0.000282  -0.001706
    16  H   -0.000026   0.000072   0.000329   0.001460   0.000049   0.000101
    17  H   -0.000549   0.000318   0.003345  -0.000004   0.002998  -0.000999
               7          8          9         10         11         12
     1  C    0.370984  -0.021383  -0.050531  -0.002866   0.001967   0.000023
     2  C   -0.009801   0.378618   0.402764   0.000219  -0.002843   0.000013
     3  O    0.003601  -0.020123  -0.027751   0.000336   0.001324  -0.000020
     4  O    0.000173   0.005687   0.000915   0.004486  -0.090344   0.000385
     5  H   -0.016407  -0.009478   0.008138  -0.000055  -0.001357   0.000001
     6  H   -0.016497   0.007747  -0.010057  -0.000479   0.002358  -0.000157
     7  H    0.626869  -0.003184  -0.000966   0.000059   0.000082   0.000001
     8  H   -0.003184   0.647800  -0.027173  -0.000012   0.000192  -0.000000
     9  H   -0.000966  -0.027173   0.667673   0.000034  -0.000359  -0.000001
    10  C    0.000059  -0.000012   0.000034   4.569630   0.389781   0.398975
    11  C    0.000082   0.000192  -0.000359   0.389781   5.028577  -0.026638
    12  H    0.000001  -0.000000  -0.000001   0.398975  -0.026638   0.616772
    13  H   -0.000003   0.000001  -0.000001   0.385940  -0.019886  -0.022689
    14  H   -0.000109  -0.000004   0.000039   0.399790  -0.028505  -0.021316
    15  H   -0.000137  -0.000781   0.000832  -0.010401   0.195770  -0.003119
    16  H   -0.000003   0.000001   0.000010  -0.021508   0.378263  -0.006282
    17  H    0.000051  -0.000078   0.000140  -0.021657   0.374949   0.006205
              13         14         15         16         17
     1  C    0.000065   0.000388   0.003546  -0.000026  -0.000549
     2  C   -0.000012   0.000112   0.001714   0.000072   0.000318
     3  O   -0.000014   0.000126  -0.025032   0.000329   0.003345
     4  O   -0.000047  -0.000537   0.216991   0.001460  -0.000004
     5  H   -0.000035   0.000464   0.000282   0.000049   0.002998
     6  H    0.000003   0.005430  -0.001706   0.000101  -0.000999
     7  H   -0.000003  -0.000109  -0.000137  -0.000003   0.000051
     8  H    0.000001  -0.000004  -0.000781   0.000001  -0.000078
     9  H   -0.000001   0.000039   0.000832   0.000010   0.000140
    10  C    0.385940   0.399790  -0.010401  -0.021508  -0.021657
    11  C   -0.019886  -0.028505   0.195770   0.378263   0.374949
    12  H   -0.022689  -0.021316  -0.003119  -0.006282   0.006205
    13  H    0.628062  -0.021466   0.002548  -0.004958  -0.004927
    14  H   -0.021466   0.620842  -0.003491   0.006395  -0.006760
    15  H    0.002548  -0.003491   0.459729  -0.003832  -0.005212
    16  H   -0.004958   0.006395  -0.003832   0.600966  -0.021681
    17  H   -0.004927  -0.006760  -0.005212  -0.021681   0.606196
          Atomic-Atomic Spin Densities.
               1          2          3          4          5          6
     1  C    0.012547  -0.000236  -0.003419   0.003929  -0.000425   0.000717
     2  C   -0.000236  -0.006837   0.004368  -0.004129  -0.000053   0.000042
     3  O   -0.003419   0.004368   0.079449  -0.040824   0.000270   0.000155
     4  O    0.003929  -0.004129  -0.040824   0.493246  -0.000336  -0.000764
     5  H   -0.000425  -0.000053   0.000270  -0.000336  -0.000092   0.000061
     6  H    0.000717   0.000042   0.000155  -0.000764   0.000061  -0.001058
     7  H   -0.002001   0.000689   0.000058  -0.000079   0.000176   0.000116
     8  H   -0.001663   0.001182  -0.000129  -0.000061   0.000132  -0.000084
     9  H   -0.003462  -0.001174  -0.001243   0.000935   0.000083   0.000079
    10  C    0.000413  -0.000172  -0.000260   0.003887  -0.000111  -0.000129
    11  C   -0.004119   0.002271   0.010376  -0.081678   0.000772   0.000200
    12  H    0.000041  -0.000016  -0.000022   0.000637  -0.000009  -0.000022
    13  H   -0.000038   0.000013   0.000014  -0.000229   0.000028   0.000017
    14  H    0.000175  -0.000085  -0.000065   0.000607  -0.000085  -0.000052
    15  H   -0.002762   0.001982   0.005974  -0.017436   0.000381   0.000287
    16  H    0.000088  -0.000059  -0.000329   0.002624  -0.000025  -0.000007
    17  H    0.000958  -0.000492  -0.001402   0.002787  -0.000389  -0.000046
               7          8          9         10         11         12
     1  C   -0.002001  -0.001663  -0.003462   0.000413  -0.004119   0.000041
     2  C    0.000689   0.001182  -0.001174  -0.000172   0.002271  -0.000016
     3  O    0.000058  -0.000129  -0.001243  -0.000260   0.010376  -0.000022
     4  O   -0.000079  -0.000061   0.000935   0.003887  -0.081678   0.000637
     5  H    0.000176   0.000132   0.000083  -0.000111   0.000772  -0.000009
     6  H    0.000116  -0.000084   0.000079  -0.000129   0.000200  -0.000022
     7  H    0.001074   0.000128   0.000450  -0.000022   0.000118  -0.000002
     8  H    0.000128  -0.000686   0.001086  -0.000002   0.000055  -0.000000
     9  H    0.000450   0.001086   0.005486  -0.000037   0.000493  -0.000006
    10  C   -0.000022  -0.000002  -0.000037  -0.024187  -0.039003   0.005020
    11  C    0.000118   0.000055   0.000493  -0.039003   0.737441  -0.006730
    12  H   -0.000002  -0.000000  -0.000006   0.005020  -0.006730   0.011561
    13  H    0.000003   0.000000   0.000002   0.009691  -0.013435  -0.005847
    14  H   -0.000034  -0.000001  -0.000022   0.004239  -0.005056   0.002147
    15  H    0.000054   0.000031   0.000597   0.000373   0.046127  -0.000154
    16  H   -0.000001  -0.000001  -0.000010   0.001464  -0.007006   0.001240
    17  H   -0.000039  -0.000009  -0.000051   0.000862  -0.004643   0.000162
              13         14         15         16         17
     1  C   -0.000038   0.000175  -0.002762   0.000088   0.000958
     2  C    0.000013  -0.000085   0.001982  -0.000059  -0.000492
     3  O    0.000014  -0.000065   0.005974  -0.000329  -0.001402
     4  O   -0.000229   0.000607  -0.017436   0.002624   0.002787
     5  H    0.000028  -0.000085   0.000381  -0.000025  -0.000389
     6  H    0.000017  -0.000052   0.000287  -0.000007  -0.000046
     7  H    0.000003  -0.000034   0.000054  -0.000001  -0.000039
     8  H    0.000000  -0.000001   0.000031  -0.000001  -0.000009
     9  H    0.000002  -0.000022   0.000597  -0.000010  -0.000051
    10  C    0.009691   0.004239   0.000373   0.001464   0.000862
    11  C   -0.013435  -0.005056   0.046127  -0.007006  -0.004643
    12  H   -0.005847   0.002147  -0.000154   0.001240   0.000162
    13  H    0.056657  -0.005206  -0.000067  -0.001875  -0.001393
    14  H   -0.005206   0.008474  -0.000093   0.000173   0.000976
    15  H   -0.000067  -0.000093  -0.069696   0.001346   0.003291
    16  H   -0.001875   0.000173   0.001346  -0.019657   0.002940
    17  H   -0.001393   0.000976   0.003291   0.002940  -0.023175
 Mulliken charges and spin densities:
               1          2
     1  C   -0.119155   0.000742
     2  C    0.149927  -0.002706
     3  O   -0.241661   0.052971
     4  O   -0.186487   0.363118
     5  H    0.045052   0.000378
     6  H    0.049692  -0.000486
     7  H    0.045288   0.000687
     8  H    0.042171  -0.000022
     9  H    0.036294   0.003206
    10  C   -0.092271  -0.037974
    11  C   -0.203330   0.636183
    12  H    0.057848   0.008002
    13  H    0.057422   0.038335
    14  H    0.048603   0.006090
    15  H    0.172300  -0.029764
    16  H    0.070643  -0.019096
    17  H    0.067664  -0.019665
 Sum of Mulliken charges =  -0.00000   1.00000
 Mulliken charges and spin densities with hydrogens summed into heavy atoms:
               1          2
     1  C    0.020878   0.001321
     2  C    0.228392   0.000479
     3  O   -0.241661   0.052971
     4  O   -0.014188   0.333354
    10  C    0.071602   0.014453
    11  C   -0.065023   0.597422
 Electronic spatial extent (au):  <R**2>=            872.4289
 Charge=             -0.0000 electrons
 Dipole moment (field-independent basis, Debye):
    X=              0.7331    Y=              2.2212    Z=             -0.3953  Tot=              2.3722
 Quadrupole moment (field-independent basis, Debye-Ang):
   XX=            -33.3699   YY=            -41.4402   ZZ=            -39.3617
   XY=             -2.9329   XZ=             -0.4458   YZ=              0.3919
 Traceless Quadrupole moment (field-independent basis, Debye-Ang):
   XX=              4.6874   YY=             -3.3829   ZZ=             -1.3044
   XY=             -2.9329   XZ=             -0.4458   YZ=              0.3919
 Octapole moment (field-independent basis, Debye-Ang**2):
  XXX=             -8.2273  YYY=             -4.2423  ZZZ=              0.4779  XYY=              0.7074
  XXY=             -0.5318  XXZ=              0.9352  XZZ=             -2.0456  YZZ=             -1.5168
  YYZ=             -0.2403  XYZ=              0.5466
 Hexadecapole moment (field-independent basis, Debye-Ang**3):
 XXXX=           -742.5837 YYYY=           -267.9602 ZZZZ=            -99.2153 XXXY=             -0.0909
 XXXZ=              2.1349 YYYX=             -3.2009 YYYZ=              1.9706 ZZZX=              2.7293
 ZZZY=             -2.9957 XXYY=           -171.5940 XXZZ=           -143.6758 YYZZ=            -61.9029
 XXYZ=             -2.2598 YYXZ=             -2.5229 ZZXY=              0.5590
 N-N= 2.562626225699D+02 E-N=-1.233595369508D+03  KE= 3.061036962600D+02
                          Isotropic Fermi Contact Couplings
        Atom                 a.u.       MegaHertz       Gauss      10(-4) cm-1
     1  C(13)              0.00552       6.20903       2.21554       2.07111
     2  C(13)             -0.00301      -3.38321      -1.20721      -1.12852
     3  O(17)              0.03063     -18.57008      -6.62626      -6.19431
     4  O(17)              0.16083     -97.49371     -34.78818     -32.52040
     5  H(1)              -0.00001      -0.04954      -0.01768      -0.01653
     6  H(1)              -0.00006      -0.27186      -0.09700      -0.09068
     7  H(1)               0.00014       0.64617       0.23057       0.21554
     8  H(1)               0.00001       0.05862       0.02092       0.01955
     9  H(1)               0.00029       1.29386       0.46168       0.43158
    10  C(13)             -0.01989     -22.36419      -7.98010      -7.45989
    11  C(13)              0.20276     227.93950      81.33448      76.03243
    12  H(1)               0.00386      17.24699       6.15415       5.75298
    13  H(1)               0.01851      82.75896      29.53045      27.60542
    14  H(1)               0.00282      12.58328       4.49003       4.19733
    15  H(1)              -0.02479    -110.82605     -39.54549     -36.96759
    16  H(1)              -0.00540     -24.14588      -8.61585      -8.05420
    17  H(1)              -0.00525     -23.46671      -8.37350      -7.82765
 --------------------------------------------------------
       Center         ----  Spin Dipole Couplings  ----
                      3XX-RR        3YY-RR        3ZZ-RR
 --------------------------------------------------------
     1   Atom       -0.001431      0.007543     -0.006111
     2   Atom        0.005011      0.000977     -0.005988
     3   Atom        0.138824     -0.013109     -0.125714
     4   Atom        0.341916     -0.371003      0.029087
     5   Atom       -0.000093      0.002692     -0.002599
     6   Atom       -0.001486      0.006205     -0.004718
     7   Atom        0.000173      0.001868     -0.002041
     8   Atom        0.004079     -0.001358     -0.002721
     9   Atom        0.004921     -0.001503     -0.003418
    10   Atom        0.011517     -0.001801     -0.009717
    11   Atom        0.282793     -0.271679     -0.011114
    12   Atom        0.001817     -0.006742      0.004925
    13   Atom        0.005314     -0.001958     -0.003357
    14   Atom       -0.005435      0.008531     -0.003096
    15   Atom        0.138869     -0.087221     -0.051648
    16   Atom       -0.004855      0.034254     -0.029398
    17   Atom        0.004831     -0.027084      0.022253
 --------------------------------------------------------
                        XY            XZ            YZ
 --------------------------------------------------------
     1   Atom       -0.001976     -0.000040      0.000171
     2   Atom       -0.007119      0.001444     -0.000255
     3   Atom        0.202096     -0.186758     -0.095975
     4   Atom        0.741617     -0.992364     -0.637138
     5   Atom       -0.003440      0.000995     -0.003155
     6   Atom       -0.003719     -0.001989      0.002858
     7   Atom       -0.002468     -0.000307      0.000166
     8   Atom       -0.003383      0.001699     -0.001214
     9   Atom       -0.005172     -0.002996      0.001727
    10   Atom        0.019263     -0.000398      0.002509
    11   Atom        0.235188     -0.473250     -0.176185
    12   Atom        0.003129      0.008995      0.002923
    13   Atom        0.008365     -0.000766      0.001924
    14   Atom        0.003823      0.000624      0.007616
    15   Atom        0.096224     -0.134293     -0.051338
    16   Atom       -0.025825     -0.025227      0.008019
    17   Atom       -0.010417      0.017972     -0.036260
 --------------------------------------------------------


 ---------------------------------------------------------------------------------
              Anisotropic Spin Dipole Couplings in Principal Axis System
 ---------------------------------------------------------------------------------

       Atom             a.u.   MegaHertz   Gauss  10(-4) cm-1        Axes

              Baa    -0.0061    -0.820    -0.293    -0.274  0.0036 -0.0120  0.9999
     1 C(13)  Bbb    -0.0018    -0.248    -0.088    -0.083  0.9786  0.2060 -0.0010
              Bcc     0.0080     1.068     0.381     0.356 -0.2059  0.9785  0.0125
 
              Baa    -0.0063    -0.848    -0.303    -0.283 -0.2564 -0.2172  0.9419
     2 C(13)  Bbb    -0.0042    -0.560    -0.200    -0.187  0.5464  0.7713  0.3266
              Bcc     0.0105     1.409     0.503     0.470  0.7973 -0.5983  0.0791
 
              Baa    -0.2229    16.127     5.754     5.379  0.4903 -0.0751  0.8683
     3 O(17)  Bbb    -0.1441    10.428     3.721     3.478 -0.4111  0.8586  0.3064
              Bcc     0.3670   -26.554    -9.475    -8.858  0.7685  0.5071 -0.3901
 
              Baa    -0.8417    60.908    21.734    20.317 -0.2643  0.8968  0.3550
     4 O(17)  Bbb    -0.8189    59.255    21.144    19.765  0.6792 -0.0882  0.7286
              Bcc     1.6606  -120.163   -42.877   -40.082  0.6847  0.4336 -0.5858
 
              Baa    -0.0042    -2.235    -0.797    -0.745  0.2072  0.4915  0.8459
     5 H(1)   Bbb    -0.0020    -1.058    -0.378    -0.353  0.8448  0.3462 -0.4081
              Bcc     0.0062     3.293     1.175     1.098 -0.4934  0.7992 -0.3434
 
              Baa    -0.0058    -3.087    -1.102    -1.030  0.3283 -0.1214  0.9367
     6 H(1)   Bbb    -0.0028    -1.490    -0.532    -0.497  0.8654  0.4361 -0.2468
              Bcc     0.0086     4.577     1.633     1.527 -0.3785  0.8917  0.2483
 
              Baa    -0.0021    -1.122    -0.400    -0.374  0.2625  0.1232  0.9570
     7 H(1)   Bbb    -0.0015    -0.823    -0.294    -0.275  0.7701  0.5709 -0.2847
              Bcc     0.0036     1.946     0.694     0.649 -0.5814  0.8117  0.0550
 
              Baa    -0.0035    -1.844    -0.658    -0.615  0.0980  0.6121  0.7847
     8 H(1)   Bbb    -0.0027    -1.452    -0.518    -0.484  0.4747  0.6642 -0.5774
              Bcc     0.0062     3.296     1.176     1.099  0.8747 -0.4291  0.2255
 
              Baa    -0.0044    -2.370    -0.846    -0.790 -0.1290 -0.6615  0.7388
     9 H(1)   Bbb    -0.0043    -2.314    -0.826    -0.772  0.5266  0.5856  0.6163
              Bcc     0.0088     4.683     1.671     1.562  0.8403 -0.4685 -0.2728
 
              Baa    -0.0163    -2.189    -0.781    -0.730 -0.5410  0.7747 -0.3274
    10 C(13)  Bbb    -0.0090    -1.203    -0.429    -0.401 -0.2155  0.2486  0.9443
              Bcc     0.0253     3.392     1.210     1.131  0.8130  0.5814  0.0324
 
              Baa    -0.3616   -48.524   -17.314   -16.186  0.3088  0.6146  0.7259
    11 C(13)  Bbb    -0.3570   -47.903   -17.093   -15.979 -0.5563  0.7357 -0.3864
              Bcc     0.7186    96.426    34.407    32.164  0.7715  0.2845 -0.5691
 
              Baa    -0.0078    -4.143    -1.478    -1.382 -0.3133  0.9496  0.0033
    12 H(1)   Bbb    -0.0056    -3.005    -1.072    -1.003  0.7067  0.2355 -0.6672
              Bcc     0.0134     7.148     2.551     2.384  0.6344  0.2067  0.7449
 
              Baa    -0.0083    -4.418    -1.576    -1.474 -0.4999  0.7775 -0.3816
    13 H(1)   Bbb    -0.0025    -1.351    -0.482    -0.451 -0.2333  0.3034  0.9239
              Bcc     0.0108     5.768     2.058     1.924  0.8341  0.5509  0.0297
 
              Baa    -0.0077    -4.102    -1.464    -1.368  0.5837 -0.4538  0.6733
    14 H(1)   Bbb    -0.0054    -2.858    -1.020    -0.953  0.7877  0.1151 -0.6053
              Bcc     0.0130     6.960     2.483     2.322  0.1972  0.8837  0.4246
 
              Baa    -0.1238   -66.048   -23.568   -22.031 -0.0441  0.8509  0.5235
    15 H(1)   Bbb    -0.1204   -64.218   -22.915   -21.421  0.5356 -0.4222  0.7314
              Bcc     0.2441   130.266    46.482    43.452  0.8433  0.3126 -0.4371
 
              Baa    -0.0459   -24.479    -8.735    -8.165  0.5664  0.1007  0.8180
    16 H(1)   Bbb    -0.0057    -3.035    -1.083    -1.012  0.6629  0.5340 -0.5248
              Bcc     0.0516    27.514     9.818     9.178 -0.4896  0.8395  0.2357
 
              Baa    -0.0463   -24.695    -8.812    -8.238  0.0174  0.8857  0.4640
    17 H(1)   Bbb    -0.0045    -2.415    -0.862    -0.806  0.9112  0.1770 -0.3719
              Bcc     0.0508    27.111     9.674     9.043  0.4115 -0.4293  0.8040
 

 ---------------------------------------------------------------------------------

 No NMR shielding tensors so no spin-rotation constants.
 Leave Link  601 at Mon Jul  4 16:22:02 2022, MaxMem=   939524096 cpu:         2.3
 (Enter /Local/ce_dana/g09/l9999.exe)

 Test job not archived.
 1\1\GINC-TECH-WN177\FTS\UwB97XD\def2SVP\C4H11O2(2)\ALONGD\04-Jul-2022\
 0\\#P opt=(ts, calcfc, noeigentest, maxcycles=100) guess=mix uwb97xd/d
 ef2svp IOp(2/9=2000) scf=xqc\\TS0\\0,2\C,0.0975097585,-0.4237128645,1.
 7496255563\C,1.3087102485,0.4508291049,1.4864588375\O,1.8527174831,0.2
 936995873,0.1896681466\O,0.9613484377,0.7722313948,-0.7461411568\H,0.3
 370577151,-1.4866040747,1.5960628341\H,-0.7283727171,-0.1470439468,1.0
 796453241\H,-0.2465758693,-0.2922351711,2.7861043623\H,2.1457447358,0.
 1798308875,2.1477301656\H,1.069827301,1.515185878,1.654489553\C,-1.569
 3162143,-1.1847211926,-1.710593742\C,-0.0754695441,-1.3141968239,-1.71
 50323138\H,-1.9050074947,-0.3262679395,-2.311202869\H,-2.0401554313,-2
 .0866519282,-2.141825777\H,-1.9682016553,-1.0688826137,-0.6917615387\H
 ,0.4801143575,-0.1654492813,-1.2034812958\H,0.4045573663,-1.337367799,
 -2.7019332084\H,0.3572110028,-2.044230997,-1.0180413781\\Version=ES64L
 -G09RevD.01\State=2-A\HF=-308.9946783\S2=0.758245\S2-1=0.\S2A=0.750035
 \RMSD=5.261e-09\RMSF=1.183e-05\Dipole=-0.6425903,-0.5694528,0.3658567\
 Quadrupole=-1.8339702,-1.1598617,2.9938319,-0.4645233,1.9723389,1.9269
 704\PG=C01 [X(C4H11O2)]\\@


 CHARLIE BROWN -- WHICH DO YOU THINK LASTS LONGER IN LIFE, THE GOOD THINGS 
                  OR THE BAD THINGS?
 LINUS --         GOOD THINGS LAST EIGHT SECONDS ..
                  BAD THINGS LAST THREE WEEKS
 CHARLIE BROWN -- WHAT ABOUT IN BETWEEN?
 SNOOPY --        IN BETWEEN YOU SHOULD TAKE A NAP ...
 Job cpu time:       0 days  3 hours 11 minutes 28.7 seconds.
 File lengths (MBytes):  RWF=     74 Int=      0 D2E=      0 Chk=      3 Scr=      1
 Normal termination of Gaussian 09 at Mon Jul  4 16:22:02 2022.
