 Entering Gaussian System, Link 0=/Local/ce_dana/g09/g09
 Initial command:
 /Local/ce_dana/g09/l1.exe "/storage/ce_dana/alongd/scratch/g09/Gau-182157.inp" -scrdir="/storage/ce_dana/alongd/scratch/g09/"
 Entering Link 1 = /Local/ce_dana/g09/l1.exe PID=    182170.
  
 Copyright (c) 1988,1990,1992,1993,1995,1998,2003,2009,2013,
            Gaussian, Inc.  All Rights Reserved.
  
 This is part of the Gaussian(R) 09 program.  It is based on
 the Gaussian(R) 03 system (copyright 2003, Gaussian, Inc.),
 the Gaussian(R) 98 system (copyright 1998, Gaussian, Inc.),
 the Gaussian(R) 94 system (copyright 1995, Gaussian, Inc.),
 the Gaussian 92(TM) system (copyright 1992, Gaussian, Inc.),
 the Gaussian 90(TM) system (copyright 1990, Gaussian, Inc.),
 the Gaussian 88(TM) system (copyright 1988, Gaussian, Inc.),
 the Gaussian 86(TM) system (copyright 1986, Carnegie Mellon
 University), and the Gaussian 82(TM) system (copyright 1983,
 Carnegie Mellon University). Gaussian is a federally registered
 trademark of Gaussian, Inc.
  
 This software contains proprietary and confidential information,
 including trade secrets, belonging to Gaussian, Inc.
  
 This software is provided under written license and may be
 used, copied, transmitted, or stored only in accord with that
 written license.
  
 The following legend is applicable only to US Government
 contracts under FAR:
  
                    RESTRICTED RIGHTS LEGEND
  
 Use, reproduction and disclosure by the US Government is
 subject to restrictions as set forth in subparagraphs (a)
 and (c) of the Commercial Computer Software - Restricted
 Rights clause in FAR 52.227-19.
  
 Gaussian, Inc.
 340 Quinnipiac St., Bldg. 40, Wallingford CT 06492
  
  
 ---------------------------------------------------------------
 Warning -- This program may not be used in any manner that
 competes with the business of Gaussian, Inc. or will provide
 assistance to any competitor of Gaussian, Inc.  The licensee
 of this program is prohibited from giving any competitor of
 Gaussian, Inc. access to this program.  By using this program,
 the user acknowledges that Gaussian, Inc. is engaged in the
 business of creating and licensing software in the field of
 computational chemistry and represents and warrants to the
 licensee that it is not a competitor of Gaussian, Inc. and that
 it will not use this program in any manner prohibited above.
 ---------------------------------------------------------------
  

 Cite this work as:
 Gaussian 09, Revision D.01,
 M. J. Frisch, G. W. Trucks, H. B. Schlegel, G. E. Scuseria, 
 M. A. Robb, J. R. Cheeseman, G. Scalmani, V. Barone, B. Mennucci, 
 G. A. Petersson, H. Nakatsuji, M. Caricato, X. Li, H. P. Hratchian, 
 A. F. Izmaylov, J. Bloino, G. Zheng, J. L. Sonnenberg, M. Hada, 
 M. Ehara, K. Toyota, R. Fukuda, J. Hasegawa, M. Ishida, T. Nakajima, 
 Y. Honda, O. Kitao, H. Nakai, T. Vreven, J. A. Montgomery, Jr., 
 J. E. Peralta, F. Ogliaro, M. Bearpark, J. J. Heyd, E. Brothers, 
 K. N. Kudin, V. N. Staroverov, T. Keith, R. Kobayashi, J. Normand, 
 K. Raghavachari, A. Rendell, J. C. Burant, S. S. Iyengar, J. Tomasi, 
 M. Cossi, N. Rega, J. M. Millam, M. Klene, J. E. Knox, J. B. Cross, 
 V. Bakken, C. Adamo, J. Jaramillo, R. Gomperts, R. E. Stratmann, 
 O. Yazyev, A. J. Austin, R. Cammi, C. Pomelli, J. W. Ochterski, 
 R. L. Martin, K. Morokuma, V. G. Zakrzewski, G. A. Voth, 
 P. Salvador, J. J. Dannenberg, S. Dapprich, A. D. Daniels, 
 O. Farkas, J. B. Foresman, J. V. Ortiz, J. Cioslowski, 
 and D. J. Fox, Gaussian, Inc., Wallingford CT, 2013.
 
 ******************************************
 Gaussian 09:  ES64L-G09RevD.01 24-Apr-2013
                 4-Jul-2022 
 ******************************************
 %chk=check.chk
 %mem=7168mb
 %NProcShared=10
 Will use up to   10 processors via shared memory.
 ----------------------------------------------------------------------
 #P opt=(ts, calcfc, noeigentest, maxcycles=100) guess=mix uwb97xd/def2
 svp IOp(2/9=2000) scf=xqc
 ----------------------------------------------------------------------
 1/5=1,6=100,10=4,11=1,14=-1,18=20,26=3,38=1/1,3;
 2/9=2000,12=2,17=6,18=5,40=1/2;
 3/5=43,7=101,11=2,16=1,25=1,30=1,71=2,74=-58,116=2,140=1/1,2,3;
 4/13=-1/1;
 5/5=2,8=3,13=1,38=5/2,8;
 8/6=4,10=90,11=11/1;
 11/6=1,8=1,9=11,15=111,16=1/1,2,10;
 10/6=1,13=1/2;
 6/7=2,8=2,9=2,10=2,28=1/1;
 7/10=1,18=20,25=1/1,2,3,16;
 1/5=1,6=100,10=4,11=1,14=-1,18=20,26=3/3(2);
 2/9=2000/2;
 99//99;
 2/9=2000/2;
 3/5=43,7=101,11=2,16=1,25=1,30=1,71=1,74=-58,116=2/1,2,3;
 4/5=5,16=3,69=1/1;
 5/5=2,8=3,13=1,38=5/2,8;
 7//1,2,3,16;
 1/5=1,6=100,11=1,14=-1,18=20,26=3/3(-5);
 2/9=2000/2;
 6/7=2,8=2,9=2,10=2,19=2,28=1/1;
 99/9=1/99;
 Leave Link    1 at Mon Jul  4 15:57:34 2022, MaxMem=   939524096 cpu:         0.1
 (Enter /Local/ce_dana/g09/l101.exe)
 ---
 TS0
 ---
 Symbolic Z-matrix:
 Charge =  0 Multiplicity = 2
 C                     0.23529  -0.9445    1.6396 
 C                     0.48009   0.55006   1.78855 
 O                     0.75858   1.20773   0.55411 
 O                    -0.48359   1.22845  -0.20788 
 H                     1.09124  -1.43055   1.16398 
 H                    -0.6545   -1.12717   1.03446 
 H                     0.07901  -1.40449   2.6195 
 H                     1.38372   0.75113   2.3724 
 H                    -0.36391   1.04788   2.27837 
 C                    -0.48359  -1.0736   -2.6389 
 C                    -0.48359  -1.0736   -1.1085 
 H                    -0.48359  -2.092    -3.03733 
 H                    -1.36555  -0.5644   -3.03733 
 H                     0.39837  -0.5644   -3.03733 
 H                    -0.48359   0.14848  -0.63039 
 H                     0.39837  -1.5828   -0.71007 
 H                    -1.36556  -1.5828   -0.71007 
 
 Add virtual bond connecting atoms H15        and O4         Dist= 2.19D+00.
 Add virtual bond connecting atoms H15        and C11        Dist= 2.48D+00.
 NAtoms=     17 NQM=       17 NQMF=       0 NMMI=      0 NMMIF=      0
                NMic=       0 NMicF=      0.
                    Isotopes and Nuclear Properties:
 (Nuclear quadrupole moments (NQMom) in fm**2, nuclear magnetic moments (NMagM)
  in nuclear magnetons)

  Atom         1           2           3           4           5           6           7           8           9          10
 IAtWgt=          12          12          16          16           1           1           1           1           1          12
 AtmWgt=  12.0000000  12.0000000  15.9949146  15.9949146   1.0078250   1.0078250   1.0078250   1.0078250   1.0078250  12.0000000
 NucSpn=           0           0           0           0           1           1           1           1           1           0
 AtZEff=   0.0000000   0.0000000   0.0000000   0.0000000   0.0000000   0.0000000   0.0000000   0.0000000   0.0000000   0.0000000
 NQMom=    0.0000000   0.0000000   0.0000000   0.0000000   0.0000000   0.0000000   0.0000000   0.0000000   0.0000000   0.0000000
 NMagM=    0.0000000   0.0000000   0.0000000   0.0000000   2.7928460   2.7928460   2.7928460   2.7928460   2.7928460   0.0000000
 AtZNuc=   6.0000000   6.0000000   8.0000000   8.0000000   1.0000000   1.0000000   1.0000000   1.0000000   1.0000000   6.0000000

  Atom        11          12          13          14          15          16          17
 IAtWgt=          12           1           1           1           1           1           1
 AtmWgt=  12.0000000   1.0078250   1.0078250   1.0078250   1.0078250   1.0078250   1.0078250
 NucSpn=           0           1           1           1           1           1           1
 AtZEff=   0.0000000   0.0000000   0.0000000   0.0000000   0.0000000   0.0000000   0.0000000
 NQMom=    0.0000000   0.0000000   0.0000000   0.0000000   0.0000000   0.0000000   0.0000000
 NMagM=    0.0000000   2.7928460   2.7928460   2.7928460   2.7928460   2.7928460   2.7928460
 AtZNuc=   6.0000000   1.0000000   1.0000000   1.0000000   1.0000000   1.0000000   1.0000000
 Leave Link  101 at Mon Jul  4 15:57:35 2022, MaxMem=   939524096 cpu:         0.3
 (Enter /Local/ce_dana/g09/l103.exe)

 GradGradGradGradGradGradGradGradGradGradGradGradGradGradGradGradGradGrad
 Stoichiometry    C4H11O2(2)
 Framework group  C1[X(C4H11O2)]
 Deg. of freedom    45
 Full point group                 C1      NOp   1
 RotChk:  IX=2 Diff= 1.41D-15
 Largest Abelian subgroup         C1      NOp   1
 Largest concise Abelian subgroup C1      NOp   1
                         Standard orientation:                         
 ---------------------------------------------------------------------
 Center     Atomic      Atomic             Coordinates (Angstroms)
 Number     Number       Type             X           Y           Z
 ---------------------------------------------------------------------
      1          6           0        1.801393    1.259793   -0.131183
      2          6           0        2.093579   -0.217413    0.054386
      3          8           0        0.971924   -0.966666    0.483151
      4          8           0        0.036636   -1.016789   -0.527009
      5          1           0        1.404702    1.700992    0.795500
      6          1           0        1.066923    1.411041   -0.934719
      7          1           0        2.721700    1.796529   -0.404794
      8          1           0        2.830915   -0.378770    0.855499
      9          1           0        2.493003   -0.660666   -0.873949
     10          6           0       -3.017342    0.003555   -0.002299
     11          6           0       -1.690285    0.680274    0.170614
     12          1           0       -3.834765    0.636074    0.388556
     13          1           0       -3.236487   -0.193871   -1.062112
     14          1           0       -3.053784   -0.952839    0.539584
     15          1           0       -0.741894   -0.219996   -0.249360
     16          1           0       -1.338512    0.809189    1.203174
     17          1           0       -1.504349    1.562707   -0.455626
 ---------------------------------------------------------------------
 Rotational constants (GHZ):      5.9579923      1.5324759      1.3158473
 Leave Link  202 at Mon Jul  4 16:13:36 2022, MaxMem=   939524096 cpu:         0.0
 (Enter /Local/ce_dana/g09/l601.exe)
 Copying SCF densities to generalized density rwf, IOpCl= 1 IROHF=0.

 **********************************************************************

            Population analysis using the SCF density.

 **********************************************************************

 Orbital symmetries:
 Alpha Orbitals:
       Occupied  (A) (A) (A) (A) (A) (A) (A) (A) (A) (A) (A) (A)
                 (A) (A) (A) (A) (A) (A) (A) (A) (A) (A) (A) (A)
                 (A) (A)
       Virtual   (A) (A) (A) (A) (A) (A) (A) (A) (A) (A) (A) (A)
                 (A) (A) (A) (A) (A) (A) (A) (A) (A) (A) (A) (A)
                 (A) (A) (A) (A) (A) (A) (A) (A) (A) (A) (A) (A)
                 (A) (A) (A) (A) (A) (A) (A) (A) (A) (A) (A) (A)
                 (A) (A) (A) (A) (A) (A) (A) (A) (A) (A) (A) (A)
                 (A) (A) (A) (A) (A) (A) (A) (A) (A) (A) (A) (A)
                 (A) (A) (A) (A) (A) (A) (A) (A) (A) (A) (A) (A)
                 (A) (A) (A) (A) (A) (A) (A) (A) (A) (A) (A) (A)
                 (A) (A) (A) (A) (A) (A) (A) (A) (A) (A) (A) (A)
                 (A) (A) (A) (A) (A)
 Beta  Orbitals:
       Occupied  (A) (A) (A) (A) (A) (A) (A) (A) (A) (A) (A) (A)
                 (A) (A) (A) (A) (A) (A) (A) (A) (A) (A) (A) (A)
                 (A)
       Virtual   (A) (A) (A) (A) (A) (A) (A) (A) (A) (A) (A) (A)
                 (A) (A) (A) (A) (A) (A) (A) (A) (A) (A) (A) (A)
                 (A) (A) (A) (A) (A) (A) (A) (A) (A) (A) (A) (A)
                 (A) (A) (A) (A) (A) (A) (A) (A) (A) (A) (A) (A)
                 (A) (A) (A) (A) (A) (A) (A) (A) (A) (A) (A) (A)
                 (A) (A) (A) (A) (A) (A) (A) (A) (A) (A) (A) (A)
                 (A) (A) (A) (A) (A) (A) (A) (A) (A) (A) (A) (A)
                 (A) (A) (A) (A) (A) (A) (A) (A) (A) (A) (A) (A)
                 (A) (A) (A) (A) (A) (A) (A) (A) (A) (A) (A) (A)
                 (A) (A) (A) (A) (A) (A)
 The electronic state is 2-A.
 Alpha  occ. eigenvalues --  -19.30851 -19.29913 -10.34437 -10.31637 -10.30138
 Alpha  occ. eigenvalues --  -10.29529  -1.22808  -0.97369  -0.86408  -0.83174
 Alpha  occ. eigenvalues --   -0.71771  -0.70036  -0.61986  -0.57259  -0.55210
 Alpha  occ. eigenvalues --   -0.54066  -0.53055  -0.50185  -0.48086  -0.47142
 Alpha  occ. eigenvalues --   -0.46099  -0.44352  -0.43123  -0.37630  -0.35912
 Alpha  occ. eigenvalues --   -0.30546
 Alpha virt. eigenvalues --    0.13787   0.15260   0.17035   0.17207   0.17830
 Alpha virt. eigenvalues --    0.20903   0.21176   0.21422   0.22262   0.23292
 Alpha virt. eigenvalues --    0.25971   0.27821   0.29365   0.32245   0.35717
 Alpha virt. eigenvalues --    0.45825   0.48715   0.49492   0.50505   0.53062
 Alpha virt. eigenvalues --    0.58755   0.60310   0.62000   0.64085   0.66266
 Alpha virt. eigenvalues --    0.69075   0.69245   0.72272   0.73525   0.73808
 Alpha virt. eigenvalues --    0.75260   0.75371   0.76508   0.76752   0.77095
 Alpha virt. eigenvalues --    0.79107   0.79985   0.80528   0.85575   0.88377
 Alpha virt. eigenvalues --    0.98395   1.00646   1.06309   1.08179   1.11962
 Alpha virt. eigenvalues --    1.15395   1.17565   1.20242   1.23458   1.29289
 Alpha virt. eigenvalues --    1.33233   1.41914   1.43073   1.47825   1.49718
 Alpha virt. eigenvalues --    1.53609   1.53941   1.60538   1.61554   1.62316
 Alpha virt. eigenvalues --    1.68915   1.75725   1.78521   1.81826   1.82503
 Alpha virt. eigenvalues --    1.84015   1.85633   1.86120   1.87967   1.88302
 Alpha virt. eigenvalues --    1.88978   1.90855   1.92316   1.94703   1.96299
 Alpha virt. eigenvalues --    1.98963   2.01339   2.06127   2.09499   2.11528
 Alpha virt. eigenvalues --    2.21035   2.24070   2.25656   2.35480   2.40244
 Alpha virt. eigenvalues --    2.43537   2.45033   2.47307   2.52419   2.54482
 Alpha virt. eigenvalues --    2.55448   2.57056   2.59417   2.62106   2.66282
 Alpha virt. eigenvalues --    2.66888   2.77411   2.84804   2.88836   2.91312
 Alpha virt. eigenvalues --    2.94161   3.01039   3.02729   3.04089   3.05818
 Alpha virt. eigenvalues --    3.07589   3.08592   3.13427   3.27276   3.27656
 Alpha virt. eigenvalues --    3.43647   3.69384   4.01008
  Beta  occ. eigenvalues --  -19.30690 -19.28887 -10.34444 -10.30792 -10.30172
  Beta  occ. eigenvalues --  -10.29520  -1.21554  -0.95685  -0.85055  -0.82821
  Beta  occ. eigenvalues --   -0.70420  -0.69358  -0.60285  -0.57057  -0.54042
  Beta  occ. eigenvalues --   -0.53076  -0.51915  -0.49055  -0.47556  -0.46666
  Beta  occ. eigenvalues --   -0.44889  -0.43913  -0.42869  -0.35581  -0.33753
  Beta virt. eigenvalues --   -0.03662   0.14041   0.15396   0.17287   0.17870
  Beta virt. eigenvalues --    0.18089   0.21022   0.21265   0.21546   0.22477
  Beta virt. eigenvalues --    0.23442   0.26266   0.28134   0.29857   0.32610
  Beta virt. eigenvalues --    0.37537   0.46269   0.48911   0.50263   0.50549
  Beta virt. eigenvalues --    0.53148   0.59411   0.60859   0.62538   0.64665
  Beta virt. eigenvalues --    0.67733   0.69291   0.70048   0.72549   0.73737
  Beta virt. eigenvalues --    0.74320   0.75375   0.75536   0.76706   0.77262
  Beta virt. eigenvalues --    0.77479   0.79427   0.80192   0.80789   0.85903
  Beta virt. eigenvalues --    0.88758   0.98967   1.00995   1.07014   1.08811
  Beta virt. eigenvalues --    1.12302   1.15989   1.18444   1.21202   1.24117
  Beta virt. eigenvalues --    1.29999   1.33703   1.42245   1.43156   1.48474
  Beta virt. eigenvalues --    1.50244   1.53753   1.54563   1.60822   1.61802
  Beta virt. eigenvalues --    1.62359   1.69577   1.78177   1.79040   1.82021
  Beta virt. eigenvalues --    1.82617   1.84159   1.85732   1.86435   1.88193
  Beta virt. eigenvalues --    1.88542   1.89144   1.91154   1.92532   1.94731
  Beta virt. eigenvalues --    1.96478   1.99069   2.01553   2.06960   2.10406
  Beta virt. eigenvalues --    2.11646   2.21121   2.24915   2.26035   2.37349
  Beta virt. eigenvalues --    2.40930   2.43688   2.45976   2.47715   2.53097
  Beta virt. eigenvalues --    2.54792   2.56033   2.58049   2.60201   2.62420
  Beta virt. eigenvalues --    2.66559   2.67634   2.77504   2.85241   2.89715
  Beta virt. eigenvalues --    2.93055   2.95804   3.01529   3.02822   3.04266
  Beta virt. eigenvalues --    3.05936   3.08311   3.09617   3.13754   3.27748
  Beta virt. eigenvalues --    3.29346   3.43903   3.71654   4.02628
          Condensed to atoms (all electrons):
               1          2          3          4          5          6
     1  C    4.700324   0.399241  -0.049738  -0.005215   0.378015   0.390369
     2  C    0.399241   4.485696   0.282537  -0.048041  -0.014506  -0.022083
     3  O   -0.049738   0.282537   7.980244   0.095132   0.003543  -0.005808
     4  O   -0.005215  -0.048041   0.095132   7.991053  -0.001130   0.013171
     5  H    0.378015  -0.014506   0.003543  -0.001130   0.631856  -0.026969
     6  H    0.390369  -0.022083  -0.005808   0.013171  -0.026969   0.618637
     7  H    0.372732  -0.010426   0.003643   0.000132  -0.016512  -0.017818
     8  H   -0.021815   0.378301  -0.020138   0.005706  -0.009409   0.007626
     9  H   -0.051396   0.402935  -0.027539   0.001404   0.008202  -0.009614
    10  C    0.000142   0.000072   0.000114   0.004233   0.000095   0.000063
    11  C    0.000180  -0.002788   0.001109  -0.090870  -0.001183   0.002813
    12  H    0.000003  -0.000002  -0.000015  -0.000039  -0.000007  -0.000006
    13  H   -0.000004   0.000005  -0.000020   0.000224   0.000001  -0.000002
    14  H   -0.000008   0.000006   0.000073   0.002180   0.000003  -0.000019
    15  H    0.003009   0.001273  -0.026274   0.218298   0.000338   0.000085
    16  H   -0.001048   0.000309   0.004436  -0.000435   0.002054  -0.000564
    17  H    0.000219   0.000084   0.000448   0.000260   0.000376   0.000691
               7          8          9         10         11         12
     1  C    0.372732  -0.021815  -0.051396   0.000142   0.000180   0.000003
     2  C   -0.010426   0.378301   0.402935   0.000072  -0.002788  -0.000002
     3  O    0.003643  -0.020138  -0.027539   0.000114   0.001109  -0.000015
     4  O    0.000132   0.005706   0.001404   0.004233  -0.090870  -0.000039
     5  H   -0.016512  -0.009409   0.008202   0.000095  -0.001183  -0.000007
     6  H   -0.017818   0.007626  -0.009614   0.000063   0.002813  -0.000006
     7  H    0.627204  -0.003282  -0.000839  -0.000002   0.000113   0.000000
     8  H   -0.003282   0.648496  -0.026740   0.000001   0.000159  -0.000000
     9  H   -0.000839  -0.026740   0.666251   0.000010  -0.000335  -0.000000
    10  C   -0.000002   0.000001   0.000010   4.554340   0.396143   0.389159
    11  C    0.000113   0.000159  -0.000335   0.396143   5.042091  -0.021085
    12  H    0.000000  -0.000000  -0.000000   0.389159  -0.021085   0.626967
    13  H    0.000000   0.000000  -0.000001   0.399735  -0.025739  -0.022644
    14  H    0.000000  -0.000002   0.000001   0.398020  -0.024911  -0.021400
    15  H   -0.000154  -0.000710   0.000841  -0.013296   0.195598   0.002490
    16  H    0.000017  -0.000009   0.000128  -0.018429   0.371389  -0.005575
    17  H   -0.000000  -0.000024   0.000052  -0.022523   0.373357  -0.004172
              13         14         15         16         17
     1  C   -0.000004  -0.000008   0.003009  -0.001048   0.000219
     2  C    0.000005   0.000006   0.001273   0.000309   0.000084
     3  O   -0.000020   0.000073  -0.026274   0.004436   0.000448
     4  O    0.000224   0.002180   0.218298  -0.000435   0.000260
     5  H    0.000001   0.000003   0.000338   0.002054   0.000376
     6  H   -0.000002  -0.000019   0.000085  -0.000564   0.000691
     7  H    0.000000   0.000000  -0.000154   0.000017  -0.000000
     8  H    0.000000  -0.000002  -0.000710  -0.000009  -0.000024
     9  H   -0.000001   0.000001   0.000841   0.000128   0.000052
    10  C    0.399735   0.398020  -0.013296  -0.018429  -0.022523
    11  C   -0.025739  -0.024911   0.195598   0.371389   0.373357
    12  H   -0.022644  -0.021400   0.002490  -0.005575  -0.004172
    13  H    0.619475  -0.021483  -0.002926   0.006130  -0.007245
    14  H   -0.021483   0.612373  -0.004237  -0.006587   0.006482
    15  H   -0.002926  -0.004237   0.460514  -0.003545  -0.004951
    16  H    0.006130  -0.006587  -0.003545   0.605556  -0.023620
    17  H   -0.007245   0.006482  -0.004951  -0.023620   0.613311
          Atomic-Atomic Spin Densities.
               1          2          3          4          5          6
     1  C    0.014494  -0.000310  -0.003711   0.004372   0.000009  -0.000901
     2  C   -0.000310  -0.007145   0.004148  -0.004053  -0.000264   0.000367
     3  O   -0.003711   0.004148   0.080559  -0.041084   0.000157   0.000416
     4  O    0.004372  -0.004053  -0.041084   0.491367  -0.000289  -0.001083
     5  H    0.000009  -0.000264   0.000157  -0.000289  -0.000372   0.000186
     6  H   -0.000901   0.000367   0.000416  -0.001083   0.000186  -0.000402
     7  H   -0.002729   0.000805   0.000075  -0.000091   0.000142   0.000426
     8  H   -0.001351   0.001113  -0.000079  -0.000064   0.000099  -0.000051
     9  H   -0.003689  -0.001144  -0.001128   0.000738   0.000042   0.000337
    10  C    0.000070  -0.000043  -0.000222   0.003684  -0.000015  -0.000022
    11  C   -0.004536   0.002143   0.010487  -0.081520   0.000600   0.001067
    12  H   -0.000008   0.000003   0.000015  -0.000252   0.000003   0.000006
    13  H    0.000009  -0.000004  -0.000018   0.000572  -0.000002  -0.000009
    14  H    0.000010  -0.000006  -0.000069   0.000743  -0.000002  -0.000002
    15  H   -0.002867   0.002093   0.005951  -0.016927   0.000429   0.000163
    16  H    0.000737  -0.000390  -0.001379   0.002752  -0.000307  -0.000073
    17  H    0.000647  -0.000219  -0.000393   0.002726  -0.000181  -0.000214
               7          8          9         10         11         12
     1  C   -0.002729  -0.001351  -0.003689   0.000070  -0.004536  -0.000008
     2  C    0.000805   0.001113  -0.001144  -0.000043   0.002143   0.000003
     3  O    0.000075  -0.000079  -0.001128  -0.000222   0.010487   0.000015
     4  O   -0.000091  -0.000064   0.000738   0.003684  -0.081520  -0.000252
     5  H    0.000142   0.000099   0.000042  -0.000015   0.000600   0.000003
     6  H    0.000426  -0.000051   0.000337  -0.000022   0.001067   0.000006
     7  H    0.001601   0.000117   0.000521  -0.000001   0.000133   0.000000
     8  H    0.000117  -0.000992   0.000911  -0.000000   0.000043   0.000000
     9  H    0.000521   0.000911   0.005538  -0.000009   0.000510   0.000000
    10  C   -0.000001  -0.000000  -0.000009  -0.026077  -0.036833   0.009969
    11  C    0.000133   0.000043   0.000510  -0.036833   0.736249  -0.013867
    12  H    0.000000   0.000000   0.000000   0.009969  -0.013867   0.057480
    13  H   -0.000000  -0.000000  -0.000002   0.004318  -0.005796  -0.005396
    14  H   -0.000000  -0.000000  -0.000002   0.004618  -0.006032  -0.005697
    15  H    0.000060   0.000020   0.000625   0.001105   0.045211  -0.000052
    16  H   -0.000023  -0.000008  -0.000041   0.000554  -0.004556  -0.001420
    17  H   -0.000044  -0.000001  -0.000044   0.001223  -0.007268  -0.002028
              13         14         15         16         17
     1  C    0.000009   0.000010  -0.002867   0.000737   0.000647
     2  C   -0.000004  -0.000006   0.002093  -0.000390  -0.000219
     3  O   -0.000018  -0.000069   0.005951  -0.001379  -0.000393
     4  O    0.000572   0.000743  -0.016927   0.002752   0.002726
     5  H   -0.000002  -0.000002   0.000429  -0.000307  -0.000181
     6  H   -0.000009  -0.000002   0.000163  -0.000073  -0.000214
     7  H   -0.000000  -0.000000   0.000060  -0.000023  -0.000044
     8  H   -0.000000  -0.000000   0.000020  -0.000008  -0.000001
     9  H   -0.000002  -0.000002   0.000625  -0.000041  -0.000044
    10  C    0.004318   0.004618   0.001105   0.000554   0.001223
    11  C   -0.005796  -0.006032   0.045211  -0.004556  -0.007268
    12  H   -0.005396  -0.005697  -0.000052  -0.001420  -0.002028
    13  H    0.009741   0.002193  -0.000184   0.000137   0.001293
    14  H    0.002193   0.010541  -0.000104   0.000981   0.000248
    15  H   -0.000184  -0.000104  -0.070046   0.003387   0.001235
    16  H    0.000137   0.000981   0.003387  -0.023231   0.003196
    17  H    0.001293   0.000248   0.001235   0.003196  -0.018977
 Mulliken charges and spin densities:
               1          2
     1  C   -0.115009   0.000244
     2  C    0.147385  -0.002908
     3  O   -0.241748   0.053725
     4  O   -0.186065   0.361590
     5  H    0.045232   0.000234
     6  H    0.049430   0.000213
     7  H    0.045192   0.000990
     8  H    0.041839  -0.000243
     9  H    0.036639   0.003163
    10  C   -0.087877  -0.037682
    11  C   -0.216043   0.636035
    12  H    0.056324   0.038756
    13  H    0.054494   0.006853
    14  H    0.059510   0.007419
    15  H    0.173647  -0.029901
    16  H    0.069793  -0.019686
    17  H    0.067255  -0.018802
 Sum of Mulliken charges =  -0.00000   1.00000
 Mulliken charges and spin densities with hydrogens summed into heavy atoms:
               1          2
     1  C    0.024846   0.001682
     2  C    0.225864   0.000011
     3  O   -0.241748   0.053725
     4  O   -0.012418   0.331689
    10  C    0.082451   0.015347
    11  C   -0.078995   0.597547
 Electronic spatial extent (au):  <R**2>=            945.5091
 Charge=              0.0000 electrons
 Dipole moment (field-independent basis, Debye):
    X=             -0.0613    Y=              2.1220    Z=              0.0869  Tot=              2.1247
 Quadrupole moment (field-independent basis, Debye-Ang):
   XX=            -31.9371   YY=            -41.4471   ZZ=            -39.2523
   XY=              0.4243   XZ=             -0.2509   YZ=             -0.1017
 Traceless Quadrupole moment (field-independent basis, Debye-Ang):
   XX=              5.6084   YY=             -3.9016   ZZ=             -1.7068
   XY=              0.4243   XZ=             -0.2509   YZ=             -0.1017
 Octapole moment (field-independent basis, Debye-Ang**2):
  XXX=              8.9719  YYY=             -4.9093  ZZZ=              0.3037  XYY=              0.5595
  XXY=             -2.1106  XXZ=              0.2311  XZZ=              0.9352  YZZ=             -1.1864
  YYZ=             -0.3629  XYZ=              0.8569
 Hexadecapole moment (field-independent basis, Debye-Ang**3):
 XXXX=           -900.7456 YYYY=           -230.1047 ZZZZ=            -81.1940 XXXY=             -6.3006
 XXXZ=              2.3839 YYYX=             -1.9822 YYYZ=             -1.1716 ZZZX=              4.2927
 ZZZY=              1.1302 XXYY=           -192.6968 XXZZ=           -166.5204 YYZZ=            -51.1895
 XXYZ=             -0.3334 YYXZ=             -1.5920 ZZXY=             -1.2103
 N-N= 2.537838336948D+02 E-N=-1.228672936141D+03  KE= 3.061026563220D+02
                          Isotropic Fermi Contact Couplings
        Atom                 a.u.       MegaHertz       Gauss      10(-4) cm-1
     1  C(13)              0.00695       7.81705       2.78932       2.60749
     2  C(13)             -0.00353      -3.96404      -1.41447      -1.32226
     3  O(17)              0.03061     -18.55376      -6.62044      -6.18887
     4  O(17)              0.15926     -96.54518     -34.44972     -32.20401
     5  H(1)               0.00000       0.01078       0.00385       0.00360
     6  H(1)              -0.00008      -0.34628      -0.12356      -0.11551
     7  H(1)               0.00023       1.01624       0.36262       0.33898
     8  H(1)              -0.00006      -0.28140      -0.10041      -0.09386
     9  H(1)               0.00032       1.44325       0.51499       0.48142
    10  C(13)             -0.02009     -22.58596      -8.05923      -7.53387
    11  C(13)              0.20113     226.10470      80.67978      75.42041
    12  H(1)               0.01866      83.42152      29.76687      27.82642
    13  H(1)               0.00332      14.81876       5.28770       4.94301
    14  H(1)               0.00349      15.61098       5.57039       5.20726
    15  H(1)              -0.02467    -110.28918     -39.35392     -36.78851
    16  H(1)              -0.00534     -23.87348      -8.51865      -7.96333
    17  H(1)              -0.00529     -23.64689      -8.43780      -7.88775
 --------------------------------------------------------
       Center         ----  Spin Dipole Couplings  ----
                      3XX-RR        3YY-RR        3ZZ-RR
 --------------------------------------------------------
     1   Atom        0.001203      0.004769     -0.005971
     2   Atom        0.008650     -0.003230     -0.005420
     3   Atom        0.004670      0.190734     -0.195403
     4   Atom       -0.166292      0.634742     -0.468450
     5   Atom        0.002219      0.000989     -0.003208
     6   Atom        0.002471      0.001902     -0.004373
     7   Atom        0.002028      0.000018     -0.002046
     8   Atom        0.005248     -0.002644     -0.002604
     9   Atom        0.008038     -0.004231     -0.003808
    10   Atom        0.023551     -0.009626     -0.013925
    11   Atom        0.081071      0.126252     -0.207323
    12   Atom        0.010137     -0.003301     -0.006836
    13   Atom        0.006510     -0.005018     -0.001491
    14   Atom        0.004354      0.001976     -0.006330
    15   Atom        0.060704      0.038679     -0.099383
    16   Atom       -0.015423     -0.026221      0.041644
    17   Atom       -0.024903      0.029439     -0.004536
 --------------------------------------------------------
                        XY            XZ            YZ
 --------------------------------------------------------
     1   Atom        0.005466     -0.000718     -0.000793
     2   Atom        0.004295      0.001788     -0.000482
     3   Atom       -0.236566     -0.078470      0.065843
     4   Atom       -0.989577     -0.476475      0.724531
     5   Atom        0.003728      0.001877      0.002384
     6   Atom        0.005056     -0.003331     -0.002904
     7   Atom        0.002382     -0.000438     -0.000180
     8   Atom        0.001221      0.002504      0.000670
     9   Atom        0.001356     -0.002768     -0.000363
    10   Atom       -0.004514     -0.006182      0.003605
    11   Atom       -0.465540     -0.258309      0.269986
    12   Atom       -0.001663     -0.002691      0.002490
    13   Atom        0.003529      0.008528      0.003633
    14   Atom        0.008581     -0.004340     -0.002855
    15   Atom       -0.172718     -0.062135      0.059843
    16   Atom       -0.016782      0.022616      0.015950
    17   Atom       -0.003007     -0.021865     -0.034345
 --------------------------------------------------------


 ---------------------------------------------------------------------------------
              Anisotropic Spin Dipole Couplings in Principal Axis System
 ---------------------------------------------------------------------------------

       Atom             a.u.   MegaHertz   Gauss  10(-4) cm-1        Axes

              Baa    -0.0061    -0.812    -0.290    -0.271  0.0704  0.0375  0.9968
     1 C(13)  Bbb    -0.0028    -0.370    -0.132    -0.124  0.8070 -0.5896 -0.0348
              Bcc     0.0088     1.182     0.422     0.394  0.5864  0.8069 -0.0718
 
              Baa    -0.0062    -0.833    -0.297    -0.278 -0.2411  0.4836  0.8414
     2 C(13)  Bbb    -0.0040    -0.535    -0.191    -0.178 -0.2043  0.8223 -0.5312
              Bcc     0.0102     1.368     0.488     0.456  0.9488  0.2999  0.0994
 
              Baa    -0.2238    16.191     5.777     5.401  0.3996  0.0831  0.9129
     3 O(17)  Bbb    -0.1454    10.521     3.754     3.510  0.7241  0.5821 -0.3699
              Bcc     0.3692   -26.713    -9.532    -8.910 -0.5621  0.8089  0.1725
 
              Baa    -0.8385    60.675    21.650    20.239  0.6177  0.6398 -0.4573
     4 O(17)  Bbb    -0.8172    59.134    21.100    19.725  0.5933  0.0026  0.8050
              Bcc     1.6557  -119.809   -42.751   -39.964 -0.5162  0.7685  0.3779
 
              Baa    -0.0043    -2.291    -0.817    -0.764 -0.0461 -0.3838  0.9223
     5 H(1)   Bbb    -0.0020    -1.079    -0.385    -0.360  0.6990 -0.6719 -0.2447
              Bcc     0.0063     3.370     1.202     1.124  0.7136  0.6334  0.2992
 
              Baa    -0.0059    -3.132    -1.117    -1.045  0.2702  0.1778  0.9463
     6 H(1)   Bbb    -0.0029    -1.530    -0.546    -0.510 -0.6694  0.7411  0.0518
              Bcc     0.0087     4.662     1.663     1.555  0.6920  0.6474 -0.3192
 
              Baa    -0.0021    -1.120    -0.400    -0.374  0.1596 -0.0958  0.9825
     7 H(1)   Bbb    -0.0015    -0.825    -0.294    -0.275 -0.5324  0.8298  0.1674
              Bcc     0.0036     1.945     0.694     0.649  0.8313  0.5498 -0.0814
 
              Baa    -0.0035    -1.855    -0.662    -0.619 -0.1938 -0.4267  0.8834
     8 H(1)   Bbb    -0.0027    -1.447    -0.516    -0.483 -0.2546  0.8915  0.3747
              Bcc     0.0062     3.302     1.178     1.101  0.9474  0.1523  0.2814
 
              Baa    -0.0045    -2.382    -0.850    -0.795  0.1162  0.5776  0.8080
     9 H(1)   Bbb    -0.0043    -2.315    -0.826    -0.772 -0.2113  0.8093 -0.5481
              Bcc     0.0088     4.697     1.676     1.567  0.9705  0.1070 -0.2161
 
              Baa    -0.0163    -2.182    -0.779    -0.728  0.0913 -0.4267  0.8998
    10 C(13)  Bbb    -0.0090    -1.209    -0.431    -0.403  0.2003  0.8929  0.4031
              Bcc     0.0253     3.391     1.210     1.131  0.9755 -0.1434 -0.1670
 
              Baa    -0.3625   -48.650   -17.360   -16.228  0.7552  0.6393  0.1447
    11 C(13)  Bbb    -0.3577   -48.003   -17.129   -16.012  0.1418 -0.3748  0.9162
              Bcc     0.7203    96.653    34.488    32.240 -0.6400  0.6714  0.3736
 
              Baa    -0.0083    -4.415    -1.576    -1.473  0.0940 -0.4204  0.9025
    12 H(1)   Bbb    -0.0026    -1.373    -0.490    -0.458  0.2011  0.8958  0.3963
              Bcc     0.0108     5.788     2.065     1.931  0.9750 -0.1443 -0.1687
 
              Baa    -0.0078    -4.161    -1.485    -1.388 -0.2970 -0.5969  0.7453
    13 H(1)   Bbb    -0.0055    -2.915    -1.040    -0.972 -0.5113  0.7586  0.4039
              Bcc     0.0133     7.076     2.525     2.360  0.8065  0.2611  0.5305
 
              Baa    -0.0079    -4.204    -1.500    -1.402  0.3625 -0.0459  0.9309
    14 H(1)   Bbb    -0.0053    -2.832    -1.011    -0.945 -0.5727  0.7770  0.2613
              Bcc     0.0132     7.036     2.511     2.347  0.7353  0.6278 -0.2554
 
              Baa    -0.1238   -66.057   -23.571   -22.034  0.5725  0.7392 -0.3547
    15 H(1)   Bbb    -0.1206   -64.345   -22.960   -21.463  0.4155  0.1114  0.9028
              Bcc     0.2444   130.402    46.531    43.498  0.7068 -0.6642 -0.2434
 
              Baa    -0.0464   -24.766    -8.837    -8.261  0.6107  0.7367 -0.2903
    16 H(1)   Bbb    -0.0044    -2.340    -0.835    -0.781  0.7369 -0.6630 -0.1323
              Bcc     0.0508    27.106     9.672     9.042  0.2899  0.1331  0.9477
 
              Baa    -0.0460   -24.523    -8.750    -8.180  0.7045  0.3173  0.6349
    17 H(1)   Bbb    -0.0059    -3.166    -1.130    -1.056  0.6987 -0.4669 -0.5420
              Bcc     0.0519    27.689     9.880     9.236  0.1244  0.8254 -0.5506
 

 ---------------------------------------------------------------------------------

 No NMR shielding tensors so no spin-rotation constants.
 Leave Link  601 at Mon Jul  4 16:13:36 2022, MaxMem=   939524096 cpu:         2.4
 (Enter /Local/ce_dana/g09/l9999.exe)

 Test job not archived.
 1\1\GINC-TECH-WN177\FTS\UwB97XD\def2SVP\C4H11O2(2)\ALONGD\04-Jul-2022\
 0\\#P opt=(ts, calcfc, noeigentest, maxcycles=100) guess=mix uwb97xd/d
 ef2svp IOp(2/9=2000) scf=xqc\\TS0\\0,2\C,0.0502769718,-0.8464596308,2.
 0684341064\C,0.5114068216,0.586351135,1.8777506798\O,0.8179201374,0.90
 81318335,0.5339364428\O,-0.3379855077,0.9105312284,-0.2154459263\H,0.8
 023937054,-1.5546788042,1.6896099688\H,-0.8962336301,-1.0221933233,1.5
 381250556\H,-0.1136872089,-1.0526951007,3.1363733866\H,1.4576686003,0.
 7728648587,2.4081129899\H,-0.241456884,1.29756577,2.2587847864\C,-0.58
 90056629,-0.9687846007,-2.8703218401\C,-0.2611754782,-1.2889323458,-1.
 4424003989\H,-0.468076681,-1.8611219827,-3.5107419221\H,-1.6288931296,
 -0.6271881641,-2.9805572952\H,0.0733000547,-0.1861384713,-3.2684065701
 \H,-0.3438500013,-0.1035045242,-0.7537524591\H,0.7889493719,-1.5251998
 143,-1.2234095095\H,-0.9643806793,-1.9451138638,-0.9129042249\\Version
 =ES64L-G09RevD.01\State=2-A\HF=-308.9948279\S2=0.758213\S2-1=0.\S2A=0.
 750035\RMSD=2.634e-09\RMSF=9.820e-06\Dipole=-0.0980251,-0.8003443,0.22
 04542\Quadrupole=-1.1613948,-2.501833,3.6632278,0.0080073,0.8745624,1.
 6022136\PG=C01 [X(C4H11O2)]\\@


 REFRAIN FROM ILLUSIONS, INSIST ON WORK AND NOT WORDS,
 PATIENTLY SEEK DIVINE AND SCIENTIFIC TRUTH.
 LAST WORDS OF MARIA MENDELEEVA TO HER SON DMITRI, C. 1850
 Job cpu time:       0 days  2 hours  5 minutes 24.2 seconds.
 File lengths (MBytes):  RWF=     74 Int=      0 D2E=      0 Chk=      3 Scr=      1
 Normal termination of Gaussian 09 at Mon Jul  4 16:13:36 2022.
