 Entering Gaussian System, Link 0=g16
 Initial command:
 /opt/g16/l1.exe "/scratch/alongd/g16/a19046-8471/Gau-2015.inp" -scrdir="/scratch/alongd/g16/a19046-8471/"
 Entering Link 1 = /opt/g16/l1.exe PID=      2018.
  
 Copyright (c) 1988-2017, Gaussian, Inc.  All Rights Reserved.
  
 This is part of the Gaussian(R) 16 program.  It is based on
 the Gaussian(R) 09 system (copyright 2009, Gaussian, Inc.),
 the Gaussian(R) 03 system (copyright 2003, Gaussian, Inc.),
 the Gaussian(R) 98 system (copyright 1998, Gaussian, Inc.),
 the Gaussian(R) 94 system (copyright 1995, Gaussian, Inc.),
 the Gaussian 92(TM) system (copyright 1992, Gaussian, Inc.),
 the Gaussian 90(TM) system (copyright 1990, Gaussian, Inc.),
 the Gaussian 88(TM) system (copyright 1988, Gaussian, Inc.),
 the Gaussian 86(TM) system (copyright 1986, Carnegie Mellon
 University), and the Gaussian 82(TM) system (copyright 1983,
 Carnegie Mellon University). Gaussian is a federally registered
 trademark of Gaussian, Inc.
  
 This software contains proprietary and confidential information,
 including trade secrets, belonging to Gaussian, Inc.
  
 This software is provided under written license and may be
 used, copied, transmitted, or stored only in accord with that
 written license.
  
 The following legend is applicable only to US Government
 contracts under FAR:
  
                    RESTRICTED RIGHTS LEGEND
  
 Use, reproduction and disclosure by the US Government is
 subject to restrictions as set forth in subparagraphs (a)
 and (c) of the Commercial Computer Software - Restricted
 Rights clause in FAR 52.227-19.
  
 Gaussian, Inc.
 340 Quinnipiac St., Bldg. 40, Wallingford CT 06492
  
  
 ---------------------------------------------------------------
 Warning -- This program may not be used in any manner that
 competes with the business of Gaussian, Inc. or will provide
 assistance to any competitor of Gaussian, Inc.  The licensee
 of this program is prohibited from giving any competitor of
 Gaussian, Inc. access to this program.  By using this program,
 the user acknowledges that Gaussian, Inc. is engaged in the
 business of creating and licensing software in the field of
 computational chemistry and represents and warrants to the
 licensee that it is not a competitor of Gaussian, Inc. and that
 it will not use this program in any manner prohibited above.
 ---------------------------------------------------------------
  

 Cite this work as:
 Gaussian 16, Revision B.01,
 M. J. Frisch, G. W. Trucks, H. B. Schlegel, G. E. Scuseria, 
 M. A. Robb, J. R. Cheeseman, G. Scalmani, V. Barone, 
 G. A. Petersson, H. Nakatsuji, X. Li, M. Caricato, A. V. Marenich, 
 J. Bloino, B. G. Janesko, R. Gomperts, B. Mennucci, H. P. Hratchian, 
 J. V. Ortiz, A. F. Izmaylov, J. L. Sonnenberg, D. Williams-Young, 
 F. Ding, F. Lipparini, F. Egidi, J. Goings, B. Peng, A. Petrone, 
 T. Henderson, D. Ranasinghe, V. G. Zakrzewski, J. Gao, N. Rega, 
 G. Zheng, W. Liang, M. Hada, M. Ehara, K. Toyota, R. Fukuda, 
 J. Hasegawa, M. Ishida, T. Nakajima, Y. Honda, O. Kitao, H. Nakai, 
 T. Vreven, K. Throssell, J. A. Montgomery, Jr., J. E. Peralta, 
 F. Ogliaro, M. J. Bearpark, J. J. Heyd, E. N. Brothers, K. N. Kudin, 
 V. N. Staroverov, T. A. Keith, R. Kobayashi, J. Normand, 
 K. Raghavachari, A. P. Rendell, J. C. Burant, S. S. Iyengar, 
 J. Tomasi, M. Cossi, J. M. Millam, M. Klene, C. Adamo, R. Cammi, 
 J. W. Ochterski, R. L. Martin, K. Morokuma, O. Farkas, 
 J. B. Foresman, and D. J. Fox, Gaussian, Inc., Wallingford CT, 2016.
 
 ******************************************
 Gaussian 16:  ES64L-G16RevB.01 20-Dec-2017
                10-Aug-2019 
 ******************************************
 %chk=check.chk
 %mem=14000mb
 %NProcShared=8
 Will use up to    8 processors via shared memory.
 ----------------------------------------------------------------------
 #P guess=mix uwb97xd/def2tzvp freq iop(7/33=1) scf=(tight, direct) int
 egral=(grid=ultrafine, Acc2E=12) scf=xqc iop(2/9=2000)
 ----------------------------------------------------------------------
 1/10=4,30=1,38=1/1,3;
 2/9=2000,12=2,17=6,18=5,40=1/2;
 3/5=44,7=101,11=2,25=1,27=12,30=1,71=2,74=-58,75=-5,116=2,140=1/1,2,3;
 4/13=-1/1;
 5/5=2,8=3,13=1,32=2,38=5,87=12,98=1/2,8;
 8/6=4,10=90,11=11,87=12/1;
 11/6=1,8=1,9=11,15=111,16=1,87=12/1,2,10;
 10/6=1,87=12/2;
 6/7=2,8=2,9=2,10=2,28=1,87=12/1;
 7/8=1,10=1,25=1,33=1,87=12/1,2,3,16;
 1/10=4,30=1/3;
 99//99;
 Leave Link    1 at Sat Aug 10 23:52:19 2019, MaxMem=  1835008000 cpu:               0.7 elap:               0.1
 (Enter /opt/g16/l101.exe)
 ----
 name
 ----
 Symbolic Z-matrix:
 Charge =  0 Multiplicity = 2
 O                     1.59277   0.85794   0.26525 
 O                     1.40517  -0.97922  -0.64024 
 C                    -0.67693   0.02314   0.09328 
 C                     0.79726  -0.03719  -0.08969 
 H                    -0.9201    0.61762   0.97264 
 H                    -1.11467   0.50071  -0.78505 
 H                    -1.0835   -0.983     0.1838 
 
 ITRead=  0  0  0  0  0  0  0
 MicOpt= -1 -1 -1 -1 -1 -1 -1
 NAtoms=      7 NQM=        7 NQMF=       0 NMMI=      0 NMMIF=      0
                NMic=       0 NMicF=      0.
                    Isotopes and Nuclear Properties:
 (Nuclear quadrupole moments (NQMom) in fm**2, nuclear magnetic moments (NMagM)
  in nuclear magnetons)

  Atom         1           2           3           4           5           6           7
 IAtWgt=          16          16          12          12           1           1           1
 AtmWgt=  15.9949146  15.9949146  12.0000000  12.0000000   1.0078250   1.0078250   1.0078250
 NucSpn=           0           0           0           0           1           1           1
 AtZEff=  -0.0000000  -0.0000000  -0.0000000  -0.0000000  -0.0000000  -0.0000000  -0.0000000
 NQMom=    0.0000000   0.0000000   0.0000000   0.0000000   0.0000000   0.0000000   0.0000000
 NMagM=    0.0000000   0.0000000   0.0000000   0.0000000   2.7928460   2.7928460   2.7928460
 AtZNuc=   8.0000000   8.0000000   6.0000000   6.0000000   1.0000000   1.0000000   1.0000000
 Leave Link  101 at Sat Aug 10 23:52:19 2019, MaxMem=  1835008000 cpu:               1.6 elap:               0.2
 (Enter /opt/g16/l103.exe)

 GradGradGradGradGradGradGradGradGradGradGradGradGradGradGradGradGradGrad
 Berny optimization.
 Initialization pass.
 Trust Radius=3.00D-01 FncErr=1.00D-07 GrdErr=1.00D-07 EigMax=2.50D+02 EigMin=1.00D-04
 Number of steps in this run=      2 maximum allowed number of steps=      2.
 GradGradGradGradGradGradGradGradGradGradGradGradGradGradGradGradGradGrad

 Leave Link  103 at Sat Aug 10 23:52:19 2019, MaxMem=  1835008000 cpu:               0.1 elap:               0.0
 (Enter /opt/g16/l202.exe)
                          Input orientation:                          
 ---------------------------------------------------------------------
 Center     Atomic      Atomic             Coordinates (Angstroms)
 Number     Number       Type             X           Y           Z
 ---------------------------------------------------------------------
      1          8           0        1.592766    0.857940    0.265250
      2          8           0        1.405174   -0.979220   -0.640236
      3          6           0       -0.676926    0.023141    0.093281
      4          6           0        0.797260   -0.037188   -0.089688
      5          1           0       -0.920099    0.617619    0.972643
      6          1           0       -1.114673    0.500706   -0.785048
      7          1           0       -1.083503   -0.982998    0.183798
 ---------------------------------------------------------------------
                    Distance matrix (angstroms):
                    1          2          3          4          5
     1  O    0.000000
     2  O    2.056758   0.000000
     3  C    2.424451   2.424441   0.000000
     4  C    1.249026   1.249034   1.486722   0.000000
     5  H    2.621574   3.249333   1.088951   2.122885   0.000000
     6  H    2.925913   2.925881   1.091399   2.104363   1.772288
     7  H    3.249323   2.621557   1.088951   2.122880   1.791913
                    6          7
     6  H    0.000000
     7  H    1.772290   0.000000
 Stoichiometry    C2H3O2(2)
 Framework group  C1[X(C2H3O2)]
 Deg. of freedom    15
 Full point group                 C1      NOp   1
 Largest Abelian subgroup         C1      NOp   1
 Largest concise Abelian subgroup C1      NOp   1
                         Standard orientation:                         
 ---------------------------------------------------------------------
 Center     Atomic      Atomic             Coordinates (Angstroms)
 Number     Number       Type             X           Y           Z
 ---------------------------------------------------------------------
      1          8           0        0.809845   -1.028371    0.001515
      2          8           0        0.809818    1.028387    0.001515
      3          6           0       -1.385699   -0.000009   -0.003102
      4          6           0        0.101015   -0.000007   -0.008023
      5          1           0       -1.760797   -0.895980   -0.495397
      6          1           0       -1.727610    0.000020    1.033358
      7          1           0       -1.760793    0.895933   -0.495449
 ---------------------------------------------------------------------
 Rotational constants (GHZ):          13.6511041           9.2704290           5.7174314
 Leave Link  202 at Sat Aug 10 23:52:19 2019, MaxMem=  1835008000 cpu:               0.0 elap:               0.0
 (Enter /opt/g16/l301.exe)
 Standard basis: def2TZVP (5D, 7F)
 Ernie: Thresh=  0.10000D-02 Tol=  0.10000D-05 Strict=F.
 There are   162 symmetry adapted cartesian basis functions of A   symmetry.
 There are   142 symmetry adapted basis functions of A   symmetry.
   142 basis functions,   228 primitive gaussians,   162 cartesian basis functions
    16 alpha electrons       15 beta electrons
       nuclear repulsion energy       113.7683867902 Hartrees.
 IExCor= 4639 DFT=T Ex+Corr=wB97XD ExCW=0 ScaHFX=  1.000000
 ScaDFX=  1.000000  1.000000  1.000000  1.000000 ScalE2=  1.000000  1.000000
 IRadAn=      5 IRanWt=     -1 IRanGd=            0 ICorTp=0 IEmpDi=121
 HFx  wShort=  0.000000 wLong=  0.200000 cFull=  0.222036 cShort=  0.000000 cLong=  0.777964
 DFx  wShort=  0.000000 wLong=  0.200000 cFull=  0.000000 cShort=  0.000000 cLong=  1.000000
 NAtoms=    7 NActive=    7 NUniq=    7 SFac= 1.00D+00 NAtFMM=   60 NAOKFM=F Big=F
 Integral buffers will be    131072 words long.
 Raffenetti 2 integral format.
 Two-electron integral symmetry is turned on.
 R6Disp:  Grimme-D2 Dispersion energy=       -0.0012614107 Hartrees.
 Nuclear repulsion after empirical dispersion term =      113.7671253795 Hartrees.
 Leave Link  301 at Sat Aug 10 23:52:19 2019, MaxMem=  1835008000 cpu:               0.5 elap:               0.1
 (Enter /opt/g16/l302.exe)
 NPDir=0 NMtPBC=     1 NCelOv=     1 NCel=       1 NClECP=     1 NCelD=      1
         NCelK=      1 NCelE2=     1 NClLst=     1 CellRange=     0.0.
 One-electron integrals computed using PRISM.
 One-electron integral symmetry used in STVInt
   1 Symmetry operations used in ECPInt.
 ECPInt:  NShTT=    1596 NPrTT=    4948 LenC2=    1589 LenP2D=    4263.
 LDataN:  DoStor=T MaxTD1= 6 Len=  172
 NBasis=   142 RedAO= T EigKep=  3.83D-04  NBF=   142
 NBsUse=   142 1.00D-06 EigRej= -1.00D+00 NBFU=   142
 Precomputing XC quadrature grid using
 IXCGrd= 4 IRadAn=           5 IRanWt=          -1 IRanGd=           0 AccXCQ= 1.00D-12.
 Generated NRdTot=       0 NPtTot=           0 NUsed=           0 NTot=          32
 NSgBfM=   162   162   162   162   162 MxSgAt=     7 MxSgA2=     7.
 Leave Link  302 at Sat Aug 10 23:52:20 2019, MaxMem=  1835008000 cpu:               2.7 elap:               0.3
 (Enter /opt/g16/l303.exe)
 DipDrv:  MaxL=1.
 Leave Link  303 at Sat Aug 10 23:52:20 2019, MaxMem=  1835008000 cpu:               0.3 elap:               0.0
 (Enter /opt/g16/l401.exe)
 ExpMin= 9.52D-02 ExpMax= 2.70D+04 ExpMxC= 9.22D+02 IAcc=3 IRadAn=         5 AccDes= 0.00D+00
 Harris functional with IExCor= 4639 and IRadAn=       5 diagonalized for initial guess.
 HarFok:  IExCor= 4639 AccDes= 0.00D+00 IRadAn=         5 IDoV= 1 UseB2=F ITyADJ=14
 ICtDFT=  3500011 ScaDFX=  1.000000  1.000000  1.000000  1.000000
 FoFCou: FMM=F IPFlag=           0 FMFlag=      100000 FMFlg1=           0
         NFxFlg=           0 DoJE=T BraDBF=F KetDBF=T FulRan=T
         wScrn=  0.000000 ICntrl=       500 IOpCl=  0 I1Cent=   200000004 NGrid=           0
         NMat0=    1 NMatS0=      1 NMatT0=    0 NMatD0=    1 NMtDS0=    0 NMtDT0=    0
 Petite list used in FoFCou.
 Harris En= -219.682305413013    
 JPrj=0 DoOrth=F DoCkMO=T.
 Mixing orbitals, IMix= 1 IMixAn=  0 NRI=1 NE=   16 Coef=  7.07106781D-01  7.07106781D-01
 Mixing orbitals, IMix= 1 IMixAn=  0 NRI=1 NE=   15 Coef= -7.07106781D-01  7.07106781D-01
 Initial guess <Sx>= 0.0000 <Sy>= 0.0000 <Sz>= 0.5000 <S**2>= 1.0000 S= 0.6180
 Leave Link  401 at Sat Aug 10 23:52:21 2019, MaxMem=  1835008000 cpu:               9.8 elap:               1.2
 (Enter /opt/g16/l502.exe)
 Keep R1 and R2 ints in memory in canonical form, NReq=214098917.
 FoFCou: FMM=F IPFlag=           0 FMFlag=           0 FMFlg1=           0
         NFxFlg=           0 DoJE=F BraDBF=F KetDBF=F FulRan=T
         wScrn=  0.000000 ICntrl=       600 IOpCl=  0 I1Cent=           0 NGrid=           0
         NMat0=    1 NMatS0=  10153 NMatT0=    0 NMatD0=    1 NMtDS0=    0 NMtDT0=    0
 Symmetry not used in FoFCou.
 Two-electron integral symmetry not used.
 UHF open shell SCF:
 Using DIIS extrapolation, IDIIS=  1040.
 NGot=  1835008000 LenX=  1628765539 LenY=  1628738854
 Requested convergence on RMS density matrix=1.00D-08 within  32 cycles.
 Requested convergence on MAX density matrix=1.00D-06.
 Requested convergence on             energy=1.00D-06.
 No special actions if energy rises.
 Integral accuracy reduced to 1.0D-05 until final iterations.

 Cycle   1  Pass 0  IDiag  1:
 E= -228.160499888236    
 DIIS: error= 8.24D-02 at cycle   1 NSaved=   1.
 NSaved= 1 IEnMin= 1 EnMin= -228.160499888236     IErMin= 1 ErrMin= 8.24D-02
 ErrMax= 8.24D-02  0.00D+00 EMaxC= 1.00D-01 BMatC= 2.36D+00 BMatP= 2.36D+00
 IDIUse=3 WtCom= 1.76D-01 WtEn= 8.24D-01
 Coeff-Com:  0.100D+01
 Coeff-En:   0.100D+01
 Coeff:      0.100D+01
 Gap=     0.214 Goal=   None    Shift=    0.000
 Gap=     0.252 Goal=   None    Shift=    0.000
 GapD=    0.214 DampG=1.000 DampE=0.500 DampFc=0.5000 IDamp=-1.
 Damping current iteration by 5.00D-01
 RMSDP=1.08D-02 MaxDP=7.39D-01              OVMax= 3.78D-01

 Cycle   2  Pass 0  IDiag  1:
 E= -228.261991461027     Delta-E=       -0.101491572790 Rises=F Damp=T
 DIIS: error= 3.65D-02 at cycle   2 NSaved=   2.
 NSaved= 2 IEnMin= 2 EnMin= -228.261991461027     IErMin= 2 ErrMin= 3.65D-02
 ErrMax= 3.65D-02  0.00D+00 EMaxC= 1.00D-01 BMatC= 4.09D-01 BMatP= 2.36D+00
 IDIUse=3 WtCom= 6.35D-01 WtEn= 3.65D-01
 Coeff-Com: -0.343D+00 0.134D+01
 Coeff-En:   0.000D+00 0.100D+01
 Coeff:     -0.218D+00 0.122D+01
 Gap=     0.466 Goal=   None    Shift=    0.000
 Gap=     0.426 Goal=   None    Shift=    0.000
 RMSDP=5.57D-03 MaxDP=3.89D-01 DE=-1.01D-01 OVMax= 1.27D-01

 Cycle   3  Pass 0  IDiag  1:
 E= -228.390238928354     Delta-E=       -0.128247467327 Rises=F Damp=F
 DIIS: error= 1.07D-02 at cycle   3 NSaved=   3.
 NSaved= 3 IEnMin= 3 EnMin= -228.390238928354     IErMin= 3 ErrMin= 1.07D-02
 ErrMax= 1.07D-02  0.00D+00 EMaxC= 1.00D-01 BMatC= 7.20D-02 BMatP= 4.09D-01
 IDIUse=3 WtCom= 8.93D-01 WtEn= 1.07D-01
 Coeff-Com: -0.197D+00 0.463D+00 0.734D+00
 Coeff-En:   0.000D+00 0.000D+00 0.100D+01
 Coeff:     -0.176D+00 0.413D+00 0.763D+00
 Gap=     0.430 Goal=   None    Shift=    0.000
 Gap=     0.264 Goal=   None    Shift=    0.000
 RMSDP=1.05D-03 MaxDP=2.40D-02 DE=-1.28D-01 OVMax= 1.03D-01

 Cycle   4  Pass 0  IDiag  1:
 E= -228.410183678996     Delta-E=       -0.019944750642 Rises=F Damp=F
 DIIS: error= 3.90D-03 at cycle   4 NSaved=   4.
 NSaved= 4 IEnMin= 4 EnMin= -228.410183678996     IErMin= 4 ErrMin= 3.90D-03
 ErrMax= 3.90D-03  0.00D+00 EMaxC= 1.00D-01 BMatC= 1.02D-02 BMatP= 7.20D-02
 IDIUse=3 WtCom= 9.61D-01 WtEn= 3.90D-02
 Coeff-Com: -0.445D-01 0.883D-01 0.295D+00 0.661D+00
 Coeff-En:   0.000D+00 0.000D+00 0.000D+00 0.100D+01
 Coeff:     -0.428D-01 0.848D-01 0.284D+00 0.674D+00
 Gap=     0.445 Goal=   None    Shift=    0.000
 Gap=     0.265 Goal=   None    Shift=    0.000
 RMSDP=4.27D-04 MaxDP=1.07D-02 DE=-1.99D-02 OVMax= 4.62D-02

 Cycle   5  Pass 0  IDiag  1:
 E= -228.415034516128     Delta-E=       -0.004850837132 Rises=F Damp=F
 DIIS: error= 2.54D-03 at cycle   5 NSaved=   5.
 NSaved= 5 IEnMin= 5 EnMin= -228.415034516128     IErMin= 5 ErrMin= 2.54D-03
 ErrMax= 2.54D-03  0.00D+00 EMaxC= 1.00D-01 BMatC= 3.28D-03 BMatP= 1.02D-02
 IDIUse=3 WtCom= 9.75D-01 WtEn= 2.54D-02
 Coeff-Com:  0.332D-01-0.809D-01-0.936D-01 0.278D+00 0.864D+00
 Coeff-En:   0.000D+00 0.000D+00 0.000D+00 0.000D+00 0.100D+01
 Coeff:      0.323D-01-0.789D-01-0.912D-01 0.270D+00 0.867D+00
 Gap=     0.460 Goal=   None    Shift=    0.000
 Gap=     0.274 Goal=   None    Shift=    0.000
 RMSDP=3.82D-04 MaxDP=8.20D-03 DE=-4.85D-03 OVMax= 5.02D-02

 Cycle   6  Pass 0  IDiag  1:
 E= -228.418173816228     Delta-E=       -0.003139300100 Rises=F Damp=F
 DIIS: error= 2.41D-03 at cycle   6 NSaved=   6.
 NSaved= 6 IEnMin= 6 EnMin= -228.418173816228     IErMin= 6 ErrMin= 2.41D-03
 ErrMax= 2.41D-03  0.00D+00 EMaxC= 1.00D-01 BMatC= 2.09D-03 BMatP= 3.28D-03
 IDIUse=3 WtCom= 9.76D-01 WtEn= 2.41D-02
 Coeff-Com:  0.356D-01-0.773D-01-0.180D+00-0.748D-01 0.615D+00 0.681D+00
 Coeff-En:   0.000D+00 0.000D+00 0.000D+00 0.000D+00 0.000D+00 0.100D+01
 Coeff:      0.348D-01-0.754D-01-0.175D+00-0.730D-01 0.601D+00 0.688D+00
 Gap=     0.468 Goal=   None    Shift=    0.000
 Gap=     0.276 Goal=   None    Shift=    0.000
 RMSDP=2.81D-04 MaxDP=7.18D-03 DE=-3.14D-03 OVMax= 4.68D-02

 Cycle   7  Pass 0  IDiag  1:
 E= -228.420189558530     Delta-E=       -0.002015742302 Rises=F Damp=F
 DIIS: error= 2.21D-03 at cycle   7 NSaved=   7.
 NSaved= 7 IEnMin= 7 EnMin= -228.420189558530     IErMin= 7 ErrMin= 2.21D-03
 ErrMax= 2.21D-03  0.00D+00 EMaxC= 1.00D-01 BMatC= 5.36D-04 BMatP= 2.09D-03
 IDIUse=3 WtCom= 9.78D-01 WtEn= 2.21D-02
 Coeff-Com: -0.211D-01 0.494D-01 0.767D-01 0.922D-02-0.365D+00-0.654D-01
 Coeff-Com:  0.132D+01
 Coeff-En:   0.000D+00 0.000D+00 0.000D+00 0.000D+00 0.000D+00 0.000D+00
 Coeff-En:   0.100D+01
 Coeff:     -0.207D-01 0.484D-01 0.750D-01 0.902D-02-0.357D+00-0.639D-01
 Coeff:      0.131D+01
 Gap=     0.465 Goal=   None    Shift=    0.000
 Gap=     0.274 Goal=   None    Shift=    0.000
 RMSDP=2.54D-04 MaxDP=7.79D-03 DE=-2.02D-03 OVMax= 6.22D-02

 Cycle   8  Pass 0  IDiag  1:
 E= -228.421813528117     Delta-E=       -0.001623969588 Rises=F Damp=F
 DIIS: error= 2.06D-03 at cycle   8 NSaved=   8.
 NSaved= 8 IEnMin= 8 EnMin= -228.421813528117     IErMin= 8 ErrMin= 2.06D-03
 ErrMax= 2.06D-03  0.00D+00 EMaxC= 1.00D-01 BMatC= 3.87D-04 BMatP= 5.36D-04
 IDIUse=3 WtCom= 9.79D-01 WtEn= 2.06D-02
 Coeff-Com: -0.150D-01 0.339D-01 0.777D-01 0.721D-02-0.249D+00-0.187D+00
 Coeff-Com:  0.114D+00 0.122D+01
 Coeff-En:   0.000D+00 0.000D+00 0.000D+00 0.000D+00 0.000D+00 0.000D+00
 Coeff-En:   0.000D+00 0.100D+01
 Coeff:     -0.147D-01 0.332D-01 0.761D-01 0.706D-02-0.243D+00-0.183D+00
 Coeff:      0.111D+00 0.121D+01
 Gap=     0.468 Goal=   None    Shift=    0.000
 Gap=     0.275 Goal=   None    Shift=    0.000
 RMSDP=2.62D-04 MaxDP=7.38D-03 DE=-1.62D-03 OVMax= 6.64D-02

 Cycle   9  Pass 0  IDiag  1:
 E= -228.423352242300     Delta-E=       -0.001538714183 Rises=F Damp=F
 DIIS: error= 1.84D-03 at cycle   9 NSaved=   9.
 NSaved= 9 IEnMin= 9 EnMin= -228.423352242300     IErMin= 9 ErrMin= 1.84D-03
 ErrMax= 1.84D-03  0.00D+00 EMaxC= 1.00D-01 BMatC= 3.04D-04 BMatP= 3.87D-04
 IDIUse=3 WtCom= 9.82D-01 WtEn= 1.84D-02
 Coeff-Com:  0.189D-01-0.406D-01-0.694D-01-0.297D-01 0.390D+00 0.131D+00
 Coeff-Com: -0.141D+01-0.801D+00 0.281D+01
 Coeff-En:   0.000D+00 0.000D+00 0.000D+00 0.000D+00 0.000D+00 0.000D+00
 Coeff-En:   0.000D+00 0.000D+00 0.100D+01
 Coeff:      0.185D-01-0.399D-01-0.681D-01-0.291D-01 0.383D+00 0.128D+00
 Coeff:     -0.138D+01-0.786D+00 0.277D+01
 Gap=     0.478 Goal=   None    Shift=    0.000
 Gap=     0.274 Goal=   None    Shift=    0.000
 RMSDP=6.54D-04 MaxDP=1.53D-02 DE=-1.54D-03 OVMax= 1.66D-01

 Failed to achieve initial convergence to 1.0D-08 in 10 cycles.
 Switch to full accuracy anyway.
 Cycle  10  Pass 1  IDiag  1:
 E= -228.426343865375     Delta-E=       -0.002991623075 Rises=F Damp=F
 DIIS: error= 1.14D-03 at cycle   1 NSaved=   1.
 NSaved= 1 IEnMin= 1 EnMin= -228.426343865375     IErMin= 1 ErrMin= 1.14D-03
 ErrMax= 1.14D-03  0.00D+00 EMaxC= 1.00D-01 BMatC= 1.71D-04 BMatP= 1.71D-04
 IDIUse=3 WtCom= 9.89D-01 WtEn= 1.14D-02
 Coeff-Com:  0.100D+01
 Coeff-En:   0.100D+01
 Coeff:      0.100D+01
 Gap=     0.477 Goal=   None    Shift=    0.000
 Gap=     0.274 Goal=   None    Shift=    0.000
 RMSDP=6.54D-04 MaxDP=1.53D-02 DE=-2.99D-03 OVMax= 2.09D-02

 Cycle  11  Pass 1  IDiag  1:
 E= -228.426646444561     Delta-E=       -0.000302579186 Rises=F Damp=F
 DIIS: error= 1.06D-03 at cycle   2 NSaved=   2.
 NSaved= 2 IEnMin= 2 EnMin= -228.426646444561     IErMin= 2 ErrMin= 1.06D-03
 ErrMax= 1.06D-03  0.00D+00 EMaxC= 1.00D-01 BMatC= 1.08D-04 BMatP= 1.71D-04
 IDIUse=3 WtCom= 9.89D-01 WtEn= 1.06D-02
 Coeff-Com: -0.362D+00 0.136D+01
 Coeff-En:   0.000D+00 0.100D+01
 Coeff:     -0.359D+00 0.136D+01
 Gap=     0.478 Goal=   None    Shift=    0.000
 Gap=     0.274 Goal=   None    Shift=    0.000
 RMSDP=1.06D-04 MaxDP=2.96D-03 DE=-3.03D-04 OVMax= 2.63D-02

 Cycle  12  Pass 1  IDiag  1:
 E= -228.426970241947     Delta-E=       -0.000323797386 Rises=F Damp=F
 DIIS: error= 9.34D-04 at cycle   3 NSaved=   3.
 NSaved= 3 IEnMin= 3 EnMin= -228.426970241947     IErMin= 3 ErrMin= 9.34D-04
 ErrMax= 9.34D-04  0.00D+00 EMaxC= 1.00D-01 BMatC= 9.19D-05 BMatP= 1.08D-04
 IDIUse=3 WtCom= 9.91D-01 WtEn= 9.34D-03
 Coeff-Com: -0.538D+00 0.613D+00 0.925D+00
 Coeff-En:   0.000D+00 0.000D+00 0.100D+01
 Coeff:     -0.533D+00 0.607D+00 0.926D+00
 Gap=     0.480 Goal=   None    Shift=    0.000
 Gap=     0.274 Goal=   None    Shift=    0.000
 RMSDP=1.04D-04 MaxDP=2.88D-03 DE=-3.24D-04 OVMax= 2.58D-02

 Cycle  13  Pass 1  IDiag  1:
 E= -228.427245485669     Delta-E=       -0.000275243722 Rises=F Damp=F
 DIIS: error= 8.18D-04 at cycle   4 NSaved=   4.
 NSaved= 4 IEnMin= 4 EnMin= -228.427245485669     IErMin= 4 ErrMin= 8.18D-04
 ErrMax= 8.18D-04  0.00D+00 EMaxC= 1.00D-01 BMatC= 8.09D-05 BMatP= 9.19D-05
 IDIUse=3 WtCom= 9.92D-01 WtEn= 8.18D-03
 Coeff-Com: -0.185D+00-0.158D+01 0.128D+01 0.149D+01
 Coeff-En:   0.000D+00 0.000D+00 0.000D+00 0.100D+01
 Coeff:     -0.183D+00-0.157D+01 0.127D+01 0.148D+01
 Gap=     0.483 Goal=   None    Shift=    0.000
 Gap=     0.274 Goal=   None    Shift=    0.000
 RMSDP=2.84D-04 MaxDP=8.07D-03 DE=-2.75D-04 OVMax= 7.14D-02

 Cycle  14  Pass 1  IDiag  1:
 E= -228.427808225293     Delta-E=       -0.000562739624 Rises=F Damp=F
 DIIS: error= 4.94D-04 at cycle   5 NSaved=   5.
 NSaved= 5 IEnMin= 5 EnMin= -228.427808225293     IErMin= 5 ErrMin= 4.94D-04
 ErrMax= 4.94D-04  0.00D+00 EMaxC= 1.00D-01 BMatC= 2.91D-05 BMatP= 8.09D-05
 IDIUse=3 WtCom= 9.95D-01 WtEn= 4.94D-03
 Coeff-Com: -0.113D-01-0.131D+01 0.365D+00 0.952D+00 0.101D+01
 Coeff-En:   0.000D+00 0.000D+00 0.000D+00 0.000D+00 0.100D+01
 Coeff:     -0.112D-01-0.131D+01 0.363D+00 0.948D+00 0.101D+01
 Gap=     0.485 Goal=   None    Shift=    0.000
 Gap=     0.276 Goal=   None    Shift=    0.000
 RMSDP=2.44D-04 MaxDP=7.03D-03 DE=-5.63D-04 OVMax= 6.15D-02

 Cycle  15  Pass 1  IDiag  1:
 E= -228.428047935494     Delta-E=       -0.000239710201 Rises=F Damp=F
 DIIS: error= 1.96D-04 at cycle   6 NSaved=   6.
 NSaved= 6 IEnMin= 6 EnMin= -228.428047935494     IErMin= 6 ErrMin= 1.96D-04
 ErrMax= 1.96D-04  0.00D+00 EMaxC= 1.00D-01 BMatC= 1.09D-05 BMatP= 2.91D-05
 IDIUse=3 WtCom= 9.98D-01 WtEn= 1.96D-03
 Coeff-Com: -0.423D+00 0.355D+00 0.225D+00-0.960D-01-0.872D-01 0.103D+01
 Coeff-En:   0.000D+00 0.000D+00 0.000D+00 0.000D+00 0.000D+00 0.100D+01
 Coeff:     -0.422D+00 0.354D+00 0.225D+00-0.958D-01-0.870D-01 0.103D+01
 Gap=     0.485 Goal=   None    Shift=    0.000
 Gap=     0.274 Goal=   None    Shift=    0.000
 RMSDP=2.79D-05 MaxDP=8.12D-04 DE=-2.40D-04 OVMax= 6.80D-03

 Cycle  16  Pass 1  IDiag  1:
 E= -228.428063697906     Delta-E=       -0.000015762412 Rises=F Damp=F
 DIIS: error= 1.53D-04 at cycle   7 NSaved=   7.
 NSaved= 7 IEnMin= 7 EnMin= -228.428063697906     IErMin= 7 ErrMin= 1.53D-04
 ErrMax= 1.53D-04  0.00D+00 EMaxC= 1.00D-01 BMatC= 2.84D-06 BMatP= 1.09D-05
 IDIUse=3 WtCom= 9.98D-01 WtEn= 1.53D-03
 Coeff-Com:  0.754D-01 0.758D-02-0.139D+00-0.393D-01-0.131D+00-0.500D+00
 Coeff-Com:  0.173D+01
 Coeff-En:   0.000D+00 0.000D+00 0.000D+00 0.000D+00 0.000D+00 0.000D+00
 Coeff-En:   0.100D+01
 Coeff:      0.753D-01 0.757D-02-0.138D+00-0.393D-01-0.131D+00-0.500D+00
 Coeff:      0.173D+01
 Gap=     0.485 Goal=   None    Shift=    0.000
 Gap=     0.274 Goal=   None    Shift=    0.000
 RMSDP=9.31D-05 MaxDP=2.75D-03 DE=-1.58D-05 OVMax= 2.39D-02

 Cycle  17  Pass 1  IDiag  1:
 E= -228.428088851446     Delta-E=       -0.000025153541 Rises=F Damp=F
 DIIS: error= 4.97D-05 at cycle   8 NSaved=   8.
 NSaved= 8 IEnMin= 8 EnMin= -228.428088851446     IErMin= 8 ErrMin= 4.97D-05
 ErrMax= 4.97D-05  0.00D+00 EMaxC= 1.00D-01 BMatC= 8.69D-07 BMatP= 2.84D-06
 IDIUse=1 WtCom= 1.00D+00 WtEn= 0.00D+00
 Coeff-Com:  0.102D+00-0.111D+00-0.625D-01 0.690D-01-0.222D-01-0.500D+00
 Coeff-Com:  0.507D+00 0.102D+01
 Coeff:      0.102D+00-0.111D+00-0.625D-01 0.690D-01-0.222D-01-0.500D+00
 Coeff:      0.507D+00 0.102D+01
 Gap=     0.485 Goal=   None    Shift=    0.000
 Gap=     0.274 Goal=   None    Shift=    0.000
 RMSDP=2.28D-05 MaxDP=6.89D-04 DE=-2.52D-05 OVMax= 5.77D-03

 Cycle  18  Pass 1  IDiag  1:
 E= -228.428090357901     Delta-E=       -0.000001506455 Rises=F Damp=F
 DIIS: error= 1.98D-05 at cycle   9 NSaved=   9.
 NSaved= 9 IEnMin= 9 EnMin= -228.428090357901     IErMin= 9 ErrMin= 1.98D-05
 ErrMax= 1.98D-05  0.00D+00 EMaxC= 1.00D-01 BMatC= 1.38D-07 BMatP= 8.69D-07
 IDIUse=1 WtCom= 1.00D+00 WtEn= 0.00D+00
 Coeff-Com:  0.168D-01-0.800D-01 0.199D-01 0.743D-01 0.493D-01-0.655D-01
 Coeff-Com: -0.238D+00 0.281D+00 0.942D+00
 Coeff:      0.168D-01-0.800D-01 0.199D-01 0.743D-01 0.493D-01-0.655D-01
 Coeff:     -0.238D+00 0.281D+00 0.942D+00
 Gap=     0.485 Goal=   None    Shift=    0.000
 Gap=     0.274 Goal=   None    Shift=    0.000
 RMSDP=2.42D-06 MaxDP=9.71D-05 DE=-1.51D-06 OVMax= 2.33D-04

 Cycle  19  Pass 1  IDiag  1:
 E= -228.428090469727     Delta-E=       -0.000000111826 Rises=F Damp=F
 DIIS: error= 8.12D-06 at cycle  10 NSaved=  10.
 NSaved=10 IEnMin=10 EnMin= -228.428090469727     IErMin=10 ErrMin= 8.12D-06
 ErrMax= 8.12D-06  0.00D+00 EMaxC= 1.00D-01 BMatC= 3.13D-08 BMatP= 1.38D-07
 IDIUse=1 WtCom= 1.00D+00 WtEn= 0.00D+00
 Coeff-Com: -0.149D-01 0.644D-02 0.127D-01 0.971D-02 0.112D-01 0.840D-01
 Coeff-Com: -0.180D+00-0.858D-01 0.333D+00 0.823D+00
 Coeff:     -0.149D-01 0.644D-02 0.127D-01 0.971D-02 0.112D-01 0.840D-01
 Coeff:     -0.180D+00-0.858D-01 0.333D+00 0.823D+00
 Gap=     0.485 Goal=   None    Shift=    0.000
 Gap=     0.274 Goal=   None    Shift=    0.000
 RMSDP=1.46D-06 MaxDP=3.65D-05 DE=-1.12D-07 OVMax= 2.94D-04

 Cycle  20  Pass 1  IDiag  1:
 E= -228.428090489601     Delta-E=       -0.000000019873 Rises=F Damp=F
 DIIS: error= 4.62D-06 at cycle  11 NSaved=  11.
 NSaved=11 IEnMin=11 EnMin= -228.428090489601     IErMin=11 ErrMin= 4.62D-06
 ErrMax= 4.62D-06  0.00D+00 EMaxC= 1.00D-01 BMatC= 1.12D-08 BMatP= 3.13D-08
 IDIUse=1 WtCom= 1.00D+00 WtEn= 0.00D+00
 Coeff-Com: -0.288D-02 0.201D-01-0.137D-01-0.109D-01-0.110D-01 0.379D-01
 Coeff-Com:  0.229D-01-0.574D-01-0.197D+00 0.111D+00 0.110D+01
 Coeff:     -0.288D-02 0.201D-01-0.137D-01-0.109D-01-0.110D-01 0.379D-01
 Coeff:      0.229D-01-0.574D-01-0.197D+00 0.111D+00 0.110D+01
 Gap=     0.485 Goal=   None    Shift=    0.000
 Gap=     0.274 Goal=   None    Shift=    0.000
 RMSDP=8.88D-07 MaxDP=2.39D-05 DE=-1.99D-08 OVMax= 1.18D-04

 Cycle  21  Pass 1  IDiag  1:
 E= -228.428090498931     Delta-E=       -0.000000009331 Rises=F Damp=F
 DIIS: error= 3.60D-06 at cycle  12 NSaved=  12.
 NSaved=12 IEnMin=12 EnMin= -228.428090498931     IErMin=12 ErrMin= 3.60D-06
 ErrMax= 3.60D-06  0.00D+00 EMaxC= 1.00D-01 BMatC= 4.93D-09 BMatP= 1.12D-08
 IDIUse=1 WtCom= 1.00D+00 WtEn= 0.00D+00
 Coeff-Com:  0.299D-02-0.122D-01-0.916D-03 0.180D-01-0.112D-02-0.350D-01
 Coeff-Com:  0.109D-01 0.454D-01 0.812D-01-0.193D+00-0.624D+00 0.171D+01
 Coeff:      0.299D-02-0.122D-01-0.916D-03 0.180D-01-0.112D-02-0.350D-01
 Coeff:      0.109D-01 0.454D-01 0.812D-01-0.193D+00-0.624D+00 0.171D+01
 Gap=     0.485 Goal=   None    Shift=    0.000
 Gap=     0.274 Goal=   None    Shift=    0.000
 RMSDP=7.14D-07 MaxDP=1.75D-05 DE=-9.33D-09 OVMax= 1.27D-04

 Cycle  22  Pass 1  IDiag  1:
 E= -228.428090505721     Delta-E=       -0.000000006789 Rises=F Damp=F
 DIIS: error= 2.14D-06 at cycle  13 NSaved=  13.
 NSaved=13 IEnMin=13 EnMin= -228.428090505721     IErMin=13 ErrMin= 2.14D-06
 ErrMax= 2.14D-06  0.00D+00 EMaxC= 1.00D-01 BMatC= 2.02D-09 BMatP= 4.93D-09
 IDIUse=1 WtCom= 1.00D+00 WtEn= 0.00D+00
 Coeff-Com: -0.360D-03-0.266D-02 0.184D-02 0.373D-02 0.336D-02 0.232D-02
 Coeff-Com: -0.277D-01 0.956D-02 0.804D-01 0.645D-01-0.349D+00-0.945D+00
 Coeff-Com:  0.216D+01
 Coeff:     -0.360D-03-0.266D-02 0.184D-02 0.373D-02 0.336D-02 0.232D-02
 Coeff:     -0.277D-01 0.956D-02 0.804D-01 0.645D-01-0.349D+00-0.945D+00
 Coeff:      0.216D+01
 Gap=     0.485 Goal=   None    Shift=    0.000
 Gap=     0.274 Goal=   None    Shift=    0.000
 RMSDP=9.35D-07 MaxDP=2.48D-05 DE=-6.79D-09 OVMax= 1.86D-04

 Cycle  23  Pass 1  IDiag  1:
 E= -228.428090511771     Delta-E=       -0.000000006050 Rises=F Damp=F
 DIIS: error= 1.26D-06 at cycle  14 NSaved=  14.
 NSaved=14 IEnMin=14 EnMin= -228.428090511771     IErMin=14 ErrMin= 1.26D-06
 ErrMax= 1.26D-06  0.00D+00 EMaxC= 1.00D-01 BMatC= 7.40D-10 BMatP= 2.02D-09
 IDIUse=1 WtCom= 1.00D+00 WtEn= 0.00D+00
 Coeff-Com: -0.156D-02 0.804D-02-0.307D-02-0.675D-02-0.121D-02 0.223D-01
 Coeff-Com: -0.945D-02-0.224D-01-0.420D-01 0.105D+00 0.314D+00-0.760D+00
 Coeff-Com: -0.263D+00 0.166D+01
 Coeff:     -0.156D-02 0.804D-02-0.307D-02-0.675D-02-0.121D-02 0.223D-01
 Coeff:     -0.945D-02-0.224D-01-0.420D-01 0.105D+00 0.314D+00-0.760D+00
 Coeff:     -0.263D+00 0.166D+01
 Gap=     0.485 Goal=   None    Shift=    0.000
 Gap=     0.274 Goal=   None    Shift=    0.000
 RMSDP=7.42D-07 MaxDP=1.98D-05 DE=-6.05D-09 OVMax= 1.47D-04

 Cycle  24  Pass 1  IDiag  1:
 E= -228.428090513971     Delta-E=       -0.000000002200 Rises=F Damp=F
 DIIS: error= 6.32D-07 at cycle  15 NSaved=  15.
 NSaved=15 IEnMin=15 EnMin= -228.428090513971     IErMin=15 ErrMin= 6.32D-07
 ErrMax= 6.32D-07  0.00D+00 EMaxC= 1.00D-01 BMatC= 1.22D-10 BMatP= 7.40D-10
 IDIUse=1 WtCom= 1.00D+00 WtEn= 0.00D+00
 Coeff-Com:  0.437D-03-0.163D-02-0.373D-03 0.273D-02-0.798D-03-0.634D-02
 Coeff-Com:  0.655D-02 0.481D-02 0.524D-03-0.409D-01-0.305D-01 0.394D+00
 Coeff-Com: -0.366D+00-0.509D+00 0.155D+01
 Coeff:      0.437D-03-0.163D-02-0.373D-03 0.273D-02-0.798D-03-0.634D-02
 Coeff:      0.655D-02 0.481D-02 0.524D-03-0.409D-01-0.305D-01 0.394D+00
 Coeff:     -0.366D+00-0.509D+00 0.155D+01
 Gap=     0.485 Goal=   None    Shift=    0.000
 Gap=     0.274 Goal=   None    Shift=    0.000
 RMSDP=2.88D-07 MaxDP=7.33D-06 DE=-2.20D-09 OVMax= 5.57D-05

 Cycle  25  Pass 1  IDiag  1:
 E= -228.428090514233     Delta-E=       -0.000000000262 Rises=F Damp=F
 DIIS: error= 1.30D-07 at cycle  16 NSaved=  16.
 NSaved=16 IEnMin=16 EnMin= -228.428090514233     IErMin=16 ErrMin= 1.30D-07
 ErrMax= 1.30D-07  0.00D+00 EMaxC= 1.00D-01 BMatC= 5.73D-12 BMatP= 1.22D-10
 IDIUse=1 WtCom= 1.00D+00 WtEn= 0.00D+00
 Coeff-Com:  0.201D-03-0.956D-03 0.547D-03 0.343D-03 0.422D-03-0.212D-02
 Coeff-Com:  0.379D-03 0.233D-02 0.527D-02-0.741D-02-0.379D-01 0.209D-01
 Coeff-Com:  0.143D+00-0.139D+00-0.385D+00 0.140D+01
 Coeff:      0.201D-03-0.956D-03 0.547D-03 0.343D-03 0.422D-03-0.212D-02
 Coeff:      0.379D-03 0.233D-02 0.527D-02-0.741D-02-0.379D-01 0.209D-01
 Coeff:      0.143D+00-0.139D+00-0.385D+00 0.140D+01
 Gap=     0.485 Goal=   None    Shift=    0.000
 Gap=     0.274 Goal=   None    Shift=    0.000
 RMSDP=4.44D-08 MaxDP=1.08D-06 DE=-2.62D-10 OVMax= 7.91D-06

 Cycle  26  Pass 1  IDiag  1:
 E= -228.428090514247     Delta-E=       -0.000000000014 Rises=F Damp=F
 DIIS: error= 5.68D-08 at cycle  17 NSaved=  17.
 NSaved=17 IEnMin=17 EnMin= -228.428090514247     IErMin=17 ErrMin= 5.68D-08
 ErrMax= 5.68D-08  0.00D+00 EMaxC= 1.00D-01 BMatC= 1.01D-12 BMatP= 5.73D-12
 IDIUse=1 WtCom= 1.00D+00 WtEn= 0.00D+00
 Coeff-Com: -0.438D-04 0.743D-04 0.135D-04-0.949D-04 0.706D-04 0.504D-03
 Coeff-Com: -0.621D-03-0.523D-03 0.144D-03 0.402D-02 0.521D-02-0.398D-01
 Coeff-Com:  0.179D-01 0.693D-01-0.112D+00-0.213D+00 0.127D+01
 Coeff:     -0.438D-04 0.743D-04 0.135D-04-0.949D-04 0.706D-04 0.504D-03
 Coeff:     -0.621D-03-0.523D-03 0.144D-03 0.402D-02 0.521D-02-0.398D-01
 Coeff:      0.179D-01 0.693D-01-0.112D+00-0.213D+00 0.127D+01
 Gap=     0.485 Goal=   None    Shift=    0.000
 Gap=     0.274 Goal=   None    Shift=    0.000
 RMSDP=1.35D-08 MaxDP=4.27D-07 DE=-1.44D-11 OVMax= 2.32D-06

 Cycle  27  Pass 1  IDiag  1:
 E= -228.428090514249     Delta-E=       -0.000000000001 Rises=F Damp=F
 DIIS: error= 2.06D-08 at cycle  18 NSaved=  18.
 NSaved=18 IEnMin=18 EnMin= -228.428090514249     IErMin=18 ErrMin= 2.06D-08
 ErrMax= 2.06D-08  0.00D+00 EMaxC= 1.00D-01 BMatC= 1.26D-13 BMatP= 1.01D-12
 IDIUse=1 WtCom= 1.00D+00 WtEn= 0.00D+00
 Coeff-Com: -0.116D-04 0.783D-04-0.932D-04-0.674D-05-0.336D-04 0.259D-03
 Coeff-Com:  0.419D-04-0.360D-03-0.977D-03 0.984D-03 0.628D-02-0.500D-02
 Coeff-Com: -0.198D-01 0.217D-01 0.499D-01-0.194D+00-0.380D-01 0.118D+01
 Coeff:     -0.116D-04 0.783D-04-0.932D-04-0.674D-05-0.336D-04 0.259D-03
 Coeff:      0.419D-04-0.360D-03-0.977D-03 0.984D-03 0.628D-02-0.500D-02
 Coeff:     -0.198D-01 0.217D-01 0.499D-01-0.194D+00-0.380D-01 0.118D+01
 Gap=     0.485 Goal=   None    Shift=    0.000
 Gap=     0.274 Goal=   None    Shift=    0.000
 RMSDP=5.34D-09 MaxDP=1.49D-07 DE=-1.31D-12 OVMax= 8.49D-07

 SCF Done:  E(UwB97XD) =  -228.428090514     A.U. after   27 cycles
            NFock= 27  Conv=0.53D-08     -V/T= 2.0040
 <Sx>= 0.0000 <Sy>= 0.0000 <Sz>= 0.5000 <S**2>= 0.7575 S= 0.5037
 <L.S>= 0.000000000000E+00
 KE= 2.275280853338D+02 PE=-7.639526679496D+02 EE= 1.942293667221D+02
 Annihilation of the first spin contaminant:
 S**2 before annihilation     0.7575,   after     0.7500
 Leave Link  502 at Sat Aug 10 23:53:02 2019, MaxMem=  1835008000 cpu:             296.2 elap:              41.0
 (Enter /opt/g16/l508.exe)
 QCSCF skips out because SCF is already converged.
 Leave Link  508 at Sat Aug 10 23:53:02 2019, MaxMem=  1835008000 cpu:               0.0 elap:               0.0
 (Enter /opt/g16/l801.exe)
 DoSCS=F DFT=T ScalE2(SS,OS)=  1.000000  1.000000
 Range of M.O.s used for correlation:     1   142
 NBasis=   142 NAE=    16 NBE=    15 NFC=     0 NFV=     0
 NROrb=    142 NOA=    16 NOB=    15 NVA=   126 NVB=   127

 **** Warning!!: The largest alpha MO coefficient is  0.18592489D+02


 **** Warning!!: The largest beta MO coefficient is  0.18572611D+02

 Leave Link  801 at Sat Aug 10 23:53:02 2019, MaxMem=  1835008000 cpu:               0.3 elap:               0.0
 (Enter /opt/g16/l1101.exe)
 Using compressed storage, NAtomX=     7.
 Will process      8 centers per pass.
   1 Symmetry operations used in ECPInt.
 ECPInt:  NShTT=    1596 NPrTT=    4948 LenC2=    1589 LenP2D=    4263.
 LDataN:  DoStor=T MaxTD1= 7 Len=  274
 R6Disp: Adding Grimme-D2 dispersion energy 1st derivatives to the gradient.
 Leave Link 1101 at Sat Aug 10 23:53:03 2019, MaxMem=  1835008000 cpu:               6.6 elap:               0.8
 (Enter /opt/g16/l1102.exe)
 Symmetrizing basis deriv contribution to polar:
 IMax=3 JMax=2 DiffMx= 0.00D+00
 Leave Link 1102 at Sat Aug 10 23:53:03 2019, MaxMem=  1835008000 cpu:               0.3 elap:               0.0
 (Enter /opt/g16/l1110.exe)
 Forming Gx(P) for the SCF density, NAtomX=     7.
 Integral derivatives from FoFJK, PRISM(SPDF).
 Do as many integral derivatives as possible in FoFJK.
 G2DrvN: MDV=    1835007304.
 G2DrvN: will do     8 centers at a time, making    1 passes.
 Calling FoFCou, ICntrl=  3107 FMM=F I1Cent=   0 AccDes= 1.00D-12.
 FoFJK:  IHMeth= 1 ICntrl=    3107 DoSepK=T KAlg= 0 I1Cent=           0 FoldK=F
 IRaf=         1 NMat=       1 IRICut=       1 DoRegI=T DoRafI=F ISym2E= 0 IDoP0=0 IntGTp=1.
 FoFCou: FMM=F IPFlag=           0 FMFlag=      100000 FMFlg1=           0
         NFxFlg=           0 DoJE=F BraDBF=F KetDBF=F FulRan=T
         wScrn=  0.000000 ICntrl=      3507 IOpCl=  0 I1Cent=           0 NGrid=           0
         NMat0=    1 NMatS0=      1 NMatT0=    0 NMatD0=    1 NMtDS0=    0 NMtDT0=    0
 Symmetry not used in FoFCou.
 End of G2Drv F.D. properties file   721 does not exist.
 End of G2Drv F.D. properties file   722 does not exist.
 End of G2Drv F.D. properties file   788 does not exist.
 Leave Link 1110 at Sat Aug 10 23:53:48 2019, MaxMem=  1835008000 cpu:             357.8 elap:              44.8
 (Enter /opt/g16/l1002.exe)
 Minotr:  UHF open shell wavefunction.
          IDoAtm=1111111
          Direct CPHF calculation.
          Differentiating once with respect to electric field.
                with respect to dipole field.
          Differentiating once with respect to nuclear coordinates.
          Requested convergence is 1.0D-08 RMS, and 1.0D-07 maximum.
          Secondary convergence is 1.0D-12 RMS, and 1.0D-12 maximum.
          NewPWx=T KeepS1=F KeepF1=F KeepIn=T MapXYZ=F SortEE=F KeepMc=T.
         2087 words used for storage of precomputed grid.
 Keep R1 and R2 ints in memory in canonical form, NReq=214077820.
 FoFCou: FMM=F IPFlag=           0 FMFlag=           0 FMFlg1=           0
         NFxFlg=           0 DoJE=F BraDBF=F KetDBF=F FulRan=T
         wScrn=  0.000000 ICntrl=       600 IOpCl=  0 I1Cent=           0 NGrid=           0
         NMat0=    1 NMatS0=  10153 NMatT0=    0 NMatD0=    1 NMtDS0=    0 NMtDT0=    0
 Symmetry not used in FoFCou.
 Two-electron integral symmetry not used.
          MDV=    1835008000 using IRadAn=       1.
          Solving linear equations simultaneously, MaxMat=       0.
          There are    24 degrees of freedom in the 1st order CPHF.  IDoFFX=6 NUNeed=     3.
     21 vectors produced by pass  0 Test12= 1.63D-14 4.17D-09 XBig12= 5.95D+01 5.42D+00.
 AX will form    21 AO Fock derivatives at one time.
     21 vectors produced by pass  1 Test12= 1.63D-14 4.17D-09 XBig12= 3.00D+01 1.89D+00.
     21 vectors produced by pass  2 Test12= 1.63D-14 4.17D-09 XBig12= 3.97D+00 4.92D-01.
     21 vectors produced by pass  3 Test12= 1.63D-14 4.17D-09 XBig12= 7.40D-02 6.47D-02.
     21 vectors produced by pass  4 Test12= 1.63D-14 4.17D-09 XBig12= 1.24D-03 1.10D-02.
     21 vectors produced by pass  5 Test12= 1.63D-14 4.17D-09 XBig12= 1.20D-05 5.17D-04.
     21 vectors produced by pass  6 Test12= 1.63D-14 4.17D-09 XBig12= 1.03D-07 8.29D-05.
     14 vectors produced by pass  7 Test12= 1.63D-14 4.17D-09 XBig12= 1.41D-09 7.34D-06.
      5 vectors produced by pass  8 Test12= 1.63D-14 4.17D-09 XBig12= 1.32D-11 6.37D-07.
      3 vectors produced by pass  9 Test12= 1.63D-14 4.17D-09 XBig12= 1.59D-13 6.92D-08.
      1 vectors produced by pass 10 Test12= 1.63D-14 4.17D-09 XBig12= 1.87D-15 9.84D-09.
 InvSVY:  IOpt=1 It=  1 EMax= 1.42D-14
 Solved reduced A of dimension   170 with    24 vectors.
 FullF1:  Do perturbations      1 to       3.
 Isotropic polarizability for W=    0.000000       35.39 Bohr**3.
 End of Minotr F.D. properties file   721 does not exist.
 End of Minotr F.D. properties file   722 does not exist.
 End of Minotr F.D. properties file   788 does not exist.
 Leave Link 1002 at Sat Aug 10 23:54:55 2019, MaxMem=  1835008000 cpu:             541.0 elap:              67.8
 (Enter /opt/g16/l601.exe)
 Copying SCF densities to generalized density rwf, IOpCl= 1 IROHF=0.

 **********************************************************************

            Population analysis using the SCF Density.

 **********************************************************************

 Orbital symmetries:
 Alpha Orbitals:
       Occupied  (A) (A) (A) (A) (A) (A) (A) (A) (A) (A) (A) (A)
                 (A) (A) (A) (A)
       Virtual   (A) (A) (A) (A) (A) (A) (A) (A) (A) (A) (A) (A)
                 (A) (A) (A) (A) (A) (A) (A) (A) (A) (A) (A) (A)
                 (A) (A) (A) (A) (A) (A) (A) (A) (A) (A) (A) (A)
                 (A) (A) (A) (A) (A) (A) (A) (A) (A) (A) (A) (A)
                 (A) (A) (A) (A) (A) (A) (A) (A) (A) (A) (A) (A)
                 (A) (A) (A) (A) (A) (A) (A) (A) (A) (A) (A) (A)
                 (A) (A) (A) (A) (A) (A) (A) (A) (A) (A) (A) (A)
                 (A) (A) (A) (A) (A) (A) (A) (A) (A) (A) (A) (A)
                 (A) (A) (A) (A) (A) (A) (A) (A) (A) (A) (A) (A)
                 (A) (A) (A) (A) (A) (A) (A) (A) (A) (A) (A) (A)
                 (A) (A) (A) (A) (A) (A)
 Beta  Orbitals:
       Occupied  (A) (A) (A) (A) (A) (A) (A) (A) (A) (A) (A) (A)
                 (A) (A) (A)
       Virtual   (A) (A) (A) (A) (A) (A) (A) (A) (A) (A) (A) (A)
                 (A) (A) (A) (A) (A) (A) (A) (A) (A) (A) (A) (A)
                 (A) (A) (A) (A) (A) (A) (A) (A) (A) (A) (A) (A)
                 (A) (A) (A) (A) (A) (A) (A) (A) (A) (A) (A) (A)
                 (A) (A) (A) (A) (A) (A) (A) (A) (A) (A) (A) (A)
                 (A) (A) (A) (A) (A) (A) (A) (A) (A) (A) (A) (A)
                 (A) (A) (A) (A) (A) (A) (A) (A) (A) (A) (A) (A)
                 (A) (A) (A) (A) (A) (A) (A) (A) (A) (A) (A) (A)
                 (A) (A) (A) (A) (A) (A) (A) (A) (A) (A) (A) (A)
                 (A) (A) (A) (A) (A) (A) (A) (A) (A) (A) (A) (A)
                 (A) (A) (A) (A) (A) (A) (A)
 The electronic state is 2-A.
 Alpha  occ. eigenvalues --  -19.31064 -19.31063 -10.44130 -10.32026  -1.25277
 Alpha  occ. eigenvalues --   -1.12947  -0.88168  -0.66532  -0.61628  -0.59362
 Alpha  occ. eigenvalues --   -0.59262  -0.52187  -0.50830  -0.44862  -0.43035
 Alpha  occ. eigenvalues --   -0.42582
 Alpha virt. eigenvalues --    0.05950   0.10868   0.16846   0.18169   0.20145
 Alpha virt. eigenvalues --    0.22260   0.25678   0.27485   0.29402   0.32385
 Alpha virt. eigenvalues --    0.38222   0.44238   0.44747   0.44979   0.47373
 Alpha virt. eigenvalues --    0.50349   0.51536   0.56082   0.56535   0.58547
 Alpha virt. eigenvalues --    0.62663   0.65344   0.66362   0.68759   0.74825
 Alpha virt. eigenvalues --    0.81500   0.81781   0.90555   0.95563   0.95737
 Alpha virt. eigenvalues --    0.99770   1.05538   1.09638   1.13394   1.21870
 Alpha virt. eigenvalues --    1.33862   1.44153   1.47695   1.53085   1.55493
 Alpha virt. eigenvalues --    1.58149   1.58278   1.61352   1.63314   1.64874
 Alpha virt. eigenvalues --    1.71554   1.76469   1.91185   1.93227   1.99033
 Alpha virt. eigenvalues --    2.01261   2.01380   2.10081   2.16817   2.19574
 Alpha virt. eigenvalues --    2.23827   2.26116   2.32487   2.37071   2.39712
 Alpha virt. eigenvalues --    2.47043   2.53797   2.59346   2.59637   2.72569
 Alpha virt. eigenvalues --    2.75236   2.78097   2.81613   2.92153   2.94009
 Alpha virt. eigenvalues --    2.97668   2.99216   3.03340   3.04711   3.06647
 Alpha virt. eigenvalues --    3.13190   3.16841   3.20977   3.25676   3.30310
 Alpha virt. eigenvalues --    3.34021   3.40116   3.50523   3.56674   3.57023
 Alpha virt. eigenvalues --    3.62934   3.70063   3.84487   3.88892   3.93344
 Alpha virt. eigenvalues --    4.03191   4.03593   4.28562   4.39450   4.42949
 Alpha virt. eigenvalues --    4.53093   4.53543   4.71881   5.17644   5.18850
 Alpha virt. eigenvalues --    5.19549   5.20635   5.27649   5.49823   5.62691
 Alpha virt. eigenvalues --    5.76116   5.94193   5.99778   6.15901   6.21704
 Alpha virt. eigenvalues --    6.33558   6.36025   6.40645   6.45711   6.53064
 Alpha virt. eigenvalues --    6.73402   6.83186   6.85444   6.95552   7.06676
 Alpha virt. eigenvalues --    7.07936   7.13195  22.39033  23.53674  43.76368
 Alpha virt. eigenvalues --   43.79872
  Beta  occ. eigenvalues --  -19.29735 -19.29734 -10.44233 -10.32033  -1.22364
  Beta  occ. eigenvalues --   -1.09111  -0.87884  -0.65109  -0.58812  -0.57930
  Beta  occ. eigenvalues --   -0.57188  -0.51440  -0.50323  -0.40635  -0.38482
  Beta virt. eigenvalues --   -0.11119   0.06327   0.10894   0.16881   0.18246
  Beta virt. eigenvalues --    0.20208   0.22584   0.26326   0.27462   0.29454
  Beta virt. eigenvalues --    0.32391   0.38617   0.44358   0.44979   0.45146
  Beta virt. eigenvalues --    0.47496   0.50642   0.51550   0.56474   0.57513
  Beta virt. eigenvalues --    0.58894   0.64287   0.65792   0.67680   0.69194
  Beta virt. eigenvalues --    0.75053   0.81611   0.82351   0.91281   0.95864
  Beta virt. eigenvalues --    0.95880   1.00452   1.05841   1.09740   1.13645
  Beta virt. eigenvalues --    1.22451   1.35297   1.44582   1.47521   1.53335
  Beta virt. eigenvalues --    1.55519   1.58284   1.58837   1.61734   1.65714
  Beta virt. eigenvalues --    1.65874   1.72284   1.76893   1.91476   1.94736
  Beta virt. eigenvalues --    1.99389   2.01763   2.03996   2.10930   2.17385
  Beta virt. eigenvalues --    2.19947   2.24602   2.26971   2.33869   2.37863
  Beta virt. eigenvalues --    2.39990   2.47307   2.55758   2.59470   2.59885
  Beta virt. eigenvalues --    2.72773   2.76920   2.78926   2.81921   2.92312
  Beta virt. eigenvalues --    2.94267   2.98472   2.99503   3.03474   3.05802
  Beta virt. eigenvalues --    3.07454   3.14877   3.17099   3.21124   3.25925
  Beta virt. eigenvalues --    3.31017   3.35216   3.40543   3.50861   3.57151
  Beta virt. eigenvalues --    3.57321   3.65266   3.70853   3.84806   3.89127
  Beta virt. eigenvalues --    3.93453   4.03697   4.03821   4.29345   4.40104
  Beta virt. eigenvalues --    4.43185   4.53618   4.54290   4.72064   5.21312
  Beta virt. eigenvalues --    5.22413   5.23003   5.23999   5.29588   5.52768
  Beta virt. eigenvalues --    5.65251   5.78938   5.95056   6.02303   6.17138
  Beta virt. eigenvalues --    6.23443   6.38005   6.39841   6.44530   6.49344
  Beta virt. eigenvalues --    6.57752   6.77158   6.84930   6.86596   6.98730
  Beta virt. eigenvalues --    7.08896   7.11852   7.15551  22.39031  23.53576
  Beta virt. eigenvalues --   43.77688  43.81182
          Condensed to atoms (all electrons):
               1          2          3          4          5          6
     1  O    7.882399  -0.064170  -0.077982   0.488751   0.007055   0.000461
     2  O   -0.064170   7.882414  -0.077985   0.488731   0.003920   0.000461
     3  C   -0.077982  -0.077985   5.028610   0.326973   0.388290   0.369692
     4  C    0.488751   0.488731   0.326973   4.374220  -0.026660  -0.003454
     5  H    0.007055   0.003920   0.388290  -0.026660   0.511696  -0.015728
     6  H    0.000461   0.000461   0.369692  -0.003454  -0.015728   0.511945
     7  H    0.003919   0.007055   0.388290  -0.026659  -0.016720  -0.015728
               7
     1  O    0.003919
     2  O    0.007055
     3  C    0.388290
     4  C   -0.026659
     5  H   -0.016720
     6  H   -0.015728
     7  H    0.511696
          Atomic-Atomic Spin Densities.
               1          2          3          4          5          6
     1  O    0.606637  -0.058089   0.016073  -0.018189  -0.004237  -0.000292
     2  O   -0.058089   0.606685   0.016074  -0.018190  -0.000726  -0.000292
     3  C    0.016073   0.016074  -0.066798   0.013361   0.011248   0.002335
     4  C   -0.018189  -0.018190   0.013361  -0.056540  -0.003639  -0.000769
     5  H   -0.004237  -0.000726   0.011248  -0.003639   0.001292  -0.000235
     6  H   -0.000292  -0.000292   0.002335  -0.000769  -0.000235  -0.001934
     7  H   -0.000726  -0.004237   0.011247  -0.003639  -0.002158  -0.000235
               7
     1  O   -0.000726
     2  O   -0.004237
     3  C    0.011247
     4  C   -0.003639
     5  H   -0.002158
     6  H   -0.000235
     7  H    0.001292
 Mulliken charges and spin densities:
               1          2
     1  O   -0.240432   0.541177
     2  O   -0.240425   0.541223
     3  C   -0.345888   0.003539
     4  C    0.378099  -0.087606
     5  H    0.148147   0.001545
     6  H    0.152352  -0.001423
     7  H    0.148147   0.001545
 Sum of Mulliken charges =  -0.00000   1.00000
 Mulliken charges and spin densities with hydrogens summed into heavy atoms:
               1          2
     1  O   -0.240432   0.541177
     2  O   -0.240425   0.541223
     3  C    0.102758   0.005206
     4  C    0.378099  -0.087606
 APT charges:
               1
     1  O   -0.121919
     2  O   -0.121859
     3  C    0.012424
     4  C    0.070247
     5  H    0.051136
     6  H    0.058835
     7  H    0.051137
 Sum of APT charges =  -0.00000
 APT charges with hydrogens summed into heavy atoms:
               1
     1  O   -0.121919
     2  O   -0.121859
     3  C    0.173532
     4  C    0.070247
 Electronic spatial extent (au):  <R**2>=            235.2929
 Charge=             -0.0000 electrons
 Dipole moment (field-independent basis, Debye):
    X=             -3.3354    Y=              0.0000    Z=              0.0249  Tot=              3.3355
 Quadrupole moment (field-independent basis, Debye-Ang):
   XX=            -22.8416   YY=            -25.0967   ZZ=            -21.9108
   XY=              0.0000   XZ=             -0.0669   YZ=             -0.0000
 Traceless Quadrupole moment (field-independent basis, Debye-Ang):
   XX=              0.4414   YY=             -1.8137   ZZ=              1.3723
   XY=              0.0000   XZ=             -0.0669   YZ=             -0.0000
 Octapole moment (field-independent basis, Debye-Ang**2):
  XXX=             -0.1610  YYY=              0.0000  ZZZ=              0.9127  XYY=             -2.4659
  XXY=              0.0001  XXZ=              0.0834  XZZ=              0.2085  YZZ=              0.0001
  YYZ=             -0.8009  XYZ=              0.0000
 Hexadecapole moment (field-independent basis, Debye-Ang**3):
 XXXX=           -161.5210 YYYY=            -96.4344 ZZZZ=            -25.3016 XXXY=              0.0001
 XXXZ=             -0.0656 YYYX=              0.0001 YYYZ=              0.0000 ZZZX=             -1.6826
 ZZZY=             -0.0000 XXYY=            -42.8542 XXZZ=            -29.4583 YYZZ=            -20.4423
 XXYZ=             -0.0000 YYXZ=              1.5452 ZZXY=             -0.0002
 N-N= 1.137671253795D+02 E-N=-7.639526680389D+02  KE= 2.275280853338D+02
  Exact polarizability:  31.863  -0.000  51.678  -0.182   0.000  22.618
 Approx polarizability:  31.265  -0.000  55.325  -0.198   0.000  24.699
                          Isotropic Fermi Contact Couplings
        Atom                 a.u.       MegaHertz       Gauss      10(-4) cm-1
     1  O(17)              0.04769     -28.90826     -10.31519      -9.64276
     2  O(17)              0.04769     -28.90956     -10.31565      -9.64319
     3  C(13)             -0.01171     -13.16242      -4.69668      -4.39051
     4  C(13)             -0.03627     -40.77434     -14.54930     -13.60085
     5  H(1)               0.00256      11.43263       4.07945       3.81352
     6  H(1)              -0.00077      -3.44313      -1.22859      -1.14850
     7  H(1)               0.00256      11.43167       4.07910       3.81319
 --------------------------------------------------------
       Center         ----  Spin Dipole Couplings  ----
                      3XX-RR        3YY-RR        3ZZ-RR
 --------------------------------------------------------
     1   Atom        0.152994      0.961639     -1.114633
     2   Atom        0.153155      0.961559     -1.114714
     3   Atom        0.002144      0.011822     -0.013966
     4   Atom        0.025729      0.066068     -0.091797
     5   Atom        0.008244     -0.003192     -0.005052
     6   Atom        0.005538     -0.002350     -0.003189
     7   Atom        0.008244     -0.003192     -0.005052
 --------------------------------------------------------
                        XY            XZ            YZ
 --------------------------------------------------------
     1   Atom        1.705360      0.036198      0.047862
     2   Atom       -1.705525      0.036203     -0.047864
     3   Atom        0.000001      0.001719     -0.000000
     4   Atom        0.000000      0.001267      0.000000
     5   Atom        0.001339      0.003358      0.001302
     6   Atom        0.000000     -0.004494     -0.000000
     7   Atom       -0.001339      0.003359     -0.001302
 --------------------------------------------------------


 ---------------------------------------------------------------------------------
              Anisotropic Spin Dipole Couplings in Principal Axis System
 ---------------------------------------------------------------------------------

       Atom             a.u.   MegaHertz   Gauss  10(-4) cm-1        Axes

              Baa    -1.1953    86.494    30.863    28.851  0.7842 -0.6203  0.0162
     1 O(17)  Bbb    -1.1157    80.729    28.806    26.928 -0.0235 -0.0037  0.9997
              Bcc     2.3110  -167.223   -59.669   -55.779  0.6201  0.7843  0.0175
 
              Baa    -1.1954    86.501    30.866    28.853  0.7841  0.6204  0.0162
     2 O(17)  Bbb    -1.1157    80.734    28.808    26.930 -0.0235  0.0037  0.9997
              Bcc     2.3112  -167.235   -59.674   -55.784 -0.6201  0.7843 -0.0175
 
              Baa    -0.0141    -1.898    -0.677    -0.633 -0.1049  0.0000  0.9945
     3 C(13)  Bbb     0.0023     0.312     0.111     0.104  0.9945 -0.0001  0.1049
              Bcc     0.0118     1.586     0.566     0.529  0.0001  1.0000  0.0000
 
              Baa    -0.0918   -12.320    -4.396    -4.110 -0.0108 -0.0000  0.9999
     4 C(13)  Bbb     0.0257     3.454     1.233     1.152  0.9999 -0.0000  0.0108
              Bcc     0.0661     8.866     3.163     2.957  0.0000  1.0000  0.0000
 
              Baa    -0.0062    -3.296    -1.176    -1.099 -0.1864 -0.3213  0.9285
     5 H(1)   Bbb    -0.0031    -1.641    -0.585    -0.547 -0.1957  0.9382  0.2853
              Bcc     0.0093     4.936     1.761     1.647  0.9628  0.1285  0.2377
 
              Baa    -0.0051    -2.715    -0.969    -0.906  0.3895  0.0000  0.9210
     6 H(1)   Bbb    -0.0023    -1.254    -0.447    -0.418 -0.0000  1.0000 -0.0000
              Bcc     0.0074     3.969     1.416     1.324  0.9210  0.0000 -0.3895
 
              Baa    -0.0062    -3.296    -1.176    -1.099 -0.1864  0.3213  0.9285
     7 H(1)   Bbb    -0.0031    -1.641    -0.586    -0.547  0.1956  0.9382 -0.2854
              Bcc     0.0093     4.937     1.762     1.647  0.9628 -0.1284  0.2378
 

 ---------------------------------------------------------------------------------

 No NMR shielding tensors so no spin-rotation constants.
 Leave Link  601 at Sat Aug 10 23:54:56 2019, MaxMem=  1835008000 cpu:               4.8 elap:               0.6
 (Enter /opt/g16/l701.exe)
 SCFChk:  SCF convergence  5.34D-09 required  1.00D-08
 ... and contract with generalized density number  0.
 Compute integral second derivatives.
 R6Disp: Adding Grimme-D2 dispersion energy 2nd derivatives to the Hessian.
 Entering OneElI...
 Calculate overlap and kinetic energy integrals
    NBasis = 162  MinDer = 2  MaxDer = 2
 Requested accuracy = 0.1000D-14
 PrmmSu-InSpLW:  IPartL=    0 NPrtUS=    8 NPrtUL=    1 DoSpLW=F IThBeg=    0 IThEnd=    7 NThAct=    8.
 PrSmSu:  IncTry=   512 NBBP=           1593 NTPThr=   100 NPartT=    8 Incr=           1 LDynOK=F GPUOK=F.
 PrsmSu:  NPrtUS=   8 ThrOK=T IAlg=2 LenDen=           0 ISkipM=0 DoSpLW=F IThBeg=    0 IThEnd=    7.
 Prism:   IPart=     0 DynPar=F LinDyn=F Incr=           1.
 PRISM was handed   229318299 working-precision words and  1593 shell-pairs
 PRISM was handed   229318299 working-precision words and  1593 shell-pairs
 PRISM was handed   229318299 working-precision words and  1593 shell-pairs
 PRISM was handed   229318299 working-precision words and  1593 shell-pairs
 PRISM was handed   229318299 working-precision words and  1593 shell-pairs
 PRISM was handed   229318299 working-precision words and  1593 shell-pairs
 PRISM was handed   229318299 working-precision words and  1593 shell-pairs
 PRISM was handed   229318299 working-precision words and  1593 shell-pairs
 IPart=  7 NShTot=         187 NBatch=          30 AvBLen=         6.2
 IPart=  4 NShTot=         190 NBatch=          30 AvBLen=         6.3
 IPart=  0 NShTot=         218 NBatch=          43 AvBLen=         5.1
 IPart=  6 NShTot=         187 NBatch=          30 AvBLen=         6.2
 IPart=  1 NShTot=         215 NBatch=          43 AvBLen=         5.0
 IPart=  2 NShTot=         207 NBatch=          41 AvBLen=         5.0
 IPart=  5 NShTot=         188 NBatch=          30 AvBLen=         6.3
 IPart=  3 NShTot=         201 NBatch=          35 AvBLen=         5.7
 PrSmSu:  NxtVal=              9.
 Entering OneElI...
 Calculate potential energy integrals
    NBasis = 162  MinDer = 2  MaxDer = 2
 Requested accuracy = 0.1000D-14
 PrmmSu-InSpLW:  IPartL=    0 NPrtUS=    8 NPrtUL=    1 DoSpLW=F IThBeg=    0 IThEnd=    7 NThAct=    8.
 PrSmSu:  IncTry=   512 NBBP=          11025 NTPThr=   100 NPartT=    8 Incr=          13 LDynOK=F GPUOK=F.
 PrsmSu:  NPrtUS=   8 ThrOK=T IAlg=2 LenDen=           0 ISkipM=0 DoSpLW=F IThBeg=    0 IThEnd=    7.
 Prism:   IPart=     0 DynPar=F LinDyn=F Incr=          13.
 PRISM was handed   229324105 working-precision words and  1575 shell-pairs
 PRISM was handed   229324105 working-precision words and  1575 shell-pairs
 PRISM was handed   229324105 working-precision words and  1575 shell-pairs
 PRISM was handed   229324105 working-precision words and  1575 shell-pairs
 PRISM was handed   229324105 working-precision words and  1575 shell-pairs
 PRISM was handed   229324105 working-precision words and  1575 shell-pairs
 PRISM was handed   229324105 working-precision words and  1575 shell-pairs
 PRISM was handed   229324105 working-precision words and  1575 shell-pairs
 IPart=  6 NShTot=        1274 NBatch=         182 AvBLen=         7.0
 IPart=  2 NShTot=        1428 NBatch=         204 AvBLen=         7.0
 IPart=  3 NShTot=        1407 NBatch=         201 AvBLen=         7.0
 IPart=  5 NShTot=        1316 NBatch=         188 AvBLen=         7.0
 IPart=  4 NShTot=        1337 NBatch=         191 AvBLen=         7.0
 IPart=  1 NShTot=        1491 NBatch=         213 AvBLen=         7.0
 IPart=  7 NShTot=        1260 NBatch=         180 AvBLen=         7.0
 IPart=  0 NShTot=        1512 NBatch=         216 AvBLen=         7.0
 PrSmSu:  NxtVal=            105.
   1 Symmetry operations used in ECPInt.
 ECPInt:  NShTT=    1596 NPrTT=    4948 LenC2=    1589 LenP2D=    4263.
 LDataN:  DoStor=F MaxTD1= 8 Len=  415
 LDataN:  DoStor=T MaxTD1= 8 Len=  415
 ECPSu:  NPrtUS=   8 ThrOK=T ISkipM=0 DoSpLW=F IThBeg=    0 IThEnd=    7.
 Polarizability after L701:
                1             2             3 
      1  0.318627D+02
      2 -0.227038D-03  0.516775D+02
      3 -0.182460D+00  0.210625D-05  0.226181D+02
 Dipole Derivatives after L701:
                 1             2             3             4             5 
      1  -0.593473D+00  0.163145D+00  0.493725D-03 -0.593451D+00 -0.163151D+00
      2  -0.351536D+00  0.502899D+00 -0.901676D-02  0.351456D+00  0.503047D+00
      3   0.902419D-02 -0.348112D-02 -0.275184D+00  0.902415D-02  0.348146D-02
                 6             7             8             9            10 
      1   0.494209D-03 -0.401331D+00  0.261263D-05  0.768511D-01  0.141273D+01
      2   0.901597D-02 -0.403767D-05  0.417738D+00  0.268263D-05  0.879314D-04
      3  -0.275173D+00  0.272753D-01  0.000000D+00  0.208668D-01 -0.372418D-01
                11            12            13            14            15 
      1   0.940948D-05 -0.239151D-01  0.578634D-01 -0.210344D-01 -0.333731D-01
      2  -0.158455D+01  0.000000D+00  0.129401D+00  0.162588D-01 -0.589835D-01
      3   0.000000D+00  0.382552D+00 -0.248298D-02 -0.526566D-01  0.792850D-01
                16            17            18            19            20 
      1   0.597919D-01  0.000000D+00  0.128239D-01  0.578663D-01  0.210297D-01
      2  -0.511804D-05  0.128339D+00 -0.449310D-05 -0.129399D+00  0.162643D-01
      3  -0.311669D-02 -0.394940D-05 -0.116260D-01 -0.248218D-02  0.526599D-01
                21 
      1  -0.333746D-01
      2   0.589855D-01
      3   0.792797D-01
 Hessian after L701:
                1             2             3             4             5 
      1  0.760052D+01
      2  0.688396D+01  0.103238D+01
      3 -0.747588D-01  0.934683D-01  0.139147D+02
      4 -0.906034D+00  0.106580D+00 -0.362602D-02  0.760068D+01
      5 -0.106589D+00  0.179538D+01 -0.127294D-02 -0.688363D+01  0.103177D+01
      6 -0.362626D-02  0.127366D-02 -0.364744D+00 -0.747586D-01 -0.934739D-01
      7  0.691420D+00 -0.206345D+00  0.213418D-01  0.691385D+00  0.206365D+00
      8 -0.228701D+00 -0.206049D+00  0.162959D-01  0.228720D+00 -0.206033D+00
      9  0.772005D-02  0.174743D-01 -0.183654D+00  0.772234D-02 -0.174725D-01
     10 -0.769026D+01 -0.657176D+01  0.508778D-01 -0.769039D+01  0.657142D+01
     11 -0.645048D+01 -0.256642D+01 -0.109316D+00  0.645014D+01 -0.256583D+01
     12  0.644914D-01 -0.113886D+00 -0.132824D+02  0.644880D-01  0.113889D+00
     13  0.173330D+00 -0.539224D-01  0.386151D-01  0.521766D-01  0.972364D-01
     14  0.574238D-01 -0.910354D-01  0.100979D-01  0.115312D+00  0.633761D-01
     15  0.772338D-01 -0.145132D-01 -0.646028D-01  0.506026D-01  0.456547D-01
     16  0.788498D-01 -0.612780D-01 -0.712887D-01  0.788525D-01  0.612783D-01
     17 -0.403075D-01 -0.276203D-01  0.240062D-01  0.403042D-01 -0.276243D-01
     18 -0.121669D+00  0.618406D-01  0.102725D-01 -0.121670D+00 -0.618401D-01
     19  0.521768D-01 -0.972340D-01  0.388388D-01  0.173325D+00  0.539260D-01
     20 -0.115309D+00  0.633706D-01 -0.332797D-01 -0.574183D-01 -0.910355D-01
     21  0.506086D-01 -0.456582D-01 -0.295295D-01  0.772421D-01  0.145160D-01
                6             7             8             9            10 
      6  0.139142D+02
      7  0.213462D-01  0.736015D+01
      8 -0.162934D-01 -0.400583D-04  0.123058D+02
      9 -0.183645D+00 -0.621831D-01  0.144561D-04  0.123036D+02
     10  0.508742D-01 -0.136248D+00  0.820779D-05 -0.494653D-01  0.154199D+02
     11  0.109319D+00  0.473749D-05 -0.557268D+01  0.000000D+00  0.343411D-03
     12 -0.132820D+02 -0.728044D-01  0.000000D+00 -0.542895D+01  0.429678D-01
     13  0.388353D-01 -0.286158D+01  0.761463D+00  0.403834D+00  0.198824D-01
     14  0.332776D-01  0.607140D+00 -0.163835D+01  0.810994D+00  0.893257D-02
     15 -0.295328D-01  0.321368D+00  0.821461D+00 -0.267103D+01  0.215674D-02
     16 -0.712896D-01 -0.288353D+01 -0.184728D-04 -0.711503D+00  0.572562D-01
     17 -0.240046D-01 -0.142907D-04 -0.304427D+01  0.467957D-04 -0.241387D-05
     18  0.102721D-01 -0.550467D+00  0.479270D-04 -0.116539D+01 -0.995712D-01
     19  0.386188D-01 -0.286160D+01 -0.761431D+00  0.403875D+00  0.198860D-01
     20 -0.100984D-01 -0.607110D+00 -0.163845D+01 -0.811057D+00 -0.893777D-02
     21 -0.646002D-01  0.321398D+00 -0.821526D+00 -0.267093D+01  0.216000D-02
               11            12            13            14            15 
     11  0.107714D+02
     12 -0.335268D-05  0.320070D+02
     13 -0.409329D-01 -0.463199D-01  0.253636D+01
     14  0.474346D-02 -0.649019D-02 -0.782447D+00  0.173105D+01
     15  0.687301D-03 -0.490037D-02 -0.446062D+00 -0.800334D+00  0.277147D+01
     16  0.000000D+00 -0.650117D-02  0.373890D-01  0.192185D-02 -0.150448D-01
     17 -0.759817D-01  0.189846D-05  0.103198D-01  0.114229D-01 -0.745485D-01
     18  0.193048D-05 -0.386944D-02  0.135247D-02 -0.259592D-01 -0.449464D-01
     19  0.409273D-01 -0.463217D-01  0.424441D-01 -0.828344D-02  0.974502D-02
     20  0.474268D-02  0.648820D-02  0.828355D-02 -0.812088D-01  0.215928D-01
     21 -0.689604D-03 -0.490375D-02  0.974448D-02 -0.215856D-01  0.435408D-01
               16            17            18            19            20 
     16  0.259379D+01
     17  0.200014D-04  0.315264D+01
     18  0.890672D+00 -0.468926D-04  0.123862D+01
     19  0.373892D-01 -0.103199D-01  0.135307D-02  0.253638D+01
     20 -0.192291D-02  0.114292D-01  0.259557D-01  0.782415D+00  0.173115D+01
     21 -0.150443D-01  0.745450D-01 -0.449513D-01 -0.446109D+00  0.800399D+00
               21 
     21  0.277138D+01
 Leave Link  701 at Sat Aug 10 23:54:57 2019, MaxMem=  1835008000 cpu:               7.6 elap:               1.0
 (Enter /opt/g16/l702.exe)
 L702 exits ... SP integral derivatives will be done elsewhere.
 Leave Link  702 at Sat Aug 10 23:54:57 2019, MaxMem=  1835008000 cpu:               0.3 elap:               0.0
 (Enter /opt/g16/l703.exe)
 Integral derivatives from FoFJK, PRISM(SPDF).
 Compute integral second derivatives, UseDBF=F ICtDFT=           0.
 ICntrl=    100127.
 Calling FoFJK, ICntrl=    100127 FMM=F ISym2X=0 I1Cent= 0 IOpClX= 1 NMat=1 NMatS=1 NMatT=0.
 FoFJK:  IHMeth= 1 ICntrl=  100127 DoSepK=T KAlg= 0 I1Cent=           0 FoldK=F
 IRaf=         1 NMat=       1 IRICut=       1 DoRegI=T DoRafI=F ISym2E= 0 IDoP0=0 IntGTp=1.
 FoFCou: FMM=F IPFlag=           0 FMFlag=      100000 FMFlg1=         800
         NFxFlg=           0 DoJE=F BraDBF=F KetDBF=F FulRan=T
         wScrn=  0.000000 ICntrl=    100527 IOpCl=  0 I1Cent=           0 NGrid=           0
         NMat0=    1 NMatS0=      1 NMatT0=    0 NMatD0=    1 NMtDS0=    0 NMtDT0=    0
 Symmetry not used in FoFCou.
 FoFCou:  KetSym=F NOpSet=  1 NOpAb=1 NOp=  1.
 FoFCou:  CnvScl= 1.00D+00 Thresh= 1.00D-12 IAcrcy=      10.
 PrismS was handed  1834840571 working-precision words and  1586 shell-pairs
 FoFCou: LinMIO=F DoNuc=F BraDBF=F KetDBF=F HaveP=T PDBF=F HaveZ=T HaveW=F
         NIJTC =      10 NIJTAt=       0 NIJTCD=       0 NIJTT =      10
         IJTBeg=       1 IJTEnd=      10 KLTBeg=       1 KLTEnd=      10
         IPTBeg=       1 IPTEnd=      10 IPTBCv=       1 IPTECv=      10
         IZTBeg=       1 IZTEnd=      10 IZTBCv=       1 IZTECv=      10
         IWTBeg=      11 IWTEnd=      10 IWTBCv=      11 IWTECv=      10
         INTBeg=       1 INTEnd=       0 IFTBCv=       1 IFTECv=      10
 NCel replicated for PrismC:     1
 CoulSu-InSpLW:  IPartL=    0 NPrtUS=    8 NPrtUL=    1 DoSpLW=F IThBeg=    0 IThEnd=    7 NThAct=    8.
 CoulSu:  IncTry=  1024 NBBP=        1258491 NTPThr=   100 NPartT=    8 Incr=        1024 LDynOK=F GPUOK=F.
 CoulSu:  NPrtUS=   8 ThrOK=T IAlg=2 LenDen=           0 LWGrdD=           0 DoCopy=F ISkipM=0
          DoSpLW=F IThBeg=    0 IThEnd=    7.
 Enter PrismC:  IPart=  0 JobTyp=22 DoJE=F Cont=F.
 PrismC:  IPart=     0 DynPar=T LinDyn=F Incr=        1024 UseFst=F UseS4=T ISplat=2.
 PrismC was handed   229324284 working-precision words and  1586 shell-pairs
 Enter PrismC:  IPart=  6 JobTyp=22 DoJE=F Cont=F.
 PrismC:  IPart=     6 DynPar=T LinDyn=F Incr=        1024 UseFst=F UseS4=T ISplat=2.
 PrismC was handed   229324284 working-precision words and  1586 shell-pairs
 Enter PrismC:  IPart=  4 JobTyp=22 DoJE=F Cont=F.
 Enter PrismC:  IPart=  5 JobTyp=22 DoJE=F Cont=F.
 PrismC:  IPart=     4 DynPar=T LinDyn=F Incr=        1024 UseFst=F UseS4=T ISplat=2.
 PrismC was handed   229324284 working-precision words and  1586 shell-pairs
 Enter PrismC:  IPart=  3 JobTyp=22 DoJE=F Cont=F.
 PrismC:  IPart=     5 DynPar=T LinDyn=F Incr=        1024 UseFst=F UseS4=T ISplat=2.
 PrismC:  IPart=     3 DynPar=T LinDyn=F Incr=        1024 UseFst=F UseS4=T ISplat=2.
 PrismC was handed   229324284 working-precision words and  1586 shell-pairs
 PrismC was handed   229324284 working-precision words and  1586 shell-pairs
 Enter PrismC:  IPart=  1 JobTyp=22 DoJE=F Cont=F.
 Enter PrismC:  IPart=  7 JobTyp=22 DoJE=F Cont=F.
 PrismC:  IPart=     1 DynPar=T LinDyn=F Incr=        1024 UseFst=F UseS4=T ISplat=2.
 PrismC was handed   229324284 working-precision words and  1586 shell-pairs
 PrismC:  IPart=     7 DynPar=T LinDyn=F Incr=        1024 UseFst=F UseS4=T ISplat=2.
 PrismC was handed   229324284 working-precision words and  1586 shell-pairs
 Enter PrismC:  IPart=  2 JobTyp=22 DoJE=F Cont=F.
 PrismC:  IPart=     2 DynPar=T LinDyn=F Incr=        1024 UseFst=F UseS4=T ISplat=2.
 PrismC was handed   229324284 working-precision words and  1586 shell-pairs
 IPart=  7 NShTot=      149259 NShNF=      149259 NShFF=           0 MinMC=       7
           NShCPU=      149259 NBCPU=        4040 AvBCPU=        36.9
           NShGPU=           0 NBGPU=           0 AvBGPU=         0.0
 IPart=  5 NShTot=      149269 NShNF=      149269 NShFF=           0 MinMC=       7
           NShCPU=      149269 NBCPU=        4208 AvBCPU=        35.5
           NShGPU=           0 NBGPU=           0 AvBGPU=         0.0
 IPart=  6 NShTot=      146518 NShNF=      146518 NShFF=           0 MinMC=       7
           NShCPU=      146518 NBCPU=        4360 AvBCPU=        33.6
           NShGPU=           0 NBGPU=           0 AvBGPU=         0.0
 IPart=  0 NShTot=      140573 NShNF=      140573 NShFF=           0 MinMC=       7
           NShCPU=      140573 NBCPU=        3941 AvBCPU=        35.7
           NShGPU=           0 NBGPU=           0 AvBGPU=         0.0
 IPart=  1 NShTot=      141337 NShNF=      141337 NShFF=           0 MinMC=       7
           NShCPU=      141337 NBCPU=        3834 AvBCPU=        36.9
           NShGPU=           0 NBGPU=           0 AvBGPU=         0.0
 IPart=  3 NShTot=      142957 NShNF=      142957 NShFF=           0 MinMC=       7
           NShCPU=      142957 NBCPU=        3917 AvBCPU=        36.5
           NShGPU=           0 NBGPU=           0 AvBGPU=         0.0
 IPart=  2 NShTot=      154533 NShNF=      154533 NShFF=           0 MinMC=       7
           NShCPU=      154533 NBCPU=        3978 AvBCPU=        38.8
           NShGPU=           0 NBGPU=           0 AvBGPU=         0.0
 IPart=  4 NShTot=      151976 NShNF=      151976 NShFF=           0 MinMC=       7
           NShCPU=      151976 NBCPU=        4466 AvBCPU=        34.0
           NShGPU=           0 NBGPU=           0 AvBGPU=         0.0
 CoulSu:  NxtVal=        1339393 LenVP=      229324285 MinMC=       7.
 FoFCou: FMM=F IPFlag=           0 FMFlag=      100000 FMFlg1=         800
         NFxFlg=           0 DoJE=F BraDBF=F KetDBF=F FulRan=T
         wScrn=  0.000000 ICntrl=    100127 IOpCl=  1 I1Cent=           0 NGrid=           0
         NMat0=    1 NMatS0=      0 NMatT0=    1 NMatD0=    1 NMtDS0=    0 NMtDT0=    0
         CW=    0.222036    0.777964
         WU=    0.000000   12.500000
 Symmetry not used in FoFCou.
 FoFCou:  KetSym=F NOpSet=  1 NOpAb=1 NOp=  1.
 FoFCou:  CnvScl= 1.00D+00 Thresh= 1.00D-12 IAcrcy=      10.
 IniFok:  ToCart=T IDoP0=2 DoConv=F DoRafP=T DoAdj=T
 PrismS was handed  1834839024 working-precision words and  1586 shell-pairs
 FoFCou: LinMIO=F DoNuc=F BraDBF=F KetDBF=F HaveP=T PDBF=F HaveZ=T HaveW=F
         NIJTC =      10 NIJTAt=       0 NIJTCD=       0 NIJTT =      10
         IJTBeg=       1 IJTEnd=      10 KLTBeg=       1 KLTEnd=      10
         IPTBeg=       1 IPTEnd=      10 IPTBCv=       1 IPTECv=      10
         IZTBeg=       1 IZTEnd=      10 IZTBCv=       1 IZTECv=      10
         IWTBeg=      11 IWTEnd=      10 IWTBCv=      11 IWTECv=      10
         INTBeg=       1 INTEnd=       0 IFTBCv=       1 IFTECv=      10
 NCel replicated for PrismC:     1
 CoulSu-InSpLW:  IPartL=    0 NPrtUS=    8 NPrtUL=    1 DoSpLW=F IThBeg=    0 IThEnd=    7 NThAct=    8.
 CoulSu:  IncTry=  1024 NBBP=        1258491 NTPThr=   100 NPartT=    8 Incr=        1024 LDynOK=F GPUOK=F.
 CoulSu:  NPrtUS=   8 ThrOK=T IAlg=2 LenDen=           0 LWGrdD=           0 DoCopy=F ISkipM=0
          DoSpLW=F IThBeg=    0 IThEnd=    7.
 Enter PrismC:  IPart=  0 JobTyp=22 DoJE=F Cont=F.
 Linear combination for Coulomb/exchange, wScrn=  0.000000
 CW=    0.222036    0.777964
 WU=    0.000000   12.500000
 Enter PrismC:  IPart=  6 JobTyp=22 DoJE=F Cont=F.
 Enter PrismC:  IPart=  1 JobTyp=22 DoJE=F Cont=F.
 Linear combination for Coulomb/exchange, wScrn=  0.000000
 CW=    0.222036    0.777964
 WU=    0.000000   12.500000
 PrismC:  IPart=     0 DynPar=T LinDyn=F Incr=        1024 UseFst=F UseS4=T ISplat=2.
 PrismC was handed   229324091 working-precision words and  1586 shell-pairs
 PrismC:  IPart=     6 DynPar=T LinDyn=F Incr=        1024 UseFst=F UseS4=T ISplat=2.
 PrismC was handed   229324091 working-precision words and  1586 shell-pairs
 Linear combination for Coulomb/exchange, wScrn=  0.000000
 CW=    0.222036    0.777964
 WU=    0.000000   12.500000
 PrismC:  IPart=     1 DynPar=T LinDyn=F Incr=        1024 UseFst=F UseS4=T ISplat=2.
 PrismC was handed   229324091 working-precision words and  1586 shell-pairs
 Enter PrismC:  IPart=  5 JobTyp=22 DoJE=F Cont=F.
 Linear combination for Coulomb/exchange, wScrn=  0.000000
 CW=    0.222036    0.777964
 WU=    0.000000   12.500000
 PrismC:  IPart=     5 DynPar=T LinDyn=F Incr=        1024 UseFst=F UseS4=T ISplat=2.
 PrismC was handed   229324091 working-precision words and  1586 shell-pairs
 Enter PrismC:  IPart=  4 JobTyp=22 DoJE=F Cont=F.
 Linear combination for Coulomb/exchange, wScrn=  0.000000
 CW=    0.222036    0.777964
 WU=    0.000000   12.500000
 Enter PrismC:  IPart=  3 JobTyp=22 DoJE=F Cont=F.
 PrismC:  IPart=     4 DynPar=T LinDyn=F Incr=        1024 UseFst=F UseS4=T ISplat=2.
 Enter PrismC:  IPart=  7 JobTyp=22 DoJE=F Cont=F.
 Enter PrismC:  IPart=  2 JobTyp=22 DoJE=F Cont=F.
 PrismC was handed   229324091 working-precision words and  1586 shell-pairs
 Linear combination for Coulomb/exchange, wScrn=  0.000000
 CW=    0.222036    0.777964
 WU=    0.000000   12.500000
 Linear combination for Coulomb/exchange, wScrn=  0.000000
 CW=    0.222036    0.777964
 WU=    0.000000   12.500000
 PrismC:  IPart=     3 DynPar=T LinDyn=F Incr=        1024 UseFst=F UseS4=T ISplat=2.
 PrismC was handed   229324091 working-precision words and  1586 shell-pairs
 PrismC:  IPart=     7 DynPar=T LinDyn=F Incr=        1024 UseFst=F UseS4=T ISplat=2.
 PrismC was handed   229324091 working-precision words and  1586 shell-pairs
 Linear combination for Coulomb/exchange, wScrn=  0.000000
 CW=    0.222036    0.777964
 WU=    0.000000   12.500000
 PrismC:  IPart=     2 DynPar=T LinDyn=F Incr=        1024 UseFst=F UseS4=T ISplat=2.
 PrismC was handed   229324091 working-precision words and  1586 shell-pairs
 IPart=  5 NShTot=      144363 NShNF=      144363 NShFF=           0 MinMC=       7
           NShCPU=      144363 NBCPU=        4432 AvBCPU=        32.6
           NShGPU=           0 NBGPU=           0 AvBGPU=         0.0
 IPart=  7 NShTot=      154091 NShNF=      154091 NShFF=           0 MinMC=       7
           NShCPU=      154091 NBCPU=        4330 AvBCPU=        35.6
           NShGPU=           0 NBGPU=           0 AvBGPU=         0.0
 IPart=  4 NShTot=      152541 NShNF=      152541 NShFF=           0 MinMC=       7
           NShCPU=      152541 NBCPU=        4617 AvBCPU=        33.0
           NShGPU=           0 NBGPU=           0 AvBGPU=         0.0
 IPart=  6 NShTot=      137889 NShNF=      137889 NShFF=           0 MinMC=       7
           NShCPU=      137889 NBCPU=        4447 AvBCPU=        31.0
           NShGPU=           0 NBGPU=           0 AvBGPU=         0.0
 IPart=  3 NShTot=      150439 NShNF=      150439 NShFF=           0 MinMC=       7
           NShCPU=      150439 NBCPU=        4290 AvBCPU=        35.1
           NShGPU=           0 NBGPU=           0 AvBGPU=         0.0
 IPart=  1 NShTot=      141355 NShNF=      141355 NShFF=           0 MinMC=       7
           NShCPU=      141355 NBCPU=        4437 AvBCPU=        31.9
           NShGPU=           0 NBGPU=           0 AvBGPU=         0.0
 IPart=  2 NShTot=      155272 NShNF=      155272 NShFF=           0 MinMC=       7
           NShCPU=      155272 NBCPU=        4355 AvBCPU=        35.7
           NShGPU=           0 NBGPU=           0 AvBGPU=         0.0
 IPart=  0 NShTot=      137075 NShNF=      137075 NShFF=           0 MinMC=       7
           NShCPU=      137075 NBCPU=        4319 AvBCPU=        31.7
           NShGPU=           0 NBGPU=           0 AvBGPU=         0.0
 CoulSu:  NxtVal=        1339393 LenVP=      229324092 MinMC=       7.
 ReadGW:  IGet=0 IStart=           1 Next=           1 LGW=           0.
 Remaining memory in FofDFT     1749.95 Mw
 CkSvGd:  ISavGI=        -1 IRadAn=       5 IRASav=       5 ISavGd=        -1.
 CalDSu-InSpLW:  IPartL=    0 NPrtUS=    8 NPrtUL=    1 DoSpLW=F IThBeg=    0 IThEnd=    7 NThAct=    8.
 CalDSu:  NPrtUS=   8 ThrOK=T IAlg=1 DoDPD=T LenP=       13203 LenD1P=             0 GPUOK=F
          ISkipM=0 DoSpLW=F IThBeg=    0 IThEnd=    7.
 IPart=  0 IRanGd=          0 ScrnBf=T ScrnGd=T RCrit=4.00D+00 DoMicB=T.
 IPart=  0        18247 of        19412 points in      17 batches and       84 microbatches, Max-NSigAt=       7 Max-NSgAt2=       7
 IPart=  7        22180 of        24764 points in      21 batches and      141 microbatches, Max-NSigAt=       7 Max-NSgAt2=       7
 IPart=  1        17832 of        19034 points in      16 batches and      147 microbatches, Max-NSigAt=       7 Max-NSgAt2=       7
 IPart=  5        17273 of        17672 points in      15 batches and       74 microbatches, Max-NSigAt=       7 Max-NSgAt2=       7
 IPart=  2        16960 of        18128 points in      18 batches and      108 microbatches, Max-NSigAt=       7 Max-NSgAt2=       7
 IPart=  6        18686 of        20712 points in      21 batches and      131 microbatches, Max-NSigAt=       7 Max-NSgAt2=       7
 IPart=  4        16796 of        18198 points in      20 batches and      129 microbatches, Max-NSigAt=       7 Max-NSgAt2=       7
 IPart=  3        17430 of        18290 points in      16 batches and       81 microbatches, Max-NSigAt=       7 Max-NSgAt2=       7
 Polarizability after L703:
                1             2             3 
      1  0.318627D+02
      2 -0.227038D-03  0.516775D+02
      3 -0.182460D+00  0.210625D-05  0.226181D+02
 Dipole Derivatives after L703:
                 1             2             3             4             5 
      1  -0.593473D+00  0.163145D+00  0.493725D-03 -0.593451D+00 -0.163151D+00
      2  -0.351536D+00  0.502899D+00 -0.901676D-02  0.351456D+00  0.503047D+00
      3   0.902419D-02 -0.348112D-02 -0.275184D+00  0.902415D-02  0.348146D-02
                 6             7             8             9            10 
      1   0.494209D-03 -0.401331D+00  0.261263D-05  0.768511D-01  0.141273D+01
      2   0.901597D-02 -0.403767D-05  0.417738D+00  0.268263D-05  0.879314D-04
      3  -0.275173D+00  0.272753D-01  0.000000D+00  0.208668D-01 -0.372418D-01
                11            12            13            14            15 
      1   0.940948D-05 -0.239151D-01  0.578634D-01 -0.210344D-01 -0.333731D-01
      2  -0.158455D+01  0.000000D+00  0.129401D+00  0.162588D-01 -0.589835D-01
      3   0.000000D+00  0.382552D+00 -0.248298D-02 -0.526566D-01  0.792850D-01
                16            17            18            19            20 
      1   0.597919D-01  0.000000D+00  0.128239D-01  0.578663D-01  0.210297D-01
      2  -0.511804D-05  0.128339D+00 -0.449310D-05 -0.129399D+00  0.162643D-01
      3  -0.311669D-02 -0.394940D-05 -0.116260D-01 -0.248218D-02  0.526599D-01
                21 
      1  -0.333746D-01
      2   0.589855D-01
      3   0.792797D-01
 Hessian after L703:
                1             2             3             4             5 
      1  0.230326D+00
      2 -0.211592D+00  0.393069D+00
      3  0.255802D-02 -0.223177D-02  0.188185D-01
      4  0.742065D-01 -0.720471D-01  0.143737D-02  0.230306D+00
      5  0.720639D-01 -0.225761D+00  0.122036D-02  0.211569D+00  0.393040D+00
[...]
 
      X   X                                                        X     XX  X           XX  X  X            XX      X             X 
                                                                   X      X              X                                           
                                                                   X      X              X                                           
                                                                   X      X              X                                           
                                                                   X                     X                                           
                                                                   X                     X                                           
                                                                   X                     X                                           
                                                                   X                     X                                           
                                                                   X                     X                                           
                                                                   X                     X                                           
                                                                   X                     X                                           
                                                                   X                     X                                           
                                                                   X                     X                                           
                                                                   X                     X                                           
                                                                   X                     X                                           
                                                                   X                     X                                           
                                                                                         X                                           
                                                                                         X                                           
                                                                                         X                                           
                                                                                         X                                           
 
 Forces in standard orientation:
 -------------------------------------------------------------------
 Center     Atomic                   Forces (Hartrees/Bohr)
 Number     Number              X              Y              Z
 -------------------------------------------------------------------
      1        8          -0.000000612    0.000001107    0.000004857
      2        8          -0.000000316    0.000001230    0.000004865
      3        6           0.000000783    0.000001287    0.000007675
      4        6           0.000001098   -0.000003116   -0.000013756
      5        1           0.000000252    0.000000289   -0.000001279
      6        1          -0.000001880   -0.000000262   -0.000000928
      7        1           0.000000674   -0.000000535   -0.000001434
 -------------------------------------------------------------------
 Cartesian Forces:  Max     0.000013756 RMS     0.000003909
 ***** Axes restored to original set *****
 Rotating derivatives, DoTrsp=F IDiff=-2 LEDeriv=   1060 LFDPrp=       0 LDFDPr=       0.
 -------------------------------------------------------------------
 Center     Atomic                   Forces (Hartrees/Bohr)
 Number     Number              X              Y              Z
 -------------------------------------------------------------------
      1        8           0.000001171   -0.000001211    0.000004728
      2        8           0.000000889   -0.000001092    0.000004827
      3        6           0.000000073   -0.000002257    0.000007488
      4        6          -0.000002684    0.000003421   -0.000013463
      5        1          -0.000000346    0.000000840   -0.000000978
      6        1           0.000001751    0.000000108   -0.000001177
      7        1          -0.000000853    0.000000191   -0.000001426
 -------------------------------------------------------------------
 Cartesian Forces:  Max     0.000013463 RMS     0.000003909
 Z-matrix is all fixed cartesians, so copy forces.
 Force constants in Cartesian coordinates: 
                1             2             3             4             5 
      1  0.267489D+00
      2  0.209929D+00  0.304661D+00
      3  0.760158D-01  0.119369D+00  0.700640D-01
      4  0.709341D-01  0.424739D-01  0.143212D-01  0.191041D+00
      5 -0.853315D-01 -0.176308D+00 -0.878158D-01 -0.163042D+00  0.330620D+00
      6 -0.503206D-01 -0.103975D+00 -0.274657D-01 -0.103239D+00  0.176934D+00
      7 -0.235953D-01 -0.117241D-01 -0.950825D-03 -0.131422D-01  0.800073D-02
      8 -0.417859D-01 -0.777217D-02 -0.119811D-01  0.402234D-01 -0.141593D-01
      9 -0.188230D-01 -0.149795D-01  0.154997D-01  0.216655D-01 -0.174606D-01
     10 -0.307540D+00 -0.238434D+00 -0.900021D-01 -0.242621D+00  0.238700D+00
     11 -0.784283D-01 -0.117536D+00 -0.196856D-01  0.779200D-01 -0.138996D+00
     12 -0.814099D-02  0.272027D-04 -0.591862D-01  0.629403D-01 -0.690864D-01
     13  0.548739D-02  0.442252D-02 -0.889832D-03 -0.100730D-01  0.646798D-02
     14 -0.159440D-02 -0.138094D-02 -0.473176D-03  0.138133D-02  0.115348D-03
     15  0.204910D-03 -0.100331D-02 -0.154954D-03  0.218403D-02 -0.121682D-02
     16 -0.141420D-02 -0.277106D-02  0.438647D-02 -0.989069D-03 -0.171974D-02
     17 -0.190338D-02 -0.163151D-02  0.168449D-03  0.133647D-02 -0.326621D-03
     18 -0.141394D-03  0.493229D-03 -0.178045D-03  0.125168D-02 -0.858283D-03
     19 -0.113615D-01 -0.389704D-02 -0.288072D-02  0.484950D-02 -0.307459D-02
     20 -0.885877D-03 -0.319073D-04  0.418163D-03 -0.292642D-03 -0.945375D-03
     21  0.120523D-02  0.688208D-04  0.142124D-02  0.876373D-03 -0.496582D-03
                6             7             8             9            10 
      6  0.120503D+00
      7  0.818111D-02  0.498443D+00
      8 -0.209065D-01  0.114842D-01  0.584335D+00
      9  0.114288D-01 -0.328659D-02  0.194405D-01  0.556324D+00
     10  0.143227D+00 -0.225030D+00  0.414829D-02  0.292318D-01  0.801695D+00
     11 -0.492132D-01  0.893076D-02 -0.534942D-01  0.187962D-01 -0.109143D-01
     12 -0.102591D+00  0.195244D-01  0.197866D-01 -0.875089D-01 -0.758014D-01
     13  0.206209D-02 -0.610695D-01  0.313195D-01  0.509699D-01 -0.522519D-02
     14 -0.113652D-02  0.314387D-01 -0.129258D+00 -0.124127D+00  0.214096D-02
     15 -0.142088D-04  0.522732D-01 -0.123690D+00 -0.227364D+00 -0.360952D-02
     16  0.468419D-02 -0.902078D-01  0.497993D-01 -0.909925D-01 -0.128097D-01
     17 -0.134634D-02  0.481214D-01 -0.947262D-01  0.976718D-01  0.120225D-02
     18 -0.190761D-02 -0.875880D-01  0.973243D-01 -0.221010D+00  0.151948D-03
     19 -0.459505D-02 -0.853977D-01 -0.951888D-01  0.112349D-01 -0.846897D-02
     20 -0.356565D-03 -0.962516D-01 -0.284925D+00  0.206582D-01  0.315680D-02
     21  0.465083D-04  0.118467D-01  0.200262D-01 -0.473695D-01 -0.319806D-02
               11            12            13            14            15 
     11  0.306818D+00
     12  0.469085D-01  0.249351D+00
     13  0.850900D-02  0.256829D-01  0.639738D-01
     14 -0.414180D-03  0.197726D-02 -0.367720D-01  0.134728D+00
     15  0.221774D-02 -0.186310D-02 -0.556556D-01  0.134455D+00  0.243470D+00
     16  0.177832D-01 -0.334904D-01  0.327572D-02 -0.460741D-02  0.680948D-02
     17 -0.765986D-03  0.699237D-03 -0.852498D-02  0.839316D-02 -0.142861D-01
     18 -0.273546D-02  0.522012D-02 -0.106223D-01  0.124171D-01 -0.184954D-01
     19 -0.238003D-01  0.928512D-02  0.363083D-02  0.801284D-02 -0.220656D-02
     20  0.438909D-02 -0.312377D-03 -0.542199D-02 -0.121830D-01  0.352331D-02
     21  0.371177D-02 -0.342179D-02 -0.115471D-01 -0.231133D-01  0.442106D-02
               16            17            18            19            20 
     16  0.964935D-01
     17 -0.534377D-01  0.100070D+00
     18  0.971831D-01 -0.106335D+00  0.237837D+00
     19  0.565156D-02  0.132059D-01 -0.235033D-03  0.910963D-01
     20 -0.504660D-02 -0.110124D-01 -0.306169D-03  0.104742D+00  0.304708D+00
     21  0.114196D-01  0.234276D-01 -0.146559D-02 -0.106027D-01 -0.236246D-01
               21 
     21  0.463681D-01
 Final forces over variables, Energy=-2.28428091D+02:
  1.17084914D-06 8.89183079D-07 7.25206365D-08-2.68447964D-06
 -3.45642403D-07 1.75069795D-06-8.53128920D-07-1.21099818D-06
 -1.09227798D-06-2.25707233D-06 3.42088267D-06 8.40377455D-07
  1.07804347D-07 1.91284090D-07 4.72810202D-06 4.82695020D-06
  7.48837038D-06-1.34625594D-05-9.77919308D-07-1.17728805D-06
 -1.42565584D-06
 Leave Link  716 at Sat Aug 10 23:56:41 2019, MaxMem=  1835008000 cpu:               0.3 elap:               0.0
 (Enter /opt/g16/l103.exe)

 GradGradGradGradGradGradGradGradGradGradGradGradGradGradGradGradGradGrad
 Berny optimization.
 Search for a local minimum.
 Step number   1 out of a maximum of    2
 All quantities printed in internal units (Hartrees-Bohrs-Radians)
 Second derivative matrix not updated -- analytic derivatives used.
 ITU=  0
     Eigenvalues ---    0.00011   0.02458   0.03297   0.06696   0.09062
     Eigenvalues ---    0.09929   0.14827   0.20571   0.27327   0.33177
     Eigenvalues ---    0.55118   0.66020   0.74622   0.80626   1.36150
 Angle between quadratic step and forces=  42.69 degrees.
 Linear search not attempted -- first point.
 B after Tr=    -0.000001   -0.000001   -0.000000
         Rot=    1.000000    0.000001    0.000001   -0.000000 Ang=   0.00 deg.
 Variable       Old X    -DE/DX   Delta X   Delta X   Delta X     New X
                                 (Linear)    (Quad)   (Total)
    X1        3.00989   0.00000   0.00000  -0.00001  -0.00001   3.00988
    Y1        1.62127  -0.00000   0.00000  -0.00000  -0.00000   1.62127
    Z1        0.50125   0.00000   0.00000   0.00001   0.00001   0.50126
    X2        2.65539   0.00000   0.00000   0.00001   0.00002   2.65541
    Y2       -1.85046  -0.00000   0.00000  -0.00001  -0.00001  -1.85047
    Z2       -1.20987   0.00000   0.00000   0.00002   0.00003  -1.20984
    X3       -1.27920   0.00000   0.00000  -0.00000  -0.00000  -1.27921
    Y3        0.04373  -0.00000   0.00000  -0.00000  -0.00000   0.04373
    Z3        0.17628   0.00001   0.00000   0.00001   0.00001   0.17628
    X4        1.50660  -0.00000   0.00000  -0.00001  -0.00001   1.50659
    Y4       -0.07028   0.00000   0.00000   0.00001   0.00001  -0.07026
    Z4       -0.16949  -0.00001   0.00000  -0.00006  -0.00005  -0.16954
    X5       -1.73874  -0.00000   0.00000   0.00003   0.00002  -1.73871
    Y5        1.16713   0.00000   0.00000   0.00000   0.00001   1.16714
    Z5        1.83803  -0.00000   0.00000   0.00001   0.00000   1.83803
    X6       -2.10643   0.00000   0.00000  -0.00001  -0.00001  -2.10644
    Y6        0.94620   0.00000   0.00000   0.00001   0.00000   0.94620
    Z6       -1.48353  -0.00000   0.00000   0.00002   0.00001  -1.48351
    X7       -2.04752  -0.00000   0.00000  -0.00001  -0.00001  -2.04753
    Y7       -1.85760   0.00000   0.00000  -0.00000  -0.00000  -1.85760
    Z7        0.34733  -0.00000   0.00000  -0.00002  -0.00001   0.34731
         Item               Value     Threshold  Converged?
 Maximum Force            0.000013     0.000450     YES
 RMS     Force            0.000004     0.000300     YES
 Maximum Displacement     0.000053     0.001800     YES
 RMS     Displacement     0.000017     0.001200     YES
 Predicted change in Energy=-5.298881D-10
 Optimization completed.
    -- Stationary point found.
 GradGradGradGradGradGradGradGradGradGradGradGradGradGradGradGradGradGrad

 Leave Link  103 at Sat Aug 10 23:56:41 2019, MaxMem=  1835008000 cpu:               0.1 elap:               0.0
 (Enter /opt/g16/l9999.exe)

 ----------------------------------------------------------------------

 Electric dipole moment (input orientation):
 (Debye = 10**-18 statcoulomb cm , SI units = C m)
                  (au)            (Debye)         (10**-30 SI)
   Tot        0.131229D+01      0.333551D+01      0.111261D+02
   x         -0.130172D+01     -0.330864D+01     -0.110364D+02
   y          0.556781D-01      0.141520D+00      0.472059D+00
   z          0.156659D+00      0.398188D+00      0.132821D+01

 Dipole polarizability, Alpha (input orientation).
 (esu units = cm**3 , SI units = C**2 m**2 J**-1)
 Alpha(0;0):
               (au)            (10**-24 esu)      (10**-40 SI)
   iso        0.353861D+02      0.524368D+01      0.583438D+01
   aniso      0.257172D+02      0.381089D+01      0.424019D+01
   xx         0.319779D+02      0.473864D+01      0.527245D+01
   yx         0.192738D+01      0.285608D+00      0.317782D+00
   yy         0.458240D+02      0.679042D+01      0.755536D+01
   zx         0.170646D+00      0.252871D-01      0.281357D-01
   zy         0.114770D+02      0.170071D+01      0.189230D+01
   zz         0.283563D+02      0.420197D+01      0.467532D+01

 ----------------------------------------------------------------------

 Dipole orientation:
     8          0.92232301          1.71056278         -2.85701161
     8         -0.94842813         -1.69631206         -2.85694021
     6          0.02173288         -0.01191459          1.29179561
     6          0.01151626         -0.00632609         -1.51767721
     1          1.65673617          1.02189695          1.99366399
     1         -1.69084526          0.92842163          1.95249755
     1          0.02696484         -1.94632869          1.99367375

 Electric dipole moment (dipole orientation):
 (Debye = 10**-18 statcoulomb cm , SI units = C m)
                  (au)            (Debye)         (10**-30 SI)
   Tot        0.131229D+01      0.333551D+01      0.111261D+02
   x          0.000000D+00      0.000000D+00      0.000000D+00
   y          0.000000D+00      0.000000D+00      0.000000D+00
   z          0.131229D+01      0.333551D+01      0.111261D+02

 Dipole polarizability, Alpha (dipole orientation).
 (esu units = cm**3 , SI units = C**2 m**2 J**-1)
 Alpha(0;0):
               (au)            (10**-24 esu)      (10**-40 SI)
   iso        0.353861D+02      0.524368D+01      0.583438D+01
   aniso      0.257172D+02      0.381089D+01      0.424019D+01
   xx         0.293486D+02      0.434901D+01      0.483892D+01
   yx         0.122611D+02      0.181690D+01      0.202158D+01
   yy         0.449449D+02      0.666014D+01      0.741041D+01
   zx        -0.996686D-01     -0.147694D-01     -0.164331D-01
   zy         0.543527D-01      0.805424D-02      0.896155D-02
   zz         0.318649D+02      0.472189D+01      0.525381D+01

 ----------------------------------------------------------------------

 Test job not archived.
 1\1\GINC-NODE01\Freq\UwB97XD\def2TZVP\C2H3O2(2)\ALONGD\10-Aug-2019\0\\
 #P guess=mix uwb97xd/def2tzvp freq iop(7/33=1) scf=(tight, direct) int
 egral=(grid=ultrafine, Acc2E=12) scf=xqc iop(2/9=2000)\\name\\0,2\O,1.
 592766,0.85794,0.26525\O,1.405174,-0.97922,-0.640236\C,-0.676926,0.023
 141,0.093281\C,0.79726,-0.037188,-0.089688\H,-0.920099,0.617619,0.9726
 43\H,-1.114673,0.500706,-0.785048\H,-1.083503,-0.982998,0.183798\\Vers
 ion=ES64L-G16RevB.01\State=2-A\HF=-228.4280905\S2=0.757494\S2-1=0.\S2A
 =0.75003\RMSD=5.335e-09\RMSF=3.909e-06\ZeroPoint=0.0478024\Thermal=0.0
 523182\Dipole=-1.3017176,0.0556781,0.1566591\DipoleDeriv=-0.5654402,0.
 3909383,0.2176752,-0.0696649,0.3433877,0.3160219,-0.0054438,0.2606841,
 -0.1437057,-0.5992517,-0.2314088,-0.0915364,0.2216187,0.3466623,0.2934
 216,0.1467886,0.3471955,-0.112988,-0.4005226,0.0610897,0.0455602,0.082
 9092,0.3350455,0.1505985,0.0012747,0.1551211,0.1027502,1.3842135,-0.21
 68598,-0.1751632,-0.210923,-1.1842738,-0.7684201,-0.1870318,-0.7671966
 ,0.0108001,0.0503343,-0.1230524,-0.0615248,-0.0021197,0.0780423,-0.053
 4159,0.0331988,-0.0481612,0.0250306,0.0587957,0.007302,-0.0003991,0.01
 43159,0.0999894,0.0545581,-0.0146398,0.0560108,0.01772,0.071871,0.1119
 911,0.0653881,-0.0361361,-0.0188534,0.0072359,0.0258533,-0.0036538,0.1
 003928\Polar=31.9779424,1.9273773,45.8240478,0.170646,11.4769878,28.35
 62924\Quadrupole=0.3299107,-0.8689256,0.5390149,-0.1884306,0.0345738,-
 0.9337932\PG=C01 [X(C2H3O2)]\NImag=0\\0.26748914,0.20992936,0.30466084
 ,0.07601580,0.11936897,0.07006396,0.07093414,0.04247390,0.01432118,0.1
 9104135,-0.08533155,-0.17630825,-0.08781578,-0.16304240,0.33062040,-0.
 05032060,-0.10397541,-0.02746570,-0.10323907,0.17693448,0.12050317,-0.
 02359527,-0.01172410,-0.00095082,-0.01314223,0.00800073,0.00818111,0.4
 9844285,-0.04178585,-0.00777217,-0.01198107,0.04022337,-0.01415928,-0.
 02090648,0.01148418,0.58433491,-0.01882295,-0.01497951,0.01549971,0.02
 166546,-0.01746062,0.01142879,-0.00328659,0.01944050,0.55632383,-0.307
 53966,-0.23843357,-0.09000208,-0.24262066,0.23869957,0.14322734,-0.225
 03038,0.00414829,0.02923180,0.80169461,-0.07842830,-0.11753606,-0.0196
 8556,0.07791997,-0.13899622,-0.04921317,0.00893076,-0.05349421,0.01879
 621,-0.01091431,0.30681757,-0.00814099,0.00002720,-0.05918622,0.062940
 35,-0.06908639,-0.10259095,0.01952441,0.01978660,-0.08750885,-0.075801
 43,0.04690847,0.24935079,0.00548739,0.00442252,-0.00088983,-0.01007303
 ,0.00646798,0.00206209,-0.06106952,0.03131949,0.05096985,-0.00522519,0
 .00850900,0.02568291,0.06397381,-0.00159440,-0.00138094,-0.00047318,0.
 00138133,0.00011535,-0.00113652,0.03143869,-0.12925841,-0.12412659,0.0
 0214096,-0.00041418,0.00197726,-0.03677201,0.13472799,0.00020491,-0.00
 100331,-0.00015495,0.00218403,-0.00121682,-0.00001421,0.05227324,-0.12
 369009,-0.22736371,-0.00360952,0.00221774,-0.00186310,-0.05565559,0.13
 445525,0.24347026,-0.00141420,-0.00277106,0.00438647,-0.00098907,-0.00
 171974,0.00468419,-0.09020777,0.04979928,-0.09099250,-0.01280975,0.017
 78321,-0.03349037,0.00327572,-0.00460741,0.00680948,0.09649351,-0.0019
 0338,-0.00163151,0.00016845,0.00133647,-0.00032662,-0.00134634,0.04812
 139,-0.09472620,0.09767178,0.00120225,-0.00076599,0.00069924,-0.008524
 98,0.00839316,-0.01428608,-0.05343767,0.10006956,-0.00014139,0.0004932
 3,-0.00017804,0.00125168,-0.00085828,-0.00190761,-0.08758800,0.0973243
 1,-0.22101026,0.00015195,-0.00273546,0.00522012,-0.01062233,0.01241706
 ,-0.01849535,0.09718314,-0.10633468,0.23783673,-0.01136153,-0.00389704
 ,-0.00288072,0.00484950,-0.00307459,-0.00459505,-0.08539767,-0.0951887
 6,0.01123494,-0.00846897,-0.02380033,0.00928512,0.00363083,0.00801284,
 -0.00220656,0.00565156,0.01320592,-0.00023503,0.09109629,-0.00088588,-
 0.00003191,0.00041816,-0.00029264,-0.00094538,-0.00035657,-0.09625165,
 -0.28492464,0.02065822,0.00315680,0.00438909,-0.00031238,-0.00542199,-
 0.01218297,0.00352331,-0.00504660,-0.01101240,-0.00030617,0.10474196,0
 .30470821,0.00120523,0.00006882,0.00142124,0.00087637,-0.00049658,0.00
 004651,0.01184667,0.02002623,-0.04736952,-0.00319806,0.00371177,-0.003
 42179,-0.01154711,-0.02311328,0.00442106,0.01141960,0.02342762,-0.0014
 6559,-0.01060270,-0.02362458,0.04636808\\-0.00000117,0.00000121,-0.000
 00473,-0.00000089,0.00000109,-0.00000483,-0.00000007,0.00000226,-0.000
 00749,0.00000268,-0.00000342,0.00001346,0.00000035,-0.00000084,0.00000
 098,-0.00000175,-0.00000011,0.00000118,0.00000085,-0.00000019,0.000001
 43\\\@


 Everywhere is walking distance if you have the time.
                                    -- Steven Wright
 Job cpu time:       0 days  0 hours 34 minutes 23.0 seconds.
 Elapsed time:       0 days  0 hours  4 minutes 22.2 seconds.
 File lengths (MBytes):  RWF=     30 Int=      0 D2E=      0 Chk=      3 Scr=      1
 Normal termination of Gaussian 16 at Sat Aug 10 23:56:41 2019.
