 Entering Gaussian System, Link 0=g16
 Initial command:
 /opt/g16/l1.exe "/scratch/alongd/g16/a19038-8463/Gau-7285.inp" -scrdir="/scratch/alongd/g16/a19038-8463/"
 Entering Link 1 = /opt/g16/l1.exe PID=      7287.
  
 Copyright (c) 1988-2017, Gaussian, Inc.  All Rights Reserved.
  
 This is part of the Gaussian(R) 16 program.  It is based on
 the Gaussian(R) 09 system (copyright 2009, Gaussian, Inc.),
 the Gaussian(R) 03 system (copyright 2003, Gaussian, Inc.),
 the Gaussian(R) 98 system (copyright 1998, Gaussian, Inc.),
 the Gaussian(R) 94 system (copyright 1995, Gaussian, Inc.),
 the Gaussian 92(TM) system (copyright 1992, Gaussian, Inc.),
 the Gaussian 90(TM) system (copyright 1990, Gaussian, Inc.),
 the Gaussian 88(TM) system (copyright 1988, Gaussian, Inc.),
 the Gaussian 86(TM) system (copyright 1986, Carnegie Mellon
 University), and the Gaussian 82(TM) system (copyright 1983,
 Carnegie Mellon University). Gaussian is a federally registered
 trademark of Gaussian, Inc.
  
 This software contains proprietary and confidential information,
 including trade secrets, belonging to Gaussian, Inc.
  
 This software is provided under written license and may be
 used, copied, transmitted, or stored only in accord with that
 written license.
  
 The following legend is applicable only to US Government
 contracts under FAR:
  
                    RESTRICTED RIGHTS LEGEND
  
 Use, reproduction and disclosure by the US Government is
 subject to restrictions as set forth in subparagraphs (a)
 and (c) of the Commercial Computer Software - Restricted
 Rights clause in FAR 52.227-19.
  
 Gaussian, Inc.
 340 Quinnipiac St., Bldg. 40, Wallingford CT 06492
  
  
 ---------------------------------------------------------------
 Warning -- This program may not be used in any manner that
 competes with the business of Gaussian, Inc. or will provide
 assistance to any competitor of Gaussian, Inc.  The licensee
 of this program is prohibited from giving any competitor of
 Gaussian, Inc. access to this program.  By using this program,
 the user acknowledges that Gaussian, Inc. is engaged in the
 business of creating and licensing software in the field of
 computational chemistry and represents and warrants to the
 licensee that it is not a competitor of Gaussian, Inc. and that
 it will not use this program in any manner prohibited above.
 ---------------------------------------------------------------
  

 Cite this work as:
 Gaussian 16, Revision B.01,
 M. J. Frisch, G. W. Trucks, H. B. Schlegel, G. E. Scuseria, 
 M. A. Robb, J. R. Cheeseman, G. Scalmani, V. Barone, 
 G. A. Petersson, H. Nakatsuji, X. Li, M. Caricato, A. V. Marenich, 
 J. Bloino, B. G. Janesko, R. Gomperts, B. Mennucci, H. P. Hratchian, 
 J. V. Ortiz, A. F. Izmaylov, J. L. Sonnenberg, D. Williams-Young, 
 F. Ding, F. Lipparini, F. Egidi, J. Goings, B. Peng, A. Petrone, 
 T. Henderson, D. Ranasinghe, V. G. Zakrzewski, J. Gao, N. Rega, 
 G. Zheng, W. Liang, M. Hada, M. Ehara, K. Toyota, R. Fukuda, 
 J. Hasegawa, M. Ishida, T. Nakajima, Y. Honda, O. Kitao, H. Nakai, 
 T. Vreven, K. Throssell, J. A. Montgomery, Jr., J. E. Peralta, 
 F. Ogliaro, M. J. Bearpark, J. J. Heyd, E. N. Brothers, K. N. Kudin, 
 V. N. Staroverov, T. A. Keith, R. Kobayashi, J. Normand, 
 K. Raghavachari, A. P. Rendell, J. C. Burant, S. S. Iyengar, 
 J. Tomasi, M. Cossi, J. M. Millam, M. Klene, C. Adamo, R. Cammi, 
 J. W. Ochterski, R. L. Martin, K. Morokuma, O. Farkas, 
 J. B. Foresman, and D. J. Fox, Gaussian, Inc., Wallingford CT, 2016.
 
 ******************************************
 Gaussian 16:  ES64L-G16RevB.01 20-Dec-2017
                10-Aug-2019 
 ******************************************
 %chk=check.chk
 %mem=14000mb
 %NProcShared=8
 Will use up to    8 processors via shared memory.
 ----------------------------------------------------------------------
 #P guess=mix uwb97xd/def2tzvp freq iop(7/33=1) scf=(tight, direct) int
 egral=(grid=ultrafine, Acc2E=12) scf=xqc iop(2/9=2000)
 ----------------------------------------------------------------------
 1/10=4,30=1,38=1/1,3;
 2/9=2000,12=2,17=6,18=5,40=1/2;
 3/5=44,7=101,11=2,25=1,27=12,30=1,71=2,74=-58,75=-5,116=2,140=1/1,2,3;
 4/13=-1/1;
 5/5=2,8=3,13=1,32=2,38=5,87=12,98=1/2,8;
 8/6=4,10=90,11=11,87=12/1;
 11/6=1,8=1,9=11,15=111,16=1,87=12/1,2,10;
 10/6=1,87=12/2;
 6/7=2,8=2,9=2,10=2,28=1,87=12/1;
 7/8=1,10=1,25=1,33=1,87=12/1,2,3,16;
 1/10=4,30=1/3;
 99//99;
 Leave Link    1 at Sat Aug 10 23:36:19 2019, MaxMem=  1835008000 cpu:               0.8 elap:               0.1
 (Enter /opt/g16/l101.exe)
 ----
 name
 ----
 Symbolic Z-matrix:
 Charge =  0 Multiplicity = 2
 N                    -0.42467   0.01074   0.16767 
 N                     0.75507  -0.58161  -0.06802 
 H                    -0.56364   0.98903  -0.04229 
 H                    -1.22069  -0.57931  -0.00746 
 H                     1.45393   0.16115  -0.0499 
 
 ITRead=  0  0  0  0  0
 MicOpt= -1 -1 -1 -1 -1
 NAtoms=      5 NQM=        5 NQMF=       0 NMMI=      0 NMMIF=      0
                NMic=       0 NMicF=      0.
                    Isotopes and Nuclear Properties:
 (Nuclear quadrupole moments (NQMom) in fm**2, nuclear magnetic moments (NMagM)
  in nuclear magnetons)

  Atom         1           2           3           4           5
 IAtWgt=          14          14           1           1           1
 AtmWgt=  14.0030740  14.0030740   1.0078250   1.0078250   1.0078250
 NucSpn=           2           2           1           1           1
 AtZEff=  -0.0000000  -0.0000000  -0.0000000  -0.0000000  -0.0000000
 NQMom=    2.0440000   2.0440000   0.0000000   0.0000000   0.0000000
 NMagM=    0.4037610   0.4037610   2.7928460   2.7928460   2.7928460
 AtZNuc=   7.0000000   7.0000000   1.0000000   1.0000000   1.0000000
 Leave Link  101 at Sat Aug 10 23:36:19 2019, MaxMem=  1835008000 cpu:               2.4 elap:               0.3
 (Enter /opt/g16/l103.exe)

 GradGradGradGradGradGradGradGradGradGradGradGradGradGradGradGradGradGrad
 Berny optimization.
 Initialization pass.
 Trust Radius=3.00D-01 FncErr=1.00D-07 GrdErr=1.00D-07 EigMax=2.50D+02 EigMin=1.00D-04
 Number of steps in this run=      2 maximum allowed number of steps=      2.
 GradGradGradGradGradGradGradGradGradGradGradGradGradGradGradGradGradGrad

 Leave Link  103 at Sat Aug 10 23:36:19 2019, MaxMem=  1835008000 cpu:               0.3 elap:               0.0
 (Enter /opt/g16/l202.exe)
                          Input orientation:                          
 ---------------------------------------------------------------------
 Center     Atomic      Atomic             Coordinates (Angstroms)
 Number     Number       Type             X           Y           Z
 ---------------------------------------------------------------------
      1          7           0       -0.424673    0.010740    0.167669
      2          7           0        0.755071   -0.581611   -0.068021
      3          1           0       -0.563641    0.989029   -0.042288
      4          1           0       -1.220688   -0.579309   -0.007457
      5          1           0        1.453931    0.161150   -0.049902
 ---------------------------------------------------------------------
                    Distance matrix (angstroms):
                    1          2          3          4          5
     1  N    0.000000
     2  N    1.340979   0.000000
     3  H    1.010170   2.050993   0.000000
     4  H    1.006214   1.976688   1.700767   0.000000
     5  H    1.897133   1.020013   2.180834   2.775548   0.000000
 Stoichiometry    H3N2(2)
 Framework group  C1[X(H3N2)]
 Deg. of freedom     9
 Full point group                 C1      NOp   1
 Largest Abelian subgroup         C1      NOp   1
 Largest concise Abelian subgroup C1      NOp   1
                         Standard orientation:                         
 ---------------------------------------------------------------------
 Center     Atomic      Atomic             Coordinates (Angstroms)
 Number     Number       Type             X           Y           Z
 ---------------------------------------------------------------------
      1          7           0        0.591727    0.024667   -0.069531
      2          7           0       -0.734471   -0.150989    0.023050
      3          1           0        1.017766    0.900312    0.199130
      4          1           0        1.129430   -0.796162    0.153139
      5          1           0       -1.147989    0.780104   -0.026903
 ---------------------------------------------------------------------
 Rotational constants (GHZ):         206.6524372          31.0607393          27.3681286
 Leave Link  202 at Sat Aug 10 23:36:19 2019, MaxMem=  1835008000 cpu:               0.2 elap:               0.0
 (Enter /opt/g16/l301.exe)
 Standard basis: def2TZVP (5D, 7F)
 Ernie: Thresh=  0.10000D-02 Tol=  0.10000D-05 Strict=F.
 There are    90 symmetry adapted cartesian basis functions of A   symmetry.
 There are    80 symmetry adapted basis functions of A   symmetry.
    80 basis functions,   126 primitive gaussians,    90 cartesian basis functions
     9 alpha electrons        8 beta electrons
       nuclear repulsion energy        36.6932781326 Hartrees.
 IExCor= 4639 DFT=T Ex+Corr=wB97XD ExCW=0 ScaHFX=  1.000000
 ScaDFX=  1.000000  1.000000  1.000000  1.000000 ScalE2=  1.000000  1.000000
 IRadAn=      5 IRanWt=     -1 IRanGd=            0 ICorTp=0 IEmpDi=121
 HFx  wShort=  0.000000 wLong=  0.200000 cFull=  0.222036 cShort=  0.000000 cLong=  0.777964
 DFx  wShort=  0.000000 wLong=  0.200000 cFull=  0.000000 cShort=  0.000000 cLong=  1.000000
 NAtoms=    5 NActive=    5 NUniq=    5 SFac= 1.00D+00 NAtFMM=   60 NAOKFM=F Big=F
 Integral buffers will be    131072 words long.
 Raffenetti 2 integral format.
 Two-electron integral symmetry is turned on.
 R6Disp:  Grimme-D2 Dispersion energy=       -0.0004459482 Hartrees.
 Nuclear repulsion after empirical dispersion term =       36.6928321844 Hartrees.
 Leave Link  301 at Sat Aug 10 23:36:19 2019, MaxMem=  1835008000 cpu:               0.8 elap:               0.1
 (Enter /opt/g16/l302.exe)
 NPDir=0 NMtPBC=     1 NCelOv=     1 NCel=       1 NClECP=     1 NCelD=      1
         NCelK=      1 NCelE2=     1 NClLst=     1 CellRange=     0.0.
 One-electron integrals computed using PRISM.
 One-electron integral symmetry used in STVInt
   1 Symmetry operations used in ECPInt.
 ECPInt:  NShTT=     595 NPrTT=    1764 LenC2=     595 LenP2D=    1624.
 LDataN:  DoStor=T MaxTD1= 6 Len=  172
 NBasis=    80 RedAO= T EigKep=  1.33D-03  NBF=    80
 NBsUse=    80 1.00D-06 EigRej= -1.00D+00 NBFU=    80
 Precomputing XC quadrature grid using
 IXCGrd= 4 IRadAn=           5 IRanWt=          -1 IRanGd=           0 AccXCQ= 1.00D-12.
 Generated NRdTot=       0 NPtTot=           0 NUsed=           0 NTot=          32
 NSgBfM=    90    90    90    90    90 MxSgAt=     5 MxSgA2=     5.
 Leave Link  302 at Sat Aug 10 23:36:20 2019, MaxMem=  1835008000 cpu:               2.7 elap:               0.3
 (Enter /opt/g16/l303.exe)
 DipDrv:  MaxL=1.
 Leave Link  303 at Sat Aug 10 23:36:20 2019, MaxMem=  1835008000 cpu:               0.5 elap:               0.1
 (Enter /opt/g16/l401.exe)
 ExpMin= 1.03D-01 ExpMax= 1.97D+04 ExpMxC= 6.73D+02 IAcc=3 IRadAn=         5 AccDes= 0.00D+00
 Harris functional with IExCor= 4639 and IRadAn=       5 diagonalized for initial guess.
 HarFok:  IExCor= 4639 AccDes= 0.00D+00 IRadAn=         5 IDoV= 1 UseB2=F ITyADJ=14
 ICtDFT=  3500011 ScaDFX=  1.000000  1.000000  1.000000  1.000000
 FoFCou: FMM=F IPFlag=           0 FMFlag=      100000 FMFlg1=           0
         NFxFlg=           0 DoJE=T BraDBF=F KetDBF=T FulRan=T
         wScrn=  0.000000 ICntrl=       500 IOpCl=  0 I1Cent=   200000004 NGrid=           0
         NMat0=    1 NMatS0=      1 NMatT0=    0 NMatD0=    1 NMtDS0=    0 NMtDT0=    0
 Petite list used in FoFCou.
 Harris En= -106.666804502799    
 JPrj=0 DoOrth=F DoCkMO=T.
 Mixing orbitals, IMix= 1 IMixAn=  0 NRI=1 NE=    9 Coef=  7.07106781D-01  7.07106781D-01
 Mixing orbitals, IMix= 1 IMixAn=  0 NRI=1 NE=    8 Coef= -7.07106781D-01  7.07106781D-01
 Initial guess <Sx>= 0.0000 <Sy>= 0.0000 <Sz>= 0.5000 <S**2>= 1.0000 S= 0.6180
 Leave Link  401 at Sat Aug 10 23:36:21 2019, MaxMem=  1835008000 cpu:               6.1 elap:               0.8
 (Enter /opt/g16/l502.exe)
 Keep R1 and R2 ints in memory in canonical form, NReq=28315865.
 FoFCou: FMM=F IPFlag=           0 FMFlag=           0 FMFlg1=           0
         NFxFlg=           0 DoJE=F BraDBF=F KetDBF=F FulRan=T
         wScrn=  0.000000 ICntrl=       600 IOpCl=  0 I1Cent=           0 NGrid=           0
         NMat0=    1 NMatS0=   3240 NMatT0=    0 NMatD0=    1 NMtDS0=    0 NMtDT0=    0
 Symmetry not used in FoFCou.
 Two-electron integral symmetry not used.
 UHF open shell SCF:
 Using DIIS extrapolation, IDIIS=  1040.
 NGot=  1835008000 LenX=  1813988435 LenY=  1813979894
 Requested convergence on RMS density matrix=1.00D-08 within  32 cycles.
 Requested convergence on MAX density matrix=1.00D-06.
 Requested convergence on             energy=1.00D-06.
 No special actions if energy rises.
 Integral accuracy reduced to 1.0D-05 until final iterations.

 Cycle   1  Pass 0  IDiag  1:
 E= -111.018886521793    
 DIIS: error= 5.43D-02 at cycle   1 NSaved=   1.
 NSaved= 1 IEnMin= 1 EnMin= -111.018886521793     IErMin= 1 ErrMin= 5.43D-02
 ErrMax= 5.43D-02  0.00D+00 EMaxC= 1.00D-01 BMatC= 1.20D+00 BMatP= 1.20D+00
 IDIUse=3 WtCom= 4.57D-01 WtEn= 5.43D-01
 Coeff-Com:  0.100D+01
 Coeff-En:   0.100D+01
 Coeff:      0.100D+01
 Gap=     0.173 Goal=   None    Shift=    0.000
 Gap=     0.233 Goal=   None    Shift=    0.000
 GapD=    0.173 DampG=1.000 DampE=0.500 DampFc=0.5000 IDamp=-1.
 Damping current iteration by 5.00D-01
 RMSDP=2.62D-02 MaxDP=1.09D+00              OVMax= 4.55D-01

 Cycle   2  Pass 0  IDiag  1:
 E= -111.087499454169     Delta-E=       -0.068612932377 Rises=F Damp=T
 DIIS: error= 2.45D-02 at cycle   2 NSaved=   2.
 NSaved= 2 IEnMin= 2 EnMin= -111.087499454169     IErMin= 2 ErrMin= 2.45D-02
 ErrMax= 2.45D-02  0.00D+00 EMaxC= 1.00D-01 BMatC= 2.22D-01 BMatP= 1.20D+00
 IDIUse=3 WtCom= 7.55D-01 WtEn= 2.45D-01
 Coeff-Com: -0.384D+00 0.138D+01
 Coeff-En:   0.000D+00 0.100D+01
 Coeff:     -0.290D+00 0.129D+01
 Gap=     0.274 Goal=   None    Shift=    0.000
 Gap=     0.322 Goal=   None    Shift=    0.000
 RMSDP=1.39D-02 MaxDP=5.69D-01 DE=-6.86D-02 OVMax= 1.31D-01

 Cycle   3  Pass 0  IDiag  1:
 E= -111.197219785768     Delta-E=       -0.109720331599 Rises=F Damp=F
 DIIS: error= 1.09D-02 at cycle   3 NSaved=   3.
 NSaved= 3 IEnMin= 3 EnMin= -111.197219785768     IErMin= 3 ErrMin= 1.09D-02
 ErrMax= 1.09D-02  0.00D+00 EMaxC= 1.00D-01 BMatC= 3.86D-02 BMatP= 2.22D-01
 IDIUse=3 WtCom= 8.91D-01 WtEn= 1.09D-01
 Coeff-Com: -0.193D+00 0.438D+00 0.755D+00
 Coeff-En:   0.000D+00 0.000D+00 0.100D+01
 Coeff:     -0.172D+00 0.390D+00 0.782D+00
 Gap=     0.329 Goal=   None    Shift=    0.000
 Gap=     0.351 Goal=   None    Shift=    0.000
 RMSDP=4.26D-03 MaxDP=1.31D-01 DE=-1.10D-01 OVMax= 1.26D-01

 Cycle   4  Pass 0  IDiag  1:
 E= -111.221418039850     Delta-E=       -0.024198254082 Rises=F Damp=F
 DIIS: error= 7.60D-03 at cycle   4 NSaved=   4.
 NSaved= 4 IEnMin= 4 EnMin= -111.221418039850     IErMin= 4 ErrMin= 7.60D-03
 ErrMax= 7.60D-03  0.00D+00 EMaxC= 1.00D-01 BMatC= 1.16D-02 BMatP= 3.86D-02
 IDIUse=3 WtCom= 9.24D-01 WtEn= 7.60D-02
 Coeff-Com: -0.132D-01 0.140D-01 0.269D+00 0.731D+00
 Coeff-En:   0.000D+00 0.000D+00 0.000D+00 0.100D+01
 Coeff:     -0.122D-01 0.129D-01 0.248D+00 0.751D+00
 Gap=     0.353 Goal=   None    Shift=    0.000
 Gap=     0.372 Goal=   None    Shift=    0.000
 RMSDP=1.82D-03 MaxDP=3.94D-02 DE=-2.42D-02 OVMax= 6.96D-02

 Cycle   5  Pass 0  IDiag  1:
 E= -111.230789790962     Delta-E=       -0.009371751112 Rises=F Damp=F
 DIIS: error= 5.69D-03 at cycle   5 NSaved=   5.
 NSaved= 5 IEnMin= 5 EnMin= -111.230789790962     IErMin= 5 ErrMin= 5.69D-03
 ErrMax= 5.69D-03  0.00D+00 EMaxC= 1.00D-01 BMatC= 4.26D-03 BMatP= 1.16D-02
 IDIUse=3 WtCom= 9.43D-01 WtEn= 5.69D-02
 Coeff-Com:  0.144D+00-0.298D+00-0.496D+00 0.192D+00 0.146D+01
 Coeff-En:   0.000D+00 0.000D+00 0.000D+00 0.000D+00 0.100D+01
 Coeff:      0.136D+00-0.281D+00-0.468D+00 0.181D+00 0.143D+01
 Gap=     0.380 Goal=   None    Shift=    0.000
 Gap=     0.406 Goal=   None    Shift=    0.000
 RMSDP=2.63D-03 MaxDP=5.11D-02 DE=-9.37D-03 OVMax= 1.29D-01

 Cycle   6  Pass 0  IDiag  1:
 E= -111.238453796410     Delta-E=       -0.007664005448 Rises=F Damp=F
 DIIS: error= 1.52D-03 at cycle   6 NSaved=   6.
 NSaved= 6 IEnMin= 6 EnMin= -111.238453796410     IErMin= 6 ErrMin= 1.52D-03
 ErrMax= 1.52D-03  0.00D+00 EMaxC= 1.00D-01 BMatC= 5.62D-04 BMatP= 4.26D-03
 IDIUse=3 WtCom= 9.85D-01 WtEn= 1.52D-02
 Coeff-Com: -0.424D-01 0.934D-01 0.604D-01-0.962D-01-0.179D+00 0.116D+01
 Coeff-En:   0.000D+00 0.000D+00 0.000D+00 0.000D+00 0.000D+00 0.100D+01
 Coeff:     -0.418D-01 0.920D-01 0.595D-01-0.948D-01-0.176D+00 0.116D+01
 Gap=     0.369 Goal=   None    Shift=    0.000
 Gap=     0.397 Goal=   None    Shift=    0.000
 RMSDP=2.80D-04 MaxDP=4.33D-03 DE=-7.66D-03 OVMax= 2.53D-02

 Cycle   7  Pass 0  IDiag  1:
 E= -111.238966647216     Delta-E=       -0.000512850806 Rises=F Damp=F
 DIIS: error= 1.15D-03 at cycle   7 NSaved=   7.
 NSaved= 7 IEnMin= 7 EnMin= -111.238966647216     IErMin= 7 ErrMin= 1.15D-03
 ErrMax= 1.15D-03  0.00D+00 EMaxC= 1.00D-01 BMatC= 1.28D-04 BMatP= 5.62D-04
 IDIUse=3 WtCom= 9.89D-01 WtEn= 1.15D-02
 Coeff-Com: -0.121D-01 0.250D-01 0.676D-01-0.583D-01-0.235D+00-0.614D-02
 Coeff-Com:  0.122D+01
 Coeff-En:   0.000D+00 0.000D+00 0.000D+00 0.000D+00 0.000D+00 0.000D+00
 Coeff-En:   0.100D+01
 Coeff:     -0.119D-01 0.247D-01 0.668D-01-0.577D-01-0.232D+00-0.606D-02
 Coeff:      0.122D+01
 Gap=     0.370 Goal=   None    Shift=    0.000
 Gap=     0.400 Goal=   None    Shift=    0.000
 RMSDP=2.82D-04 MaxDP=4.49D-03 DE=-5.13D-04 OVMax= 2.79D-02

 Cycle   8  Pass 0  IDiag  1:
 E= -111.239190162585     Delta-E=       -0.000223515369 Rises=F Damp=F
 DIIS: error= 2.72D-04 at cycle   8 NSaved=   8.
 NSaved= 8 IEnMin= 8 EnMin= -111.239190162585     IErMin= 8 ErrMin= 2.72D-04
 ErrMax= 2.72D-04  0.00D+00 EMaxC= 1.00D-01 BMatC= 1.08D-05 BMatP= 1.28D-04
 IDIUse=3 WtCom= 9.97D-01 WtEn= 2.72D-03
 Coeff-Com:  0.328D-02-0.698D-02-0.121D-02 0.914D-02 0.925D-02-0.911D-01
 Coeff-Com: -0.984D-01 0.118D+01
 Coeff-En:   0.000D+00 0.000D+00 0.000D+00 0.000D+00 0.000D+00 0.000D+00
 Coeff-En:   0.000D+00 0.100D+01
 Coeff:      0.327D-02-0.696D-02-0.121D-02 0.911D-02 0.922D-02-0.909D-01
 Coeff:     -0.981D-01 0.118D+01
 Gap=     0.371 Goal=   None    Shift=    0.000
 Gap=     0.401 Goal=   None    Shift=    0.000
 RMSDP=7.66D-05 MaxDP=1.11D-03 DE=-2.24D-04 OVMax= 7.11D-03

 Cycle   9  Pass 0  IDiag  1:
 E= -111.239209028302     Delta-E=       -0.000018865716 Rises=F Damp=F
 DIIS: error= 9.58D-05 at cycle   9 NSaved=   9.
 NSaved= 9 IEnMin= 9 EnMin= -111.239209028302     IErMin= 9 ErrMin= 9.58D-05
 ErrMax= 9.58D-05  0.00D+00 EMaxC= 1.00D-01 BMatC= 1.77D-06 BMatP= 1.08D-05
 IDIUse=1 WtCom= 1.00D+00 WtEn= 0.00D+00
 Coeff-Com:  0.916D-03-0.171D-02-0.815D-02 0.356D-02 0.350D-01 0.352D-02
 Coeff-Com: -0.141D+00-0.221D+00 0.133D+01
 Coeff:      0.916D-03-0.171D-02-0.815D-02 0.356D-02 0.350D-01 0.352D-02
 Coeff:     -0.141D+00-0.221D+00 0.133D+01
 Gap=     0.371 Goal=   None    Shift=    0.000
 Gap=     0.401 Goal=   None    Shift=    0.000
 RMSDP=4.71D-05 MaxDP=7.77D-04 DE=-1.89D-05 OVMax= 2.42D-03

 Failed to achieve initial convergence to 1.0D-08 in 10 cycles.
 Switch to full accuracy anyway.
 Cycle  10  Pass 1  IDiag  1:
 E= -111.239208059635     Delta-E=        0.000000968666 Rises=F Damp=F
 DIIS: error= 2.76D-05 at cycle   1 NSaved=   1.
 NSaved= 1 IEnMin= 1 EnMin= -111.239208059635     IErMin= 1 ErrMin= 2.76D-05
 ErrMax= 2.76D-05  0.00D+00 EMaxC= 1.00D-01 BMatC= 2.37D-07 BMatP= 2.37D-07
 IDIUse=1 WtCom= 1.00D+00 WtEn= 0.00D+00
 Coeff-Com:  0.100D+01
 Coeff:      0.100D+01
 Gap=     0.371 Goal=   None    Shift=    0.000
 Gap=     0.401 Goal=   None    Shift=    0.000
 RMSDP=4.71D-05 MaxDP=7.77D-04 DE= 9.69D-07 OVMax= 3.75D-04

 Cycle  11  Pass 1  IDiag  1:
 E= -111.239208267573     Delta-E=       -0.000000207937 Rises=F Damp=F
 DIIS: error= 1.89D-05 at cycle   2 NSaved=   2.
 NSaved= 2 IEnMin= 2 EnMin= -111.239208267573     IErMin= 2 ErrMin= 1.89D-05
 ErrMax= 1.89D-05  0.00D+00 EMaxC= 1.00D-01 BMatC= 8.09D-08 BMatP= 2.37D-07
 IDIUse=1 WtCom= 1.00D+00 WtEn= 0.00D+00
 Coeff-Com:  0.141D+00 0.859D+00
 Coeff:      0.141D+00 0.859D+00
 Gap=     0.371 Goal=   None    Shift=    0.000
 Gap=     0.401 Goal=   None    Shift=    0.000
 RMSDP=3.79D-06 MaxDP=6.35D-05 DE=-2.08D-07 OVMax= 1.83D-04

 Cycle  12  Pass 1  IDiag  1:
 E= -111.239208331869     Delta-E=       -0.000000064296 Rises=F Damp=F
 DIIS: error= 1.19D-05 at cycle   3 NSaved=   3.
 NSaved= 3 IEnMin= 3 EnMin= -111.239208331869     IErMin= 3 ErrMin= 1.19D-05
 ErrMax= 1.19D-05  0.00D+00 EMaxC= 1.00D-01 BMatC= 5.83D-08 BMatP= 8.09D-08
 IDIUse=1 WtCom= 1.00D+00 WtEn= 0.00D+00
 Coeff-Com: -0.410D+00 0.461D+00 0.948D+00
 Coeff:     -0.410D+00 0.461D+00 0.948D+00
 Gap=     0.371 Goal=   None    Shift=    0.000
 Gap=     0.401 Goal=   None    Shift=    0.000
 RMSDP=4.49D-06 MaxDP=7.50D-05 DE=-6.43D-08 OVMax= 2.21D-04

 Cycle  13  Pass 1  IDiag  1:
 E= -111.239208378477     Delta-E=       -0.000000046608 Rises=F Damp=F
 DIIS: error= 5.14D-06 at cycle   4 NSaved=   4.
 NSaved= 4 IEnMin= 4 EnMin= -111.239208378477     IErMin= 4 ErrMin= 5.14D-06
 ErrMax= 5.14D-06  0.00D+00 EMaxC= 1.00D-01 BMatC= 4.20D-09 BMatP= 5.83D-08
 IDIUse=1 WtCom= 1.00D+00 WtEn= 0.00D+00
 Coeff-Com: -0.981D-01-0.687D-01 0.775D-01 0.109D+01
 Coeff:     -0.981D-01-0.687D-01 0.775D-01 0.109D+01
 Gap=     0.371 Goal=   None    Shift=    0.000
 Gap=     0.401 Goal=   None    Shift=    0.000
 RMSDP=1.99D-06 MaxDP=3.10D-05 DE=-4.66D-08 OVMax= 1.14D-04

 Cycle  14  Pass 1  IDiag  1:
 E= -111.239208385635     Delta-E=       -0.000000007158 Rises=F Damp=F
 DIIS: error= 2.27D-06 at cycle   5 NSaved=   5.
 NSaved= 5 IEnMin= 5 EnMin= -111.239208385635     IErMin= 5 ErrMin= 2.27D-06
 ErrMax= 2.27D-06  0.00D+00 EMaxC= 1.00D-01 BMatC= 6.30D-10 BMatP= 4.20D-09
 IDIUse=1 WtCom= 1.00D+00 WtEn= 0.00D+00
 Coeff-Com:  0.500D-01-0.495D-01-0.133D+00 0.109D-01 0.112D+01
 Coeff:      0.500D-01-0.495D-01-0.133D+00 0.109D-01 0.112D+01
 Gap=     0.371 Goal=   None    Shift=    0.000
 Gap=     0.401 Goal=   None    Shift=    0.000
 RMSDP=5.15D-07 MaxDP=7.37D-06 DE=-7.16D-09 OVMax= 4.43D-05

 Cycle  15  Pass 1  IDiag  1:
 E= -111.239208386506     Delta-E=       -0.000000000871 Rises=F Damp=F
 DIIS: error= 9.40D-07 at cycle   6 NSaved=   6.
 NSaved= 6 IEnMin= 6 EnMin= -111.239208386506     IErMin= 6 ErrMin= 9.40D-07
 ErrMax= 9.40D-07  0.00D+00 EMaxC= 1.00D-01 BMatC= 1.54D-10 BMatP= 6.30D-10
 IDIUse=1 WtCom= 1.00D+00 WtEn= 0.00D+00
 Coeff-Com:  0.246D-01 0.520D-02-0.343D-01-0.185D+00 0.186D+00 0.100D+01
 Coeff:      0.246D-01 0.520D-02-0.343D-01-0.185D+00 0.186D+00 0.100D+01
 Gap=     0.371 Goal=   None    Shift=    0.000
 Gap=     0.401 Goal=   None    Shift=    0.000
 RMSDP=1.88D-07 MaxDP=3.08D-06 DE=-8.71D-10 OVMax= 1.93D-05

 Cycle  16  Pass 1  IDiag  1:
 E= -111.239208386691     Delta-E=       -0.000000000185 Rises=F Damp=F
 DIIS: error= 4.63D-07 at cycle   7 NSaved=   7.
 NSaved= 7 IEnMin= 7 EnMin= -111.239208386691     IErMin= 7 ErrMin= 4.63D-07
 ErrMax= 4.63D-07  0.00D+00 EMaxC= 1.00D-01 BMatC= 3.82D-11 BMatP= 1.54D-10
 IDIUse=1 WtCom= 1.00D+00 WtEn= 0.00D+00
 Coeff-Com: -0.108D-01 0.186D-01 0.360D-01-0.547D-01-0.317D+00 0.237D+00
 Coeff-Com:  0.109D+01
 Coeff:     -0.108D-01 0.186D-01 0.360D-01-0.547D-01-0.317D+00 0.237D+00
 Coeff:      0.109D+01
 Gap=     0.371 Goal=   None    Shift=    0.000
 Gap=     0.401 Goal=   None    Shift=    0.000
 RMSDP=1.41D-07 MaxDP=2.03D-06 DE=-1.85D-10 OVMax= 1.25D-05

 Cycle  17  Pass 1  IDiag  1:
 E= -111.239208386743     Delta-E=       -0.000000000053 Rises=F Damp=F
 DIIS: error= 1.23D-07 at cycle   8 NSaved=   8.
 NSaved= 8 IEnMin= 8 EnMin= -111.239208386743     IErMin= 8 ErrMin= 1.23D-07
 ErrMax= 1.23D-07  0.00D+00 EMaxC= 1.00D-01 BMatC= 2.10D-12 BMatP= 3.82D-11
 IDIUse=1 WtCom= 1.00D+00 WtEn= 0.00D+00
 Coeff-Com:  0.103D-02-0.590D-02-0.681D-02 0.322D-01 0.757D-01-0.175D+00
 Coeff-Com: -0.330D+00 0.141D+01
 Coeff:      0.103D-02-0.590D-02-0.681D-02 0.322D-01 0.757D-01-0.175D+00
 Coeff:     -0.330D+00 0.141D+01
 Gap=     0.371 Goal=   None    Shift=    0.000
 Gap=     0.401 Goal=   None    Shift=    0.000
 RMSDP=6.23D-08 MaxDP=1.09D-06 DE=-5.26D-11 OVMax= 3.30D-06

 Cycle  18  Pass 1  IDiag  1:
 E= -111.239208386748     Delta-E=       -0.000000000004 Rises=F Damp=F
 DIIS: error= 2.01D-08 at cycle   9 NSaved=   9.
 NSaved= 9 IEnMin= 9 EnMin= -111.239208386748     IErMin= 9 ErrMin= 2.01D-08
 ErrMax= 2.01D-08  0.00D+00 EMaxC= 1.00D-01 BMatC= 1.25D-13 BMatP= 2.10D-12
 IDIUse=1 WtCom= 1.00D+00 WtEn= 0.00D+00
 Coeff-Com:  0.775D-03-0.128D-02-0.162D-02 0.123D-02 0.190D-01-0.443D-02
 Coeff-Com: -0.638D-01-0.114D+00 0.116D+01
 Coeff:      0.775D-03-0.128D-02-0.162D-02 0.123D-02 0.190D-01-0.443D-02
 Coeff:     -0.638D-01-0.114D+00 0.116D+01
 Gap=     0.371 Goal=   None    Shift=    0.000
 Gap=     0.401 Goal=   None    Shift=    0.000
 RMSDP=1.24D-08 MaxDP=2.63D-07 DE=-4.26D-12 OVMax= 5.52D-07

 Cycle  19  Pass 1  IDiag  1:
 E= -111.239208386748     Delta-E=       -0.000000000000 Rises=F Damp=F
 DIIS: error= 8.62D-09 at cycle  10 NSaved=  10.
 NSaved=10 IEnMin=10 EnMin= -111.239208386748     IErMin=10 ErrMin= 8.62D-09
 ErrMax= 8.62D-09  0.00D+00 EMaxC= 1.00D-01 BMatC= 8.86D-15 BMatP= 1.25D-13
 IDIUse=1 WtCom= 1.00D+00 WtEn= 0.00D+00
 Coeff-Com: -0.251D-03 0.519D-03 0.872D-03-0.185D-02-0.798D-02 0.853D-02
 Coeff-Com:  0.304D-01-0.275D-01-0.343D+00 0.134D+01
 Coeff:     -0.251D-03 0.519D-03 0.872D-03-0.185D-02-0.798D-02 0.853D-02
 Coeff:      0.304D-01-0.275D-01-0.343D+00 0.134D+01
 Gap=     0.371 Goal=   None    Shift=    0.000
 Gap=     0.401 Goal=   None    Shift=    0.000
 RMSDP=1.96D-09 MaxDP=3.45D-08 DE=-2.84D-13 OVMax= 1.08D-07

 SCF Done:  E(UwB97XD) =  -111.239208387     A.U. after   19 cycles
            NFock= 19  Conv=0.20D-08     -V/T= 2.0041
 <Sx>= 0.0000 <Sy>= 0.0000 <Sz>= 0.5000 <S**2>= 0.7546 S= 0.5023
 <L.S>= 0.000000000000E+00
 KE= 1.107842895230D+02 PE=-3.337640974075D+02 EE= 7.504776731338D+01
 Annihilation of the first spin contaminant:
 S**2 before annihilation     0.7546,   after     0.7500
 Leave Link  502 at Sat Aug 10 23:36:31 2019, MaxMem=  1835008000 cpu:              76.9 elap:              10.4
 (Enter /opt/g16/l508.exe)
 QCSCF skips out because SCF is already converged.
 Leave Link  508 at Sat Aug 10 23:36:31 2019, MaxMem=  1835008000 cpu:               0.0 elap:               0.0
 (Enter /opt/g16/l801.exe)
 DoSCS=F DFT=T ScalE2(SS,OS)=  1.000000  1.000000
 Range of M.O.s used for correlation:     1    80
 NBasis=    80 NAE=     9 NBE=     8 NFC=     0 NFV=     0
 NROrb=     80 NOA=     9 NOB=     8 NVA=    71 NVB=    72

 **** Warning!!: The largest alpha MO coefficient is  0.10519313D+02


 **** Warning!!: The largest beta MO coefficient is  0.10494957D+02

 Leave Link  801 at Sat Aug 10 23:36:31 2019, MaxMem=  1835008000 cpu:               0.6 elap:               0.1
 (Enter /opt/g16/l1101.exe)
 Using compressed storage, NAtomX=     5.
 Will process      6 centers per pass.
   1 Symmetry operations used in ECPInt.
 ECPInt:  NShTT=     595 NPrTT=    1764 LenC2=     595 LenP2D=    1624.
 LDataN:  DoStor=T MaxTD1= 7 Len=  274
 R6Disp: Adding Grimme-D2 dispersion energy 1st derivatives to the gradient.
 Leave Link 1101 at Sat Aug 10 23:36:32 2019, MaxMem=  1835008000 cpu:               6.6 elap:               0.9
 (Enter /opt/g16/l1102.exe)
 Symmetrizing basis deriv contribution to polar:
 IMax=3 JMax=2 DiffMx= 0.00D+00
 Leave Link 1102 at Sat Aug 10 23:36:32 2019, MaxMem=  1835008000 cpu:               0.5 elap:               0.1
 (Enter /opt/g16/l1110.exe)
 Forming Gx(P) for the SCF density, NAtomX=     5.
 Integral derivatives from FoFJK, PRISM(SPDF).
 Do as many integral derivatives as possible in FoFJK.
 G2DrvN: MDV=    1835007474.
 G2DrvN: will do     6 centers at a time, making    1 passes.
 Calling FoFCou, ICntrl=  3107 FMM=F I1Cent=   0 AccDes= 1.00D-12.
 FoFJK:  IHMeth= 1 ICntrl=    3107 DoSepK=T KAlg= 0 I1Cent=           0 FoldK=F
 IRaf=         1 NMat=       1 IRICut=       1 DoRegI=T DoRafI=F ISym2E= 0 IDoP0=0 IntGTp=1.
 FoFCou: FMM=F IPFlag=           0 FMFlag=      100000 FMFlg1=           0
         NFxFlg=           0 DoJE=F BraDBF=F KetDBF=F FulRan=T
         wScrn=  0.000000 ICntrl=      3507 IOpCl=  0 I1Cent=           0 NGrid=           0
         NMat0=    1 NMatS0=      1 NMatT0=    0 NMatD0=    1 NMtDS0=    0 NMtDT0=    0
 Symmetry not used in FoFCou.
 End of G2Drv F.D. properties file   721 does not exist.
 End of G2Drv F.D. properties file   722 does not exist.
 End of G2Drv F.D. properties file   788 does not exist.
 Leave Link 1110 at Sat Aug 10 23:36:44 2019, MaxMem=  1835008000 cpu:              93.6 elap:              11.8
 (Enter /opt/g16/l1002.exe)
 Minotr:  UHF open shell wavefunction.
          IDoAtm=11111
          Direct CPHF calculation.
          Differentiating once with respect to electric field.
                with respect to dipole field.
          Differentiating once with respect to nuclear coordinates.
          Requested convergence is 1.0D-08 RMS, and 1.0D-07 maximum.
          Secondary convergence is 1.0D-12 RMS, and 1.0D-12 maximum.
          NewPWx=T KeepS1=F KeepF1=F KeepIn=T MapXYZ=F SortEE=F KeepMc=T.
         1491 words used for storage of precomputed grid.
 Keep R1 and R2 ints in memory in canonical form, NReq=28292652.
 FoFCou: FMM=F IPFlag=           0 FMFlag=           0 FMFlg1=           0
         NFxFlg=           0 DoJE=F BraDBF=F KetDBF=F FulRan=T
         wScrn=  0.000000 ICntrl=       600 IOpCl=  0 I1Cent=           0 NGrid=           0
         NMat0=    1 NMatS0=   3240 NMatT0=    0 NMatD0=    1 NMtDS0=    0 NMtDT0=    0
 Symmetry not used in FoFCou.
 Two-electron integral symmetry not used.
          MDV=    1835008000 using IRadAn=       1.
          Solving linear equations simultaneously, MaxMat=       0.
          There are    18 degrees of freedom in the 1st order CPHF.  IDoFFX=6 NUNeed=     3.
     15 vectors produced by pass  0 Test12= 6.75D-15 5.56D-09 XBig12= 1.74D+01 2.59D+00.
 AX will form    15 AO Fock derivatives at one time.
     15 vectors produced by pass  1 Test12= 6.75D-15 5.56D-09 XBig12= 1.71D+00 4.23D-01.
     15 vectors produced by pass  2 Test12= 6.75D-15 5.56D-09 XBig12= 1.18D-01 1.12D-01.
     15 vectors produced by pass  3 Test12= 6.75D-15 5.56D-09 XBig12= 1.63D-03 9.24D-03.
     15 vectors produced by pass  4 Test12= 6.75D-15 5.56D-09 XBig12= 2.31D-05 1.04D-03.
     15 vectors produced by pass  5 Test12= 6.75D-15 5.56D-09 XBig12= 4.74D-07 1.69D-04.
     15 vectors produced by pass  6 Test12= 6.75D-15 5.56D-09 XBig12= 3.62D-09 1.20D-05.
      8 vectors produced by pass  7 Test12= 6.75D-15 5.56D-09 XBig12= 2.85D-11 8.09D-07.
      3 vectors produced by pass  8 Test12= 6.75D-15 5.56D-09 XBig12= 1.55D-13 7.16D-08.
      1 vectors produced by pass  9 Test12= 6.75D-15 5.56D-09 XBig12= 1.22D-15 5.68D-09.
 InvSVY:  IOpt=1 It=  1 EMax= 9.99D-16
 Solved reduced A of dimension   117 with    15 vectors.
 FullF1:  Do perturbations      1 to       3.
 Isotropic polarizability for W=    0.000000       17.91 Bohr**3.
 End of Minotr F.D. properties file   721 does not exist.
 End of Minotr F.D. properties file   722 does not exist.
 End of Minotr F.D. properties file   788 does not exist.
 Leave Link 1002 at Sat Aug 10 23:37:02 2019, MaxMem=  1835008000 cpu:             140.5 elap:              17.7
 (Enter /opt/g16/l601.exe)
 Copying SCF densities to generalized density rwf, IOpCl= 1 IROHF=0.

 **********************************************************************

            Population analysis using the SCF Density.

 **********************************************************************

 Orbital symmetries:
 Alpha Orbitals:
       Occupied  (A) (A) (A) (A) (A) (A) (A) (A) (A)
       Virtual   (A) (A) (A) (A) (A) (A) (A) (A) (A) (A) (A) (A)
                 (A) (A) (A) (A) (A) (A) (A) (A) (A) (A) (A) (A)
                 (A) (A) (A) (A) (A) (A) (A) (A) (A) (A) (A) (A)
                 (A) (A) (A) (A) (A) (A) (A) (A) (A) (A) (A) (A)
                 (A) (A) (A) (A) (A) (A) (A) (A) (A) (A) (A) (A)
                 (A) (A) (A) (A) (A) (A) (A) (A) (A) (A) (A)
 Beta  Orbitals:
       Occupied  (A) (A) (A) (A) (A) (A) (A) (A)
       Virtual   (A) (A) (A) (A) (A) (A) (A) (A) (A) (A) (A) (A)
                 (A) (A) (A) (A) (A) (A) (A) (A) (A) (A) (A) (A)
                 (A) (A) (A) (A) (A) (A) (A) (A) (A) (A) (A) (A)
                 (A) (A) (A) (A) (A) (A) (A) (A) (A) (A) (A) (A)
                 (A) (A) (A) (A) (A) (A) (A) (A) (A) (A) (A) (A)
                 (A) (A) (A) (A) (A) (A) (A) (A) (A) (A) (A) (A)
 The electronic state is 2-A.
 Alpha  occ. eigenvalues --  -14.47854 -14.43959  -1.08836  -0.83643  -0.64460
 Alpha  occ. eigenvalues --   -0.56272  -0.48109  -0.38127  -0.26846
 Alpha virt. eigenvalues --    0.10263   0.14175   0.17699   0.31658   0.38108
 Alpha virt. eigenvalues --    0.40686   0.44088   0.44860   0.48627   0.49200
 Alpha virt. eigenvalues --    0.51495   0.54541   0.57933   0.60997   0.65825
 Alpha virt. eigenvalues --    0.92478   1.03034   1.10295   1.22301   1.30226
 Alpha virt. eigenvalues --    1.41875   1.43984   1.47372   1.61924   1.66353
 Alpha virt. eigenvalues --    1.74319   1.91485   1.93235   1.94505   2.05600
 Alpha virt. eigenvalues --    2.06468   2.10348   2.14420   2.17080   2.21797
 Alpha virt. eigenvalues --    2.36963   2.42635   2.57365   2.58640   2.67838
 Alpha virt. eigenvalues --    2.79843   3.09007   3.14847   3.22096   3.56840
 Alpha virt. eigenvalues --    3.68218   3.89112   3.95627   4.03412   4.12610
 Alpha virt. eigenvalues --    4.32929   4.47107   4.60590   4.64319   4.68229
 Alpha virt. eigenvalues --    4.71692   4.72649   4.73941   4.83221   4.90506
 Alpha virt. eigenvalues --    5.01409   5.03681   5.32757   5.35666   5.59007
 Alpha virt. eigenvalues --    5.67617   5.81641   5.94101   6.82771  31.67869
 Alpha virt. eigenvalues --   31.76638
  Beta  occ. eigenvalues --  -14.47282 -14.42600  -1.06581  -0.80530  -0.63684
  Beta  occ. eigenvalues --   -0.54980  -0.41541  -0.35925
  Beta virt. eigenvalues --    0.04180   0.10561   0.14503   0.17992   0.32670
  Beta virt. eigenvalues --    0.38179   0.41943   0.44490   0.45252   0.49540
  Beta virt. eigenvalues --    0.51799   0.52048   0.55393   0.58421   0.61774
  Beta virt. eigenvalues --    0.66565   0.93654   1.05319   1.12362   1.23343
  Beta virt. eigenvalues --    1.31017   1.43226   1.44861   1.48170   1.64216
  Beta virt. eigenvalues --    1.68030   1.74558   1.92329   1.94494   1.95289
  Beta virt. eigenvalues --    2.06382   2.07021   2.13064   2.15979   2.19306
  Beta virt. eigenvalues --    2.22607   2.39230   2.45080   2.58157   2.59278
  Beta virt. eigenvalues --    2.68602   2.80663   3.09861   3.16382   3.23398
  Beta virt. eigenvalues --    3.58737   3.70859   3.92224   3.97507   4.06123
  Beta virt. eigenvalues --    4.14140   4.36955   4.49632   4.63375   4.67094
  Beta virt. eigenvalues --    4.70581   4.74675   4.76167   4.77015   4.87314
  Beta virt. eigenvalues --    4.93542   5.03319   5.05478   5.34402   5.37108
  Beta virt. eigenvalues --    5.60259   5.70664   5.82721   5.94855   6.84368
  Beta virt. eigenvalues --   31.69584  31.77369
          Condensed to atoms (all electrons):
               1          2          3          4          5
     1  N    6.444161   0.173863   0.359787   0.381432  -0.031247
     2  N    0.173863   6.957565  -0.019687  -0.051381   0.296928
     3  H    0.359787  -0.019687   0.489245  -0.042242  -0.021552
     4  H    0.381432  -0.051381  -0.042242   0.448084   0.009828
     5  H   -0.031247   0.296928  -0.021552   0.009828   0.549484
          Atomic-Atomic Spin Densities.
               1          2          3          4          5
     1  N    0.481644  -0.215851  -0.002909  -0.001034   0.003170
     2  N   -0.215851   0.985277  -0.004987  -0.003190  -0.000735
     3  H   -0.002909  -0.004987   0.002454   0.003646   0.001097
     4  H   -0.001034  -0.003190   0.003646  -0.003638  -0.000374
     5  H    0.003170  -0.000735   0.001097  -0.000374  -0.023403
 Mulliken charges and spin densities:
               1          2
     1  N   -0.327995   0.265020
     2  N   -0.357289   0.760515
     3  H    0.234448  -0.000699
     4  H    0.254278  -0.004591
     5  H    0.196558  -0.020245
 Sum of Mulliken charges =  -0.00000   1.00000
 Mulliken charges and spin densities with hydrogens summed into heavy atoms:
               1          2
     1  N    0.160730   0.259730
     2  N   -0.160730   0.740270
 APT charges:
               1
     1  N   -0.338839
     2  N   -0.149656
     3  H    0.170468
     4  H    0.192636
     5  H    0.125392
 Sum of APT charges =  -0.00000
 APT charges with hydrogens summed into heavy atoms:
               1
     1  N    0.024264
     2  N   -0.024264
 Electronic spatial extent (au):  <R**2>=             70.7351
 Charge=             -0.0000 electrons
 Dipole moment (field-independent basis, Debye):
    X=              2.0259    Y=              1.6720    Z=              0.6492  Tot=              2.7058
 Quadrupole moment (field-independent basis, Debye-Ang):
   XX=            -11.6197   YY=            -10.7841   ZZ=            -14.2598
   XY=             -2.2633   XZ=              0.9762   YZ=              0.1114
 Traceless Quadrupole moment (field-independent basis, Debye-Ang):
   XX=              0.6015   YY=              1.4371   ZZ=             -2.0386
   XY=             -2.2633   XZ=              0.9762   YZ=              0.1114
 Octapole moment (field-independent basis, Debye-Ang**2):
  XXX=              4.3390  YYY=              2.3811  ZZZ=              0.5690  XYY=              2.8413
  XXY=              2.4240  XXZ=              0.9027  XZZ=              0.4021  YZZ=              0.4537
  YYZ=              0.5473  XYZ=              0.0970
 Hexadecapole moment (field-independent basis, Debye-Ang**3):
 XXXX=            -51.8081 YYYY=            -17.1162 ZZZZ=            -14.4673 XXXY=             -4.5883
 XXXZ=              1.5660 YYYX=             -2.6425 YYYZ=              0.1687 ZZZX=              0.8493
 ZZZY=              0.1033 XXYY=             -9.7229 XXZZ=            -12.5857 YYZZ=             -5.6655
 XXYZ=              0.0378 YYXZ=              0.7551 ZZXY=             -0.6527
 N-N= 3.669283218437D+01 E-N=-3.337640973831D+02  KE= 1.107842895230D+02
  Exact polarizability:  24.450  -0.095  16.859  -0.173  -0.075  12.417
 Approx polarizability:  23.203  -0.154  17.290  -0.258  -0.076  12.595
                          Isotropic Fermi Contact Couplings
        Atom                 a.u.       MegaHertz       Gauss      10(-4) cm-1
     1  N(14)              0.07400      23.91124       8.53213       7.97593
     2  N(14)              0.08356      26.99981       9.63420       9.00617
     3  H(1)               0.00080       3.57868       1.27696       1.19372
     4  H(1)              -0.00221      -9.87585      -3.52395      -3.29423
     5  H(1)              -0.01055     -47.14868     -16.82382     -15.72711
 --------------------------------------------------------
       Center         ----  Spin Dipole Couplings  ----
                      3XX-RR        3YY-RR        3ZZ-RR
 --------------------------------------------------------
     1   Atom       -0.360065     -0.395260      0.755325
     2   Atom       -0.932904     -0.908817      1.841721
     3   Atom       -0.014634      0.024972     -0.010339
     4   Atom       -0.002438      0.013819     -0.011381
     5   Atom       -0.050395      0.065107     -0.014712
 --------------------------------------------------------
                        XY            XZ            YZ
 --------------------------------------------------------
     1   Atom        0.008882     -0.141560     -0.041006
     2   Atom       -0.019091      0.009004      0.105647
     3   Atom        0.036650      0.005011      0.008664
     4   Atom       -0.039678      0.005133     -0.008750
     5   Atom       -0.068419      0.002291     -0.000658
 --------------------------------------------------------


 ---------------------------------------------------------------------------------
              Anisotropic Spin Dipole Couplings in Principal Axis System
 ---------------------------------------------------------------------------------

       Atom             a.u.   MegaHertz   Gauss  10(-4) cm-1        Axes

              Baa    -0.3975   -15.329    -5.470    -5.113 -0.1888  0.9820  0.0117
     1 N(14)  Bbb    -0.3770   -14.542    -5.189    -4.851  0.9742  0.1857  0.1285
              Bcc     0.7745    29.871    10.659     9.964 -0.1240 -0.0357  0.9916
 
              Baa    -0.9448   -36.437   -13.002   -12.154  0.8541  0.5197 -0.0225
     2 N(14)  Bbb    -0.9010   -34.751   -12.400   -11.592 -0.5202  0.8535 -0.0312
              Bcc     1.8458    71.188    25.402    23.746  0.0030  0.0383  0.9993
 
              Baa    -0.0365   -19.469    -6.947    -6.494  0.8585 -0.5127  0.0053
     3 H(1)   Bbb    -0.0120    -6.424    -2.292    -2.143 -0.0905 -0.1412  0.9858
              Bcc     0.0485    25.893     9.239     8.637  0.5047  0.8469  0.1676
 
              Baa    -0.0349   -18.632    -6.648    -6.215  0.7675  0.6373  0.0695
     4 H(1)   Bbb    -0.0130    -6.920    -2.469    -2.308 -0.1596  0.0849  0.9835
              Bcc     0.0479    25.551     9.117     8.523 -0.6209  0.7659 -0.1669
 
              Baa    -0.0822   -43.872   -15.655   -14.634  0.9067  0.4209 -0.0267
     5 H(1)   Bbb    -0.0147    -7.836    -2.796    -2.614  0.0183  0.0239  0.9995
              Bcc     0.0969    51.707    18.450    17.248 -0.4214  0.9068 -0.0140
 

 ---------------------------------------------------------------------------------

 No NMR shielding tensors so no spin-rotation constants.
 Leave Link  601 at Sat Aug 10 23:37:02 2019, MaxMem=  1835008000 cpu:               4.4 elap:               0.6
 (Enter /opt/g16/l701.exe)
 SCFChk:  SCF convergence  1.96D-09 required  1.00D-08
 ... and contract with generalized density number  0.
 Compute integral second derivatives.
 R6Disp: Adding Grimme-D2 dispersion energy 2nd derivatives to the Hessian.
 Entering OneElI...
 Calculate overlap and kinetic energy integrals
    NBasis =  90  MinDer = 2  MaxDer = 2
 Requested accuracy = 0.1000D-14
 PrmmSu-InSpLW:  IPartL=    0 NPrtUS=    8 NPrtUL=    1 DoSpLW=F IThBeg=    0 IThEnd=    7 NThAct=    8.
 PrSmSu:  IncTry=   512 NBBP=            595 NTPThr=   100 NPartT=    8 Incr=           1 LDynOK=F GPUOK=F.
 PrsmSu:  NPrtUS=   8 ThrOK=T IAlg=2 LenDen=           0 ISkipM=0 DoSpLW=F IThBeg=    0 IThEnd=    7.
 Prism:   IPart=     0 DynPar=F LinDyn=F Incr=           1.
 PRISM was handed   229354333 working-precision words and   595 shell-pairs
 PRISM was handed   229354333 working-precision words and   595 shell-pairs
 PRISM was handed   229354333 working-precision words and   595 shell-pairs
 PRISM was handed   229354333 working-precision words and   595 shell-pairs
 PRISM was handed   229354333 working-precision words and   595 shell-pairs
 PRISM was handed   229354333 working-precision words and   595 shell-pairs
 PRISM was handed   229354333 working-precision words and   595 shell-pairs
 PRISM was handed   229354333 working-precision words and   595 shell-pairs
 IPart=  7 NShTot=          59 NBatch=          21 AvBLen=         2.8
 IPart=  3 NShTot=          77 NBatch=          27 AvBLen=         2.9
 IPart=  2 NShTot=          84 NBatch=          34 AvBLen=         2.5
 IPart=  6 NShTot=          61 NBatch=          22 AvBLen=         2.8
 IPart=  4 NShTot=          67 NBatch=          23 AvBLen=         2.9
 IPart=  5 NShTot=          66 NBatch=          23 AvBLen=         2.9
 IPart=  1 NShTot=          90 NBatch=          39 AvBLen=         2.3
 IPart=  0 NShTot=          91 NBatch=          40 AvBLen=         2.3
 PrSmSu:  NxtVal=              9.
 Entering OneElI...
 Calculate potential energy integrals
    NBasis =  90  MinDer = 2  MaxDer = 2
 Requested accuracy = 0.1000D-14
 PrmmSu-InSpLW:  IPartL=    0 NPrtUS=    8 NPrtUL=    1 DoSpLW=F IThBeg=    0 IThEnd=    7 NThAct=    8.
 PrSmSu:  IncTry=   512 NBBP=           2970 NTPThr=   100 NPartT=    8 Incr=           3 LDynOK=F GPUOK=F.
 PrsmSu:  NPrtUS=   8 ThrOK=T IAlg=2 LenDen=           0 ISkipM=0 DoSpLW=F IThBeg=    0 IThEnd=    7.
 Prism:   IPart=     0 DynPar=F LinDyn=F Incr=           3.
 PRISM was handed   229355960 working-precision words and   594 shell-pairs
 PRISM was handed   229355960 working-precision words and   594 shell-pairs
 PRISM was handed   229355960 working-precision words and   594 shell-pairs
 PRISM was handed   229355960 working-precision words and   594 shell-pairs
 PRISM was handed   229355960 working-precision words and   594 shell-pairs
 PRISM was handed   229355960 working-precision words and   594 shell-pairs
 PRISM was handed   229355960 working-precision words and   594 shell-pairs
 PRISM was handed   229355960 working-precision words and   594 shell-pairs
 IPart=  7 NShTot=         300 NBatch=          60 AvBLen=         5.0
 IPart=  2 NShTot=         405 NBatch=          81 AvBLen=         5.0
 IPart=  6 NShTot=         305 NBatch=          61 AvBLen=         5.0
 IPart=  3 NShTot=         385 NBatch=          77 AvBLen=         5.0
 IPart=  5 NShTot=         335 NBatch=          67 AvBLen=         5.0
 IPart=  0 NShTot=         450 NBatch=          90 AvBLen=         5.0
 IPart=  4 NShTot=         350 NBatch=          70 AvBLen=         5.0
 IPart=  1 NShTot=         440 NBatch=          88 AvBLen=         5.0
 PrSmSu:  NxtVal=             25.
   1 Symmetry operations used in ECPInt.
 ECPInt:  NShTT=     595 NPrTT=    1764 LenC2=     595 LenP2D=    1624.
 LDataN:  DoStor=F MaxTD1= 8 Len=  415
 LDataN:  DoStor=T MaxTD1= 8 Len=  415
 ECPSu:  NPrtUS=   8 ThrOK=T ISkipM=0 DoSpLW=F IThBeg=    0 IThEnd=    7.
 Polarizability after L701:
                1             2             3 
      1  0.244498D+02
      2 -0.946909D-01  0.168593D+02
      3 -0.172603D+00 -0.750582D-01  0.124165D+02
 Dipole Derivatives after L701:
                 1             2             3             4             5 
      1  -0.498689D+00 -0.119646D+00  0.250494D+00  0.961765D-01  0.554015D-01
      2  -0.123269D-01 -0.912163D-01  0.528668D-01  0.328343D-01 -0.107591D+00
      3   0.141796D+00  0.546164D-01 -0.426613D+00 -0.861145D-01 -0.432401D-01
                 6             7             8             9            10 
      1  -0.324044D-01  0.757929D-01 -0.299059D-01 -0.111347D+00  0.146337D+00
      2  -0.320841D-01 -0.290191D-01  0.113741D+00 -0.805197D-01 -0.177904D-02
      3  -0.437554D+00 -0.306237D-01 -0.595569D-01  0.321870D+00 -0.236549D-01
                11            12            13            14            15 
      1  -0.142693D-01 -0.108467D+00  0.180383D+00  0.108420D+00  0.172512D-02
      2   0.156563D+00  0.399548D-01  0.102908D-01 -0.714958D-01  0.197822D-01
      3   0.256955D-01  0.275008D+00 -0.140338D-02  0.224852D-01  0.267289D+00
 Hessian after L701:
                1             2             3             4             5 
      1  0.260647D+01
      2 -0.795355D+00  0.877697D+01
      3  0.141244D-01  0.633182D-02  0.124098D+02
      4  0.218346D+01  0.104353D+01 -0.702784D+00  0.273040D+00
      5  0.113075D+01 -0.636069D+01 -0.129319D+00 -0.687777D-01  0.730941D+01
      6 -0.658865D+00 -0.106869D+00 -0.624031D+01  0.569449D+00  0.167391D+00
      7 -0.255890D+01  0.112488D+01  0.336024D+00  0.437489D-01  0.126116D+00
      8  0.107862D+01 -0.107635D+01  0.614990D+00  0.175765D+00  0.205651D+00
      9  0.316223D+00  0.577454D+00 -0.299203D+01  0.430623D-01  0.565823D-01
     10 -0.231368D+01 -0.136942D+01  0.367228D+00 -0.116098D+00 -0.434786D-01
     11 -0.128808D+01 -0.137938D+01 -0.500703D+00 -0.126012D+00  0.147513D+00
     12  0.329727D+00 -0.466950D+00 -0.314083D+01  0.445950D-01 -0.310734D-01
     13  0.826484D-01 -0.363542D-02 -0.145923D-01 -0.238415D+01 -0.114461D+01
     14 -0.125933D+00  0.394540D-01  0.870002D-02 -0.102451D+01 -0.130188D+01
     15 -0.120895D-02 -0.996638D-02 -0.366414D-01  0.456775D-01 -0.635811D-01
                6             7             8             9            10 
      6  0.923207D+01
      7  0.218848D-01  0.249433D+01
      8  0.356082D-01 -0.126994D+01  0.104719D+01
      9 -0.276966D-02 -0.356765D+00 -0.633220D+00  0.288807D+01
     10  0.175840D-01  0.105294D+00  0.177177D-01  0.831184D-02  0.226500D+01
     11 -0.260463D-01  0.228029D-01 -0.202749D+00  0.220820D-02  0.146427D+01
     12  0.230883D-01  0.953690D-02 -0.194219D-01  0.828508D-01 -0.397401D+00
     13  0.499470D-01 -0.844757D-01 -0.215939D-02 -0.108316D-01  0.594855D-01
     14 -0.700836D-01 -0.385283D-02  0.262643D-01 -0.302434D-02 -0.690931D-01
     15 -0.301208D+01 -0.106810D-01  0.204385D-02  0.238738D-01  0.427681D-02
               11            12            13            14            15 
     11  0.139622D+01
     12  0.527320D+00  0.304810D+01
     13 -0.729839D-01  0.135413D-01  0.232649D+01
     14  0.383989D-01 -0.987446D-02  0.122339D+01  0.119776D+01
     15 -0.277875D-02 -0.132027D-01 -0.380644D-01  0.742823D-01  0.303805D+01
 Leave Link  701 at Sat Aug 10 23:37:03 2019, MaxMem=  1835008000 cpu:               8.1 elap:               1.0
 (Enter /opt/g16/l702.exe)
 L702 exits ... SP integral derivatives will be done elsewhere.
 Leave Link  702 at Sat Aug 10 23:37:03 2019, MaxMem=  1835008000 cpu:               0.4 elap:               0.0
 (Enter /opt/g16/l703.exe)
 Integral derivatives from FoFJK, PRISM(SPDF).
 Compute integral second derivatives, UseDBF=F ICtDFT=           0.
 ICntrl=    100127.
 Calling FoFJK, ICntrl=    100127 FMM=F ISym2X=0 I1Cent= 0 IOpClX= 1 NMat=1 NMatS=1 NMatT=0.
 FoFJK:  IHMeth= 1 ICntrl=  100127 DoSepK=T KAlg= 0 I1Cent=           0 FoldK=F
 IRaf=         1 NMat=       1 IRICut=       1 DoRegI=T DoRafI=F ISym2E= 0 IDoP0=0 IntGTp=1.
 FoFCou: FMM=F IPFlag=           0 FMFlag=      100000 FMFlg1=         800
         NFxFlg=           0 DoJE=F BraDBF=F KetDBF=F FulRan=T
         wScrn=  0.000000 ICntrl=    100527 IOpCl=  0 I1Cent=           0 NGrid=           0
         NMat0=    1 NMatS0=      1 NMatT0=    0 NMatD0=    1 NMtDS0=    0 NMtDT0=    0
 Symmetry not used in FoFCou.
 FoFCou:  KetSym=F NOpSet=  1 NOpAb=1 NOp=  1.
 FoFCou:  CnvScl= 1.00D+00 Thresh= 1.00D-12 IAcrcy=      10.
 PrismS was handed  1834946817 working-precision words and   594 shell-pairs
 FoFCou: LinMIO=F DoNuc=F BraDBF=F KetDBF=F HaveP=T PDBF=F HaveZ=T HaveW=F
         NIJTC =      10 NIJTAt=       0 NIJTCD=       0 NIJTT =      10
         IJTBeg=       1 IJTEnd=      10 KLTBeg=       1 KLTEnd=      10
         IPTBeg=       1 IPTEnd=      10 IPTBCv=       1 IPTECv=      10
         IZTBeg=       1 IZTEnd=      10 IZTBCv=       1 IZTECv=      10
         IWTBeg=      11 IWTEnd=      10 IWTBCv=      11 IWTECv=      10
         INTBeg=       1 INTEnd=       0 IFTBCv=       1 IFTECv=      10
 NCel replicated for PrismC:     1
 CoulSu-InSpLW:  IPartL=    0 NPrtUS=    8 NPrtUL=    1 DoSpLW=F IThBeg=    0 IThEnd=    7 NThAct=    8.
 CoulSu:  IncTry=  1024 NBBP=         176715 NTPThr=   100 NPartT=    8 Incr=         220 LDynOK=F GPUOK=F.
 CoulSu:  NPrtUS=   8 ThrOK=T IAlg=2 LenDen=           0 LWGrdD=           0 DoCopy=F ISkipM=0
          DoSpLW=F IThBeg=    0 IThEnd=    7.
 Enter PrismC:  IPart=  0 JobTyp=22 DoJE=F Cont=F.
 PrismC:  IPart=     0 DynPar=T LinDyn=F Incr=         220 UseFst=F UseS4=T ISplat=2.
 PrismC was handed   229356214 working-precision words and   594 shell-pairs
 Enter PrismC:  IPart=  1 JobTyp=22 DoJE=F Cont=F.
 PrismC:  IPart=     1 DynPar=T LinDyn=F Incr=         220 UseFst=F UseS4=T ISplat=2.
 PrismC was handed   229356214 working-precision words and   594 shell-pairs
 Enter PrismC:  IPart=  5 JobTyp=22 DoJE=F Cont=F.
 PrismC:  IPart=     5 DynPar=T LinDyn=F Incr=         220 UseFst=F UseS4=T ISplat=2.
 Enter PrismC:  IPart=  3 JobTyp=22 DoJE=F Cont=F.
 PrismC was handed   229356214 working-precision words and   594 shell-pairs
 PrismC:  IPart=     3 DynPar=T LinDyn=F Incr=         220 UseFst=F UseS4=T ISplat=2.
 Enter PrismC:  IPart=  4 JobTyp=22 DoJE=F Cont=F.
 PrismC was handed   229356214 working-precision words and   594 shell-pairs
 Enter PrismC:  IPart=  6 JobTyp=22 DoJE=F Cont=F.
 PrismC:  IPart=     6 DynPar=T LinDyn=F Incr=         220 UseFst=F UseS4=T ISplat=2.
 PrismC was handed   229356214 working-precision words and   594 shell-pairs
 PrismC:  IPart=     4 DynPar=T LinDyn=F Incr=         220 UseFst=F UseS4=T ISplat=2.
 PrismC was handed   229356214 working-precision words and   594 shell-pairs
 Enter PrismC:  IPart=  7 JobTyp=22 DoJE=F Cont=F.
 Enter PrismC:  IPart=  2 JobTyp=22 DoJE=F Cont=F.
 PrismC:  IPart=     7 DynPar=T LinDyn=F Incr=         220 UseFst=F UseS4=T ISplat=2.
 PrismC:  IPart=     2 DynPar=T LinDyn=F Incr=         220 UseFst=F UseS4=T ISplat=2.
 PrismC was handed   229356214 working-precision words and   594 shell-pairs
 PrismC was handed   229356214 working-precision words and   594 shell-pairs
 IPart=  6 NShTot=       24202 NShNF=       24202 NShFF=           0 MinMC=       7
           NShCPU=       24202 NBCPU=         685 AvBCPU=        35.3
           NShGPU=           0 NBGPU=           0 AvBGPU=         0.0
 IPart=  4 NShTot=       21818 NShNF=       21818 NShFF=           0 MinMC=       7
           NShCPU=       21818 NBCPU=         596 AvBCPU=        36.6
           NShGPU=           0 NBGPU=           0 AvBGPU=         0.0
 IPart=  3 NShTot=       22677 NShNF=       22677 NShFF=           0 MinMC=       7
           NShCPU=       22677 NBCPU=         645 AvBCPU=        35.2
           NShGPU=           0 NBGPU=           0 AvBGPU=         0.0
 IPart=  5 NShTot=       22070 NShNF=       22070 NShFF=           0 MinMC=       7
           NShCPU=       22070 NBCPU=         604 AvBCPU=        36.5
           NShGPU=           0 NBGPU=           0 AvBGPU=         0.0
 IPart=  7 NShTot=       23605 NShNF=       23605 NShFF=           0 MinMC=       7
           NShCPU=       23605 NBCPU=         737 AvBCPU=        32.0
           NShGPU=           0 NBGPU=           0 AvBGPU=         0.0
 IPart=  2 NShTot=       22878 NShNF=       22878 NShFF=           0 MinMC=       7
           NShCPU=       22878 NBCPU=         690 AvBCPU=        33.2
           NShGPU=           0 NBGPU=           0 AvBGPU=         0.0
 IPart=  1 NShTot=       21466 NShNF=       21466 NShFF=           0 MinMC=       7
           NShCPU=       21466 NBCPU=         531 AvBCPU=        40.4
           NShGPU=           0 NBGPU=           0 AvBGPU=         0.0
 IPart=  0 NShTot=       17553 NShNF=       17553 NShFF=           0 MinMC=       7
           NShCPU=       17553 NBCPU=         376 AvBCPU=        46.7
           NShGPU=           0 NBGPU=           0 AvBGPU=         0.0
 CoulSu:  NxtVal=         189641 LenVP=      229356215 MinMC=       7.
 FoFCou: FMM=F IPFlag=           0 FMFlag=      100000 FMFlg1=         800
         NFxFlg=           0 DoJE=F BraDBF=F KetDBF=F FulRan=T
         wScrn=  0.000000 ICntrl=    100127 IOpCl=  1 I1Cent=           0 NGrid=           0
         NMat0=    1 NMatS0=      0 NMatT0=    1 NMatD0=    1 NMtDS0=    0 NMtDT0=    0
         CW=    0.222036    0.777964
         WU=    0.000000   12.500000
 Symmetry not used in FoFCou.
 FoFCou:  KetSym=F NOpSet=  1 NOpAb=1 NOp=  1.
 FoFCou:  CnvScl= 1.00D+00 Thresh= 1.00D-12 IAcrcy=      10.
 IniFok:  ToCart=T IDoP0=2 DoConv=F DoRafP=T DoAdj=T
 PrismS was handed  1834946257 working-precision words and   594 shell-pairs
 FoFCou: LinMIO=F DoNuc=F BraDBF=F KetDBF=F HaveP=T PDBF=F HaveZ=T HaveW=F
         NIJTC =      10 NIJTAt=       0 NIJTCD=       0 NIJTT =      10
         IJTBeg=       1 IJTEnd=      10 KLTBeg=       1 KLTEnd=      10
         IPTBeg=       1 IPTEnd=      10 IPTBCv=       1 IPTECv=      10
         IZTBeg=       1 IZTEnd=      10 IZTBCv=       1 IZTECv=      10
         IWTBeg=      11 IWTEnd=      10 IWTBCv=      11 IWTECv=      10
         INTBeg=       1 INTEnd=       0 IFTBCv=       1 IFTECv=      10
 NCel replicated for PrismC:     1
 CoulSu-InSpLW:  IPartL=    0 NPrtUS=    8 NPrtUL=    1 DoSpLW=F IThBeg=    0 IThEnd=    7 NThAct=    8.
 CoulSu:  IncTry=  1024 NBBP=         176715 NTPThr=   100 NPartT=    8 Incr=         220 LDynOK=F GPUOK=F.
 CoulSu:  NPrtUS=   8 ThrOK=T IAlg=2 LenDen=           0 LWGrdD=           0 DoCopy=F ISkipM=0
          DoSpLW=F IThBeg=    0 IThEnd=    7.
 Enter PrismC:  IPart=  0 JobTyp=22 DoJE=F Cont=F.
 Linear combination for Coulomb/exchange, wScrn=  0.000000
 CW=    0.222036    0.777964
 WU=    0.000000   12.500000
 Enter PrismC:  IPart=  7 JobTyp=22 DoJE=F Cont=F.
 Enter PrismC:  IPart=  5 JobTyp=22 DoJE=F Cont=F.
 PrismC:  IPart=     0 DynPar=T LinDyn=F Incr=         220 UseFst=F UseS4=T ISplat=2.
 Linear combination for Coulomb/exchange, wScrn=  0.000000
 CW=    0.222036    0.777964
 WU=    0.000000   12.500000
 PrismC:  IPart=     7 DynPar=T LinDyn=F Incr=         220 UseFst=F UseS4=T ISplat=2.
 Linear combination for Coulomb/exchange, wScrn=  0.000000
 CW=    0.222036    0.777964
 WU=    0.000000   12.500000
 PrismC:  IPart=     5 DynPar=T LinDyn=F Incr=         220 UseFst=F UseS4=T ISplat=2.
 PrismC was handed   229356144 working-precision words and   594 shell-pairs
 PrismC was handed   229356144 working-precision words and   594 shell-pairs
 PrismC was handed   229356144 working-precision words and   594 shell-pairs
 Enter PrismC:  IPart=  6 JobTyp=22 DoJE=F Cont=F.
 Linear combination for Coulomb/exchange, wScrn=  0.000000
 CW=    0.222036    0.777964
 WU=    0.000000   12.500000
 PrismC:  IPart=     6 DynPar=T LinDyn=F Incr=         220 UseFst=F UseS4=T ISplat=2.
 PrismC was handed   229356144 working-precision words and   594 shell-pairs
 Enter PrismC:  IPart=  1 JobTyp=22 DoJE=F Cont=F.
 Linear combination for Coulomb/exchange, wScrn=  0.000000
 CW=    0.222036    0.777964
 WU=    0.000000   12.500000
 PrismC:  IPart=     1 DynPar=T LinDyn=F Incr=         220 UseFst=F UseS4=T ISplat=2.
 PrismC was handed   229356144 working-precision words and   594 shell-pairs
 Enter PrismC:  IPart=  2 JobTyp=22 DoJE=F Cont=F.
 Linear combination for Coulomb/exchange, wScrn=  0.000000
 CW=    0.222036    0.777964
 WU=    0.000000   12.500000
 PrismC:  IPart=     2 DynPar=T LinDyn=F Incr=         220 UseFst=F UseS4=T ISplat=2.
 PrismC was handed   229356144 working-precision words and   594 shell-pairs
 Enter PrismC:  IPart=  3 JobTyp=22 DoJE=F Cont=F.
 Linear combination for Coulomb/exchange, wScrn=  0.000000
 CW=    0.222036    0.777964
 WU=    0.000000   12.500000
 Enter PrismC:  IPart=  4 JobTyp=22 DoJE=F Cont=F.
 PrismC:  IPart=     3 DynPar=T LinDyn=F Incr=         220 UseFst=F UseS4=T ISplat=2.
 Linear combination for Coulomb/exchange, wScrn=  0.000000
 CW=    0.222036    0.777964
 WU=    0.000000   12.500000
 PrismC:  IPart=     4 DynPar=T LinDyn=F Incr=         220 UseFst=F UseS4=T ISplat=2.
 PrismC was handed   229356144 working-precision words and   594 shell-pairs
 PrismC was handed   229356144 working-precision words and   594 shell-pairs
 IPart=  3 NShTot=       26027 NShNF=       26027 NShFF=           0 MinMC=       7
           NShCPU=       26027 NBCPU=         757 AvBCPU=        34.4
           NShGPU=           0 NBGPU=           0 AvBGPU=         0.0
 IPart=  7 NShTot=       21111 NShNF=       21111 NShFF=           0 MinMC=       7
           NShCPU=       21111 NBCPU=         659 AvBCPU=        32.0
           NShGPU=           0 NBGPU=           0 AvBGPU=         0.0
 IPart=  0 NShTot=       16824 NShNF=       16824 NShFF=           0 MinMC=       7
           NShCPU=       16824 NBCPU=         363 AvBCPU=        46.3
           NShGPU=           0 NBGPU=           0 AvBGPU=         0.0
 IPart=  1 NShTot=       22326 NShNF=       22326 NShFF=           0 MinMC=       7
           NShCPU=       22326 NBCPU=         703 AvBCPU=        31.8
           NShGPU=           0 NBGPU=           0 AvBGPU=         0.0
 IPart=  5 NShTot=       22558 NShNF=       22558 NShFF=           0 MinMC=       7
           NShCPU=       22558 NBCPU=         656 AvBCPU=        34.4
           NShGPU=           0 NBGPU=           0 AvBGPU=         0.0
 IPart=  6 NShTot=       24325 NShNF=       24325 NShFF=           0 MinMC=       7
           NShCPU=       24325 NBCPU=         787 AvBCPU=        30.9
           NShGPU=           0 NBGPU=           0 AvBGPU=         0.0
 IPart=  4 NShTot=       20821 NShNF=       20821 NShFF=           0 MinMC=       7
           NShCPU=       20821 NBCPU=         672 AvBCPU=        31.0
           NShGPU=           0 NBGPU=           0 AvBGPU=         0.0
 IPart=  2 NShTot=       22237 NShNF=       22237 NShFF=           0 MinMC=       7
           NShCPU=       22237 NBCPU=         678 AvBCPU=        32.8
           NShGPU=           0 NBGPU=           0 AvBGPU=         0.0
 CoulSu:  NxtVal=         189641 LenVP=      229356145 MinMC=       7.
 ReadGW:  IGet=0 IStart=           1 Next=           1 LGW=           0.
 Remaining memory in FofDFT     1749.98 Mw
 CkSvGd:  ISavGI=        -1 IRadAn=       5 IRASav=       5 ISavGd=        -1.
 CalDSu-InSpLW:  IPartL=    0 NPrtUS=    8 NPrtUL=    1 DoSpLW=F IThBeg=    0 IThEnd=    7 NThAct=    8.
 CalDSu:  NPrtUS=   8 ThrOK=T IAlg=1 DoDPD=T LenP=        4095 LenD1P=             0 GPUOK=F
          ISkipM=0 DoSpLW=F IThBeg=    0 IThEnd=    7.
 IPart=  0 IRanGd=          0 ScrnBf=T ScrnGd=T RCrit=4.00D+00 DoMicB=T.
 IPart=  6        13708 of        14616 points in      15 batches and       92 microbatches, Max-NSigAt=       5 Max-NSgAt2=       5
 IPart=  0        12411 of        12986 points in      11 batches and       73 microbatches, Max-NSigAt=       5 Max-NSgAt2=       5
 IPart=  2        13808 of        14546 points in      13 batches and       74 microbatches, Max-NSigAt=       5 Max-NSgAt2=       5
 IPart=  5        13659 of        15030 points in      17 batches and      124 microbatches, Max-NSigAt=       5 Max-NSgAt2=       5
 IPart=  7        13794 of        14252 points in      11 batches and       72 microbatches, Max-NSigAt=       5 Max-NSgAt2=       5
 IPart=  4        11451 of        11862 points in      10 batches and       45 microbatches, Max-NSigAt=       5 Max-NSgAt2=       5
 IPart=  1        11422 of        11898 points in      11 batches and       59 microbatches, Max-NSigAt=       5 Max-NSgAt2=       5
 IPart=  3        15079 of        16000 points in      14 batches and      114 microbatches, Max-NSigAt=       5 Max-NSgAt2=       5
 Polarizability after L703:
                1             2             3 
      1  0.244498D+02
      2 -0.946909D-01  0.168593D+02
      3 -0.172603D+00 -0.750582D-01  0.124165D+02
 Dipole Derivatives after L703:
                 1             2             3             4             5 
      1  -0.498689D+00 -0.119646D+00  0.250494D+00  0.961765D-01  0.554015D-01
      2  -0.123269D-01 -0.912163D-01  0.528668D-01  0.328343D-01 -0.107591D+00
      3   0.141796D+00  0.546164D-01 -0.426613D+00 -0.861145D-01 -0.432401D-01
                 6             7             8             9            10 
      1  -0.324044D-01  0.757929D-01 -0.299059D-01 -0.111347D+00  0.146337D+00
      2  -0.320841D-01 -0.290191D-01  0.113741D+00 -0.805197D-01 -0.177904D-02
      3  -0.437554D+00 -0.306237D-01 -0.595569D-01  0.321870D+00 -0.236549D-01
                11            12            13            14            15 
      1  -0.142693D-01 -0.108467D+00  0.180383D+00  0.108420D+00  0.172512D-02
      2   0.156563D+00  0.399548D-01  0.102908D-01 -0.714958D-01  0.197822D-01
      3   0.256955D-01  0.275008D+00 -0.140338D-02  0.224852D-01  0.267289D+00
 Hessian after L703:
                1             2             3             4             5 
      1  0.706778D+00
      2 -0.293687D-01  0.813778D+00
      3  0.850250D-01  0.166548D-01  0.747222D-01
      4 -0.395353D+00 -0.585337D-01  0.124349D-01  0.540822D+00
      5  0.405573D-02 -0.117208D+00 -0.200659D-03 -0.963263D-01  0.468623D+00
      6  0.319928D-01  0.987678D-02 -0.481895D-02 -0.131339D-01 -0.223574D-01
      7 -0.118141D+00 -0.118251D+00 -0.449109D-01 -0.257918D-01 -0.334927D-01
      8 -0.115436D+00 -0.357853D+00 -0.839163D-01 -0.674768D-02  0.490195D-02
      9 -0.529356D-01 -0.113634D+00 -0.368844D-01  0.271023D-02  0.799177D-02
     10 -0.157834D+00  0.154853D+00 -0.498482D-01 -0.288133D-01  0.346884D-01
     11  0.161670D+00 -0.339773D+00  0.659360D-01 -0.275652D-02  0.120367D-01
     12 -0.665476D-01  0.933175D-01 -0.308284D-01  0.472845D-02 -0.614306D-02
     13 -0.354497D-01  0.513003D-01 -0.270092D-02 -0.908633D-01  0.910748D-01
     14 -0.209205D-01  0.105638D-02  0.152618D-02  0.164364D+00 -0.368353D+00
     15  0.246533D-02 -0.621513D-02 -0.219039D-02 -0.673976D-02  0.207094D-01
                6             7             8             9            10 
      6  0.198781D-01
      7 -0.917132D-02  0.131333D+00
      8 -0.184145D-02  0.135279D+00  0.365765D+00
      9  0.544084D-02  0.467642D-01  0.951261D-01  0.359892D-01
     10 -0.634230D-02  0.107579D-01 -0.142587D-01  0.442877D-02  0.184021D+00
     11 -0.307661D-02  0.170072D-01 -0.173198D-01  0.107378D-01 -0.173712D+00
     12 -0.741722D-02  0.703615D-02 -0.117232D-01 -0.993585D-03  0.529732D-01
     13 -0.334535D-02  0.184232D-02  0.116350D-02 -0.967578D-03 -0.813129D-02
     14  0.173987D-01 -0.542335D-03  0.450576D-02 -0.221749D-03 -0.157161D-02
     15 -0.130827D-01  0.281866D-03  0.235483D-02 -0.355201D-02 -0.121144D-02
               11            12            13            14            15 
     11  0.342462D+00
     12 -0.751417D-01  0.320774D-01
     13 -0.220891D-02  0.180983D-02  0.132602D+00
     14  0.259415D-02 -0.309602D-03 -0.141330D+00  0.360197D+00
     15  0.154445D-02  0.716180D-02  0.520402D-02 -0.183935D-01  0.116633D-01
 Leave Link  703 at Sat Aug 10 23:37:29 2019, MaxMem=  1835008000 cpu:             202.3 elap:              25.3
 (Enter /opt/g16/l716.exe)
 FrcOut:
 IF    =        39 IFX   =        54 IFXYZ =        69
 IFFX  =        84 IFFFX =       204 IFLen =        15
 IFFLen=       120 IFFFLn=         0 IEDerv=       204
 LEDerv=       773 IFroze=      1181 ICStrt=     14205
 Dipole        = 7.97050809D-01 6.57798154D-01 2.55424926D-01
 DipoleDeriv   =-4.98688552D-01-1.23269181D-02 1.41796462D-01
                -1.19646204D-01-9.12163116D-02 5.46163633D-02
                 2.50493616D-01 5.28667925D-02-4.26613453D-01
                 9.61764841D-02 3.28343391D-02-8.61144560D-02
                 5.54015150D-02-1.07591128D-01-4.32401344D-02
                -3.24043515D-02-3.20841271D-02-4.37553757D-01
                 7.57929025D-02-2.90191418D-02-3.06237414D-02
                -2.99058958D-02 1.13740650D-01-5.95568571D-02
                -1.11347441D-01-8.05196907D-02 3.21869593D-01
                 1.46336607D-01-1.77903919D-03-2.36548874D-02
                -1.42693064D-02 1.56562615D-01 2.56954548D-02
                -1.08466947D-01 3.99548277D-02 2.75008333D-01
                 1.80382559D-01 1.02907600D-02-1.40337676D-03
                 1.08419891D-01-7.14958254D-02 2.24851733D-02
                 1.72512359D-03 1.97821977D-02 2.67289284D-01
 Polarizability= 2.44498214D+01-9.46908695D-02 1.68592700D+01
                -1.72603198D-01-7.50582261D-02 1.24165289D+01
 Quadrupole    = 4.47193646D-01 1.06842789D+00-1.51562153D+00
                -1.68271360D+00 7.25748539D-01 8.27917950D-02
 VibFq2-Diag1:  N=     15 IV=           6 MDV=  1834992613 NE2=   122332840
 Full mass-weighted force constant matrix:
 Low frequencies ---  -11.8277    0.0008    0.0014    0.0014    9.4824   27.0014
 Low frequencies ---  547.1980  704.4293 1151.4795
 OrtVCM:  Ph=1 IPass= 1 DotMx1= 0.00D+00
 OrtVCM:  IS=    1 I=    1 IndO=    1 Dot= 1.00D+00 DotN= 1.00D+00 ElMax1= 6.72D-01 ElMax1N= 6.72D-01
 OrtVCM:  Ph=2 NNew=    0 IAdd=    2 IPass= 1 DotMx2= 0.00D+00
 OrtVCM:  IS=    1 I=    2 IndO=    2 Dot= 1.00D+00 DotN= 1.00D+00 ElMax1= 6.72D-01 ElMax1N= 6.72D-01
 OrtVCM:  Ph=2 NNew=    0 IAdd=    3 IPass= 1 DotMx2= 0.00D+00
 OrtVCM:  IS=    1 I=    3 IndO=    3 Dot= 1.00D+00 DotN= 1.00D+00 ElMax1= 6.72D-01 ElMax1N= 6.72D-01
 OrtVCM:  Ph=2 NNew=    0 IAdd=    4 IPass= 1 DotMx2= 1.39D-17
 OrtVCM:  IS=    1 I=    4 IndO=    4 Dot= 1.00D+00 DotN= 1.00D+00 ElMax1= 5.62D-01 ElMax1N= 5.62D-01
 OrtVCM:  Ph=2 NNew=    0 IAdd=    5 IPass= 1 DotMx2= 6.66D-16
 OrtVCM:  IS=    1 I=    5 IndO=    5 Dot= 1.00D+00 DotN= 1.00D+00 ElMax1= 6.57D-01 ElMax1N= 6.57D-01
 OrtVCM:  Ph=2 NNew=    0 IAdd=    6 IPass= 1 DotMx2= 9.19D-16
 OrtVCM:  IS=    1 I=    6 IndO=    6 Dot= 1.00D+00 DotN= 1.00D+00 ElMax1= 6.12D-01 ElMax1N= 6.12D-01
 OrtVCM:  Ph=1 IPass= 1 DotMx1= 6.72D-01
 OrtVCM:  Ph=1 IPass= 2 DotMx1= 2.48D-16
 OrtVCM:  IS=    1 I=    1 IndO=    7 Dot= 5.44D-01 DotN= 5.44D-01 ElMax1= 5.44D-01 ElMax1N= 5.44D-01
 OrtVCM:  Ph=2 NNew=    0 IAdd=    2 IPass= 1 DotMx2= 3.45D-02
 OrtVCM:  Ph=2 NNew=    0 IAdd=    2 IPass= 2 DotMx2= 6.72D-18
 OrtVCM:  IS=    1 I=    2 IndO=    8 Dot= 2.41D-01 DotN= 2.41D-01 ElMax1= 2.56D-01 ElMax1N= 2.56D-01
 OrtVCM:  Ph=2 NNew=    0 IAdd=    3 IPass= 1 DotMx2= 4.28D-02
 OrtVCM:  Ph=2 NNew=    0 IAdd=    3 IPass= 2 DotMx2= 1.24D-17
 OrtVCM:  IS=    1 I=    3 IndO=    9 Dot= 2.09D-01 DotN= 2.09D-01 ElMax1= 3.02D-01 ElMax1N= 3.02D-01
 OrtVCM:  Ph=2 NNew=    0 IAdd=    4 IPass= 1 DotMx2= 6.03D-01
 OrtVCM:  Ph=2 NNew=    0 IAdd=    4 IPass= 2 DotMx2= 1.49D-16
 OrtVCM:  IS=    1 I=    4 IndO=   10 Dot= 1.67D-01 DotN= 1.67D-01 ElMax1= 2.45D-01 ElMax1N= 2.45D-01
 OrtVCM:  Ph=2 NNew=    0 IAdd=    5 IPass= 1 DotMx2= 2.30D-01
 OrtVCM:  Ph=2 NNew=    0 IAdd=    5 IPass= 2 DotMx2= 9.25D-17
 OrtVCM:  IS=    1 I=    5 IndO=   11 Dot= 1.14D-01 DotN= 1.14D-01 ElMax1= 2.75D-01 ElMax1N= 2.75D-01
 OrtVCM:  Ph=2 NNew=    0 IAdd=    6 IPass= 1 DotMx2= 1.33D-01
 OrtVCM:  Ph=2 NNew=    0 IAdd=    6 IPass= 2 DotMx2= 2.08D-17
 OrtVCM:  IS=    1 I=    6 IndO=   12 Dot= 5.82D-02 DotN= 5.82D-02 ElMax1= 1.80D-01 ElMax1N= 1.80D-01
 OrtVCM:  Ph=2 NNew=    0 IAdd=    7 IPass= 1 DotMx2= 4.52D-01
 OrtVCM:  Ph=2 NNew=    0 IAdd=    7 IPass= 2 DotMx2= 7.42D-17
 OrtVCM:  IS=    1 I=    7 IndO=   13 Dot= 5.88D-01 DotN= 5.88D-01 ElMax1= 5.88D-01 ElMax1N= 5.88D-01
 OrtVCM:  Ph=2 NNew=    0 IAdd=    8 IPass= 1 DotMx2= 4.87D-01
 OrtVCM:  Ph=2 NNew=    0 IAdd=    8 IPass= 2 DotMx2= 7.93D-17
 OrtVCM:  IS=    1 I=    8 IndO=   14 Dot= 5.62D-01 DotN= 5.62D-01 ElMax1= 5.62D-01 ElMax1N= 5.62D-01
 OrtVCM:  Ph=2 NNew=    0 IAdd=    9 IPass= 1 DotMx2= 6.61D-01
 OrtVCM:  Ph=2 NNew=    0 IAdd=    9 IPass= 2 DotMx2= 5.79D-17
 OrtVCM:  IS=    1 I=    9 IndO=    0 Dot= 2.45D-32 DotN= 2.45D-32 ElMax1= 9.75D-17 ElMax1N= 9.75D-17
 SchOr2:  IPass= 1 Test2A= 1.00D-01 IOff=     0 NDo=     9 NNew=     8
 OrtVCM:  Ph=1 IPass= 1 DotMx1= 6.01D-01
 OrtVCM:  Ph=1 IPass= 2 DotMx1= 8.77D-17
 OrtVCM:  IS=    1 I=    1 IndO=   15 Dot= 3.37D-01 DotN= 3.37D-01 ElMax1= 3.37D-01 ElMax1N= 3.37D-01
 SchOr2:  IPass= 1 Test2A= 1.00D-01 IOff=     9 NDo=     1 NNew=     1
 VibFq2-Diag2:  N=      9 IV=           6 MDV=  1834992613 NE2=   203888067
 Dipole derivative wrt mode   1: -6.22549D+00 -1.90975D+00  9.83245D+00
 Vibrational polarizability contributions from mode   1       3.4832994       0.3277906       8.6889569
 Dipole derivative wrt mode   2: -2.00791D+00  2.39408D+00  1.10317D+01
 Vibrational polarizability contributions from mode   2       0.2186482       0.3108386       6.6000238
 Dipole derivative wrt mode   3: -4.41430D+00 -1.40159D+00  4.78077D-01
 Vibrational polarizability contributions from mode   3       0.3954979       0.0398715       0.0046389
 Dipole derivative wrt mode   4:  1.88895D+00  6.48138D-01 -4.92660D-01
 Vibrational polarizability contributions from mode   4       0.0586759       0.0069080       0.0039913
 Dipole derivative wrt mode   5:  4.80067D+00 -8.25794D-01  1.10596D-01
 Vibrational polarizability contributions from mode   5       0.2797674       0.0082782       0.0001485
 Dipole derivative wrt mode   6:  3.85681D+00  3.02847D-01  2.08127D+00
 Vibrational polarizability contributions from mode   6       0.1428531       0.0008808       0.0415995
 Dipole derivative wrt mode   7:  7.52861D-01 -2.14592D+00  1.40816D-01
 Vibrational polarizability contributions from mode   7       0.0012694       0.0103136       0.0000444
 Dipole derivative wrt mode   8:  1.12701D+00 -2.33923D-01  6.46549D-01
 Vibrational polarizability contributions from mode   8       0.0027358       0.0001179       0.0009004
 Dipole derivative wrt mode   9: -1.98947D+00  4.13802D+00 -3.88296D-01
 Vibrational polarizability contributions from mode   9       0.0078815       0.0340973       0.0003002
 Diagonal vibrational polarizability:
        4.5906287       0.7390965      15.3406039
 NorSel:  MapVib=      1      2      3      4      5      6      7      8      9
 Harmonic frequencies (cm**-1), IR intensities (KM/Mole), Raman scattering
 activities (A**4/AMU), depolarization ratios for plane and unpolarized
 incident light, reduced masses (AMU), force constants (mDyne/A),
 and normal coordinates:
                      1                      2                      3
                      A                      A                      A
 Frequencies --    547.1979               704.4292              1151.4794
 Red. masses --      1.2932                 1.0690                 1.0772
 Frc consts  --      0.2281                 0.3125                 0.8415
 IR Inten    --    139.0808               131.4623                21.6790
  Atom  AN      X      Y      Z        X      Y      Z        X      Y      Z
     1   7     0.03   0.01  -0.13     0.02  -0.02  -0.03    -0.01   0.06   0.00
     2   7    -0.00  -0.00   0.06    -0.01   0.00  -0.05     0.04  -0.01  -0.01
     3   1    -0.16  -0.15   0.79    -0.12   0.08  -0.15     0.54  -0.16  -0.10
     4   1    -0.17   0.01   0.46    -0.03   0.12   0.62    -0.53  -0.25   0.13
     5   1    -0.02  -0.02  -0.27     0.04   0.06   0.74    -0.50  -0.25   0.07
                      4                      5                      6
                      A                      A                      A
 Frequencies --   1279.2525              1488.9150              1673.9795
 Red. masses --      6.2772                 1.2679                 1.1035
 Frc consts  --      6.0524                 1.6560                 1.8219
 IR Inten    --      4.2309                23.7406                19.2984
  Atom  AN      X      Y      Z        X      Y      Z        X      Y      Z
     1   7    -0.40  -0.09   0.01    -0.07   0.08  -0.00    -0.08  -0.01  -0.01
     2   7     0.47   0.10  -0.02     0.01  -0.09   0.00     0.01   0.01  -0.01
     3   1    -0.71   0.03   0.08     0.33  -0.09  -0.05     0.57  -0.34   0.12
     4   1    -0.24   0.02   0.02    -0.32  -0.06   0.09     0.57   0.43   0.14
     5   1     0.02  -0.16   0.03     0.82   0.28  -0.04    -0.07  -0.03   0.00
                      7                      8                      9
                      A                      A                      A
 Frequencies --   3466.3656              3534.6769              3676.2004
 Red. masses --      1.0746                 1.0463                 1.1006
 Frc consts  --      7.6072                 7.7020                 8.7636
 IR Inten    --      5.1916                 1.7429                21.2320
  Atom  AN      X      Y      Z        X      Y      Z        X      Y      Z
     1   7     0.00   0.01   0.00    -0.04  -0.02  -0.02     0.02  -0.08   0.00
     2   7     0.03  -0.06   0.00     0.00  -0.01  -0.00     0.00  -0.00   0.00
     3   1    -0.05  -0.11  -0.03     0.34   0.76   0.21     0.20   0.42   0.13
     4   1     0.01  -0.01   0.00     0.26  -0.42   0.09    -0.46   0.71  -0.19
     5   1    -0.42   0.90  -0.05    -0.04   0.09  -0.00    -0.03   0.07  -0.00

 -------------------
 - Thermochemistry -
 -------------------
 Temperature   298.150 Kelvin.  Pressure   1.00000 Atm.
 Atom     1 has atomic number  7 and mass  14.00307
 Atom     2 has atomic number  7 and mass  14.00307
 Atom     3 has atomic number  1 and mass   1.00783
 Atom     4 has atomic number  1 and mass   1.00783
 Atom     5 has atomic number  1 and mass   1.00783
 Molecular mass:    31.02962 amu.
 Principal axes and moments of inertia in atomic units:
                           1         2         3
     Eigenvalues --     8.73322  58.10361  65.94317
           X            0.99779  -0.06147   0.02536
           Y            0.06122   0.99807   0.01060
           Z           -0.02597  -0.00902   0.99962
 This molecule is an asymmetric top.
 Rotational symmetry number  1.
 Rotational temperatures (Kelvin)      9.91775     1.49068     1.31346
 Rotational constants (GHZ):         206.65244    31.06074    27.36813
 Zero-point vibrational energy     104807.8 (Joules/Mol)
                                   25.04967 (Kcal/Mol)
 Warning -- explicit consideration of   1 degrees of freedom as
           vibrations may cause significant error
 Vibrational temperatures:    787.30  1013.52  1656.72  1840.56  2142.22
          (Kelvin)           2408.48  4987.33  5085.61  5289.23
 
 Zero-point correction=                           0.039919 (Hartree/Particle)
 Thermal correction to Energy=                    0.043094
 Thermal correction to Enthalpy=                  0.044038
 Thermal correction to Gibbs Free Energy=         0.017093
 Sum of electronic and zero-point Energies=           -111.199289
 Sum of electronic and thermal Energies=              -111.196114
 Sum of electronic and thermal Enthalpies=            -111.195170
 Sum of electronic and thermal Free Energies=         -111.222115
 
                     E (Thermal)             CV                S
                      KCal/Mol        Cal/Mol-Kelvin    Cal/Mol-Kelvin
 Total                   27.042              8.444             56.711
 Electronic               0.000              0.000              1.377
 Translational            0.889              2.981             36.230
 Rotational               0.889              2.981             18.154
 Vibrational             25.265              2.482              0.949
 Vibration     1          0.902              1.146              0.550
                       Q            Log10(Q)             Ln(Q)
 Total Bot       0.137300D-07         -7.862331        -18.103686
 Total V=0       0.315648D+11         10.499203         24.175307
 Vib (Bot)       0.487979D-18        -18.311599        -42.164015
 Vib (Bot)    1  0.287563D+00         -0.541266         -1.246312
 Vib (V=0)       0.112185D+01          0.049935          0.114979
 Vib (V=0)    1  0.107680D+01          0.032133          0.073989
 Electronic      0.200000D+01          0.301030          0.693147
 Translational   0.679389D+07          6.832119         15.731535
 Rotational      0.207071D+04          3.316119          7.635647
 Write normal modes, IRwNMS=   765 IRotNM=-1 NVibU=     9.
 
                                                                 name
                                                             IR Spectrum
 
     3    3  3                                                             1     1      1    1                                       
     6    5  4                                                             6     4      2    1              7     5                  
     7    3  6                                                             7     8      7    5              0     4                  
     6    5  6                                                             4     9      9    1              4     7                  
 
     X    X  X                                                             X     X      X    X              X     X                  
     X                                                                     X     X           X              X     X                  
     X                                                                     X     X           X              X     X                  
                                                                                                            X     X                  
                                                                                                            X     X                  
                                                                                                            X     X                  
                                                                                                            X     X                  
                                                                                                            X     X                  
                                                                                                            X     X                  
                                                                                                            X     X                  
                                                                                                            X     X                  
                                                                                                            X     X                  
                                                                                                            X     X                  
                                                                                                            X     X                  
                                                                                                            X     X                  
                                                                                                            X     X                  
                                                                                                            X     X                  
                                                                                                            X     X                  
                                                                                                            X     X                  
                                                                                                                  X                  
 
 Forces in standard orientation:
 -------------------------------------------------------------------
 Center     Atomic                   Forces (Hartrees/Bohr)
 Number     Number              X              Y              Z
 -------------------------------------------------------------------
      1        7          -0.000020650   -0.000004974   -0.000006206
      2        7           0.000009574    0.000003159    0.000000656
      3        1           0.000006798    0.000003918    0.000003211
      4        1           0.000007073   -0.000000181    0.000004778
      5        1          -0.000002795   -0.000001923   -0.000002440
 -------------------------------------------------------------------
 Cartesian Forces:  Max     0.000020650 RMS     0.000007090
 ***** Axes restored to original set *****
 Rotating derivatives, DoTrsp=F IDiff=-2 LEDeriv=    772 LFDPrp=       0 LDFDPr=       0.
 -------------------------------------------------------------------
 Center     Atomic                   Forces (Hartrees/Bohr)
 Number     Number              X              Y              Z
 -------------------------------------------------------------------
      1        7          -0.000018371    0.000011702   -0.000003903
      2        7           0.000008024   -0.000006125   -0.000000410
      3        1           0.000005412   -0.000006062    0.000002416
      4        1           0.000007166   -0.000002354    0.000003999
      5        1          -0.000002231    0.000002840   -0.000002103
 -------------------------------------------------------------------
 Cartesian Forces:  Max     0.000018371 RMS     0.000007090
 Z-matrix is all fixed cartesians, so copy forces.
 Force constants in Cartesian coordinates: 
                1             2             3             4             5 
      1  0.744876D+00
      2  0.512749D-01  0.786913D+00
      3  0.124377D-01 -0.144919D-01  0.634888D-01
      4 -0.341291D+00  0.134332D+00  0.508258D-01  0.586652D+00
      5  0.729153D-01 -0.161904D+00 -0.184489D-01  0.579328D-01  0.413695D+00
      6  0.630481D-01 -0.403602D-01 -0.141844D-01 -0.571418D-01  0.387671D-01
      7 -0.737559D-01  0.306968D-01 -0.972177D-02 -0.105722D-01  0.379484D-01
      8  0.248400D-01 -0.413926D+00  0.739536D-01  0.122459D-01 -0.105077D-01
      9 -0.778128D-02  0.104242D+00 -0.251969D-01  0.206113D-02 -0.129156D-01
     10 -0.289377D+00 -0.180330D+00 -0.524686D-01 -0.339178D-01 -0.178783D-01
     11 -0.183966D+00 -0.217387D+00 -0.374693D-01  0.188747D-01  0.170407D-01
     12 -0.774618D-01 -0.583786D-01 -0.216712D-01  0.996536D-02  0.719254D-02
     13 -0.404516D-01 -0.359736D-01 -0.107326D-02 -0.200871D+00 -0.150918D+00
     14  0.349355D-01  0.630418D-02 -0.354352D-02 -0.223385D+00 -0.258324D+00
     15  0.975723D-02  0.898870D-02 -0.243622D-02 -0.571050D-02 -0.145951D-01
                6             7             8             9            10 
      6  0.289751D-01
      7 -0.469492D-02  0.747219D-01
      8  0.279744D-02 -0.433002D-01  0.433295D+00
      9  0.563088D-02  0.699142D-02 -0.824521D-01  0.250707D-01
     10 -0.326922D-02  0.784814D-02  0.663802D-02  0.104538D-03  0.321101D+00
     11  0.433813D-02 -0.268749D-01 -0.133433D-01 -0.963748D-02  0.187107D+00
     12 -0.731677D-02  0.837679D-02  0.760491D-02 -0.206040D-02  0.558334D-01
     13  0.205786D-02  0.175808D-02 -0.423682D-03 -0.137580D-02 -0.565467D-02
     14 -0.554244D-02  0.153000D-02  0.448229D-02  0.763135D-03  0.446288D-02
     15 -0.131048D-01 -0.951517D-03 -0.190386D-02 -0.344430D-02 -0.200198D-03
               11            12            13            14            15 
     11  0.213313D+00
     12  0.446352D-01  0.241463D-01
     13  0.485840D-02  0.328622D-02  0.245219D+00
     14  0.377204D-03 -0.105398D-02  0.182457D+00  0.247160D+00
     15 -0.186651D-02  0.690213D-02 -0.289502D-02  0.937681D-02  0.120832D-01
 Final forces over variables, Energy=-1.11239208D+02:
 -1.83711189D-05 8.02409669D-06 5.41179661D-06 7.16604926D-06
 -2.23082365D-06 1.17015007D-05-6.12500223D-06-6.06218454D-06
 -2.35442437D-06 2.84011047D-06-3.90314099D-06-4.09856742D-07
  2.41606623D-06 3.99944400D-06-2.10251251D-06
 Leave Link  716 at Sat Aug 10 23:37:29 2019, MaxMem=  1835008000 cpu:               0.7 elap:               0.1
 (Enter /opt/g16/l103.exe)

 GradGradGradGradGradGradGradGradGradGradGradGradGradGradGradGradGradGrad
 Berny optimization.
 Search for a local minimum.
 Step number   1 out of a maximum of    2
 All quantities printed in internal units (Hartrees-Bohrs-Radians)
 Second derivative matrix not updated -- analytic derivatives used.
 The second derivative matrix:
                          X1        Y1        Z1        X2        Y2
           X1           0.74488
           Y1           0.05127   0.78691
           Z1           0.01244  -0.01449   0.06349
           X2          -0.34129   0.13433   0.05083   0.58665
           Y2           0.07292  -0.16190  -0.01845   0.05793   0.41369
           Z2           0.06305  -0.04036  -0.01418  -0.05714   0.03877
           X3          -0.07376   0.03070  -0.00972  -0.01057   0.03795
           Y3           0.02484  -0.41393   0.07395   0.01225  -0.01051
           Z3          -0.00778   0.10424  -0.02520   0.00206  -0.01292
           X4          -0.28938  -0.18033  -0.05247  -0.03392  -0.01788
           Y4          -0.18397  -0.21739  -0.03747   0.01887   0.01704
           Z4          -0.07746  -0.05838  -0.02167   0.00997   0.00719
           X5          -0.04045  -0.03597  -0.00107  -0.20087  -0.15092
           Y5           0.03494   0.00630  -0.00354  -0.22339  -0.25832
           Z5           0.00976   0.00899  -0.00244  -0.00571  -0.01460
                          Z2        X3        Y3        Z3        X4
           Z2           0.02898
           X3          -0.00469   0.07472
           Y3           0.00280  -0.04330   0.43329
           Z3           0.00563   0.00699  -0.08245   0.02507
           X4          -0.00327   0.00785   0.00664   0.00010   0.32110
           Y4           0.00434  -0.02687  -0.01334  -0.00964   0.18711
           Z4          -0.00732   0.00838   0.00760  -0.00206   0.05583
           X5           0.00206   0.00176  -0.00042  -0.00138  -0.00565
           Y5          -0.00554   0.00153   0.00448   0.00076   0.00446
           Z5          -0.01310  -0.00095  -0.00190  -0.00344  -0.00020
                          Y4        Z4        X5        Y5        Z5
           Y4           0.21331
           Z4           0.04464   0.02415
           X5           0.00486   0.00329   0.24522
           Y5           0.00038  -0.00105   0.18246   0.24716
           Z5          -0.00187   0.00690  -0.00290   0.00938   0.01208
 ITU=  0
     Eigenvalues ---    0.02681   0.03643   0.06045   0.13094   0.18696
     Eigenvalues ---    0.46831   0.71843   1.04557   1.12485
 Angle between quadratic step and forces=  64.99 degrees.
 Linear search not attempted -- first point.
 B after Tr=    -0.000003   -0.000003   -0.000009
         Rot=    1.000000    0.000005    0.000005    0.000000 Ang=   0.00 deg.
 Variable       Old X    -DE/DX   Delta X   Delta X   Delta X     New X
                                 (Linear)    (Quad)   (Total)
    X1       -0.80252  -0.00002   0.00000  -0.00002  -0.00003  -0.80254
    Y1        0.02030   0.00001   0.00000   0.00001   0.00001   0.02030
    Z1        0.31685  -0.00000   0.00000  -0.00006  -0.00007   0.31677
    X2        1.42688   0.00001   0.00000   0.00001   0.00001   1.42688
    Y2       -1.09909  -0.00001   0.00000  -0.00001  -0.00002  -1.09911
    Z2       -0.12854  -0.00000   0.00000   0.00003   0.00005  -0.12849
    X3       -1.06513   0.00001   0.00000   0.00006   0.00005  -1.06507
    Y3        1.86899  -0.00001   0.00000   0.00002   0.00002   1.86901
    Z3       -0.07991   0.00000   0.00000   0.00008   0.00004  -0.07987
    X4       -2.30677   0.00001   0.00000   0.00001   0.00000  -2.30676
    Y4       -1.09474  -0.00000   0.00000  -0.00003  -0.00003  -1.09476
    Z4       -0.01409   0.00000   0.00000   0.00003   0.00001  -0.01408
    X5        2.74753  -0.00000   0.00000  -0.00003  -0.00004   2.74749
    Y5        0.30453   0.00000   0.00000   0.00003   0.00002   0.30455
    Z5       -0.09430  -0.00000   0.00000  -0.00004  -0.00002  -0.09433
         Item               Value     Threshold  Converged?
 Maximum Force            0.000018     0.000450     YES
 RMS     Force            0.000007     0.000300     YES
 Maximum Displacement     0.000075     0.001800     YES
 RMS     Displacement     0.000034     0.001200     YES
 Predicted change in Energy=-7.888167D-10
 Optimization completed.
    -- Stationary point found.
 GradGradGradGradGradGradGradGradGradGradGradGradGradGradGradGradGradGrad

 Leave Link  103 at Sat Aug 10 23:37:29 2019, MaxMem=  1835008000 cpu:               2.2 elap:               0.5
 (Enter /opt/g16/l9999.exe)

 ----------------------------------------------------------------------

 Electric dipole moment (input orientation):
 (Debye = 10**-18 statcoulomb cm , SI units = C m)
                  (au)            (Debye)         (10**-30 SI)
   Tot        0.106453D+01      0.270577D+01      0.902549D+01
   x         -0.557814D+00     -0.141782D+01     -0.472934D+01
   y          0.892418D+00      0.226830D+01      0.756624D+01
   z         -0.160199D+00     -0.407185D+00     -0.135822D+01

 Dipole polarizability, Alpha (input orientation).
 (esu units = cm**3 , SI units = C**2 m**2 J**-1)
 Alpha(0;0):
               (au)            (10**-24 esu)      (10**-40 SI)
   iso        0.179085D+02      0.265377D+01      0.295272D+01
   aniso      0.105456D+02      0.156270D+01      0.173874D+01
   xx         0.235533D+02      0.349024D+01      0.388342D+01
   yx        -0.220425D+01     -0.326636D+00     -0.363431D+00
   yy         0.175801D+02      0.260510D+01      0.289857D+01
   zx        -0.132215D+01     -0.195922D+00     -0.217993D+00
   zy         0.588207D+00      0.871632D-01      0.969822D-01
   zz         0.125922D+02      0.186597D+01      0.207617D+01

 ----------------------------------------------------------------------

 Dipole orientation:
     7         -0.76926663          0.03289775          0.38984978
     7          0.73404299         -0.00934460         -1.64972253
     1         -0.05543254         -0.25363555          2.13696430
     1         -2.16684113          1.31859395          0.29312619
     1          2.25749560         -1.08851240         -1.17021962

 Electric dipole moment (dipole orientation):
 (Debye = 10**-18 statcoulomb cm , SI units = C m)
                  (au)            (Debye)         (10**-30 SI)
   Tot        0.106453D+01      0.270577D+01      0.902549D+01
   x          0.000000D+00      0.000000D+00      0.000000D+00
   y          0.000000D+00      0.000000D+00      0.000000D+00
   z          0.106453D+01      0.270577D+01      0.902549D+01

 Dipole polarizability, Alpha (dipole orientation).
 (esu units = cm**3 , SI units = C**2 m**2 J**-1)
 Alpha(0;0):
               (au)            (10**-24 esu)      (10**-40 SI)
   iso        0.179085D+02      0.265377D+01      0.295272D+01
   aniso      0.105456D+02      0.156270D+01      0.173874D+01
   xx         0.192109D+02      0.284676D+01      0.316745D+01
   yx        -0.244205D+01     -0.361875D+00     -0.402640D+00
   yy         0.138279D+02      0.204908D+01      0.227991D+01
   zx        -0.424585D+01     -0.629170D+00     -0.700047D+00
   zy        -0.213804D+00     -0.316825D-01     -0.352515D-01
   zz         0.206869D+02      0.306548D+01      0.341080D+01

 ----------------------------------------------------------------------

 Test job not archived.
 1\1\GINC-NODE04\Freq\UwB97XD\def2TZVP\H3N2(2)\ALONGD\10-Aug-2019\0\\#P
  guess=mix uwb97xd/def2tzvp freq iop(7/33=1) scf=(tight, direct) integ
 ral=(grid=ultrafine, Acc2E=12) scf=xqc iop(2/9=2000)\\name\\0,2\N,-0.4
 24673,0.01074,0.167669\N,0.755071,-0.581611,-0.068021\H,-0.563641,0.98
 9029,-0.042288\H,-1.220688,-0.579309,-0.007457\H,1.453931,0.16115,-0.0
 49902\\Version=ES64L-G16RevB.01\State=2-A\HF=-111.2392084\S2=0.754587\
 S2-1=0.\S2A=0.750014\RMSD=1.956e-09\RMSF=7.090e-06\ZeroPoint=0.0399192
 \Thermal=0.0430941\Dipole=-0.5578141,0.8924181,-0.1601991\DipoleDeriv=
 -0.3813891,0.1059965,0.1166985,0.2110488,-0.1645835,-0.1061177,0.22504
 36,-0.1298015,-0.4705457,0.0337561,-0.0768323,-0.1164382,-0.098802,-0.
 0649733,0.0966131,-0.0704035,0.066337,-0.4177512,0.0919036,0.0444465,0
 .0150987,0.0441793,0.0836366,0.0509119,-0.0542976,0.0971788,0.335863,0
 .1395517,0.0038555,-0.0175375,0.018932,0.151735,-0.0244144,-0.101686,-
 0.008789,0.2866208,0.1161777,-0.0774663,0.0021786,-0.175358,-0.0058148
 ,-0.0169928,0.0013434,-0.0249253,0.2658131\Polar=23.5533068,-2.2042484
 ,17.5801154,-1.3221489,0.5882066,12.592198\Quadrupole=1.6594605,-0.005
 8153,-1.6536452,1.4544288,0.4208357,-0.3843779\PG=C01 [X(H3N2)]\NImag=
 0\\0.74487580,0.05127487,0.78691329,0.01243775,-0.01449188,0.06348879,
 -0.34129150,0.13433196,0.05082584,0.58665230,0.07291528,-0.16190413,-0
 .01844891,0.05793276,0.41369480,0.06304811,-0.04036025,-0.01418442,-0.
 05714183,0.03876712,0.02897513,-0.07375589,0.03069677,-0.00972177,-0.0
 1057221,0.03794839,-0.00469492,0.07472188,0.02483997,-0.41392589,0.073
 95362,0.01224592,-0.01050774,0.00279744,-0.04330023,0.43329464,-0.0077
 8128,0.10424207,-0.02519691,0.00206113,-0.01291562,0.00563088,0.006991
 42,-0.08245211,0.02507073,-0.28937678,-0.18033000,-0.05246856,-0.03391
 776,-0.01787835,-0.00326922,0.00784814,0.00663802,0.00010454,0.3211010
 6,-0.18396564,-0.21738744,-0.03746931,0.01887473,0.01704072,0.00433813
 ,-0.02687493,-0.01334331,-0.00963748,0.18710744,0.21331283,-0.07746181
 ,-0.05837864,-0.02167124,0.00996536,0.00719254,-0.00731677,0.00837679,
 0.00760491,-0.00206040,0.05583344,0.04463518,0.02414628,-0.04045163,-0
 .03597361,-0.00107326,-0.20087082,-0.15091808,0.00205786,0.00175808,-0
 .00042368,-0.00137580,-0.00565467,0.00485840,0.00328622,0.24521904,0.0
 3493552,0.00630418,-0.00354352,-0.22338536,-0.25832365,-0.00554244,0.0
 0153000,0.00448229,0.00076313,0.00446288,0.00037720,-0.00105398,0.1824
 5696,0.24715998,0.00975723,0.00898870,-0.00243622,-0.00571050,-0.01459
 513,-0.01310483,-0.00095152,-0.00190386,-0.00344430,-0.00020020,-0.001
 86651,0.00690213,-0.00289502,0.00937681,0.01208322\\0.00001837,-0.0000
 1170,0.00000390,-0.00000802,0.00000613,0.00000041,-0.00000541,0.000006
 06,-0.00000242,-0.00000717,0.00000235,-0.00000400,0.00000223,-0.000002
 84,0.00000210\\\@


 TOM, TOM, THE BURGLAR'S SON
 STOLE A MACHINE AND AWAY HE RUN
 THE JOB WAS NEAT, BUT TOM GOT BEAT
 BY THE TIME HE GOT HOME IT WAS OBSOLETE.
 Job cpu time:       0 days  0 hours  9 minutes 11.3 seconds.
 Elapsed time:       0 days  0 hours  1 minutes 10.4 seconds.
 File lengths (MBytes):  RWF=     10 Int=      0 D2E=      0 Chk=      2 Scr=      1
 Normal termination of Gaussian 16 at Sat Aug 10 23:37:29 2019.
