 Entering Gaussian System, Link 0=g16
 Initial command:
 /opt/g16/l1.exe "/scratch/alongd/g16/a19014-8436/Gau-653.inp" -scrdir="/scratch/alongd/g16/a19014-8436/"
 Entering Link 1 = /opt/g16/l1.exe PID=       657.
  
 Copyright (c) 1988-2017, Gaussian, Inc.  All Rights Reserved.
  
 This is part of the Gaussian(R) 16 program.  It is based on
 the Gaussian(R) 09 system (copyright 2009, Gaussian, Inc.),
 the Gaussian(R) 03 system (copyright 2003, Gaussian, Inc.),
 the Gaussian(R) 98 system (copyright 1998, Gaussian, Inc.),
 the Gaussian(R) 94 system (copyright 1995, Gaussian, Inc.),
 the Gaussian 92(TM) system (copyright 1992, Gaussian, Inc.),
 the Gaussian 90(TM) system (copyright 1990, Gaussian, Inc.),
 the Gaussian 88(TM) system (copyright 1988, Gaussian, Inc.),
 the Gaussian 86(TM) system (copyright 1986, Carnegie Mellon
 University), and the Gaussian 82(TM) system (copyright 1983,
 Carnegie Mellon University). Gaussian is a federally registered
 trademark of Gaussian, Inc.
  
 This software contains proprietary and confidential information,
 including trade secrets, belonging to Gaussian, Inc.
  
 This software is provided under written license and may be
 used, copied, transmitted, or stored only in accord with that
 written license.
  
 The following legend is applicable only to US Government
 contracts under FAR:
  
                    RESTRICTED RIGHTS LEGEND
  
 Use, reproduction and disclosure by the US Government is
 subject to restrictions as set forth in subparagraphs (a)
 and (c) of the Commercial Computer Software - Restricted
 Rights clause in FAR 52.227-19.
  
 Gaussian, Inc.
 340 Quinnipiac St., Bldg. 40, Wallingford CT 06492
  
  
 ---------------------------------------------------------------
 Warning -- This program may not be used in any manner that
 competes with the business of Gaussian, Inc. or will provide
 assistance to any competitor of Gaussian, Inc.  The licensee
 of this program is prohibited from giving any competitor of
 Gaussian, Inc. access to this program.  By using this program,
 the user acknowledges that Gaussian, Inc. is engaged in the
 business of creating and licensing software in the field of
 computational chemistry and represents and warrants to the
 licensee that it is not a competitor of Gaussian, Inc. and that
 it will not use this program in any manner prohibited above.
 ---------------------------------------------------------------
  

 Cite this work as:
 Gaussian 16, Revision B.01,
 M. J. Frisch, G. W. Trucks, H. B. Schlegel, G. E. Scuseria, 
 M. A. Robb, J. R. Cheeseman, G. Scalmani, V. Barone, 
 G. A. Petersson, H. Nakatsuji, X. Li, M. Caricato, A. V. Marenich, 
 J. Bloino, B. G. Janesko, R. Gomperts, B. Mennucci, H. P. Hratchian, 
 J. V. Ortiz, A. F. Izmaylov, J. L. Sonnenberg, D. Williams-Young, 
 F. Ding, F. Lipparini, F. Egidi, J. Goings, B. Peng, A. Petrone, 
 T. Henderson, D. Ranasinghe, V. G. Zakrzewski, J. Gao, N. Rega, 
 G. Zheng, W. Liang, M. Hada, M. Ehara, K. Toyota, R. Fukuda, 
 J. Hasegawa, M. Ishida, T. Nakajima, Y. Honda, O. Kitao, H. Nakai, 
 T. Vreven, K. Throssell, J. A. Montgomery, Jr., J. E. Peralta, 
 F. Ogliaro, M. J. Bearpark, J. J. Heyd, E. N. Brothers, K. N. Kudin, 
 V. N. Staroverov, T. A. Keith, R. Kobayashi, J. Normand, 
 K. Raghavachari, A. P. Rendell, J. C. Burant, S. S. Iyengar, 
 J. Tomasi, M. Cossi, J. M. Millam, M. Klene, C. Adamo, R. Cammi, 
 J. W. Ochterski, R. L. Martin, K. Morokuma, O. Farkas, 
 J. B. Foresman, and D. J. Fox, Gaussian, Inc., Wallingford CT, 2016.
 
 ******************************************
 Gaussian 16:  ES64L-G16RevB.01 20-Dec-2017
                10-Aug-2019 
 ******************************************
 %chk=check.chk
 %mem=14000mb
 %NProcShared=8
 Will use up to    8 processors via shared memory.
 ----------------------------------------------------------------------
 #P scf=(tight, direct) integral=(grid=ultrafine, Acc2E=12) guess=mix u
 b3lyp/6-311+g(3df,2p) scf=xqc iop(2/9=2000)
 ----------------------------------------------------------------------
 1/38=1,172=1/1;
 2/9=2000,12=2,17=6,18=5,40=1/2;
 3/5=4,6=6,7=216,11=2,25=1,27=12,30=1,74=-5,75=-5,116=2/1,2,3;
 4/13=-1/1;
 5/5=2,8=3,13=1,32=2,38=5,87=12/2,8;
 6/7=2,8=2,9=2,10=2,28=1,87=12/1;
 99/5=1,9=1/99;
 Leave Link    1 at Sat Aug 10 23:26:49 2019, MaxMem=  1835008000 cpu:               0.8 elap:               0.1
 (Enter /opt/g16/l101.exe)
 ----
 name
 ----
 Symbolic Z-matrix:
 Charge =  0 Multiplicity = 2
 H                     0.        0.        0. 
 
 ITRead=  0
 MicOpt= -1
 NAtoms=      1 NQM=        1 NQMF=       0 NMMI=      0 NMMIF=      0
                NMic=       0 NMicF=      0.
                    Isotopes and Nuclear Properties:
 (Nuclear quadrupole moments (NQMom) in fm**2, nuclear magnetic moments (NMagM)
  in nuclear magnetons)

  Atom         1
 IAtWgt=           1
 AtmWgt=   1.0078250
 NucSpn=           1
 AtZEff=  -0.0000000
 NQMom=    0.0000000
 NMagM=    2.7928460
 AtZNuc=   1.0000000
 Leave Link  101 at Sat Aug 10 23:26:49 2019, MaxMem=  1835008000 cpu:               1.6 elap:               0.2
 (Enter /opt/g16/l202.exe)
                          Input orientation:                          
 ---------------------------------------------------------------------
 Center     Atomic      Atomic             Coordinates (Angstroms)
 Number     Number       Type             X           Y           Z
 ---------------------------------------------------------------------
      1          1           0        0.000000    0.000000    0.000000
 ---------------------------------------------------------------------
 Stoichiometry    H(2)
 Framework group  OH[O(H)]
 Deg. of freedom     0
 Full point group                 OH      NOp  48
 Largest Abelian subgroup         D2H     NOp   8
 Largest concise Abelian subgroup C1      NOp   1
                         Standard orientation:                         
 ---------------------------------------------------------------------
 Center     Atomic      Atomic             Coordinates (Angstroms)
 Number     Number       Type             X           Y           Z
 ---------------------------------------------------------------------
      1          1           0        0.000000    0.000000    0.000000
 ---------------------------------------------------------------------
 Leave Link  202 at Sat Aug 10 23:26:49 2019, MaxMem=  1835008000 cpu:               0.2 elap:               0.0
 (Enter /opt/g16/l301.exe)
 Standard basis: 6-311+G(3df,2p) (5D, 7F)
 Ernie: Thresh=  0.10000D-02 Tol=  0.10000D-05 Strict=F.
 There are     3 symmetry adapted cartesian basis functions of AG  symmetry.
 There are     0 symmetry adapted cartesian basis functions of B1G symmetry.
 There are     0 symmetry adapted cartesian basis functions of B2G symmetry.
 There are     0 symmetry adapted cartesian basis functions of B3G symmetry.
 There are     0 symmetry adapted cartesian basis functions of AU  symmetry.
 There are     2 symmetry adapted cartesian basis functions of B1U symmetry.
 There are     2 symmetry adapted cartesian basis functions of B2U symmetry.
 There are     2 symmetry adapted cartesian basis functions of B3U symmetry.
 There are     3 symmetry adapted basis functions of AG  symmetry.
 There are     0 symmetry adapted basis functions of B1G symmetry.
 There are     0 symmetry adapted basis functions of B2G symmetry.
 There are     0 symmetry adapted basis functions of B3G symmetry.
 There are     0 symmetry adapted basis functions of AU  symmetry.
 There are     2 symmetry adapted basis functions of B1U symmetry.
 There are     2 symmetry adapted basis functions of B2U symmetry.
 There are     2 symmetry adapted basis functions of B3U symmetry.
     9 basis functions,    11 primitive gaussians,     9 cartesian basis functions
     1 alpha electrons        0 beta electrons
       nuclear repulsion energy         0.0000000000 Hartrees.
 IExCor=  402 DFT=T Ex+Corr=B3LYP ExCW=0 ScaHFX=  0.200000
 ScaDFX=  0.800000  0.720000  1.000000  0.810000 ScalE2=  1.000000  1.000000
 IRadAn=      5 IRanWt=     -1 IRanGd=            0 ICorTp=0 IEmpDi=  4
 NAtoms=    1 NActive=    1 NUniq=    1 SFac= 1.00D+00 NAtFMM=   60 NAOKFM=F Big=F
 Integral buffers will be    131072 words long.
 Raffenetti 2 integral format.
 Two-electron integral symmetry is turned on.
 Leave Link  301 at Sat Aug 10 23:26:49 2019, MaxMem=  1835008000 cpu:               0.5 elap:               0.1
 (Enter /opt/g16/l302.exe)
 NPDir=0 NMtPBC=     1 NCelOv=     1 NCel=       1 NClECP=     1 NCelD=      1
         NCelK=      1 NCelE2=     1 NClLst=     1 CellRange=     0.0.
 One-electron integrals computed using PRISM.
 One-electron integral symmetry used in STVInt
 NBasis=     9 RedAO= T EigKep=  1.09D-01  NBF=     3     0     0     0     0     2     2     2
 NBsUse=     9 1.00D-06 EigRej= -1.00D+00 NBFU=     3     0     0     0     0     2     2     2
 Precomputing XC quadrature grid using
 IXCGrd= 4 IRadAn=           5 IRanWt=          -1 IRanGd=           0 AccXCQ= 1.00D-12.
 Generated NRdTot=       0 NPtTot=           0 NUsed=           0 NTot=          32
 NSgBfM=     9     9     9     9     9 MxSgAt=     1 MxSgA2=     1.
 Leave Link  302 at Sat Aug 10 23:26:49 2019, MaxMem=  1835008000 cpu:               1.0 elap:               0.1
 (Enter /opt/g16/l303.exe)
 DipDrv:  MaxL=1.
 Leave Link  303 at Sat Aug 10 23:26:49 2019, MaxMem=  1835008000 cpu:               0.5 elap:               0.1
 (Enter /opt/g16/l401.exe)
 ExpMin= 1.03D-01 ExpMax= 3.39D+01 ExpMxC= 3.39D+01 IAcc=3 IRadAn=         5 AccDes= 0.00D+00
 Harris functional with IExCor=  402 and IRadAn=       5 diagonalized for initial guess.
 HarFok:  IExCor=  402 AccDes= 0.00D+00 IRadAn=         5 IDoV= 1 UseB2=F ITyADJ=14
 ICtDFT=  3500011 ScaDFX=  1.000000  1.000000  1.000000  1.000000
 FoFCou: FMM=F IPFlag=           0 FMFlag=      100000 FMFlg1=           0
         NFxFlg=           0 DoJE=T BraDBF=F KetDBF=T FulRan=T
         wScrn=  0.000000 ICntrl=       500 IOpCl=  0 I1Cent=   200000004 NGrid=           0
         NMat0=    1 NMatS0=      1 NMatT0=    0 NMatD0=    1 NMtDS0=    0 NMtDT0=    0
 Petite list used in FoFCou.
 Harris En=-0.462962690909145    
 JPrj=0 DoOrth=F DoCkMO=T.
 Mixing orbitals, IMix= 1 IMixAn=  0 NRI=1 NE=    1 Coef=  7.07106781D-01  7.07106781D-01
 Mixing orbitals, IMix= 1 IMixAn=  0 NRI=1 NE=    0 Coef= -7.07106781D-01  7.07106781D-01
 Initial guess orbital symmetries:
 Alpha Orbitals:
       Occupied  (A1G)
       Virtual   (A1G) (T1U) (T1U) (T1U) (A1G) (T1U) (T1U) (T1U)
 Beta  Orbitals:
       Virtual   (A1G) (A1G) (T1U) (T1U) (T1U) (A1G) (T1U) (T1U)
                 (T1U)
 The electronic state of the initial guess is 2-A1G.
 Initial guess <Sx>= 0.0000 <Sy>= 0.0000 <Sz>= 0.5000 <S**2>= 0.7500 S= 0.5000
 Leave Link  401 at Sat Aug 10 23:26:49 2019, MaxMem=  1835008000 cpu:               0.8 elap:               0.1
 (Enter /opt/g16/l502.exe)
 Keep R1 and R2 ints in memory in symmetry-blocked form, NReq=6869950.
 FoFCou: FMM=F IPFlag=           0 FMFlag=           0 FMFlg1=           0
         NFxFlg=           0 DoJE=F BraDBF=F KetDBF=F FulRan=T
         wScrn=  0.000000 ICntrl=       600 IOpCl=  0 I1Cent=           0 NGrid=           0
         NMat0=    1 NMatS0=     45 NMatT0=    0 NMatD0=    1 NMtDS0=    0 NMtDT0=    0
 Petite list used in FoFCou.
 UHF open shell SCF:
 Using DIIS extrapolation, IDIIS=  1040.
 NGot=  1835008000 LenX=  1835004811 LenY=  1835003929
 Requested convergence on RMS density matrix=1.00D-08 within  32 cycles.
 Requested convergence on MAX density matrix=1.00D-06.
 Requested convergence on             energy=1.00D-06.
 No special actions if energy rises.
 Integral accuracy reduced to 1.0D-05 until final iterations.
 An orbital has undefined symmetry, so N**3 symmetry is turned off.

 Cycle   1  Pass 0  IDiag  1:
 E=-0.208727925113664    
 DIIS: error= 9.55D-02 at cycle   1 NSaved=   1.
 NSaved= 1 IEnMin= 1 EnMin=-0.208727925113664     IErMin= 1 ErrMin= 9.55D-02
 ErrMax= 9.55D-02  0.00D+00 EMaxC= 1.00D-01 BMatC= 1.15D-01 BMatP= 1.15D-01
 IDIUse=3 WtCom= 4.55D-02 WtEn= 9.55D-01
 Coeff-Com:  0.100D+01
 Coeff-En:   0.100D+01
 Coeff:      0.100D+01
 Gap=     0.103 Goal=   None    Shift=    0.000
 GapD=    0.103 DampG=1.000 DampE=0.500 DampFc=0.5000 IDamp=-1.
 Damping current iteration by 5.00D-01
 RMSDP=1.75D-01 MaxDP=1.58D+00              OVMax= 6.28D-01

 Cycle   2  Pass 0  IDiag  1:
 E=-0.339639989859364     Delta-E=       -0.130912064746 Rises=F Damp=T
 DIIS: error= 7.76D-02 at cycle   2 NSaved=   2.
 NSaved= 2 IEnMin= 2 EnMin=-0.339639989859364     IErMin= 2 ErrMin= 7.76D-02
 ErrMax= 7.76D-02  0.00D+00 EMaxC= 1.00D-01 BMatC= 6.38D-02 BMatP= 1.15D-01
 IDIUse=3 WtCom= 2.24D-01 WtEn= 7.76D-01
 Coeff-Com: -0.229D+01 0.329D+01
 Coeff-En:   0.000D+00 0.100D+01
 Coeff:     -0.513D+00 0.151D+01
 Gap=     0.535 Goal=   None    Shift=    0.000
 RMSDP=1.06D-01 MaxDP=1.10D+00 DE=-1.31D-01 OVMax= 2.22D-01

 Cycle   3  Pass 0  IDiag  1:
 E=-0.499426207865086     Delta-E=       -0.159786218006 Rises=F Damp=F
 DIIS: error= 2.57D-02 at cycle   3 NSaved=   3.
 NSaved= 3 IEnMin= 3 EnMin=-0.499426207865086     IErMin= 3 ErrMin= 2.57D-02
 ErrMax= 2.57D-02  0.00D+00 EMaxC= 1.00D-01 BMatC= 5.90D-03 BMatP= 6.38D-02
 IDIUse=3 WtCom= 7.43D-01 WtEn= 2.57D-01
 Coeff-Com: -0.726D+00 0.110D+01 0.629D+00
 Coeff-En:   0.000D+00 0.000D+00 0.100D+01
 Coeff:     -0.539D+00 0.815D+00 0.724D+00
 Gap=     0.608 Goal=   None    Shift=    0.000
 RMSDP=1.98D-03 MaxDP=2.03D-02 DE=-1.60D-01 OVMax= 8.71D-03

 Cycle   4  Pass 0  IDiag  1:
 E=-0.499468069441064     Delta-E=       -0.000041861576 Rises=F Damp=F
 DIIS: error= 2.29D-02 at cycle   4 NSaved=   4.
 NSaved= 4 IEnMin= 4 EnMin=-0.499468069441064     IErMin= 4 ErrMin= 2.29D-02
 ErrMax= 2.29D-02  0.00D+00 EMaxC= 1.00D-01 BMatC= 4.24D-03 BMatP= 5.90D-03
 IDIUse=3 WtCom= 7.71D-01 WtEn= 2.29D-01
 Coeff-Com:  0.265D-01 0.154D+00-0.152D+01 0.234D+01
 Coeff-En:   0.000D+00 0.000D+00 0.000D+00 0.100D+01
 Coeff:      0.204D-01 0.119D+00-0.117D+01 0.203D+01
 Gap=     0.553 Goal=   None    Shift=    0.000
 RMSDP=8.64D-03 MaxDP=6.93D-02 DE=-4.19D-05 OVMax= 6.78D-02

 Cycle   5  Pass 0  IDiag  1:
 E=-0.502154866847157     Delta-E=       -0.002686797406 Rises=F Damp=F
 DIIS: error= 3.02D-04 at cycle   5 NSaved=   5.
 NSaved= 5 IEnMin= 5 EnMin=-0.502154866847157     IErMin= 5 ErrMin= 3.02D-04
 ErrMax= 3.02D-04  0.00D+00 EMaxC= 1.00D-01 BMatC= 1.16D-06 BMatP= 4.24D-03
 IDIUse=3 WtCom= 9.97D-01 WtEn= 3.02D-03
 Large coefficients: NSaved=  5 BigCof=    0.00 CofMax=   10.00 Det= 1.09D-18
 Inversion failed.  Reducing to  4 matrices.
 Coeff-Com: -0.369D-02-0.109D-01 0.130D-01 0.100D+01
 Coeff-En:   0.000D+00 0.000D+00 0.000D+00 0.100D+01
 Coeff:     -0.368D-02-0.109D-01 0.129D-01 0.100D+01
 Gap=     0.567 Goal=   None    Shift=    0.000
 RMSDP=2.13D-04 MaxDP=1.79D-03 DE=-2.69D-03 OVMax= 1.38D-03

 Cycle   6  Pass 0  IDiag  1:
 E=-0.502155929594143     Delta-E=       -0.000001062747 Rises=F Damp=F
 DIIS: error= 1.12D-05 at cycle   6 NSaved=   5.
 NSaved= 5 IEnMin= 5 EnMin=-0.502155929594143     IErMin= 5 ErrMin= 1.12D-05
 ErrMax= 1.12D-05  0.00D+00 EMaxC= 1.00D-01 BMatC= 1.62D-09 BMatP= 1.16D-06
 IDIUse=1 WtCom= 1.00D+00 WtEn= 0.00D+00
 Large coefficients: NSaved=  5 BigCof=    0.00 CofMax=   10.00 Det=-2.24D-22
 Inversion failed.  Reducing to  4 matrices.
 Coeff-Com:  0.903D-02-0.121D-01-0.192D+00 0.120D+01
 Coeff:      0.903D-02-0.121D-01-0.192D+00 0.120D+01
 Gap=     0.567 Goal=   None    Shift=    0.000
 RMSDP=1.69D-06 MaxDP=9.59D-06 DE=-1.06D-06 OVMax= 1.73D-05

 Initial convergence to 1.0D-05 achieved.  Increase integral accuracy.
 Cycle   7  Pass 1  IDiag  1:
 E=-0.502155930088546     Delta-E=       -0.000000000494 Rises=F Damp=F
 DIIS: error= 5.89D-07 at cycle   1 NSaved=   1.
 NSaved= 1 IEnMin= 1 EnMin=-0.502155930088546     IErMin= 1 ErrMin= 5.89D-07
 ErrMax= 5.89D-07  0.00D+00 EMaxC= 1.00D-01 BMatC= 2.77D-12 BMatP= 2.77D-12
 IDIUse=1 WtCom= 1.00D+00 WtEn= 0.00D+00
 Coeff-Com:  0.100D+01
 Coeff:      0.100D+01
 Gap=     0.567 Goal=   None    Shift=    0.000
 RMSDP=1.69D-06 MaxDP=9.59D-06 DE=-4.94D-10 OVMax= 1.74D-06

 Cycle   8  Pass 1  IDiag  1:
 E=-0.502155930090429     Delta-E=       -0.000000000002 Rises=F Damp=F
 DIIS: error= 1.44D-08 at cycle   2 NSaved=   2.
 NSaved= 2 IEnMin= 2 EnMin=-0.502155930090429     IErMin= 2 ErrMin= 1.44D-08
 ErrMax= 1.44D-08  0.00D+00 EMaxC= 1.00D-01 BMatC= 1.81D-15 BMatP= 2.77D-12
 IDIUse=1 WtCom= 1.00D+00 WtEn= 0.00D+00
 Coeff-Com: -0.654D-02 0.101D+01
 Coeff:     -0.654D-02 0.101D+01
 Gap=     0.567 Goal=   None    Shift=    0.000
 RMSDP=7.25D-09 MaxDP=6.30D-08 DE=-1.88D-12 OVMax= 4.19D-08

 SCF Done:  E(UB3LYP) = -0.502155930090     A.U. after    8 cycles
            NFock=  8  Conv=0.73D-08     -V/T= 2.0077
 <Sx>= 0.0000 <Sy>= 0.0000 <Sz>= 0.5000 <S**2>= 0.7500 S= 0.5000
 <L.S>= 0.000000000000E+00
 KE= 4.983405023650D-01 PE=-9.978323594646D-01 EE=-2.664072990791D-03
 Annihilation of the first spin contaminant:
 S**2 before annihilation     0.7500,   after     0.7500
 Leave Link  502 at Sat Aug 10 23:26:50 2019, MaxMem=  1835008000 cpu:               1.1 elap:               0.2
 (Enter /opt/g16/l508.exe)
 QCSCF skips out because SCF is already converged.
 Leave Link  508 at Sat Aug 10 23:26:51 2019, MaxMem=  1835008000 cpu:               0.0 elap:               1.7
 (Enter /opt/g16/l601.exe)
 Copying SCF densities to generalized density rwf, IOpCl= 1 IROHF=0.

 **********************************************************************

            Population analysis using the SCF Density.

 **********************************************************************

 Orbital symmetries:
 Alpha Orbitals:
       Occupied  (A1G)
       Virtual   (A1G) (T1U) (T1U) (T1U) (A1G) (T1U) (T1U) (T1U)
 Beta  Orbitals:
       Virtual   (A1G) (A1G) (T1U) (T1U) (T1U) (A1G) (T1U) (T1U)
                 (T1U)
 The electronic state is 2-A1G.
 Alpha  occ. eigenvalues --   -0.32170
 Alpha virt. eigenvalues --    0.24504   0.55364   0.55364   0.55364   2.14455
 Alpha virt. eigenvalues --    3.63776   3.63776   3.63776
  Beta virt. eigenvalues --    0.02946   0.46427   0.78399   0.78399   0.78399
  Beta virt. eigenvalues --    2.56407   4.03079   4.03079   4.03079
          Condensed to atoms (all electrons):
               1
     1  H    1.000000
          Atomic-Atomic Spin Densities.
               1
     1  H    1.000000
 Mulliken charges and spin densities:
               1          2
     1  H   -0.000000   1.000000
 Sum of Mulliken charges =  -0.00000   1.00000
 Mulliken charges and spin densities with hydrogens summed into heavy atoms:
               1          2
 Electronic spatial extent (au):  <R**2>=              3.1014
 Charge=             -0.0000 electrons
 Dipole moment (field-independent basis, Debye):
    X=              0.0000    Y=              0.0000    Z=              0.0000  Tot=              0.0000
 Quadrupole moment (field-independent basis, Debye-Ang):
   XX=             -1.3905   YY=             -1.3905   ZZ=             -1.3905
   XY=              0.0000   XZ=             -0.0000   YZ=              0.0000
 Traceless Quadrupole moment (field-independent basis, Debye-Ang):
   XX=             -0.0000   YY=             -0.0000   ZZ=             -0.0000
   XY=              0.0000   XZ=             -0.0000   YZ=              0.0000
 Octapole moment (field-independent basis, Debye-Ang**2):
  XXX=              0.0000  YYY=              0.0000  ZZZ=              0.0000  XYY=              0.0000
  XXY=              0.0000  XXZ=              0.0000  XZZ=              0.0000  YZZ=              0.0000
  YYZ=              0.0000  XYZ=              0.0000
 Hexadecapole moment (field-independent basis, Debye-Ang**3):
 XXXX=             -1.7999 YYYY=             -1.7999 ZZZZ=             -1.7999 XXXY=              0.0000
 XXXZ=             -0.0000 YYYX=              0.0000 YYYZ=              0.0000 ZZZX=             -0.0000
 ZZZY=              0.0000 XXYY=             -0.6000 XXZZ=             -0.6000 YYZZ=             -0.6000
 XXYZ=              0.0000 YYXZ=             -0.0000 ZZXY=              0.0000
 N-N= 0.000000000000D+00 E-N=-9.978323604730D-01  KE= 4.983405023650D-01
 Symmetry AG   KE= 4.983405023650D-01
 Symmetry B1G  KE= 0.000000000000D+00
 Symmetry B2G  KE= 0.000000000000D+00
 Symmetry B3G  KE= 0.000000000000D+00
 Symmetry AU   KE= 0.000000000000D+00
 Symmetry B1U  KE= 1.954352101367D-32
 Symmetry B2U  KE= 1.954352101367D-32
 Symmetry B3U  KE= 1.954352101367D-32
 Symmetry AG   SP= 1.000000000000D+00
 Symmetry B1G  SP= 0.000000000000D+00
 Symmetry B2G  SP= 0.000000000000D+00
 Symmetry B3G  SP= 0.000000000000D+00
 Symmetry AU   SP= 0.000000000000D+00
 Symmetry B1U  SP= 2.098987642600D-32
 Symmetry B2U  SP= 2.098987642600D-32
 Symmetry B3U  SP= 2.098987642600D-32
                          Isotropic Fermi Contact Couplings
        Atom                 a.u.       MegaHertz       Gauss      10(-4) cm-1
     1  H(1)               0.29705    1327.75601     473.77636     442.89173
 --------------------------------------------------------
       Center         ----  Spin Dipole Couplings  ----
                      3XX-RR        3YY-RR        3ZZ-RR
 --------------------------------------------------------
     1   Atom        0.000000      0.000000      0.000000
 --------------------------------------------------------
                        XY            XZ            YZ
 --------------------------------------------------------
     1   Atom        0.000000      0.000000      0.000000
 --------------------------------------------------------


 ---------------------------------------------------------------------------------
              Anisotropic Spin Dipole Couplings in Principal Axis System
 ---------------------------------------------------------------------------------

       Atom             a.u.   MegaHertz   Gauss  10(-4) cm-1        Axes

              Baa     0.0000     0.000     0.000     0.000  1.0000  0.0000  0.0000
     1 H(1)   Bbb     0.0000     0.000     0.000     0.000 -0.0000  1.0000  0.0000
              Bcc     0.0000     0.000     0.000     0.000  0.0000  0.0000  1.0000
 

 ---------------------------------------------------------------------------------

 No NMR shielding tensors so no spin-rotation constants.
 Leave Link  601 at Sat Aug 10 23:26:52 2019, MaxMem=  1835008000 cpu:               1.8 elap:               0.3
 (Enter /opt/g16/l9999.exe)

 Test job not archived.
 1\1\GINC-NODE08\SP\UB3LYP\6-311+G(3df,2p)\H1(2)\ALONGD\10-Aug-2019\0\\
 #P scf=(tight, direct) integral=(grid=ultrafine, Acc2E=12) guess=mix u
 b3lyp/6-311+g(3df,2p) scf=xqc iop(2/9=2000)\\name\\0,2\H,0,0.,0.,0.\\V
 ersion=ES64L-G16RevB.01\State=2-A1G\HF=-0.5021559\S2=0.75\S2-1=0.\S2A=
 0.75\RMSD=7.252e-09\Dipole=0.,0.,0.\Quadrupole=0.,0.,0.,0.,0.,0.\PG=OH
  [O(H1)]\\@


 KNIGHT- SIRE, I'VE JUST RETURNED FROM THE FRONT
 KING-   HOW GOES THE BATTLE                    
 KNIGHT- THE SITUATION IS QUITE FLUID           
 KING-   WHAT DOES *THAT* MEAN                  
 KNIGHT- WE'RE UP THE CREEK                     
                THE WIZARD OF ID                
 Job cpu time:       0 days  0 hours  0 minutes  8.9 seconds.
 Elapsed time:       0 days  0 hours  0 minutes  2.9 seconds.
 File lengths (MBytes):  RWF=      6 Int=      0 D2E=      0 Chk=      1 Scr=      1
 Normal termination of Gaussian 16 at Sat Aug 10 23:26:52 2019.
