 Entering Gaussian System, Link 0=g16
 Initial command:
 /opt/g16/l1.exe "/scratch/alongd/g16/a4390-34564/Gau-19806.inp" -scrdir="/scratch/alongd/g16/a4390-34564/"
 Entering Link 1 = /opt/g16/l1.exe PID=     19808.
  
 Copyright (c) 1988-2017, Gaussian, Inc.  All Rights Reserved.
  
 This is part of the Gaussian(R) 16 program.  It is based on
 the Gaussian(R) 09 system (copyright 2009, Gaussian, Inc.),
 the Gaussian(R) 03 system (copyright 2003, Gaussian, Inc.),
 the Gaussian(R) 98 system (copyright 1998, Gaussian, Inc.),
 the Gaussian(R) 94 system (copyright 1995, Gaussian, Inc.),
 the Gaussian 92(TM) system (copyright 1992, Gaussian, Inc.),
 the Gaussian 90(TM) system (copyright 1990, Gaussian, Inc.),
 the Gaussian 88(TM) system (copyright 1988, Gaussian, Inc.),
 the Gaussian 86(TM) system (copyright 1986, Carnegie Mellon
 University), and the Gaussian 82(TM) system (copyright 1983,
 Carnegie Mellon University). Gaussian is a federally registered
 trademark of Gaussian, Inc.
  
 This software contains proprietary and confidential information,
 including trade secrets, belonging to Gaussian, Inc.
  
 This software is provided under written license and may be
 used, copied, transmitted, or stored only in accord with that
 written license.
  
 The following legend is applicable only to US Government
 contracts under FAR:
  
                    RESTRICTED RIGHTS LEGEND
  
 Use, reproduction and disclosure by the US Government is
 subject to restrictions as set forth in subparagraphs (a)
 and (c) of the Commercial Computer Software - Restricted
 Rights clause in FAR 52.227-19.
  
 Gaussian, Inc.
 340 Quinnipiac St., Bldg. 40, Wallingford CT 06492
  
  
 ---------------------------------------------------------------
 Warning -- This program may not be used in any manner that
 competes with the business of Gaussian, Inc. or will provide
 assistance to any competitor of Gaussian, Inc.  The licensee
 of this program is prohibited from giving any competitor of
 Gaussian, Inc. access to this program.  By using this program,
 the user acknowledges that Gaussian, Inc. is engaged in the
 business of creating and licensing software in the field of
 computational chemistry and represents and warrants to the
 licensee that it is not a competitor of Gaussian, Inc. and that
 it will not use this program in any manner prohibited above.
 ---------------------------------------------------------------
  

 Cite this work as:
 Gaussian 16, Revision B.01,
 M. J. Frisch, G. W. Trucks, H. B. Schlegel, G. E. Scuseria, 
 M. A. Robb, J. R. Cheeseman, G. Scalmani, V. Barone, 
 G. A. Petersson, H. Nakatsuji, X. Li, M. Caricato, A. V. Marenich, 
 J. Bloino, B. G. Janesko, R. Gomperts, B. Mennucci, H. P. Hratchian, 
 J. V. Ortiz, A. F. Izmaylov, J. L. Sonnenberg, D. Williams-Young, 
 F. Ding, F. Lipparini, F. Egidi, J. Goings, B. Peng, A. Petrone, 
 T. Henderson, D. Ranasinghe, V. G. Zakrzewski, J. Gao, N. Rega, 
 G. Zheng, W. Liang, M. Hada, M. Ehara, K. Toyota, R. Fukuda, 
 J. Hasegawa, M. Ishida, T. Nakajima, Y. Honda, O. Kitao, H. Nakai, 
 T. Vreven, K. Throssell, J. A. Montgomery, Jr., J. E. Peralta, 
 F. Ogliaro, M. J. Bearpark, J. J. Heyd, E. N. Brothers, K. N. Kudin, 
 V. N. Staroverov, T. A. Keith, R. Kobayashi, J. Normand, 
 K. Raghavachari, A. P. Rendell, J. C. Burant, S. S. Iyengar, 
 J. Tomasi, M. Cossi, J. M. Millam, M. Klene, C. Adamo, R. Cammi, 
 J. W. Ochterski, R. L. Martin, K. Morokuma, O. Farkas, 
 J. B. Foresman, and D. J. Fox, Gaussian, Inc., Wallingford CT, 2016.
 
 ******************************************
 Gaussian 16:  ES64L-G16RevB.01 20-Dec-2017
                 2-Mar-2020 
 ******************************************
 %chk=check.chk
 %mem=14336mb
 %NProcShared=36
 Will use up to   36 processors via shared memory.
 ----------------------------------------------------------------------
 #P guess=read uwb97xd/def2tzvp freq iop(7/33=1) scf=(tight, direct) in
 tegral=(grid=ultrafine, Acc2E=12) scf=xqc iop(2/9=2000)
 ----------------------------------------------------------------------
 1/10=4,30=1,38=1/1,3;
 2/9=2000,12=2,17=6,18=5,40=1/2;
 3/5=44,7=101,11=2,25=1,27=12,30=1,71=2,74=-58,75=-5,116=2,140=1/1,2,3;
 4/5=1/1;
 5/5=2,8=3,13=1,32=2,38=6,87=12,98=1/2,8;
 8/6=4,10=90,11=11,87=12/1;
 11/6=1,8=1,9=11,15=111,16=1,87=12/1,2,10;
 10/6=1,87=12/2;
 6/7=2,8=2,9=2,10=2,28=1,87=12/1;
 7/8=1,10=1,25=1,33=1,87=12/1,2,3,16;
 1/10=4,30=1/3;
 99//99;
 Leave Link    1 at Mon Mar  2 00:51:25 2020, MaxMem=  1879048192 cpu:               4.0 elap:               0.1
 (Enter /opt/g16/l101.exe)
 ----
 name
 ----
 Symbolic Z-matrix:
 Charge =  0 Multiplicity = 3
 N                     2.22557   0.47659   0.1589 
 C                     0.94074   0.16929   0.06723 
 C                    -0.00096   1.24518  -0.00259 
 H                     0.39199   2.25357   0.02359 
 C                    -1.35294   1.00212  -0.09921 
 C                    -1.75143  -0.31946  -0.12516 
 C                    -0.91763  -1.41744  -0.06305 
 C                     0.43446  -1.17064   0.03358 
 H                     2.78308  -0.37649   0.20068 
 H                    -2.06533   1.81559  -0.15203 
 H                    -1.3014   -2.42955  -0.08856 
 H                     1.13885  -1.99364   0.08584 
 
 ITRead=  0  0  0  0  0  0  0  0  0  0  0  0
 MicOpt= -1 -1 -1 -1 -1 -1 -1 -1 -1 -1 -1 -1
 NAtoms=     12 NQM=       12 NQMF=       0 NMMI=      0 NMMIF=      0
                NMic=       0 NMicF=      0.
                    Isotopes and Nuclear Properties:
 (Nuclear quadrupole moments (NQMom) in fm**2, nuclear magnetic moments (NMagM)
  in nuclear magnetons)

  Atom         1           2           3           4           5           6           7           8           9          10
 IAtWgt=          14          12          12           1          12          12          12          12           1           1
 AtmWgt=  14.0030740  12.0000000  12.0000000   1.0078250  12.0000000  12.0000000  12.0000000  12.0000000   1.0078250   1.0078250
 NucSpn=           2           0           0           1           0           0           0           0           1           1
 AtZEff=  -0.0000000  -0.0000000  -0.0000000  -0.0000000  -0.0000000  -0.0000000  -0.0000000  -0.0000000  -0.0000000  -0.0000000
 NQMom=    2.0440000   0.0000000   0.0000000   0.0000000   0.0000000   0.0000000   0.0000000   0.0000000   0.0000000   0.0000000
 NMagM=    0.4037610   0.0000000   0.0000000   2.7928460   0.0000000   0.0000000   0.0000000   0.0000000   2.7928460   2.7928460
 AtZNuc=   7.0000000   6.0000000   6.0000000   1.0000000   6.0000000   6.0000000   6.0000000   6.0000000   1.0000000   1.0000000

  Atom        11          12
 IAtWgt=           1           1
 AtmWgt=   1.0078250   1.0078250
 NucSpn=           1           1
 AtZEff=  -0.0000000  -0.0000000
 NQMom=    0.0000000   0.0000000
 NMagM=    2.7928460   2.7928460
 AtZNuc=   1.0000000   1.0000000
 Leave Link  101 at Mon Mar  2 00:51:26 2020, MaxMem=  1879048192 cpu:              11.1 elap:               0.4
 (Enter /opt/g16/l103.exe)

 GradGradGradGradGradGradGradGradGradGradGradGradGradGradGradGradGradGrad
 Berny optimization.
 Initialization pass.
 Trust Radius=3.00D-01 FncErr=1.00D-07 GrdErr=1.00D-07 EigMax=2.50D+02 EigMin=1.00D-04
 Number of steps in this run=      2 maximum allowed number of steps=      2.
 GradGradGradGradGradGradGradGradGradGradGradGradGradGradGradGradGradGrad

 Leave Link  103 at Mon Mar  2 00:51:26 2020, MaxMem=  1879048192 cpu:               2.8 elap:               0.1
 (Enter /opt/g16/l202.exe)
                          Input orientation:                          
 ---------------------------------------------------------------------
 Center     Atomic      Atomic             Coordinates (Angstroms)
 Number     Number       Type             X           Y           Z
 ---------------------------------------------------------------------
      1          7           0        2.225571    0.476587    0.158902
      2          6           0        0.940740    0.169294    0.067232
      3          6           0       -0.000963    1.245181   -0.002591
      4          1           0        0.391987    2.253569    0.023593
      5          6           0       -1.352940    1.002123   -0.099214
      6          6           0       -1.751433   -0.319458   -0.125162
      7          6           0       -0.917625   -1.417435   -0.063045
      8          6           0        0.434459   -1.170639    0.033579
      9          1           0        2.783080   -0.376490    0.200677
     10          1           0       -2.065327    1.815594   -0.152034
     11          1           0       -1.301401   -2.429546   -0.088562
     12          1           0        1.138850   -1.993642    0.085843
 ---------------------------------------------------------------------
                    Distance matrix (angstroms):
                    1          2          3          4          5
     1  N    0.000000
     2  C    1.324244   0.000000
     3  C    2.360989   1.431507   0.000000
     4  H    2.556952   2.155745   1.082563   0.000000
     5  C    3.626093   2.445869   1.377046   2.150807   0.000000
     6  C    4.065826   2.742934   2.351013   3.352140   1.380596
     7  C    3.676447   2.447080   2.816638   3.898572   2.458672
     8  C    2.436625   1.432785   2.455013   3.424486   2.816616
     9  H    1.019952   1.926111   3.228317   3.558918   4.370031
    10  H    4.505710   3.434359   2.146929   2.502211   1.082599
    11  H    4.576721   3.435904   3.898993   4.981135   3.432073
    12  H    2.699691   2.172070   3.434672   4.312827   3.901009
                    6          7          8          9         10
     6  C    0.000000
     7  C    1.380090   0.000000
     8  C    2.351134   1.377816   0.000000
     9  H    4.546563   3.853354   2.484877   0.000000
    10  H    2.158170   3.431853   3.898842   5.332606   0.000000
    11  H    2.157855   1.082730   2.147784   4.580577   4.313795
    12  H    3.346812   2.140858   1.084542   2.309082   4.983334
                   11         12
    11  H    0.000000
    12  H    2.485006   0.000000
 Stoichiometry    C6H5N(3)
 Framework group  CS[SG(C6H5N)]
 Deg. of freedom    21
 Full point group                 CS      NOp   2
 Largest Abelian subgroup         CS      NOp   2
 Largest concise Abelian subgroup C1      NOp   1
                         Standard orientation:                         
 ---------------------------------------------------------------------
 Center     Atomic      Atomic             Coordinates (Angstroms)
 Number     Number       Type             X           Y           Z
 ---------------------------------------------------------------------
      1          7           0        0.000000    2.270002    0.000000
      2          6           0        0.025781    0.946009    0.000000
      3          6           0       -1.226602    0.252648    0.000000
      4          1           0       -2.127925    0.852280    0.000000
      5          6           0       -1.277927   -1.123441   -0.000000
      6          6           0       -0.071776   -1.795190   -0.000000
      7          6           0        1.179142   -1.212222   -0.000000
      8          6           0        1.226837    0.164768    0.000000
      9          1           0        0.952611    2.634467    0.000000
     10          1           0       -2.224924   -1.648051   -0.000000
     11          1           0        2.086063   -1.803660   -0.000000
     12          1           0        2.181440    0.679515    0.000000
 ---------------------------------------------------------------------
 Rotational constants (GHZ):           5.4924513           2.9774275           1.9307686
 Leave Link  202 at Mon Mar  2 00:51:26 2020, MaxMem=  1879048192 cpu:               4.6 elap:               0.2
 (Enter /opt/g16/l301.exe)
 Standard basis: def2TZVP (5D, 7F)
 Ernie: Thresh=  0.10000D-02 Tol=  0.10000D-05 Strict=F.
 There are   200 symmetry adapted cartesian basis functions of A'  symmetry.
 There are    82 symmetry adapted cartesian basis functions of A"  symmetry.
 There are   172 symmetry adapted basis functions of A'  symmetry.
 There are    75 symmetry adapted basis functions of A"  symmetry.
   247 basis functions,   397 primitive gaussians,   282 cartesian basis functions
    25 alpha electrons       23 beta electrons
       nuclear repulsion energy       252.5266957032 Hartrees.
 IExCor= 4639 DFT=T Ex+Corr=wB97XD ExCW=0 ScaHFX=  1.000000
 ScaDFX=  1.000000  1.000000  1.000000  1.000000 ScalE2=  1.000000  1.000000
 IRadAn=      5 IRanWt=     -1 IRanGd=            0 ICorTp=0 IEmpDi=121
 HFx  wShort=  0.000000 wLong=  0.200000 cFull=  0.222036 cShort=  0.000000 cLong=  0.777964
 DFx  wShort=  0.000000 wLong=  0.200000 cFull=  0.000000 cShort=  0.000000 cLong=  1.000000
 NAtoms=   12 NActive=   12 NUniq=   12 SFac= 1.00D+00 NAtFMM=   60 NAOKFM=F Big=F
 Integral buffers will be    131072 words long.
 Raffenetti 2 integral format.
 Two-electron integral symmetry is turned on.
 R6Disp:  Grimme-D2 Dispersion energy=       -0.0042543042 Hartrees.
 Nuclear repulsion after empirical dispersion term =      252.5224413990 Hartrees.
 Leave Link  301 at Mon Mar  2 00:51:26 2020, MaxMem=  1879048192 cpu:               2.8 elap:               0.1
 (Enter /opt/g16/l302.exe)
 NPDir=0 NMtPBC=     1 NCelOv=     1 NCel=       1 NClECP=     1 NCelD=      1
         NCelK=      1 NCelE2=     1 NClLst=     1 CellRange=     0.0.
 One-electron integrals computed using PRISM.
 One-electron integral symmetry used in STVInt
   2 Symmetry operations used in ECPInt.
 ECPInt:  NShTT=    4753 NPrTT=   14704 LenC2=    4703 LenP2D=   12028.
 LDataN:  DoStor=T MaxTD1= 6 Len=  172
 NBasis=   247 RedAO= T EigKep=  1.73D-05  NBF=   172    75
 NBsUse=   247 1.00D-06 EigRej= -1.00D+00 NBFU=   172    75
 Precomputing XC quadrature grid using
 IXCGrd= 4 IRadAn=           5 IRanWt=          -1 IRanGd=           0 AccXCQ= 1.00D-12.
 Generated NRdTot=       0 NPtTot=           0 NUsed=           0 NTot=          32
 NSgBfM=   281   281   281   281   281 MxSgAt=    12 MxSgA2=    12.
 Leave Link  302 at Mon Mar  2 00:51:26 2020, MaxMem=  1879048192 cpu:              12.4 elap:               0.4
 (Enter /opt/g16/l303.exe)
 DipDrv:  MaxL=1.
 Leave Link  303 at Mon Mar  2 00:51:27 2020, MaxMem=  1879048192 cpu:              10.2 elap:               0.3
 (Enter /opt/g16/l401.exe)
 Initial guess from the checkpoint file:  "check.chk"
 B after Tr=    -0.000000   -0.000000   -0.000000
         Rot=   -0.000000    0.999907   -0.013623   -0.000000 Ang= 180.00 deg.
 Guess basis will be translated and rotated to current coordinates.
 JPrj=2 DoOrth=T DoCkMO=T.
 Initial guess orbital symmetries:
 Alpha Orbitals:
       Occupied  (A') (A') (A') (A') (A') (A') (A') (A') (A') (A')
                 (A') (A') (A') (A') (A') (A') (A') (A') (A") (A')
                 (A") (A') (A") (A') (A")
       Virtual   (A") (A") (A') (A') (A') (A') (A') (A') (A") (A')
                 (A') (A") (A') (A') (A") (A') (A') (A") (A') (A')
                 (A') (A") (A') (A") (A') (A') (A') (A') (A") (A')
                 (A") (A') (A') (A') (A') (A') (A') (A') (A") (A')
                 (A') (A') (A") (A') (A') (A') (A') (A') (A") (A')
                 (A") (A') (A") (A') (A") (A') (A') (A") (A') (A')
                 (A') (A') (A") (A") (A') (A') (A') (A") (A') (A")
                 (A') (A") (A') (A') (A') (A') (A") (A') (A') (A')
                 (A") (A") (A') (A') (A") (A') (A') (A") (A') (A")
                 (A') (A") (A') (A') (A") (A') (A") (A') (A") (A')
                 (A") (A') (A") (A') (A') (A') (A') (A') (A') (A")
                 (A') (A') (A') (A") (A") (A') (A') (A') (A') (A")
                 (A') (A") (A') (A') (A') (A") (A') (A") (A') (A")
                 (A') (A") (A') (A') (A') (A") (A') (A") (A') (A')
                 (A") (A") (A') (A") (A') (A") (A') (A") (A') (A')
                 (A") (A') (A') (A") (A') (A') (A") (A") (A') (A")
                 (A') (A') (A') (A') (A") (A') (A") (A') (A') (A")
                 (A') (A') (A") (A') (A') (A") (A') (A') (A") (A')
                 (A') (A") (A') (A') (A') (A") (A") (A") (A') (A')
                 (A') (A") (A') (A') (A") (A") (A') (A") (A') (A')
                 (A") (A') (A') (A') (A') (A') (A") (A') (A') (A')
                 (A') (A') (A') (A') (A') (A') (A') (A') (A') (A')
                 (A') (A')
 Beta  Orbitals:
       Occupied  (A') (A') (A') (A') (A') (A') (A') (A') (A') (A')
                 (A') (A') (A') (A') (A') (A') (A') (A') (A") (A')
                 (A") (A') (A")
       Virtual   (A") (A') (A") (A") (A') (A') (A') (A') (A') (A')
                 (A") (A') (A') (A") (A') (A') (A") (A') (A') (A")
                 (A') (A') (A') (A") (A') (A") (A') (A') (A') (A')
                 (A") (A') (A') (A") (A') (A') (A') (A') (A') (A')
                 (A") (A') (A') (A') (A") (A') (A') (A') (A') (A')
                 (A") (A') (A') (A") (A") (A') (A") (A') (A') (A")
                 (A') (A') (A') (A') (A") (A") (A') (A') (A') (A")
                 (A') (A") (A') (A") (A') (A') (A') (A') (A") (A')
                 (A') (A') (A") (A") (A') (A') (A") (A') (A') (A")
                 (A') (A") (A') (A") (A') (A') (A") (A') (A") (A')
                 (A") (A') (A") (A') (A") (A') (A') (A') (A') (A')
                 (A') (A') (A") (A') (A') (A") (A") (A') (A') (A')
                 (A') (A') (A") (A") (A') (A') (A') (A") (A') (A")
                 (A') (A") (A') (A") (A') (A') (A') (A") (A') (A")
                 (A') (A') (A") (A") (A') (A") (A') (A") (A') (A")
                 (A') (A') (A") (A') (A') (A") (A') (A') (A") (A")
                 (A') (A") (A') (A') (A') (A') (A") (A') (A") (A')
                 (A') (A") (A') (A') (A") (A') (A') (A') (A") (A')
                 (A") (A') (A') (A") (A') (A') (A') (A") (A") (A")
                 (A') (A') (A') (A") (A') (A') (A") (A") (A') (A")
                 (A') (A') (A') (A") (A') (A') (A') (A') (A') (A")
                 (A') (A') (A') (A') (A') (A') (A') (A') (A') (A')
                 (A') (A') (A') (A')
 The electronic state of the initial guess is 3-A".
 Initial guess <Sx>= 0.0000 <Sy>= 0.0000 <Sz>= 1.0000 <S**2>= 2.0785 S= 1.0259
 Leave Link  401 at Mon Mar  2 00:51:32 2020, MaxMem=  1879048192 cpu:             157.5 elap:               5.1
 (Enter /opt/g16/l502.exe)
 Keep R1 and R2 ints in memory in symmetry-blocked form, NReq=1418894295.
 FoFCou: FMM=F IPFlag=           0 FMFlag=           0 FMFlg1=           0
         NFxFlg=           0 DoJE=F BraDBF=F KetDBF=F FulRan=T
         wScrn=  0.000000 ICntrl=       600 IOpCl=  0 I1Cent=           0 NGrid=           0
         NMat0=    1 NMatS0=  30628 NMatT0=    0 NMatD0=    1 NMtDS0=    0 NMtDT0=    0
 Petite list used in FoFCou.
 UHF open shell SCF:
 Using DIIS extrapolation, IDIIS=  1040.
 NGot=  1879048192 LenX=  1398088733 LenY=  1398008768
 Requested convergence on RMS density matrix=1.00D-08 within  32 cycles.
 Requested convergence on MAX density matrix=1.00D-06.
 Requested convergence on             energy=1.00D-06.
 No special actions if energy rises.

 Cycle   1  Pass 1  IDiag  1:
 E= -286.265479980449    
 DIIS: error= 6.58D-06 at cycle   1 NSaved=   1.
 NSaved= 1 IEnMin= 1 EnMin= -286.265479980449     IErMin= 1 ErrMin= 6.58D-06
 ErrMax= 6.58D-06  0.00D+00 EMaxC= 1.00D-01 BMatC= 1.28D-08 BMatP= 1.28D-08
 IDIUse=1 WtCom= 1.00D+00 WtEn= 0.00D+00
 Coeff-Com:  0.100D+01
 Coeff:      0.100D+01
 Gap=     0.333 Goal=   None    Shift=    0.000
 Gap=     0.309 Goal=   None    Shift=    0.000
 RMSDP=9.28D-07 MaxDP=3.62D-05              OVMax= 1.31D-05

 Cycle   2  Pass 1  IDiag  1:
 E= -286.265479983225     Delta-E=       -0.000000002776 Rises=F Damp=F
 DIIS: error= 8.01D-07 at cycle   2 NSaved=   2.
 NSaved= 2 IEnMin= 2 EnMin= -286.265479983225     IErMin= 2 ErrMin= 8.01D-07
 ErrMax= 8.01D-07  0.00D+00 EMaxC= 1.00D-01 BMatC= 3.27D-10 BMatP= 1.28D-08
 IDIUse=1 WtCom= 1.00D+00 WtEn= 0.00D+00
 Coeff-Com: -0.141D+00 0.114D+01
 Coeff:     -0.141D+00 0.114D+01
 Gap=     0.333 Goal=   None    Shift=    0.000
 Gap=     0.309 Goal=   None    Shift=    0.000
 RMSDP=1.16D-07 MaxDP=3.95D-06 DE=-2.78D-09 OVMax= 3.03D-06

 Cycle   3  Pass 1  IDiag  1:
 E= -286.265479983334     Delta-E=       -0.000000000108 Rises=F Damp=F
 DIIS: error= 3.94D-07 at cycle   3 NSaved=   3.
 NSaved= 3 IEnMin= 3 EnMin= -286.265479983334     IErMin= 3 ErrMin= 3.94D-07
 ErrMax= 3.94D-07  0.00D+00 EMaxC= 1.00D-01 BMatC= 4.11D-11 BMatP= 3.27D-10
 IDIUse=1 WtCom= 1.00D+00 WtEn= 0.00D+00
 Coeff-Com: -0.441D-01 0.282D+00 0.762D+00
 Coeff:     -0.441D-01 0.282D+00 0.762D+00
 Gap=     0.333 Goal=   None    Shift=    0.000
 Gap=     0.309 Goal=   None    Shift=    0.000
 RMSDP=2.15D-08 MaxDP=1.01D-06 DE=-1.08D-10 OVMax= 2.11D-06

 Cycle   4  Pass 1  IDiag  1:
 E= -286.265479983343     Delta-E=       -0.000000000009 Rises=F Damp=F
 DIIS: error= 2.27D-07 at cycle   4 NSaved=   4.
 NSaved= 4 IEnMin= 4 EnMin= -286.265479983343     IErMin= 4 ErrMin= 2.27D-07
 ErrMax= 2.27D-07  0.00D+00 EMaxC= 1.00D-01 BMatC= 1.47D-11 BMatP= 4.11D-11
 IDIUse=1 WtCom= 1.00D+00 WtEn= 0.00D+00
 Coeff-Com:  0.147D-01-0.153D+00 0.363D+00 0.776D+00
 Coeff:      0.147D-01-0.153D+00 0.363D+00 0.776D+00
 Gap=     0.333 Goal=   None    Shift=    0.000
 Gap=     0.309 Goal=   None    Shift=    0.000
 RMSDP=1.34D-08 MaxDP=5.72D-07 DE=-8.98D-12 OVMax= 1.01D-06

 Cycle   5  Pass 1  IDiag  1:
 E= -286.265479983347     Delta-E=       -0.000000000004 Rises=F Damp=F
 DIIS: error= 3.07D-08 at cycle   5 NSaved=   5.
 NSaved= 5 IEnMin= 5 EnMin= -286.265479983347     IErMin= 5 ErrMin= 3.07D-08
 ErrMax= 3.07D-08  0.00D+00 EMaxC= 1.00D-01 BMatC= 2.38D-13 BMatP= 1.47D-11
 IDIUse=1 WtCom= 1.00D+00 WtEn= 0.00D+00
 Coeff-Com:  0.357D-02-0.315D-01 0.215D-01 0.990D-01 0.908D+00
 Coeff:      0.357D-02-0.315D-01 0.215D-01 0.990D-01 0.908D+00
 Gap=     0.333 Goal=   None    Shift=    0.000
 Gap=     0.309 Goal=   None    Shift=    0.000
 RMSDP=3.73D-09 MaxDP=1.88D-07 DE=-4.43D-12 OVMax= 2.42D-07

 SCF Done:  E(UwB97XD) =  -286.265479983     A.U. after    5 cycles
            NFock=  5  Conv=0.37D-08     -V/T= 2.0046
 <Sx>= 0.0000 <Sy>= 0.0000 <Sz>= 1.0000 <S**2>= 2.0785 S= 1.0259
 <L.S>= 0.000000000000E+00
 KE= 2.849429981313D+02 PE=-1.170058532791D+03 EE= 3.463276132771D+02
 Annihilation of the first spin contaminant:
 S**2 before annihilation     2.0785,   after     2.0028
 Leave Link  502 at Mon Mar  2 00:52:19 2020, MaxMem=  1879048192 cpu:            1504.4 elap:              47.3
 (Enter /opt/g16/l508.exe)
 QCSCF skips out because SCF is already converged.
 Leave Link  508 at Mon Mar  2 00:52:20 2020, MaxMem=  1879048192 cpu:               0.3 elap:               0.0
 (Enter /opt/g16/l801.exe)
 DoSCS=F DFT=T ScalE2(SS,OS)=  1.000000  1.000000
 Range of M.O.s used for correlation:     1   247
 NBasis=   247 NAE=    25 NBE=    23 NFC=     0 NFV=     0
 NROrb=    247 NOA=    25 NOB=    23 NVA=   222 NVB=   224

 **** Warning!!: The largest alpha MO coefficient is  0.53995460D+02


 **** Warning!!: The largest beta MO coefficient is  0.44695470D+02

 Leave Link  801 at Mon Mar  2 00:52:20 2020, MaxMem=  1879048192 cpu:               3.1 elap:               0.1
 (Enter /opt/g16/l1101.exe)
 Using compressed storage, NAtomX=    12.
 Will process     13 centers per pass.
   2 Symmetry operations used in ECPInt.
 ECPInt:  NShTT=    4753 NPrTT=   14704 LenC2=    4703 LenP2D=   12028.
 LDataN:  DoStor=T MaxTD1= 7 Len=  274
 Number of processors reduced to  33 by ecpmxn.
 R6Disp: Adding Grimme-D2 dispersion energy 1st derivatives to the gradient.
 Leave Link 1101 at Mon Mar  2 00:52:23 2020, MaxMem=  1879048192 cpu:              84.4 elap:               2.5
 (Enter /opt/g16/l1102.exe)
 Symmetrizing basis deriv contribution to polar:
 IMax=3 JMax=2 DiffMx= 0.00D+00
 Leave Link 1102 at Mon Mar  2 00:52:23 2020, MaxMem=  1879048192 cpu:               7.0 elap:               0.3
 (Enter /opt/g16/l1110.exe)
 Forming Gx(P) for the SCF density, NAtomX=    12.
 Integral derivatives from FoFJK, PRISM(SPDF).
 Do as many integral derivatives as possible in FoFJK.
 G2DrvN: MDV=    1879047120.
 G2DrvN: will do    13 centers at a time, making    1 passes.
 Calling FoFCou, ICntrl=  3107 FMM=F I1Cent=   0 AccDes= 1.00D-12.
 FoFJK:  IHMeth= 1 ICntrl=    3107 DoSepK=T KAlg= 0 I1Cent=           0 FoldK=F
 IRaf=         1 NMat=       1 IRICut=       1 DoRegI=T DoRafI=F ISym2E= 1 IDoP0=0 IntGTp=1.
 FoFCou: FMM=F IPFlag=           0 FMFlag=      100000 FMFlg1=           0
         NFxFlg=           0 DoJE=F BraDBF=F KetDBF=F FulRan=T
         wScrn=  0.000000 ICntrl=      3507 IOpCl=  0 I1Cent=           0 NGrid=           0
         NMat0=    1 NMatS0=      1 NMatT0=    0 NMatD0=    1 NMtDS0=    0 NMtDT0=    0
 Petite list used in FoFCou.
 End of G2Drv F.D. properties file   721 does not exist.
 End of G2Drv F.D. properties file   722 does not exist.
 End of G2Drv F.D. properties file   788 does not exist.
 Leave Link 1110 at Mon Mar  2 00:53:08 2020, MaxMem=  1879048192 cpu:            1498.5 elap:              45.0
 (Enter /opt/g16/l1002.exe)
 Minotr:  UHF open shell wavefunction.
          IDoAtm=111111111111
          Direct CPHF calculation.
          Differentiating once with respect to electric field.
                with respect to dipole field.
          Differentiating once with respect to nuclear coordinates.
          Using symmetry in CPHF.
          Requested convergence is 1.0D-08 RMS, and 1.0D-07 maximum.
          Secondary convergence is 1.0D-12 RMS, and 1.0D-12 maximum.
          NewPWx=T KeepS1=F KeepF1=F KeepIn=T MapXYZ=F SortEE=F KeepMc=T.
         3605 words used for storage of precomputed grid.
 Keep R1 and R2 ints in memory in symmetry-blocked form, NReq=1418900112.
 FoFCou: FMM=F IPFlag=           0 FMFlag=           0 FMFlg1=           0
         NFxFlg=           0 DoJE=F BraDBF=F KetDBF=F FulRan=T
         wScrn=  0.000000 ICntrl=       600 IOpCl=  0 I1Cent=           0 NGrid=           0
         NMat0=    1 NMatS0=  30628 NMatT0=    0 NMatD0=    1 NMtDS0=    0 NMtDT0=    0
 Petite list used in FoFCou.
          MDV=    1879048192 using IRadAn=       1.
          Solving linear equations simultaneously, MaxMat=       0.
          There are    39 degrees of freedom in the 1st order CPHF.  IDoFFX=6 NUNeed=     3.
     36 vectors produced by pass  0 Test12= 2.74D-14 2.56D-09 XBig12= 1.19D+02 6.17D+00.
 AX will form    36 AO Fock derivatives at one time.
     36 vectors produced by pass  1 Test12= 2.74D-14 2.56D-09 XBig12= 1.77D+01 9.70D-01.
     36 vectors produced by pass  2 Test12= 2.74D-14 2.56D-09 XBig12= 1.04D+00 2.74D-01.
     36 vectors produced by pass  3 Test12= 2.74D-14 2.56D-09 XBig12= 2.42D-02 4.44D-02.
     36 vectors produced by pass  4 Test12= 2.74D-14 2.56D-09 XBig12= 2.69D-04 2.72D-03.
     36 vectors produced by pass  5 Test12= 2.74D-14 2.56D-09 XBig12= 2.54D-06 2.60D-04.
     36 vectors produced by pass  6 Test12= 2.74D-14 2.56D-09 XBig12= 2.24D-08 2.42D-05.
     31 vectors produced by pass  7 Test12= 2.74D-14 2.56D-09 XBig12= 2.15D-10 2.06D-06.
     13 vectors produced by pass  8 Test12= 2.74D-14 2.56D-09 XBig12= 2.02D-12 1.50D-07.
      3 vectors produced by pass  9 Test12= 2.74D-14 2.56D-09 XBig12= 1.85D-14 2.00D-08.
 InvSVY:  IOpt=1 It=  1 EMax= 1.95D-14
 Solved reduced A of dimension   299 with    39 vectors.
 FullF1:  Do perturbations      1 to       3.
 Isotropic polarizability for W=    0.000000       73.66 Bohr**3.
 End of Minotr F.D. properties file   721 does not exist.
 End of Minotr F.D. properties file   722 does not exist.
 End of Minotr F.D. properties file   788 does not exist.
 Leave Link 1002 at Mon Mar  2 00:55:42 2020, MaxMem=  1879048192 cpu:            5006.1 elap:             154.4
 (Enter /opt/g16/l601.exe)
 Copying SCF densities to generalized density rwf, IOpCl= 1 IROHF=0.

 **********************************************************************

            Population analysis using the SCF Density.

 **********************************************************************

 Orbital symmetries:
 Alpha Orbitals:
       Occupied  (A') (A') (A') (A') (A') (A') (A') (A') (A') (A')
                 (A') (A') (A') (A') (A') (A') (A') (A') (A") (A')
                 (A") (A') (A") (A') (A")
       Virtual   (A") (A") (A') (A') (A') (A') (A') (A') (A") (A')
                 (A') (A") (A') (A') (A") (A') (A') (A") (A') (A')
                 (A') (A") (A') (A") (A') (A') (A') (A') (A") (A')
                 (A") (A') (A') (A') (A') (A') (A') (A') (A") (A')
                 (A') (A') (A") (A') (A') (A') (A') (A') (A") (A')
                 (A") (A') (A") (A') (A") (A') (A') (A") (A') (A')
                 (A') (A') (A") (A") (A') (A') (A') (A") (A') (A")
                 (A') (A") (A') (A') (A') (A') (A") (A') (A') (A')
                 (A") (A") (A') (A') (A") (A') (A') (A") (A') (A")
                 (A') (A") (A') (A') (A") (A') (A") (A') (A") (A')
                 (A") (A') (A") (A') (A') (A') (A') (A') (A') (A")
                 (A') (A') (A') (A") (A") (A') (A') (A') (A') (A")
                 (A') (A") (A') (A') (A') (A") (A') (A") (A') (A")
                 (A') (A") (A') (A') (A') (A") (A') (A") (A') (A')
                 (A") (A") (A') (A") (A') (A") (A') (A") (A') (A')
                 (A") (A') (A') (A") (A') (A') (A") (A") (A') (A")
                 (A') (A') (A') (A') (A") (A') (A") (A') (A') (A")
                 (A') (A') (A") (A') (A') (A") (A') (A') (A") (A')
                 (A') (A") (A') (A') (A') (A") (A") (A") (A') (A')
                 (A') (A") (A') (A') (A") (A") (A') (A") (A') (A')
                 (A") (A') (A') (A') (A') (A') (A") (A') (A') (A')
                 (A') (A') (A') (A') (A') (A') (A') (A') (A') (A')
                 (A') (A')
 Beta  Orbitals:
       Occupied  (A') (A') (A') (A') (A') (A') (A') (A') (A') (A')
                 (A') (A') (A') (A') (A') (A') (A') (A') (A") (A')
                 (A") (A') (A")
       Virtual   (A") (A') (A") (A") (A') (A') (A') (A') (A') (A')
                 (A") (A') (A') (A") (A') (A') (A") (A') (A') (A")
                 (A') (A') (A') (A") (A') (A") (A') (A') (A') (A')
                 (A") (A') (A') (A") (A') (A') (A') (A') (A') (A')
                 (A") (A') (A') (A') (A") (A') (A') (A') (A') (A')
                 (A") (A') (A') (A") (A") (A') (A") (A') (A') (A")
                 (A') (A') (A') (A') (A") (A") (A') (A') (A') (A")
                 (A') (A") (A') (A") (A') (A') (A') (A') (A") (A')
                 (A') (A') (A") (A") (A') (A') (A") (A') (A') (A")
                 (A') (A") (A') (A") (A') (A') (A") (A') (A") (A')
                 (A") (A') (A") (A') (A") (A') (A') (A') (A') (A')
                 (A') (A') (A") (A') (A') (A") (A") (A') (A') (A')
                 (A') (A') (A") (A") (A') (A') (A') (A") (A') (A")
                 (A') (A") (A') (A") (A') (A') (A') (A") (A') (A")
                 (A') (A') (A") (A") (A') (A") (A') (A") (A') (A")
                 (A') (A') (A") (A') (A') (A") (A') (A') (A") (A")
                 (A') (A") (A') (A') (A') (A') (A") (A') (A") (A')
                 (A') (A") (A') (A') (A") (A') (A') (A') (A") (A')
                 (A") (A') (A') (A") (A') (A') (A') (A") (A") (A")
                 (A') (A') (A') (A") (A') (A') (A") (A") (A') (A")
                 (A') (A') (A') (A") (A') (A') (A') (A') (A') (A")
                 (A') (A') (A') (A') (A') (A') (A') (A') (A') (A')
                 (A') (A') (A') (A')
 The electronic state is 3-A".
 Alpha  occ. eigenvalues --  -14.43365 -10.33449 -10.33346 -10.31638 -10.31252
 Alpha  occ. eigenvalues --  -10.31081 -10.30975  -1.02568  -0.96350  -0.87792
 Alpha  occ. eigenvalues --   -0.82430  -0.72868  -0.69559  -0.61683  -0.57603
 Alpha  occ. eigenvalues --   -0.56059  -0.53940  -0.51872  -0.50403  -0.45696
 Alpha  occ. eigenvalues --   -0.42774  -0.37376  -0.36577  -0.34792  -0.29750
 Alpha virt. eigenvalues --    0.03585   0.06592   0.12130   0.13681   0.15266
 Alpha virt. eigenvalues --    0.18292   0.18811   0.20100   0.21150   0.23726
 Alpha virt. eigenvalues --    0.26540   0.27332   0.29047   0.29342   0.31304
 Alpha virt. eigenvalues --    0.31717   0.32580   0.33365   0.34531   0.38388
 Alpha virt. eigenvalues --    0.39043   0.39653   0.40006   0.40220   0.42878
 Alpha virt. eigenvalues --    0.44044   0.45843   0.47634   0.47957   0.48864
 Alpha virt. eigenvalues --    0.49028   0.49738   0.51265   0.52579   0.55319
 Alpha virt. eigenvalues --    0.56230   0.57209   0.58441   0.58847   0.60744
 Alpha virt. eigenvalues --    0.65439   0.68410   0.69277   0.71164   0.72537
 Alpha virt. eigenvalues --    0.74122   0.76025   0.77867   0.79517   0.82620
 Alpha virt. eigenvalues --    0.85925   0.86263   0.87326   0.88011   0.93546
 Alpha virt. eigenvalues --    0.94466   0.95909   1.06067   1.06761   1.07927
 Alpha virt. eigenvalues --    1.10142   1.11677   1.14607   1.15576   1.19801
 Alpha virt. eigenvalues --    1.22168   1.24514   1.25303   1.27608   1.29677
 Alpha virt. eigenvalues --    1.33728   1.35035   1.36697   1.38554   1.40228
 Alpha virt. eigenvalues --    1.45263   1.46042   1.47560   1.51327   1.54391
 Alpha virt. eigenvalues --    1.56242   1.56572   1.58147   1.60697   1.62774
 Alpha virt. eigenvalues --    1.63742   1.66000   1.68140   1.71504   1.73570
 Alpha virt. eigenvalues --    1.76457   1.77163   1.80421   1.85041   1.88186
 Alpha virt. eigenvalues --    1.88473   1.92132   1.95308   1.96169   2.01813
 Alpha virt. eigenvalues --    2.05416   2.09093   2.11421   2.15774   2.17215
 Alpha virt. eigenvalues --    2.19886   2.20676   2.26697   2.27029   2.28676
 Alpha virt. eigenvalues --    2.29181   2.37115   2.40488   2.41427   2.44033
 Alpha virt. eigenvalues --    2.47662   2.59363   2.61082   2.63195   2.64977
 Alpha virt. eigenvalues --    2.65861   2.66395   2.67536   2.69960   2.72904
 Alpha virt. eigenvalues --    2.75866   2.76186   2.77485   2.78954   2.81390
 Alpha virt. eigenvalues --    2.83066   2.85511   2.85823   2.87731   2.92554
 Alpha virt. eigenvalues --    2.93776   2.93865   2.95650   2.98976   3.03169
 Alpha virt. eigenvalues --    3.03448   3.07781   3.13266   3.14944   3.15707
 Alpha virt. eigenvalues --    3.18857   3.19486   3.20439   3.22227   3.25192
 Alpha virt. eigenvalues --    3.28225   3.29680   3.30459   3.33692   3.36375
 Alpha virt. eigenvalues --    3.39365   3.40049   3.42239   3.42880   3.43160
 Alpha virt. eigenvalues --    3.44464   3.48351   3.51674   3.53064   3.55034
 Alpha virt. eigenvalues --    3.56375   3.56479   3.59513   3.62791   3.73227
 Alpha virt. eigenvalues --    3.75762   3.77442   3.78417   3.84121   3.89284
 Alpha virt. eigenvalues --    4.02204   4.02396   4.04851   4.08570   4.09876
 Alpha virt. eigenvalues --    4.11054   4.14609   4.17257   4.18105   4.25911
 Alpha virt. eigenvalues --    4.26838   4.29635   4.35863   4.38305   4.44372
 Alpha virt. eigenvalues --    4.47967   4.48137   4.58592   4.65032   4.67125
 Alpha virt. eigenvalues --    4.73359   4.76455   4.82075   4.83693   4.86418
 Alpha virt. eigenvalues --    4.91699   4.92421   4.94919   5.03197   5.06193
 Alpha virt. eigenvalues --    5.18617   5.31215   5.31983   5.34037   5.37904
 Alpha virt. eigenvalues --    5.51927   5.55143   5.65027   5.74644   6.08185
 Alpha virt. eigenvalues --   22.12860  22.58098  22.61872  22.76770  22.91200
 Alpha virt. eigenvalues --   23.30005  32.13132
  Beta  occ. eigenvalues --  -14.42341 -10.33606 -10.31745 -10.31428 -10.31187
  Beta  occ. eigenvalues --  -10.31163 -10.30628  -1.00969  -0.94168  -0.87069
  Beta  occ. eigenvalues --   -0.79563  -0.72089  -0.68300  -0.60501  -0.56157
  Beta  occ. eigenvalues --   -0.54755  -0.53395  -0.50450  -0.48272  -0.44924
  Beta  occ. eigenvalues --   -0.37795  -0.35772  -0.35488
  Beta virt. eigenvalues --   -0.04614  -0.02601   0.04889   0.10166   0.12428
  Beta virt. eigenvalues --    0.13818   0.15332   0.18530   0.19064   0.20237
  Beta virt. eigenvalues --    0.22400   0.24506   0.26778   0.27761   0.29108
  Beta virt. eigenvalues --    0.29407   0.31449   0.32819   0.33416   0.34272
  Beta virt. eigenvalues --    0.35543   0.38805   0.39585   0.39940   0.40535
  Beta virt. eigenvalues --    0.40874   0.43129   0.44471   0.46635   0.47947
  Beta virt. eigenvalues --    0.48340   0.49089   0.50170   0.50991   0.51741
  Beta virt. eigenvalues --    0.53037   0.55645   0.56790   0.57780   0.59358
  Beta virt. eigenvalues --    0.59864   0.61288   0.65566   0.68584   0.69967
  Beta virt. eigenvalues --    0.71375   0.73442   0.74865   0.77020   0.78718
  Beta virt. eigenvalues --    0.79750   0.82636   0.86957   0.87919   0.88292
  Beta virt. eigenvalues --    0.88760   0.94549   0.95131   0.96317   1.07147
  Beta virt. eigenvalues --    1.07802   1.08336   1.10845   1.13396   1.15871
  Beta virt. eigenvalues --    1.16843   1.21090   1.23226   1.24904   1.25933
  Beta virt. eigenvalues --    1.27958   1.30503   1.34402   1.36068   1.37209
  Beta virt. eigenvalues --    1.39455   1.41228   1.45838   1.47293   1.49766
  Beta virt. eigenvalues --    1.53097   1.55210   1.56904   1.57880   1.58716
  Beta virt. eigenvalues --    1.61091   1.64184   1.64674   1.66703   1.68551
  Beta virt. eigenvalues --    1.71678   1.74625   1.76881   1.77863   1.82831
  Beta virt. eigenvalues --    1.85594   1.88825   1.89090   1.93135   1.96085
  Beta virt. eigenvalues --    1.96498   2.02690   2.06224   2.09526   2.12056
  Beta virt. eigenvalues --    2.16396   2.18140   2.20441   2.21695   2.27393
  Beta virt. eigenvalues --    2.28054   2.30198   2.31012   2.37642   2.41374
  Beta virt. eigenvalues --    2.42203   2.46611   2.48367   2.59951   2.61872
  Beta virt. eigenvalues --    2.64188   2.66516   2.66762   2.67888   2.68857
  Beta virt. eigenvalues --    2.70242   2.73300   2.76405   2.77322   2.78301
  Beta virt. eigenvalues --    2.80330   2.82004   2.84302   2.86736   2.86890
  Beta virt. eigenvalues --    2.88301   2.93570   2.94495   2.94575   2.96527
  Beta virt. eigenvalues --    3.00042   3.04215   3.05748   3.09069   3.14434
  Beta virt. eigenvalues --    3.15763   3.16382   3.19310   3.20247   3.22721
  Beta virt. eigenvalues --    3.23210   3.25991   3.29249   3.30629   3.32187
  Beta virt. eigenvalues --    3.35157   3.37244   3.40748   3.41369   3.43266
  Beta virt. eigenvalues --    3.44993   3.46084   3.46351   3.49044   3.52319
  Beta virt. eigenvalues --    3.55842   3.56415   3.57573   3.57620   3.60353
  Beta virt. eigenvalues --    3.63584   3.74234   3.76895   3.80013   3.80466
  Beta virt. eigenvalues --    3.85223   3.90117   4.03010   4.03458   4.05472
  Beta virt. eigenvalues --    4.10487   4.11003   4.12055   4.15825   4.18420
  Beta virt. eigenvalues --    4.18578   4.26748   4.27745   4.31176   4.38074
  Beta virt. eigenvalues --    4.40289   4.46290   4.48806   4.50093   4.60511
  Beta virt. eigenvalues --    4.66867   4.68912   4.76604   4.77582   4.83887
  Beta virt. eigenvalues --    4.84571   4.87715   4.94078   4.95242   4.96174
  Beta virt. eigenvalues --    5.04661   5.08399   5.20106   5.33117   5.33392
  Beta virt. eigenvalues --    5.35172   5.39115   5.52953   5.55990   5.66028
  Beta virt. eigenvalues --    5.75459   6.08715  22.13919  22.60005  22.61958
  Beta virt. eigenvalues --   22.77212  22.91192  23.29918  32.14457
          Condensed to atoms (all electrons):
               1          2          3          4          5          6
     1  N    6.538245   0.588992  -0.064538   0.010262   0.002163  -0.001489
     2  C    0.588992   4.684851   0.435039  -0.033906  -0.018177  -0.052360
     3  C   -0.064538   0.435039   4.965003   0.407309   0.502022  -0.022261
     4  H    0.010262  -0.033906   0.407309   0.506958  -0.046546   0.009429
     5  C    0.002163  -0.018177   0.502022  -0.046546   4.861062   0.491160
     6  C   -0.001489  -0.052360  -0.022261   0.009429   0.491160   5.097135
     7  C    0.024206   0.031667  -0.026838  -0.005878  -0.035994   0.485534
     8  C   -0.127740   0.373409  -0.038718   0.017284  -0.036338   0.001242
     9  H    0.356336  -0.092041   0.014141  -0.001490  -0.000686  -0.000421
    10  H   -0.000077   0.006817  -0.043530  -0.005369   0.426446  -0.041899
    11  H   -0.000314   0.002536  -0.000792   0.000074   0.004082  -0.036687
    12  H   -0.004509  -0.048410   0.008919  -0.000057  -0.002495   0.007338
               7          8          9         10         11         12
     1  N    0.024206  -0.127740   0.356336  -0.000077  -0.000314  -0.004509
     2  C    0.031667   0.373409  -0.092041   0.006817   0.002536  -0.048410
     3  C   -0.026838  -0.038718   0.014141  -0.043530  -0.000792   0.008919
     4  H   -0.005878   0.017284  -0.001490  -0.005369   0.000074  -0.000057
     5  C   -0.035994  -0.036338  -0.000686   0.426446   0.004082  -0.002495
     6  C    0.485534   0.001242  -0.000421  -0.041899  -0.036687   0.007338
     7  C    4.999398   0.298781   0.008106   0.005928   0.410309  -0.032959
     8  C    0.298781   5.325971  -0.024076  -0.002377  -0.028751   0.418510
     9  H    0.008106  -0.024076   0.533815   0.000027  -0.000084   0.003202
    10  H    0.005928  -0.002377   0.000027   0.512083  -0.000100   0.000047
    11  H    0.410309  -0.028751  -0.000084  -0.000100   0.512150  -0.004442
    12  H   -0.032959   0.418510   0.003202   0.000047  -0.004442   0.525386
          Atomic-Atomic Spin Densities.
               1          2          3          4          5          6
     1  N    0.656372  -0.014440  -0.026647  -0.000431  -0.000130   0.000990
     2  C   -0.014440  -0.174399   0.005895  -0.001188   0.017028  -0.012092
     3  C   -0.026647   0.005895   0.370956  -0.002490   0.002458  -0.037648
     4  H   -0.000431  -0.001188  -0.002490   0.000291  -0.002450   0.002499
     5  C   -0.000130   0.017028   0.002458  -0.002450  -0.194840  -0.004679
     6  C    0.000990  -0.012092  -0.037648   0.002499  -0.004679   1.319390
     7  C   -0.001650   0.013185  -0.002464   0.000052   0.018590   0.007045
     8  C   -0.017931   0.009581   0.008461  -0.000403  -0.004289  -0.039914
     9  H   -0.002405   0.006123   0.001850   0.000169  -0.000022   0.000204
    10  H   -0.000003  -0.000169  -0.007715   0.001492   0.011608  -0.008118
    11  H    0.000006  -0.000065  -0.000232   0.000020  -0.000496  -0.008174
    12  H   -0.000009  -0.002914  -0.000165   0.000087  -0.000347   0.002898
               7          8          9         10         11         12
     1  N   -0.001650  -0.017931  -0.002405  -0.000003   0.000006  -0.000009
     2  C    0.013185   0.009581   0.006123  -0.000169  -0.000065  -0.002914
     3  C   -0.002464   0.008461   0.001850  -0.007715  -0.000232  -0.000165
     4  H    0.000052  -0.000403   0.000169   0.001492   0.000020   0.000087
     5  C    0.018590  -0.004289  -0.000022   0.011608  -0.000496  -0.000347
     6  C    0.007045  -0.039914   0.000204  -0.008118  -0.008174   0.002898
     7  C   -0.204267   0.006394  -0.000814  -0.000495   0.013603  -0.000634
     8  C    0.006394   0.361618  -0.001011  -0.000195  -0.010353  -0.003614
     9  H   -0.000814  -0.001011  -0.020955   0.000000   0.000012   0.000438
    10  H   -0.000495  -0.000195   0.000000   0.026842   0.000073   0.000022
    11  H    0.013603  -0.010353   0.000012   0.000073   0.027538   0.001587
    12  H   -0.000634  -0.003614   0.000438   0.000022   0.001587   0.000298
 Mulliken charges and spin densities:
               1          2
     1  N   -0.321538   0.593723
     2  C    0.121583  -0.153453
     3  C   -0.135757   0.312259
     4  H    0.141930  -0.002351
     5  C   -0.146700  -0.157570
     6  C    0.063279   1.222401
     7  C   -0.162259  -0.151455
     8  C   -0.177198   0.308345
     9  H    0.203170  -0.016409
    10  H    0.142004   0.023342
    11  H    0.142017   0.023518
    12  H    0.129468  -0.002352
 Sum of Mulliken charges =  -0.00000   2.00000
 Mulliken charges and spin densities with hydrogens summed into heavy atoms:
               1          2
     1  N   -0.118368   0.577314
     2  C    0.121583  -0.153453
     3  C    0.006173   0.309908
     5  C   -0.004696  -0.134227
     6  C    0.063279   1.222401
     7  C   -0.020242  -0.127937
     8  C   -0.047729   0.305993
 APT charges:
               1
     1  N   -0.276210
     2  C   -0.008364
     3  C    0.048885
     4  H    0.061010
     5  C   -0.105905
     6  C    0.005393
     7  C   -0.120408
     8  C    0.061143
     9  H    0.158350
    10  H    0.069646
    11  H    0.066538
    12  H    0.039921
 Sum of APT charges =  -0.00000
 APT charges with hydrogens summed into heavy atoms:
               1
     1  N   -0.117859
     2  C   -0.008364
     3  C    0.109895
     5  C   -0.036259
     6  C    0.005393
     7  C   -0.053871
     8  C    0.101065
 Electronic spatial extent (au):  <R**2>=            617.2800
 Charge=             -0.0000 electrons
 Dipole moment (field-independent basis, Debye):
    X=              1.2646    Y=             -1.3770    Z=             -0.0000  Tot=              1.8696
 Quadrupole moment (field-independent basis, Debye-Ang):
   XX=            -33.3466   YY=            -44.7259   ZZ=            -43.5279
   XY=              3.8491   XZ=              0.0000   YZ=             -0.0000
 Traceless Quadrupole moment (field-independent basis, Debye-Ang):
   XX=              7.1869   YY=             -4.1924   ZZ=             -2.9945
   XY=              3.8491   XZ=              0.0000   YZ=             -0.0000
 Octapole moment (field-independent basis, Debye-Ang**2):
  XXX=              0.7618  YYY=             -6.1414  ZZZ=              0.0000  XYY=             12.4126
  XXY=             -0.2301  XXZ=             -0.0000  XZZ=              0.3611  YZZ=              2.7433
  YYZ=             -0.0000  XYZ=              0.0000
 Hexadecapole moment (field-independent basis, Debye-Ang**3):
 XXXX=           -269.5083 YYYY=           -543.6973 ZZZZ=            -48.8864 XXXY=             -0.5989
 XXXZ=              0.0000 YYYX=             27.3395 YYYZ=             -0.0000 ZZZX=              0.0000
 ZZZY=             -0.0000 XXYY=           -113.1072 XXZZ=            -65.4303 YYZZ=            -96.8772
 XXYZ=             -0.0000 YYXZ=              0.0000 ZZXY=             -0.9507
 N-N= 2.525224413990D+02 E-N=-1.170058533213D+03  KE= 2.849429981313D+02
 Symmetry A'   KE= 2.767763648674D+02
 Symmetry A"   KE= 8.166633263866D+00
 Symmetry A'   SP= 1.000000000000D+00
 Symmetry A"   SP= 1.000000000000D+00
  Exact polarizability:  79.313   1.865 100.508  -0.000   0.000  41.156
 Approx polarizability:  88.690   1.383 112.166  -0.000   0.000  49.667
                          Isotropic Fermi Contact Couplings
        Atom                 a.u.       MegaHertz       Gauss      10(-4) cm-1
     1  N(14)              0.05836       9.42811       3.36418       3.14488
     2  C(13)             -0.04306     -24.20250      -8.63605      -8.07309
     3  C(13)              0.06103      34.30502      12.24088      11.44292
     4  H(1)              -0.00120      -2.67805      -0.95559      -0.89330
     5  C(13)             -0.00548      -3.08249      -1.09991      -1.02821
     6  C(13)              0.36539     205.38521      73.28655      68.50913
     7  C(13)             -0.00461      -2.59008      -0.92421      -0.86396
     8  C(13)              0.06287      35.33945      12.60999      11.78797
     9  H(1)              -0.00866     -19.35097      -6.90491      -6.45479
    10  H(1)               0.01167      26.07196       9.30313       8.69667
    11  H(1)               0.01173      26.21446       9.35397       8.74420
    12  H(1)              -0.00148      -3.29911      -1.17721      -1.10047
 --------------------------------------------------------
       Center         ----  Spin Dipole Couplings  ----
                      3XX-RR        3YY-RR        3ZZ-RR
 --------------------------------------------------------
     1   Atom       -0.678345     -0.676659      1.355003
     2   Atom        0.068529      0.130246     -0.198775
     3   Atom       -0.196273     -0.106963      0.303236
     4   Atom        0.016187     -0.006146     -0.010041
     5   Atom        0.116678      0.126616     -0.243294
     6   Atom       -0.746619      0.818372     -0.071753
     7   Atom        0.125199      0.112516     -0.237715
     8   Atom       -0.194388     -0.109958      0.304346
     9   Atom        0.052928     -0.040195     -0.012732
    10   Atom        0.022412     -0.004711     -0.017700
    11   Atom        0.024428     -0.006771     -0.017657
    12   Atom        0.019804     -0.010342     -0.009462
 --------------------------------------------------------
                        XY            XZ            YZ
 --------------------------------------------------------
     1   Atom        0.006684     -0.000000      0.000000
     2   Atom       -0.000894      0.000000     -0.000000
     3   Atom       -0.005221     -0.000000      0.000000
     4   Atom       -0.021035      0.000000      0.000000
     5   Atom       -0.067440     -0.000000      0.000000
     6   Atom        0.053737      0.000000      0.000000
     7   Atom        0.066944      0.000000      0.000000
     8   Atom        0.009483      0.000000      0.000000
     9   Atom        0.045387     -0.000000      0.000000
    10   Atom       -0.011404      0.000000      0.000000
    11   Atom        0.009288     -0.000000      0.000000
    12   Atom        0.019330     -0.000000      0.000000
 --------------------------------------------------------


 ---------------------------------------------------------------------------------
              Anisotropic Spin Dipole Couplings in Principal Axis System
 ---------------------------------------------------------------------------------

       Atom             a.u.   MegaHertz   Gauss  10(-4) cm-1        Axes

              Baa    -0.6842   -26.390    -9.416    -8.803  0.7500 -0.6614  0.0000
     1 N(14)  Bbb    -0.6708   -25.870    -9.231    -8.629  0.6614  0.7500 -0.0000
              Bcc     1.3550    52.259    18.647    17.432  0.0000  0.0000  1.0000
 
              Baa    -0.1988   -26.674    -9.518    -8.897  0.0000  0.0000  1.0000
     2 C(13)  Bbb     0.0685     9.194     3.281     3.067  0.9999  0.0145  0.0000
              Bcc     0.1303    17.480     6.237     5.831 -0.0145  0.9999 -0.0000
 
              Baa    -0.1966   -26.379    -9.413    -8.799  0.9983  0.0582  0.0000
     3 C(13)  Bbb    -0.1067   -14.313    -5.107    -4.774 -0.0582  0.9983  0.0000
              Bcc     0.3032    40.691    14.520    13.573  0.0000  0.0000  1.0000
 
              Baa    -0.0188   -10.028    -3.578    -3.345  0.5153  0.8570 -0.0000
     4 H(1)   Bbb    -0.0100    -5.358    -1.912    -1.787  0.0000  0.0000  1.0000
              Bcc     0.0288    15.386     5.490     5.132  0.8570 -0.5153 -0.0000
 
              Baa    -0.2433   -32.648   -11.650   -10.890  0.0000  0.0000  1.0000
     5 C(13)  Bbb     0.0540     7.250     2.587     2.418  0.7326  0.6806 -0.0000
              Bcc     0.1893    25.398     9.063     8.472 -0.6806  0.7326 -0.0000
 
              Baa    -0.7485  -100.436   -35.838   -33.502  0.9994 -0.0343 -0.0000
     6 C(13)  Bbb    -0.0718    -9.629    -3.436    -3.212  0.0000  0.0000  1.0000
              Bcc     0.8202   110.065    39.274    36.714  0.0343  0.9994 -0.0000
 
              Baa    -0.2377   -31.899   -11.382   -10.640  0.0000  0.0000  1.0000
     7 C(13)  Bbb     0.0516     6.926     2.471     2.310 -0.6729  0.7397 -0.0000
              Bcc     0.1861    24.973     8.911     8.330  0.7397  0.6729 -0.0000
 
              Baa    -0.1954   -26.226    -9.358    -8.748  0.9939 -0.1103 -0.0000
     8 C(13)  Bbb    -0.1089   -14.614    -5.215    -4.875  0.1103  0.9939 -0.0000
              Bcc     0.3043    40.840    14.573    13.623  0.0000  0.0000  1.0000
 
              Baa    -0.0587   -31.296   -11.167   -10.439 -0.3768  0.9263  0.0000
     9 H(1)   Bbb    -0.0127    -6.793    -2.424    -2.266  0.0000  0.0000  1.0000
              Bcc     0.0714    38.090    13.591    12.705  0.9263  0.3768  0.0000
 
              Baa    -0.0177    -9.444    -3.370    -3.150  0.0000  0.0000  1.0000
    10 H(1)   Bbb    -0.0089    -4.732    -1.688    -1.578  0.3425  0.9395 -0.0000
              Bcc     0.0266    14.176     5.058     4.729  0.9395 -0.3425 -0.0000
 
              Baa    -0.0177    -9.421    -3.362    -3.143  0.0000  0.0000  1.0000
    11 H(1)   Bbb    -0.0093    -4.976    -1.776    -1.660 -0.2653  0.9642  0.0000
              Bcc     0.0270    14.397     5.137     4.802  0.9642  0.2653  0.0000
 
              Baa    -0.0198   -10.554    -3.766    -3.521 -0.4388  0.8986  0.0000
    12 H(1)   Bbb    -0.0095    -5.048    -1.801    -1.684  0.0000  0.0000  1.0000
              Bcc     0.0292    15.603     5.567     5.204  0.8986  0.4388  0.0000
 

 ---------------------------------------------------------------------------------

 No NMR shielding tensors so no spin-rotation constants.
 Leave Link  601 at Mon Mar  2 00:55:44 2020, MaxMem=  1879048192 cpu:              23.7 elap:               0.7
 (Enter /opt/g16/l701.exe)
 SCFChk:  SCF convergence  3.73D-09 required  1.00D-08
 ... and contract with generalized density number  0.
 Compute integral second derivatives.
 R6Disp: Adding Grimme-D2 dispersion energy 2nd derivatives to the Hessian.
 Entering OneElI...
 Calculate overlap and kinetic energy integrals
    NBasis = 282  MinDer = 2  MaxDer = 2
 Requested accuracy = 0.1000D-14
 PrmmSu-InSpLW:  IPartL=    0 NPrtUS=   36 NPrtUL=    1 DoSpLW=F IThBeg=    0 IThEnd=   35 NThAct=   36.
 PrSmSu:  IncTry=   512 NBBP=           4732 NTPThr=   100 NPartT=   36 Incr=           1 LDynOK=F GPUOK=F.
 PrsmSu:  NPrtUS=  36 ThrOK=T IAlg=2 LenDen=           0 ISkipM=0 DoSpLW=F IThBeg=    0 IThEnd=   35.
 Prism:   IPart=     0 DynPar=F LinDyn=F Incr=           1.
 PRISM was handed    52079480 working-precision words and  4732 shell-pairs
 PRISM was handed    52079480 working-precision words and  4732 shell-pairs
 PRISM was handed    52079480 working-precision words and  4732 shell-pairs
 PRISM was handed    52079480 working-precision words and  4732 shell-pairs
 PRISM was handed    52079480 working-precision words and  4732 shell-pairs
 PRISM was handed    52079480 working-precision words and  4732 shell-pairs
 PRISM was handed    52079480 working-precision words and  4732 shell-pairs
 PRISM was handed    52079480 working-precision words and  4732 shell-pairs
 PRISM was handed    52079480 working-precision words and  4732 shell-pairs
 PRISM was handed    52079480 working-precision words and  4732 shell-pairs
 PRISM was handed    52079480 working-precision words and  4732 shell-pairs
 PRISM was handed    52079480 working-precision words and  4732 shell-pairs
 PRISM was handed    52079480 working-precision words and  4732 shell-pairs
 PRISM was handed    52079480 working-precision words and  4732 shell-pairs
 PRISM was handed    52079480 working-precision words and  4732 shell-pairs
 PRISM was handed    52079480 working-precision words and  4732 shell-pairs
 PRISM was handed    52079480 working-precision words and  4732 shell-pairs
 PRISM was handed    52079480 working-precision words and  4732 shell-pairs
 PRISM was handed    52079480 working-precision words and  4732 shell-pairs
 PRISM was handed    52079480 working-precision words and  4732 shell-pairs
 PRISM was handed    52079480 working-precision words and  4732 shell-pairs
 PRISM was handed    52079480 working-precision words and  4732 shell-pairs
 PRISM was handed    52079480 working-precision words and  4732 shell-pairs
 PRISM was handed    52079480 working-precision words and  4732 shell-pairs
 PRISM was handed    52079480 working-precision words and  4732 shell-pairs
 PRISM was handed    52079480 working-precision words and  4732 shell-pairs
 PRISM was handed    52079480 working-precision words and  4732 shell-pairs
 PRISM was handed    52079480 working-precision words and  4732 shell-pairs
 PRISM was handed    52079480 working-precision words and  4732 shell-pairs
 PRISM was handed    52079480 working-precision words and  4732 shell-pairs
 PRISM was handed    52079480 working-precision words and  4732 shell-pairs
 PRISM was handed    52079480 working-precision words and  4732 shell-pairs
 PRISM was handed    52079480 working-precision words and  4732 shell-pairs
 PRISM was handed    52079480 working-precision words and  4732 shell-pairs
 PRISM was handed    52079480 working-precision words and  4732 shell-pairs
 PRISM was handed    52079480 working-precision words and  4732 shell-pairs
 IPart= 28 NShTot=         117 NBatch=          26 AvBLen=         4.5
 IPart= 33 NShTot=         112 NBatch=          25 AvBLen=         4.5
 IPart= 14 NShTot=         131 NBatch=          31 AvBLen=         4.2
 IPart=  8 NShTot=         143 NBatch=          35 AvBLen=         4.1
 IPart= 23 NShTot=         127 NBatch=          28 AvBLen=         4.5
 IPart=  4 NShTot=         149 NBatch=          41 AvBLen=         3.6
 IPart= 20 NShTot=         130 NBatch=          31 AvBLen=         4.2
 IPart= 31 NShTot=         115 NBatch=          25 AvBLen=         4.6
 IPart=  3 NShTot=         150 NBatch=          41 AvBLen=         3.7
 IPart= 19 NShTot=         130 NBatch=          31 AvBLen=         4.2
 IPart= 22 NShTot=         129 NBatch=          30 AvBLen=         4.3
 IPart= 24 NShTot=         127 NBatch=          28 AvBLen=         4.5
 IPart=  2 NShTot=         150 NBatch=          41 AvBLen=         3.7
 IPart= 21 NShTot=         130 NBatch=          31 AvBLen=         4.2
 IPart= 27 NShTot=         118 NBatch=          27 AvBLen=         4.4
 IPart=  6 NShTot=         147 NBatch=          39 AvBLen=         3.8
 IPart= 34 NShTot=         112 NBatch=          25 AvBLen=         4.5
 IPart= 32 NShTot=         114 NBatch=          25 AvBLen=         4.6
 IPart=  7 NShTot=         143 NBatch=          35 AvBLen=         4.1
 IPart= 29 NShTot=         117 NBatch=          26 AvBLen=         4.5
 IPart= 30 NShTot=         115 NBatch=          25 AvBLen=         4.6
 IPart= 17 NShTot=         131 NBatch=          31 AvBLen=         4.2
 IPart= 11 NShTot=         138 NBatch=          33 AvBLen=         4.2
 IPart= 35 NShTot=         111 NBatch=          24 AvBLen=         4.6
 IPart= 26 NShTot=         122 NBatch=          28 AvBLen=         4.4
 IPart= 25 NShTot=         123 NBatch=          28 AvBLen=         4.4
 IPart=  0 NShTot=         158 NBatch=          47 AvBLen=         3.4
 IPart= 18 NShTot=         130 NBatch=          31 AvBLen=         4.2
 IPart= 13 NShTot=         133 NBatch=          32 AvBLen=         4.2
 IPart= 16 NShTot=         131 NBatch=          31 AvBLen=         4.2
 IPart= 12 NShTot=         138 NBatch=          33 AvBLen=         4.2
 IPart= 15 NShTot=         131 NBatch=          31 AvBLen=         4.2
 IPart=  5 NShTot=         147 NBatch=          39 AvBLen=         3.8
 IPart= 10 NShTot=         139 NBatch=          33 AvBLen=         4.2
 IPart=  9 NShTot=         141 NBatch=          33 AvBLen=         4.3
 IPart=  1 NShTot=         153 NBatch=          44 AvBLen=         3.5
 PrSmSu:  NxtVal=             37.
 Entering OneElI...
 Calculate potential energy integrals
    NBasis = 282  MinDer = 2  MaxDer = 2
 Requested accuracy = 0.1000D-14
 PrmmSu-InSpLW:  IPartL=    0 NPrtUS=   36 NPrtUL=    1 DoSpLW=F IThBeg=    0 IThEnd=   35 NThAct=   36.
 PrSmSu:  IncTry=   512 NBBP=          55068 NTPThr=   100 NPartT=   36 Incr=          15 LDynOK=F GPUOK=F.
 PrsmSu:  NPrtUS=  36 ThrOK=T IAlg=2 LenDen=           0 ISkipM=0 DoSpLW=F IThBeg=    0 IThEnd=   35.
 Prism:   IPart=     0 DynPar=F LinDyn=F Incr=          15.
 PRISM was handed    52092083 working-precision words and  4589 shell-pairs
 PRISM was handed    52092083 working-precision words and  4589 shell-pairs
 PRISM was handed    52092083 working-precision words and  4589 shell-pairs
 PRISM was handed    52092083 working-precision words and  4589 shell-pairs
 PRISM was handed    52092083 working-precision words and  4589 shell-pairs
 PRISM was handed    52092083 working-precision words and  4589 shell-pairs
 PRISM was handed    52092083 working-precision words and  4589 shell-pairs
 PRISM was handed    52092083 working-precision words and  4589 shell-pairs
 PRISM was handed    52092083 working-precision words and  4589 shell-pairs
 PRISM was handed    52092083 working-precision words and  4589 shell-pairs
 PRISM was handed    52092083 working-precision words and  4589 shell-pairs
 PRISM was handed    52092083 working-precision words and  4589 shell-pairs
 PRISM was handed    52092083 working-precision words and  4589 shell-pairs
 PRISM was handed    52092083 working-precision words and  4589 shell-pairs
 PRISM was handed    52092083 working-precision words and  4589 shell-pairs
 PRISM was handed    52092083 working-precision words and  4589 shell-pairs
 PRISM was handed    52092083 working-precision words and  4589 shell-pairs
 PRISM was handed    52092083 working-precision words and  4589 shell-pairs
 PRISM was handed    52092083 working-precision words and  4589 shell-pairs
 PRISM was handed    52092083 working-precision words and  4589 shell-pairs
 PRISM was handed    52092083 working-precision words and  4589 shell-pairs
 PRISM was handed    52092083 working-precision words and  4589 shell-pairs
 PRISM was handed    52092083 working-precision words and  4589 shell-pairs
 PRISM was handed    52092083 working-precision words and  4589 shell-pairs
 PRISM was handed    52092083 working-precision words and  4589 shell-pairs
 PRISM was handed    52092083 working-precision words and  4589 shell-pairs
 PRISM was handed    52092083 working-precision words and  4589 shell-pairs
 PRISM was handed    52092083 working-precision words and  4589 shell-pairs
 PRISM was handed    52092083 working-precision words and  4589 shell-pairs
 PRISM was handed    52092083 working-precision words and  4589 shell-pairs
 PRISM was handed    52092083 working-precision words and  4589 shell-pairs
 PRISM was handed    52092083 working-precision words and  4589 shell-pairs
 PRISM was handed    52092083 working-precision words and  4589 shell-pairs
 PRISM was handed    52092083 working-precision words and  4589 shell-pairs
 PRISM was handed    52092083 working-precision words and  4589 shell-pairs
 PRISM was handed    52092083 working-precision words and  4589 shell-pairs
 IPart= 31 NShTot=        1344 NBatch=         112 AvBLen=        12.0
 IPart= 34 NShTot=        1332 NBatch=         111 AvBLen=        12.0
 IPart= 35 NShTot=        1332 NBatch=         111 AvBLen=        12.0
 IPart= 27 NShTot=        1368 NBatch=         114 AvBLen=        12.0
 IPart= 33 NShTot=        1332 NBatch=         111 AvBLen=        12.0
 IPart= 19 NShTot=        1476 NBatch=         123 AvBLen=        12.0
 IPart= 32 NShTot=        1332 NBatch=         111 AvBLen=        12.0
 IPart= 23 NShTot=        1428 NBatch=         119 AvBLen=        12.0
 IPart=  3 NShTot=        1812 NBatch=         151 AvBLen=        12.0
 IPart= 14 NShTot=        1560 NBatch=         130 AvBLen=        12.0
 IPart= 10 NShTot=        1620 NBatch=         135 AvBLen=        12.0
 IPart=  6 NShTot=        1704 NBatch=         142 AvBLen=        12.0
 IPart=  7 NShTot=        1656 NBatch=         138 AvBLen=        12.0
 IPart= 15 NShTot=        1512 NBatch=         126 AvBLen=        12.0
 IPart= 28 NShTot=        1356 NBatch=         113 AvBLen=        12.0
 IPart= 29 NShTot=        1344 NBatch=         112 AvBLen=        12.0
 IPart= 11 NShTot=        1608 NBatch=         134 AvBLen=        12.0
 IPart=  5 NShTot=        1764 NBatch=         147 AvBLen=        12.0
 IPart=  0 NShTot=        1920 NBatch=         160 AvBLen=        12.0
 IPart=  2 NShTot=        1824 NBatch=         152 AvBLen=        12.0
 IPart= 25 NShTot=        1416 NBatch=         118 AvBLen=        12.0
 IPart= 17 NShTot=        1488 NBatch=         124 AvBLen=        12.0
 IPart= 12 NShTot=        1608 NBatch=         134 AvBLen=        12.0
 IPart= 21 NShTot=        1428 NBatch=         119 AvBLen=        12.0
 IPart= 30 NShTot=        1344 NBatch=         112 AvBLen=        12.0
 IPart= 16 NShTot=        1488 NBatch=         124 AvBLen=        12.0
 IPart= 22 NShTot=        1428 NBatch=         119 AvBLen=        12.0
 IPart=  4 NShTot=        1800 NBatch=         150 AvBLen=        12.0
 IPart= 24 NShTot=        1416 NBatch=         118 AvBLen=        12.0
 IPart=  8 NShTot=        1644 NBatch=         137 AvBLen=        12.0
 IPart= 20 NShTot=        1440 NBatch=         120 AvBLen=        12.0
 IPart= 13 NShTot=        1572 NBatch=         131 AvBLen=        12.0
 IPart= 26 NShTot=        1368 NBatch=         114 AvBLen=        12.0
 IPart=  1 NShTot=        1884 NBatch=         157 AvBLen=        12.0
 IPart=  9 NShTot=        1632 NBatch=         136 AvBLen=        12.0
 IPart= 18 NShTot=        1488 NBatch=         124 AvBLen=        12.0
 PrSmSu:  NxtVal=            541.
   2 Symmetry operations used in ECPInt.
 ECPInt:  NShTT=    4753 NPrTT=   14704 LenC2=    4703 LenP2D=   12028.
 LDataN:  DoStor=F MaxTD1= 8 Len=  415
 LDataN:  DoStor=T MaxTD1= 8 Len=  415
 ECPSu:  NPrtUS=  36 ThrOK=T ISkipM=0 DoSpLW=F IThBeg=    0 IThEnd=   35.
 Polarizability after L701:
                1             2             3 
      1  0.793127D+02
      2  0.186521D+01  0.100508D+03
      3  0.000000D+00  0.000000D+00  0.411564D+02
 Dipole Derivatives after L701:
                 1             2             3             4             5 
      1  -0.885738D-01 -0.139142D-01  0.000000D+00  0.226111D-01  0.721412D-02
      2   0.580798D-01 -0.288068D+00  0.000000D+00  0.365931D-01 -0.160938D+00
      3   0.000000D+00  0.000000D+00 -0.451988D+00  0.000000D+00  0.000000D+00
                 6             7             8             9            10 
      1   0.000000D+00  0.182092D-02 -0.693090D-01  0.000000D+00  0.773001D-02
      2   0.000000D+00  0.297704D-01  0.264224D+00  0.000000D+00  0.194961D-01
      3   0.113234D+00  0.000000D+00  0.000000D+00 -0.119388D+00  0.000000D+00
                11            12            13            14            15 
      1   0.605096D-01  0.000000D+00  0.348191D-01  0.143467D+00  0.000000D+00
      2   0.376616D-01  0.000000D+00  0.160051D+00 -0.230700D+00  0.000000D+00
      3   0.000000D+00  0.137637D+00  0.000000D+00  0.000000D+00 -0.121833D+00
                16            17            18            19            20 
      1   0.777653D-01 -0.207474D-01  0.000000D+00  0.259663D-01 -0.120981D+00
      2   0.291679D-01 -0.448906D-01  0.000000D+00 -0.202717D+00 -0.253795D+00
      3   0.000000D+00  0.000000D+00 -0.166946D-01  0.000000D+00  0.000000D+00
                21            22            23            24            25 
      1   0.000000D+00  0.630040D-02  0.605593D-01  0.000000D+00 -0.495381D-01
      2   0.000000D+00  0.192111D-02  0.261097D+00  0.000000D+00 -0.100677D+00
      3  -0.133397D+00  0.000000D+00  0.000000D+00 -0.839676D-01  0.000000D+00
                26            27            28            29            30 
      1   0.321257D-01  0.000000D+00 -0.857333D-02 -0.488672D-01  0.000000D+00
      2   0.282220D+00  0.000000D+00 -0.583982D-01  0.691860D-01  0.000000D+00
      3   0.000000D+00  0.242369D+00  0.000000D+00  0.000000D+00  0.148325D+00
                31            32            33            34            35 
      1  -0.335552D-02  0.527918D-01  0.000000D+00 -0.269725D-01 -0.828491D-01
      2   0.636227D-01  0.588179D-01  0.000000D+00 -0.369104D-01  0.518453D-02
      3   0.000000D+00  0.000000D+00  0.144151D+00  0.000000D+00  0.000000D+00
                36 
      1   0.000000D+00
      2   0.000000D+00
      3   0.141552D+00
 Hessian after L701:
                1             2             3             4             5 
      1  0.123085D+02
      2 -0.148059D+01  0.287102D+01
      3  0.000000D+00  0.000000D+00  0.172109D+02
      4 -0.104082D+02 -0.802447D-01  0.000000D+00  0.160643D+02
      5 -0.506936D-01 -0.219360D+00  0.000000D+00  0.701573D+00  0.103255D+02
      6  0.000000D+00  0.000000D+00 -0.120199D+02  0.000000D+00  0.000000D+00
      7  0.840513D-01  0.235401D+00  0.000000D+00 -0.256859D+01  0.305645D+01
      8  0.211938D+00  0.117575D+00  0.000000D+00  0.283539D+01 -0.615482D+01
      9  0.000000D+00  0.000000D+00 -0.110393D+00  0.000000D+00  0.000000D+00
     10  0.402758D-01  0.192775D+00  0.000000D+00 -0.112513D+00  0.559231D-01
     11  0.808811D-01  0.229558D-01  0.000000D+00  0.341469D-03  0.950680D-01
     12  0.000000D+00  0.000000D+00 -0.873053D-01  0.000000D+00  0.000000D+00
     13 -0.113925D+00  0.147717D+00  0.000000D+00  0.303415D-01  0.409055D+00
     14  0.133422D+00  0.306734D+00  0.000000D+00  0.435666D+00  0.288478D+00
     15  0.000000D+00  0.000000D+00 -0.128033D+00  0.000000D+00  0.000000D+00
     16 -0.108486D+00 -0.158837D-01  0.000000D+00 -0.156100D+00  0.295363D-01
     17 -0.503889D-01  0.239157D+00  0.000000D+00  0.202352D-01  0.352072D+00
     18  0.000000D+00  0.000000D+00 -0.947034D-01  0.000000D+00  0.000000D+00
     19 -0.206439D+00 -0.136236D+00  0.000000D+00 -0.415416D-01 -0.381084D+00
     20 -0.149816D+00  0.410093D+00  0.000000D+00 -0.389131D+00 -0.431407D-01
     21  0.000000D+00  0.000000D+00 -0.190561D+00  0.000000D+00  0.000000D+00
     22  0.357023D+00 -0.245453D+00  0.000000D+00 -0.271974D+01 -0.372544D+01
     23 -0.411241D+00  0.176427D+00  0.000000D+00 -0.329240D+01 -0.509131D+01
     24  0.000000D+00  0.000000D+00  0.205348D+00  0.000000D+00  0.000000D+00
     25 -0.205711D+01  0.144933D+01  0.000000D+00  0.306117D-01 -0.127527D+00
     26  0.173823D+01 -0.395118D+01  0.000000D+00 -0.308772D+00  0.161152D+00
     27  0.000000D+00  0.000000D+00 -0.473011D+01  0.000000D+00  0.000000D+00
     28  0.400337D-03  0.393530D-01  0.000000D+00  0.645531D-01  0.116743D+00
     29  0.110377D-01  0.272920D-01  0.000000D+00  0.102698D+00  0.659761D-01
     30  0.000000D+00  0.000000D+00 -0.109041D-01  0.000000D+00  0.000000D+00
     31  0.149934D-01 -0.327842D-01  0.000000D+00  0.298143D-01 -0.914418D-01
     32 -0.221510D-01  0.229184D-01  0.000000D+00 -0.729714D-01  0.749454D-01
     33  0.000000D+00  0.000000D+00 -0.112237D-01  0.000000D+00  0.000000D+00
     34  0.889120D-01 -0.733857D-01  0.000000D+00 -0.212958D+00  0.690338D-02
     35 -0.106354D-01 -0.236353D-01  0.000000D+00  0.476145D-01  0.145458D+00
     36  0.000000D+00  0.000000D+00 -0.330915D-01  0.000000D+00  0.000000D+00
                6             7             8             9            10 
      6  0.294735D+02
      7  0.000000D+00  0.121201D+02
      8  0.000000D+00 -0.168394D+01  0.962771D+01
      9 -0.871196D+01  0.000000D+00  0.000000D+00  0.237025D+02
     10  0.000000D+00 -0.224168D+01 -0.142574D+01  0.000000D+00  0.189637D+01
     11  0.000000D+00 -0.129257D+01 -0.328886D+01  0.000000D+00  0.137322D+01
     12  0.764244D-01  0.000000D+00  0.000000D+00 -0.409714D+01  0.000000D+00
     13  0.000000D+00 -0.822966D+01  0.453063D+00  0.000000D+00  0.100297D+00
     14  0.000000D+00  0.813031D-01 -0.448112D+00  0.000000D+00  0.260673D-01
     15 -0.205151D+00  0.000000D+00  0.000000D+00 -0.103392D+02  0.000000D+00
     16  0.000000D+00 -0.108246D+00 -0.394374D+00  0.000000D+00  0.574552D-01
     17  0.000000D+00 -0.392993D+00  0.391022D+00  0.000000D+00 -0.147311D+00
     18  0.666399D-02  0.000000D+00  0.000000D+00 -0.206496D+00  0.000000D+00
     19  0.000000D+00  0.121153D+00 -0.341019D+00  0.000000D+00 -0.118864D-01
     20  0.000000D+00 -0.288649D+00 -0.269611D-01  0.000000D+00  0.833838D-02
     21 -0.284585D+00  0.000000D+00  0.000000D+00 -0.367989D-01  0.000000D+00
     22  0.000000D+00  0.413416D+00  0.216521D+00  0.000000D+00  0.242770D+00
     23  0.000000D+00  0.160319D+00 -0.210812D+00  0.000000D+00 -0.694789D-01
     24 -0.865334D+01  0.000000D+00  0.000000D+00 -0.173722D+00  0.000000D+00
     25  0.000000D+00  0.111806D+00  0.160183D+00  0.000000D+00  0.295593D-02
     26  0.000000D+00  0.178873D+00  0.892102D-01  0.000000D+00 -0.561823D-03
     27  0.246843D+00  0.000000D+00  0.000000D+00 -0.539174D-01  0.000000D+00
     28  0.000000D+00  0.833455D-01 -0.430463D-01  0.000000D+00 -0.215134D-03
     29  0.000000D+00 -0.825444D-01 -0.540804D-01  0.000000D+00 -0.102974D-01
     30 -0.320491D-01  0.000000D+00  0.000000D+00  0.842097D-01  0.000000D+00
     31  0.000000D+00  0.254349D-01 -0.265353D-01  0.000000D+00  0.122968D-01
     32  0.000000D+00 -0.232957D-01  0.313169D-02  0.000000D+00 -0.861993D-02
     33 -0.211946D-01  0.000000D+00  0.000000D+00 -0.127385D-01  0.000000D+00
     34  0.000000D+00  0.188838D+00  0.375581D-01  0.000000D+00  0.138726D-01
     35  0.000000D+00  0.516443D-01 -0.450042D-01  0.000000D+00  0.568030D-02
     36  0.124730D+00  0.000000D+00  0.000000D+00 -0.442897D-01  0.000000D+00
               11            12            13            14            15 
     11  0.322667D+01
     12  0.000000D+00  0.412679D+01
     13  0.498724D-01  0.000000D+00  0.117400D+02
     14 -0.458074D-01  0.000000D+00  0.123937D+01  0.956109D+01
     15  0.000000D+00  0.842915D-01  0.000000D+00  0.000000D+00  0.242055D+02
     16 -0.107649D+00  0.000000D+00 -0.237923D+01 -0.315257D+01  0.000000D+00
     17  0.885494D-01  0.000000D+00 -0.368264D+01 -0.596455D+01  0.000000D+00
     18  0.000000D+00 -0.390297D-01  0.000000D+00  0.000000D+00 -0.953771D+01
     19  0.231705D-02  0.000000D+00  0.467692D+00 -0.318578D-01  0.000000D+00
     20 -0.268579D-02  0.000000D+00  0.675750D-01 -0.177125D+00  0.000000D+00
     21  0.000000D+00 -0.205849D-02  0.000000D+00  0.000000D+00 -0.973626D-01
     22 -0.891641D-01  0.000000D+00  0.128918D+00  0.120125D+00  0.000000D+00
     23 -0.574734D-01  0.000000D+00  0.167606D+00 -0.166421D+00  0.000000D+00
     24  0.000000D+00 -0.632785D-01  0.000000D+00  0.000000D+00 -0.141408D-01
     25 -0.993095D-02  0.000000D+00  0.482620D-02  0.186452D-01  0.000000D+00
     26 -0.586140D-02  0.000000D+00  0.735131D-02  0.116270D-01  0.000000D+00
     27  0.000000D+00  0.863405D-03  0.000000D+00  0.000000D+00 -0.756173D-02
     28  0.802191D-02  0.000000D+00 -0.189858D+01  0.116065D+01  0.000000D+00
     29 -0.340442D-01  0.000000D+00  0.118630D+01 -0.333937D+01  0.000000D+00
     30  0.000000D+00  0.337391D-02  0.000000D+00  0.000000D+00 -0.392210D+01
     31 -0.815676D-02  0.000000D+00  0.133914D+00 -0.397512D-01  0.000000D+00
     32  0.414294D-02  0.000000D+00 -0.582036D-01 -0.232446D-01  0.000000D+00
     33  0.000000D+00 -0.202459D-02  0.000000D+00  0.000000D+00 -0.286835D-01
     34 -0.719002D-02  0.000000D+00  0.154080D-01  0.893468D-02  0.000000D+00
     35 -0.265287D-02  0.000000D+00  0.129316D-01 -0.330371D-02  0.000000D+00
     36  0.000000D+00 -0.903330D-03  0.000000D+00  0.000000D+00 -0.977652D-02
               16            17            18            19            20 
     16  0.485972D+01
     17  0.209077D+00  0.106166D+02
     18  0.000000D+00  0.000000D+00  0.195948D+02
     19 -0.191517D+01  0.336064D+01  0.000000D+00  0.110364D+02
     20  0.284156D+01 -0.644784D+01  0.000000D+00 -0.138820D+01  0.947798D+01
     21  0.000000D+00  0.000000D+00 -0.956254D+01  0.000000D+00  0.000000D+00
     22 -0.122172D+00  0.512102D+00  0.000000D+00 -0.758045D+01  0.497561D+00
     23  0.486614D+00  0.462013D+00  0.000000D+00  0.198527D+00 -0.915829D-01
     24  0.000000D+00  0.000000D+00 -0.250050D+00  0.000000D+00  0.000000D+00
     25 -0.175114D-02  0.268957D-01  0.000000D+00 -0.361133D-01  0.268659D-01
     26  0.487028D-02  0.246739D-01  0.000000D+00 -0.140733D-01  0.153392D+00
     27  0.000000D+00  0.000000D+00 -0.663634D-02  0.000000D+00  0.000000D+00
     28 -0.105362D+00  0.165190D-01  0.000000D+00  0.159332D+00  0.330652D-01
     29  0.631510D-01  0.900370D-01  0.000000D+00  0.521155D-01 -0.329333D-01
     30  0.000000D+00  0.000000D+00  0.717969D-01  0.000000D+00  0.000000D+00
     31 -0.910294D-01 -0.119168D-01  0.000000D+00 -0.206816D+01 -0.122404D+01
     32 -0.628783D-01  0.826404D-01  0.000000D+00 -0.125259D+01 -0.314204D+01
     33  0.000000D+00  0.000000D+00  0.595750D-01  0.000000D+00  0.000000D+00
     34  0.703673D-01  0.139780D+00  0.000000D+00  0.752027D-01 -0.351248D-01
     35  0.985498D-01  0.656605D-01  0.000000D+00 -0.685376D-01 -0.771648D-01
     36  0.000000D+00  0.000000D+00 -0.356627D-01  0.000000D+00  0.000000D+00
               21            22            23            24            25 
     21  0.238348D+02
     22  0.000000D+00  0.110328D+02
     23  0.000000D+00  0.156908D+01  0.888130D+01
     24 -0.977555D+01  0.000000D+00  0.000000D+00  0.227982D+02
     25  0.000000D+00  0.408421D-01 -0.166486D-01  0.000000D+00  0.191671D+01
     26  0.000000D+00 -0.394896D-01 -0.238308D+00  0.000000D+00 -0.152164D+01
     27 -0.317775D-01  0.000000D+00  0.000000D+00  0.201060D-01  0.000000D+00
     28  0.000000D+00  0.136991D-01  0.159695D-01  0.000000D+00  0.727160D-02
     29  0.000000D+00  0.120174D-01 -0.104688D-03  0.000000D+00  0.563909D-02
     30 -0.333172D-01  0.000000D+00  0.000000D+00 -0.886333D-02  0.000000D+00
     31  0.000000D+00  0.786901D-01 -0.125740D-01  0.000000D+00 -0.621097D-02
     32  0.000000D+00  0.357290D-01 -0.552131D-01  0.000000D+00  0.504439D-02
     33 -0.388259D+01  0.000000D+00  0.000000D+00  0.465570D-01  0.000000D+00
     34  0.000000D+00 -0.188575D+01  0.120422D+01  0.000000D+00 -0.138351D-01
     35  0.000000D+00  0.113640D+01 -0.360851D+01  0.000000D+00 -0.168546D-01
     36  0.623348D-01  0.000000D+00  0.000000D+00 -0.413122D+01  0.000000D+00
               26            27            28            29            30 
     26  0.372800D+01
     27  0.000000D+00  0.458221D+01
     28  0.669649D-02  0.000000D+00  0.164927D+01
     29  0.405146D-02  0.000000D+00 -0.135361D+01  0.327363D+01
     30  0.000000D+00 -0.165219D-02  0.000000D+00  0.000000D+00  0.385252D+01
     31 -0.628937D-02  0.000000D+00  0.133187D-01  0.598285D-02  0.000000D+00
     32  0.555810D-02  0.000000D+00 -0.727134D-02 -0.317873D-02  0.000000D+00
     33  0.000000D+00 -0.595032D-03  0.000000D+00  0.000000D+00 -0.105125D-02
     34 -0.451979D-01  0.000000D+00  0.129720D-01  0.751058D-02  0.000000D+00
     35  0.176791D-01  0.000000D+00  0.691393D-02  0.273037D-02  0.000000D+00
     36  0.000000D+00 -0.177817D-01  0.000000D+00  0.000000D+00 -0.196282D-02
               31            32            33            34            35 
     31  0.185955D+01
     32  0.145823D+01  0.305992D+01
     33  0.000000D+00  0.000000D+00  0.385270D+01
     34 -0.261379D-02  0.897570D-02  0.000000D+00  0.164958D+01
     35 -0.107262D-01 -0.295806D-01  0.000000D+00 -0.125298D+01  0.355833D+01
     36  0.000000D+00  0.000000D+00  0.126103D-02  0.000000D+00  0.000000D+00
               36 
     36  0.408637D+01
 Leave Link  701 at Mon Mar  2 00:55:46 2020, MaxMem=  1879048192 cpu:              59.4 elap:               1.8
 (Enter /opt/g16/l702.exe)
 L702 exits ... SP integral derivatives will be done elsewhere.
 Leave Link  702 at Mon Mar  2 00:55:46 2020, MaxMem=  1879048192 cpu:               2.3 elap:               0.1
 (Enter /opt/g16/l703.exe)
 Integral derivatives from FoFJK, PRISM(SPDF).
 Compute integral second derivatives, UseDBF=F ICtDFT=           0.
 ICntrl=    100127.
 Calling FoFJK, ICntrl=    100127 FMM=F ISym2X=1 I1Cent= 0 IOpClX= 1 NMat=1 NMatS=1 NMatT=0.
 FoFJK:  IHMeth= 1 ICntrl=  100127 DoSepK=T KAlg= 0 I1Cent=           0 FoldK=F
 IRaf=         1 NMat=       1 IRICut=       1 DoRegI=T DoRafI=F ISym2E= 1 IDoP0=0 IntGTp=1.
 FoFCou: FMM=F IPFlag=           0 FMFlag=      100000 FMFlg1=         800
         NFxFlg=           0 DoJE=F BraDBF=F KetDBF=F FulRan=T
         wScrn=  0.000000 ICntrl=    100527 IOpCl=  0 I1Cent=           0 NGrid=           0
         NMat0=    1 NMatS0=      1 NMatT0=    0 NMatD0=    1 NMtDS0=    0 NMtDT0=    0
[...]
     36  0.434833D-04  0.195206D-03  0.459894D-04  0.595784D-05 -0.686790D-03
               31            32            33            34            35 
     31  0.931521D-01
     32  0.100931D+00  0.324268D+00
     33  0.478448D-02  0.664142D-02  0.240303D-01
     34  0.102836D-02 -0.136526D-03  0.427601D-03  0.183766D+00
     35  0.538322D-03  0.719542D-03  0.272466D-04 -0.148175D+00  0.231586D+00
     36  0.426234D-03 -0.212291D-04 -0.488992D-02  0.118615D-01 -0.110665D-01
               36 
     36  0.236894D-01
 Final forces over variables, Energy=-2.86265480D+02:
  1.57845079D-06 4.29804321D-06-3.56759758D-06-2.63838817D-06
 -1.15427537D-05 1.45242763D-05-1.90043726D-05 1.29168821D-05
  2.04264402D-06 1.13535015D-07 2.50670212D-06-1.22742163D-06
  1.38911429D-06-4.49041711D-06 2.83481790D-05-2.45857964D-06
 -1.00575117D-05-7.19327816D-06 2.73803478D-06-8.43657113D-06
  2.97793090D-07 2.60229901D-08 1.33224663D-06-1.49503301D-06
  1.10570183D-07 3.17831048D-07-3.13677327D-07-1.84541823D-07
 -8.08771629D-07 1.05787604D-06-1.37066798D-06 9.44931488D-07
  1.46124229D-07 8.10275221D-09 1.77363544D-07-8.51405369D-08
 Leave Link  716 at Mon Mar  2 00:57:22 2020, MaxMem=  1879048192 cpu:              17.1 elap:               0.5
 (Enter /opt/g16/l103.exe)

 GradGradGradGradGradGradGradGradGradGradGradGradGradGradGradGradGradGrad
 Berny optimization.
 Search for a local minimum.
 Step number   1 out of a maximum of    2
 All quantities printed in internal units (Hartrees-Bohrs-Radians)
 Second derivative matrix not updated -- analytic derivatives used.
 ITU=  0
     Eigenvalues ---    0.00740   0.01286   0.02110   0.02220   0.03786
     Eigenvalues ---    0.04890   0.05452   0.05744   0.06482   0.07564
     Eigenvalues ---    0.08045   0.09126   0.12186   0.18130   0.18237
     Eigenvalues ---    0.19305   0.22303   0.25130   0.28698   0.40618
     Eigenvalues ---    0.54303   0.65855   0.73283   0.77175   0.78378
     Eigenvalues ---    0.99377   1.00314   1.10258   1.18790   1.19982
 Angle between quadratic step and forces=  54.84 degrees.
 ClnCor:  largest displacement from symmetrization is 3.12D-15 for atom     9.
 Linear search not attempted -- first point.
 ClnCor:  largest displacement from symmetrization is 3.73D-15 for atom     9.
 B after Tr=     0.000004    0.000001    0.000000
         Rot=    1.000000   -0.000000    0.000000    0.000000 Ang=   0.00 deg.
 Variable       Old X    -DE/DX   Delta X   Delta X   Delta X     New X
                                 (Linear)    (Quad)   (Total)
    X1        4.20572   0.00000   0.00000   0.00001   0.00001   4.20573
    Y1        0.90062   0.00000   0.00000  -0.00002  -0.00002   0.90060
    Z1        0.30028   0.00000   0.00000   0.00000   0.00000   0.30028
    X2        1.77774   0.00000   0.00000   0.00001   0.00001   1.77775
    Y2        0.31992  -0.00000   0.00000   0.00000   0.00001   0.31993
    Z2        0.12705   0.00000   0.00000   0.00000   0.00000   0.12705
    X3       -0.00182  -0.00000   0.00000  -0.00001  -0.00001  -0.00183
    Y3        2.35305   0.00003   0.00000   0.00007   0.00007   2.35312
    Z3       -0.00490  -0.00000   0.00000  -0.00000  -0.00000  -0.00490
    X4        0.74075  -0.00000   0.00000  -0.00003  -0.00002   0.74073
    Y4        4.25863  -0.00000   0.00000   0.00006   0.00007   4.25869
    Z4        0.04458  -0.00000   0.00000  -0.00000  -0.00000   0.04458
    X5       -2.55669  -0.00001   0.00000  -0.00001  -0.00001  -2.55669
    Y5        1.89374  -0.00001   0.00000  -0.00000   0.00000   1.89374
    Z5       -0.18749  -0.00000   0.00000  -0.00000  -0.00000  -0.18749
    X6       -3.30973   0.00001   0.00000   0.00004   0.00005  -3.30968
    Y6       -0.60369  -0.00001   0.00000  -0.00001  -0.00001  -0.60370
    Z6       -0.23652   0.00000   0.00000   0.00000   0.00000  -0.23652
    X7       -1.73406  -0.00002   0.00000  -0.00002  -0.00001  -1.73407
    Y7       -2.67856   0.00000   0.00000  -0.00001  -0.00001  -2.67857
    Z7       -0.11914  -0.00000   0.00000  -0.00000  -0.00000  -0.11914
    X8        0.82101   0.00001   0.00000   0.00001   0.00002   0.82103
    Y8       -2.21219  -0.00001   0.00000  -0.00002  -0.00002  -2.21221
    Z8        0.06345   0.00000   0.00000   0.00000   0.00000   0.06346
    X9        5.25926   0.00000   0.00000   0.00001   0.00002   5.25928
    Y9       -0.71146   0.00000   0.00000  -0.00002  -0.00002  -0.71148
    Z9        0.37922   0.00000   0.00000   0.00000   0.00000   0.37923
   X10       -3.90290   0.00000   0.00000  -0.00003  -0.00003  -3.90293
   Y10        3.43098   0.00000   0.00000  -0.00002  -0.00002   3.43096
   Z10       -0.28730   0.00000   0.00000  -0.00000  -0.00000  -0.28730
   X11       -2.45929   0.00000   0.00000  -0.00002  -0.00001  -2.45930
   Y11       -4.59118   0.00000   0.00000  -0.00000  -0.00000  -4.59118
   Z11       -0.16736   0.00000   0.00000  -0.00000  -0.00000  -0.16736
   X12        2.15211  -0.00000   0.00000  -0.00002  -0.00001   2.15210
   Y12       -3.76744  -0.00000   0.00000  -0.00005  -0.00005  -3.76748
   Z12        0.16222  -0.00000   0.00000  -0.00000  -0.00000   0.16222
         Item               Value     Threshold  Converged?
 Maximum Force            0.000028     0.000450     YES
 RMS     Force            0.000007     0.000300     YES
 Maximum Displacement     0.000072     0.001800     YES
 RMS     Displacement     0.000023     0.001200     YES
 Predicted change in Energy=-1.755237D-09
 Optimization completed.
    -- Stationary point found.
 GradGradGradGradGradGradGradGradGradGradGradGradGradGradGradGradGradGrad

 Leave Link  103 at Mon Mar  2 00:57:22 2020, MaxMem=  1879048192 cpu:              13.1 elap:               0.4
 (Enter /opt/g16/l9999.exe)

 ----------------------------------------------------------------------

 Electric dipole moment (input orientation):
 (Debye = 10**-18 statcoulomb cm , SI units = C m)
                  (au)            (Debye)         (10**-30 SI)
   Tot        0.735541D+00      0.186956D+01      0.623617D+01
   x         -0.422304D+00     -0.107339D+01     -0.358044D+01
   y         -0.601525D+00     -0.152892D+01     -0.509994D+01
   z         -0.291168D-01     -0.740074D-01     -0.246862D+00

 Dipole polarizability, Alpha (input orientation).
 (esu units = cm**3 , SI units = C**2 m**2 J**-1)
 Alpha(0;0):
               (au)            (10**-24 esu)      (10**-40 SI)
   iso        0.736591D+02      0.109152D+02      0.121447D+02
   aniso      0.521952D+02      0.773453D+01      0.860582D+01
   xx         0.100020D+03      0.148214D+02      0.164910D+02
   yx         0.271516D+01      0.402345D+00      0.447670D+00
   yy         0.794982D+02      0.117804D+02      0.131075D+02
   zx         0.422277D+01      0.625750D+00      0.696241D+00
   zy         0.117387D+00      0.173950D-01      0.193546D-01
   zz         0.414595D+02      0.614366D+01      0.683575D+01

 ----------------------------------------------------------------------

 Dipole orientation:
     7          2.49432163         -1.53707833         -3.16308567
     6          1.08411922         -0.66806810         -1.28733193
     6         -1.15437624          0.71136187         -1.92308512
     1         -1.56987313          0.96740388         -3.90976186
     6         -2.71263352          1.67160809         -0.07337946
     6         -2.01441434          1.24134388          2.40330736
     6          0.10221738         -0.06298989          3.19083788
     6          1.65715429         -1.02118999          1.33523929
     1          4.01970696         -2.47706784         -2.45273048
     1         -4.40563531          2.71488802         -0.55366297
     1          0.53326310         -0.32861356          5.17326482
     1          3.34843592         -2.06340991          1.83897071

 Electric dipole moment (dipole orientation):
 (Debye = 10**-18 statcoulomb cm , SI units = C m)
                  (au)            (Debye)         (10**-30 SI)
   Tot        0.735541D+00      0.186956D+01      0.623617D+01
   x          0.000000D+00      0.000000D+00      0.000000D+00
   y          0.000000D+00      0.000000D+00      0.000000D+00
   z          0.735541D+00      0.186956D+01      0.623617D+01

 Dipole polarizability, Alpha (dipole orientation).
 (esu units = cm**3 , SI units = C**2 m**2 J**-1)
 Alpha(0;0):
               (au)            (10**-24 esu)      (10**-40 SI)
   iso        0.736591D+02      0.109152D+02      0.121447D+02
   aniso      0.521952D+02      0.773453D+01      0.860582D+01
   xx         0.771864D+02      0.114378D+02      0.127263D+02
   yx        -0.222028D+02     -0.329012D+01     -0.366075D+01
   yy         0.548385D+02      0.812622D+01      0.904164D+01
   zx        -0.912458D+01     -0.135212D+01     -0.150444D+01
   zy         0.562284D+01      0.833220D+00      0.927082D+00
   zz         0.889525D+02      0.131814D+02      0.146663D+02

 ----------------------------------------------------------------------

 Test job not archived.
 1\1\GINC-NODE05\Freq\UwB97XD\def2TZVP\C6H5N1(3)\ALONGD\02-Mar-2020\0\\
 #P guess=read uwb97xd/def2tzvp freq iop(7/33=1) scf=(tight, direct) in
 tegral=(grid=ultrafine, Acc2E=12) scf=xqc iop(2/9=2000)\\name\\0,3\N,2
 .2255710007,0.476587,0.1589019896\C,0.9407399813,0.1692940005,0.067232
 2602\C,-0.0009629976,1.2451809999,-0.0025910338\H,0.3919869838,2.25356
 90005,0.0235932259\C,-1.3529399941,1.0021229998,-0.0992140823\C,-1.751
 4329826,-0.3194580005,-0.1251622429\C,-0.9176250334,-1.4174349991,-0.0
 630445343\C,0.4344590262,-1.1706390007,0.0335786347\H,2.7830800273,-0.
 3764900008,0.2006766196\H,-2.065327021,1.8155940006,-0.1520337081\H,-1
 .301400981,-2.4295460005,-0.0885622648\H,1.1388499863,-1.9936419996,0.
 0858431904\\Version=ES64L-G16RevB.01\State=3-A"\HF=-286.26548\S2=2.078
 508\S2-1=0.\S2A=2.002842\RMSD=3.732e-09\RMSF=7.448e-06\ZeroPoint=0.091
 636\Thermal=0.0969111\Dipole=-0.4223036,-0.6015248,-0.0291168\DipoleDe
 riv=-0.2707694,-0.0254951,0.0130689,-0.0973039,-0.1068263,-0.0076885,0
 .0132144,-0.0025304,-0.4510337,-0.1421842,-0.0433401,-0.0182594,-0.072
 6435,0.0051588,-0.0049993,-0.0182001,-0.0028943,0.1119323,0.2422348,0.
 1218468,0.0257294,0.0230223,0.0219643,0.0013675,0.0259295,0.0084662,-0
 .1175431,0.0533842,-0.0505371,-0.0059497,-0.0096291,-0.007566,-0.00039
 76,-0.0060326,-0.0033361,0.1372104,-0.1553431,-0.1844756,-0.0020335,-0
 .2010165,-0.0404214,-0.0146043,-0.002,-0.0134161,-0.1219493,-0.0374705
 ,-0.0043807,-0.0014835,-0.0541676,0.0704435,-0.0040674,-0.0013827,-0.0
 004911,-0.016793,-0.3075559,0.0479525,-0.0126073,0.129478,0.0806512,0.
 0088672,-0.0127724,0.003011,-0.1343202,0.2607649,-0.0046547,0.0247723,
 0.0538326,0.0048606,0.003687,0.0246538,-0.0005142,-0.0821956,0.2528627
 ,0.033702,0.0006855,0.1661629,-0.0202046,0.0124676,0.0004173,0.0029526
 ,0.242393,0.0438832,0.0600115,-0.0076238,0.069518,0.0172877,0.005259,-
 0.0076431,0.0045761,0.1477671,0.0805468,-0.0344991,-0.0044989,-0.04530
 22,-0.0247672,-0.0029121,-0.004477,-0.0021361,0.1438334,-0.0203535,0.0
 838696,-0.0117999,0.0380491,-0.0005807,0.003021,-0.0117071,0.0063124,0
 .1406986\Polar=100.0196501,2.7151614,79.4982036,4.2227688,0.1173875,41
 .4594987\Quadrupole=-1.5461643,3.7676784,-2.2215141,-4.3510226,0.05766
 8,-0.3246816\PG=CS [SG(C6H5N1)]\NImag=0\\0.57044759,-0.10022375,0.4336
 2105,0.03792289,-0.00798562,0.04807510,-0.31013192,-0.01706806,-0.0190
 0999,0.60977743,-0.07829995,-0.11972053,-0.00547314,-0.01246998,0.6229
 8007,-0.01888599,-0.00107472,-0.04636018,0.03219404,-0.00182941,0.1642
 6036,-0.09099106,0.02237474,-0.00655279,-0.10256268,0.06687946,-0.0023
 3679,0.67212523,0.03279987,0.02018862,0.00231439,0.05236392,-0.2331454
 4,0.00408792,0.07272681,0.68314481,-0.00657390,0.00156553,-0.00087349,
 -0.00230740,0.00513060,-0.07209302,0.03871311,0.00410621,0.13390814,0.
 00169315,-0.00034290,0.00032531,0.01000798,0.01946595,0.00035077,-0.09
 347825,-0.09663538,-0.00384550,0.09461588,-0.00211273,0.00165977,-0.00
 016085,-0.01084325,-0.01789046,-0.00073339,-0.09452198,-0.30906387,-0.
 00623918,0.10314078,0.32476627,0.00032889,-0.00003372,-0.00280218,0.00
 041215,0.00144378,0.00460266,-0.00384978,-0.00639099,-0.03748278,0.004
 82370,0.00680084,0.02488833,0.01961039,0.00834208,0.00105995,-0.063946
 65,0.02728714,-0.00504098,-0.33756935,-0.07102179,-0.01983793,-0.00619
 716,0.00196737,-0.00081945,0.64744761,0.02147989,-0.00069100,0.0015537
 0,-0.01356176,0.03510651,-0.00103421,0.01698893,-0.12887300,0.00136105
 ,-0.02790665,0.00086318,-0.00199590,-0.08213645,0.67421362,0.00103335,
 0.00060998,0.00469218,-0.00495825,0.00190005,0.00510129,-0.02001617,-0
 .00496094,-0.06082373,-0.00075895,0.00015001,0.00510041,0.03757676,-0.
 00700894,0.12935698,-0.01544020,-0.00311659,-0.00107388,0.01756041,0.0
 1291274,0.00189910,-0.01714138,-0.03490366,-0.00206426,-0.00561593,-0.
 00086831,-0.00105462,-0.10999862,-0.06514425,-0.00371489,0.33608009,-0
 .00258706,-0.00134648,-0.00018392,0.01111503,-0.04419386,0.00086920,-0
 .10320466,-0.00940842,-0.00736887,-0.00227610,0.00137623,-0.00014787,-
 0.01899282,-0.29609266,-0.00087897,-0.04917251,0.60056480,-0.00107495,
 -0.00022196,-0.00047926,0.00190274,0.00099833,-0.00910701,-0.00192594,
 -0.00246267,0.01244657,-0.00105177,-0.00004675,0.00901490,-0.00380836,
 -0.00419412,-0.05671072,0.01839339,-0.00458354,0.08273591,0.02739155,0
 .00469050,0.00184550,-0.04800237,-0.06187363,-0.00377657,-0.04205456,0
 .00752496,-0.00296147,-0.00013570,0.00073402,0.00012288,0.05985733,0.0
 3596223,0.00355994,-0.15984894,0.07050674,-0.00755964,0.59446110,-0.01
 146359,-0.00942152,-0.00080120,-0.01873476,0.01801471,-0.00136945,0.01
 818011,0.00075803,0.00130228,0.00114618,0.00029981,0.00007794,0.006721
 31,-0.05345255,0.00060986,0.11642645,-0.24757845,0.00874992,0.05147351
 ,0.72604426,0.00187821,0.00035918,0.00170164,-0.00386393,-0.00446820,0
 .00604852,-0.00298304,0.00053689,-0.00125445,0.00012205,0.00004834,-0.
 00185845,0.00361916,0.00271029,0.00953873,-0.00765263,0.00545141,-0.05
 715703,0.03359596,0.00248086,0.12771666,-0.05958078,-0.05095116,-0.005
 74217,-0.08342361,-0.00445663,-0.00072344,0.03547202,0.01638953,0.0020
 8685,-0.00275347,0.00350605,-0.00047869,-0.02846939,-0.02954303,-0.001
 87905,-0.06156623,0.08382932,-0.00551996,-0.32647602,-0.09214483,-0.01
 910740,0.70550465,-0.05832333,-0.01564298,-0.00411367,0.00657530,-0.24
 753136,0.00082531,0.00765516,-0.02966604,0.00062203,0.00260289,-0.0022
 2150,0.00019919,-0.01774443,-0.01231944,-0.00125266,0.01440638,0.03424
 650,0.00099164,-0.00351247,-0.13438702,-0.00009736,-0.05917511,0.62730
 383,-0.00572724,-0.00358411,0.02139041,-0.00074578,0.00003287,-0.07328
 029,0.00210454,0.00124944,0.00610675,-0.00047686,0.00026406,0.00377692
 ,-0.00190294,-0.00210018,-0.00161001,-0.00537936,0.00597843,0.01251717
 ,-0.01928690,-0.00646401,-0.05924943,0.04185434,-0.00526892,0.12752064
 ,-0.14383614,0.13766559,-0.00908743,-0.02872917,0.04204849,-0.00217272
 ,-0.00700027,-0.00310308,-0.00126096,0.00006483,-0.00004231,0.00001270
 ,-0.00015869,0.00239806,0.00003997,0.00016162,-0.00016097,0.00000456,0
 .00092125,-0.00006145,-0.00001566,0.00208743,0.00101149,0.00069305,0.1
 7711425,0.19735762,-0.31090979,0.01476329,-0.01630424,0.00039805,-0.00
 117130,0.00088325,0.00116092,0.00008265,-0.00057861,0.00061762,-0.0000
 4304,0.00018476,-0.00017378,0.00001204,-0.00028433,-0.00000619,-0.0000
 2020,0.00010590,0.00019020,0.00000953,-0.00439341,0.00251005,-0.000336
 04,-0.17773642,0.30623858,-0.00920832,0.01047549,-0.02189059,-0.002054
 55,0.00302030,0.00017890,-0.00126903,-0.00020370,0.01055071,0.00001378
 ,-0.00000451,-0.00010974,0.00004445,0.00017102,-0.00077990,0.00000481,
 -0.00001134,0.00010309,-0.00001600,-0.00000249,0.00113986,0.00070400,0
 .00005220,-0.00753885,0.01181433,-0.01335160,0.01852927,-0.00090026,0.
 00123811,-0.00007490,-0.00334391,-0.00343884,-0.00086445,-0.01529987,0
 .02597840,-0.00162041,0.00115308,-0.00045151,0.00045096,-0.17907329,0.
 13828953,-0.01053529,0.01088091,-0.00573882,0.00087244,0.00002422,-0.0
 0347724,-0.00034320,-0.00067309,-0.00032243,-0.00000584,-0.00045479,0.
 00009862,0.00002372,0.18733602,-0.00002277,0.00031074,-0.00000205,-0.0
 0198233,0.00069557,-0.00012601,-0.00553865,0.00872283,-0.00040230,0.00
 032085,0.00056999,0.00001154,0.14374679,-0.21631876,0.01069018,0.01742
 243,-0.01954017,0.00128883,-0.00159618,-0.00408958,-0.00009645,-0.0011
 9406,0.00017590,-0.00008731,-0.00014299,0.00001702,-0.00001190,-0.1518
 6279,0.23002057,-0.00007235,0.00008852,0.00010216,-0.00086740,-0.00023
 063,0.00872546,-0.00155658,0.00186163,0.00641039,0.00044940,-0.0000439
 4,-0.00507986,-0.01054634,0.01029817,-0.03708488,0.00082553,-0.0003748
 9,-0.00104275,-0.00034701,-0.00023157,0.00487564,-0.00000407,-0.000024
 70,-0.00058298,0.00002421,0.00000545,-0.00078602,0.01204846,-0.0113260
 7,0.02477487,-0.00064272,-0.00177619,0.00005917,-0.00485090,0.00145790
 ,-0.00099238,-0.00104934,-0.00011915,-0.00002425,0.00002183,-0.0000639
 9,0.00005132,-0.00216218,0.00416957,-0.00052976,0.01112036,0.01713614,
 0.00086199,-0.09134634,-0.09194616,-0.00380556,-0.00584122,-0.03114292
 ,-0.00081423,0.00017133,0.00006820,-0.00001723,0.00039871,0.00074684,0
 .00000021,0.09315211,-0.00029956,-0.00030668,-0.00002377,-0.00006144,0
 .00204815,0.00000951,0.00076010,0.00058374,0.00005198,-0.00009613,-0.0
 0003562,-0.00000823,0.00232085,-0.00191780,0.00018091,-0.00608532,-0.0
 1962985,-0.00040013,-0.09720396,-0.30409625,-0.00643897,0.00019920,-0.
 00104903,0.00002934,0.00005967,-0.00000377,0.00000512,-0.00038831,-0.0
 0058029,-0.00002596,0.10093143,0.32426786,0.00005618,-0.00012984,-0.00
 141208,-0.00098930,0.00011865,0.00885193,-0.00002603,-0.00001118,-0.00
 071025,0.00005138,-0.00000592,-0.00068706,-0.00052602,0.00031371,0.005
 05686,0.00090902,0.00126792,-0.00130008,-0.00379491,-0.00606129,-0.036
 03587,-0.00087770,-0.00222203,0.00631337,-0.00001721,0.00000574,0.0004
 0806,0.00000251,0.00005558,0.00037475,0.00478448,0.00664142,0.02403030
 ,0.00238040,-0.00083237,0.00032834,0.00764538,-0.00951266,0.00034940,-
 0.00045050,-0.00200042,-0.00030390,0.00062377,-0.00044414,-0.00000005,
 0.00066000,-0.00099608,0.00018235,-0.00619210,-0.00045428,-0.00109450,
 -0.01479151,0.02388047,-0.00144394,-0.17428026,0.13796948,-0.01031278,
 -0.00034165,0.00059867,-0.00003996,-0.00004772,0.00010285,0.00004593,0
 .00102836,-0.00013653,0.00042760,0.18376584,0.00169536,0.00225880,0.00
 011282,0.02097157,-0.01676143,0.00154655,-0.00318327,-0.00440217,-0.00
 021198,0.00115914,-0.00094142,0.00008646,-0.00067481,-0.00034432,-0.00
 005152,-0.00159303,0.00160855,-0.00009935,-0.00681161,0.00771839,-0.00
 049553,0.13793412,-0.22141890,0.01028642,-0.00193608,-0.00003890,-0.00
 013859,0.00007529,0.00001617,0.00000398,0.00053832,0.00071954,0.000027
 25,-0.14817500,0.23158569,0.00032322,-0.00006875,-0.00214372,0.0002876
 7,-0.00064319,0.00307136,-0.00030150,-0.00012701,0.00381516,-0.0000033
 0,-0.00002871,0.00063685,0.00018170,-0.00007460,-0.00183722,-0.0010921
 9,-0.00001755,0.00897920,-0.00138179,0.00170914,0.00453417,-0.01031271
 ,0.01028896,-0.03536370,-0.00003483,0.00004348,0.00019521,0.00004599,0
 .00000596,-0.00068679,0.00042623,-0.00002123,-0.00488992,0.01186151,-0
 .01106651,0.02368942\\-0.00000158,-0.00000139,-0.00000011,-0.00000430,
 0.00000449,-0.00000032,0.00000357,-0.00002835,0.00000031,0.00000264,0.
 00000246,0.00000018,0.00001154,0.00001006,0.00000081,-0.00001452,0.000
 00719,-0.00000106,0.00001900,-0.00000274,0.00000137,-0.00001292,0.0000
 0844,-0.00000094,-0.00000204,-0.00000030,-0.00000015,-0.00000011,-0.00
 000003,0.,-0.00000251,-0.00000133,-0.00000018,0.00000123,0.00000150,0.
 00000009\\\@


 WHEN IT COMES TO CASH FLOW, IT SEEMS LIKE THE TIDE IS ALWAYS GOING OUT.
 Job cpu time:       0 days  3 hours 11 minutes 25.9 seconds.
 Elapsed time:       0 days  0 hours  5 minutes 54.9 seconds.
 File lengths (MBytes):  RWF=    122 Int=      0 D2E=      0 Chk=      8 Scr=      1
 Normal termination of Gaussian 16 at Mon Mar  2 00:57:22 2020.
