
 Working directory              : /gtmp/pbs.462265.zeus-master/molpro.Jg3u5j93ld/
 Global scratch directory       : /gtmp/pbs.462265.zeus-master/molpro.Jg3u5j93ld/
 Wavefunction directory         : /home/alon/wfu/
 Main file repository           : /gtmp/pbs.462265.zeus-master/molpro.Jg3u5j93ld/

 id        : dana

 Nodes     nprocs
 n020         1
 GA implementation: MPI file
 GA implementation (serial work in mppx): MPI file

 Using customized tuning parameters: mindgm=1; mindgv=20; mindgc=4; mindgr=1; noblas=0; minvec=7
 default implementation of scratch files=df  


 Variables initialized (1025), CPU time= 0.00 sec
 ***,TS0
 memory,1875,m;
 
 geometry={angstrom;
 O      -1.45119400    0.51124500    1.34433300
 N      -0.46720000    1.20198100    1.31296100
 N       0.62839300    0.91911300    0.75892300
 H       1.31642700    1.66105000    0.86478400
 O       1.68761700   -1.91651000   -1.04091700
 N       0.57416200   -1.51782900   -0.42308800
 H       0.67117000   -0.51596600    0.03459500
 H      -0.23469700   -1.43738900   -1.05317300
 H       0.29755900   -2.13186300    0.35420300}
 
 basis=cc-pvtz-f12
 
 
 
 int;
 {hf;
 maxit,1000;
 wf,spin=1,charge=0;}
 
 uccsd(t)-f12;
 
 
 
 Commands initialized (840), CPU time= 0.01 sec, 684 directives.
 Default parameters read. Elapsed time= 0.09 sec

 Checking input...
 Passed
1


                                         ***  PROGRAM SYSTEM MOLPRO  ***
                                       Copyright, TTI GmbH Stuttgart, 2015
                                    Version 2022.3 linked Wed Nov 30 13:40:34 2022


 **********************************************************************************************************************************
 LABEL *   TS0                                                                           
  64 bit serial version                                                                  DATE: 26-May-23          TIME: 08:40:39  
 **********************************************************************************************************************************

 SHA1:             e31ec9a5ea85254ab76f59d122cbdd51c71cf98b
 **********************************************************************************************************************************

 Memory per process:      1875 MW
 Total memory per node:   1875 MW

 GA preallocation disabled
 GA check disabled

 Variable memory set to 1875.0 MW


 Geometry recognized as XYZ

 SETTING BASIS          =    CC-PVTZ-F12


 Using spherical harmonics

 Library entry O      S cc-pVTZ-F12          selected for orbital group  1
 Library entry O      P cc-pVTZ-F12          selected for orbital group  1
 Library entry O      D cc-pVTZ-F12          selected for orbital group  1
 Library entry O      F cc-pVTZ-F12          selected for orbital group  1
 Library entry N      S cc-pVTZ-F12          selected for orbital group  2
 Library entry N      P cc-pVTZ-F12          selected for orbital group  2
 Library entry N      D cc-pVTZ-F12          selected for orbital group  2
 Library entry N      F cc-pVTZ-F12          selected for orbital group  2
 Library entry H      S cc-pVTZ-F12          selected for orbital group  3
 Library entry H      P cc-pVTZ-F12          selected for orbital group  3
 Library entry H      D cc-pVTZ-F12          selected for orbital group  3


 PROGRAM * SEWARD (Integral evaluation for generally contracted gaussian basis sets)     Author: Roland Lindh, 1990

 Geometry written to block  1 of record 700


 Point group  C1  



 ATOMIC COORDINATES

 NR  ATOM    CHARGE       X              Y              Z

   1  O       8.00   -2.742359214    0.966113033    2.540421190
   2  N       7.00   -0.882880045    2.271414897    2.481136702
   3  N       7.00    1.187490669    1.736871848    1.434156620
   4  H       1.00    2.487686493    3.138929579    1.634204917
   5  O       8.00    3.189133933   -3.621679015   -1.967048048
   6  N       7.00    1.085008931   -2.868281114   -0.799520447
   7  H       1.00    1.268327483   -0.975034430    0.065375075
   8  H       1.00   -0.443513052   -2.716271545   -1.990208532
   9  H       1.00    0.562305016   -4.028637205    0.669346663

 Bond lengths in Bohr (Angstrom)

 1-2  2.272661520  2-3  2.380827264  3-4  1.922574936  5-6  2.521521589  6-7  2.089505435
     ( 1.202640685)     ( 1.259879531)     ( 1.017382843)     ( 1.334331762)     ( 1.105718658)

 6-8  1.943508292  6-9  1.943506168
     ( 1.028460297)     ( 1.028459173)

 Bond angles

  1-2-3  126.44291769   2-3-4  112.24709385   5-6-7  112.90285807   5-6-8  113.32742605

  5-6-9  113.32749912   7-6-8  104.57943235   7-6-9  104.57958634   8-6-9  107.34978140

 NUCLEAR CHARGE:                   41
 NUMBER OF PRIMITIVE AOS:         444
 NUMBER OF SYMMETRY AOS:          395
 NUMBER OF CONTRACTIONS:          337   (  337A   )
 NUMBER OF INNER CORE ORBITALS:     0   (    0A   )
 NUMBER OF OUTER CORE ORBITALS:     5   (    5A   )
 NUMBER OF VALENCE ORBITALS:       24   (   24A   )


 NUCLEAR REPULSION ENERGY  169.15062220


 Eigenvalues of metric

         1 0.589E-04 0.131E-03 0.139E-03 0.184E-03 0.226E-03 0.268E-03 0.297E-03 0.347E-03


 Contracted 2-electron integrals neglected if value below      1.0D-11
 AO integral compression algorithm  1   Integral accuracy      1.0D-11

     5388.632 MB (compressed) written to integral file ( 37.2%)


 NUMBER OF SORTED TWO-ELECTRON INTEGRALS: 1621850581.     BUFFER LENGTH:  32768
 NUMBER OF SEGMENTS:  51  SEGMENT LENGTH:   31998710      RECORD LENGTH: 524288

 Memory used in sort:      32.56 MW

 SORT1 READ  1810452138. AND WROTE  1300369099. INTEGRALS IN   3749 RECORDS. CPU TIME:    16.83 SEC, REAL TIME:    24.36 SEC
 SORT2 READ  1300369099. AND WROTE  1621850581. INTEGRALS IN  20556 RECORDS. CPU TIME:    17.92 SEC, REAL TIME:    23.32 SEC

 FILE SIZES:   FILE 1:  5422.9 MBYTE,  FILE 4: 15724.5 MBYTE,   TOTAL:  21147.4 MBYTE

 OPERATOR DM      FOR CENTER  0  COORDINATES:    0.000000    0.000000    0.000000


 **********************************************************************************************************************************
 DATASETS  * FILE   NREC   LENGTH (MB)   RECORD NAMES
              1      19     4577.82       500      610      700      900      950      970     1000      129      960     1100   
                                          VAR    BASINP    GEOM    SYMINP    ZMAT    AOBASIS   BASIS     P2S    ABASIS      S 
                                         1400     1410     1200     1210     1080     1600     1650     1300     1700   
                                           T        V       H0       H01     AOSYM     SMH    MOLCAS    ERIS     OPER   

 PROGRAMS   *        TOTAL       INT
 CPU TIMES  *        90.58     90.46
 REAL TIME  *       109.80 SEC
 DISK USED  *        19.70 GB
 **********************************************************************************************************************************


 Program * Restricted Hartree-Fock

 Orbital guess generated from atomic densities. Full valence occupancy:   29

 Initial alpha occupancy:  21
 Initial beta  occupancy:  20

 NELEC=   41   SYM=1   MS2= 1   THRE=1.0D-08   THRD=3.2D-06   THRG=3.2D-06  HFMA2=F  DIIS_START=2   DIIS_MAX=10   DIIS_INCORE=F

 Level shifts:    0.00 (CLOSED)    0.00 (OPEN)    0.30 (GAP_MIN)

 ITER           ETOT              DE          GRAD        DDIFF     DIIS  NEXP   TIME(IT)  TIME(TOT)  DIAG
   1     -315.06750128    -315.06750128     0.00D+00     0.36D-01     0     0      15.31     29.55    start
   2     -315.18087018      -0.11336890     0.59D-02     0.62D-02     1     0      15.75     45.30    diag2
   3     -315.27244568      -0.09157551     0.44D-02     0.28D-02     2     0      15.65     60.95    diag2
   4     -315.27665630      -0.00421062     0.59D-03     0.66D-03     3     0      15.13     76.08    diag2
   5     -315.27835855      -0.00170225     0.33D-03     0.31D-03     4     0      15.43     91.51    diag2
   6     -315.27957818      -0.00121963     0.14D-03     0.26D-03     5     0      15.78    107.29    diag2
   7     -315.28059617      -0.00101799     0.12D-03     0.24D-03     6     0      15.50    122.79    diag2
   8     -315.28137926      -0.00078309     0.98D-04     0.20D-03     7     0      14.90    137.69    fixocc
   9     -315.28239993      -0.00102067     0.92D-04     0.30D-03     8     0      15.65    153.34    diag2
  10     -315.28295697      -0.00055704     0.89D-04     0.17D-03     9     0      15.60    168.94    diag2/orth
  11     -315.28421745      -0.00126047     0.81D-04     0.42D-03     9     0      15.58    184.52    diag2
  12     -315.28517458      -0.00095713     0.73D-04     0.40D-03     9     0      15.67    200.19    diag2
  13     -315.28528065      -0.00010607     0.57D-04     0.56D-04     9     0      15.56    215.75    diag2
  14     -315.28565241      -0.00037175     0.45D-04     0.68D-03     9     0      15.64    231.39    diag2
  15     -315.28579382      -0.00014142     0.96D-04     0.22D-03     9     0      15.19    246.58    diag2
  16     -315.28579696      -0.00000314     0.30D-04     0.11D-03     9     0      15.40    261.98    diag2
  17     -315.28581091      -0.00001395     0.26D-04     0.11D-03     9     0      15.50    277.48    diag2
  18     -315.28581394      -0.00000303     0.94D-05     0.22D-04     9     0      15.36    292.84    diag2
  19     -315.28581446      -0.00000051     0.41D-05     0.10D-04     9     0      15.38    308.22    diag2
  20     -315.28581455      -0.00000009     0.20D-05     0.36D-05     9     0      15.22    323.44    diag2/orth
  21     -315.28581455      -0.00000000     0.49D-06     0.63D-06     9     0      15.22    338.66    diag2
  22     -315.28581455      -0.00000000     0.21D-06     0.17D-06     0     0      15.42    354.08    diag

 Final alpha occupancy:  21
 Final beta  occupancy:  20

 !RHF STATE 1.1 Energy               -315.285814553722
  RHF One-electron energy            -766.843414632128
  RHF Two-electron energy             282.406977881335
  RHF Kinetic energy                  314.988648978240
  RHF Nuclear energy                  169.150622197071
  RHF Virial quotient                  -1.000943416775

 !RHF STATE 1.1 Dipole moment          -1.51447819     1.73463900     1.42871247
 Dipole moment /Debye                  -3.84941961     4.40901257     3.63142489

 Orbital energies:

           1.1          2.1          3.1          4.1          5.1          6.1          7.1          8.1          9.1         10.1
    -20.734062   -20.443634   -15.813578   -15.678263   -15.661085    -1.630658    -1.352362    -1.343535    -1.046182    -0.943896

          11.1         12.1         13.1         14.1         15.1         16.1         17.1         18.1         19.1         20.1
     -0.811109    -0.779642    -0.754328    -0.717459    -0.694163    -0.571314    -0.536436    -0.506789    -0.359866    -0.350029

          21.1         22.1         23.1
     -0.572665     0.042106     0.054241


 HOMO     21.1    -0.572665 =     -15.5830eV
 LUMO     22.1     0.042106 =       1.1457eV
 LUMO-HOMO         0.614771 =      16.7288eV

 Orbitals saved in record  2100.2


 **********************************************************************************************************************************
 DATASETS  * FILE   NREC   LENGTH (MB)   RECORD NAMES
              1      19     4577.82       500      610      700      900      950      970     1000      129      960     1100   
                                          VAR    BASINP    GEOM    SYMINP    ZMAT    AOBASIS   BASIS     P2S    ABASIS      S 
                                         1400     1410     1200     1210     1080     1600     1650     1300     1700   
                                           T        V       H0       H01     AOSYM     SMH    MOLCAS    ERIS     OPER   

              2       4        4.00       700     1000      520     2100   
                                         GEOM     BASIS   MCVARS     RHF  

 PROGRAMS   *        TOTAL    HF-SCF       INT
 CPU TIMES  *       444.68    354.10     90.46
 REAL TIME  *       485.01 SEC
 DISK USED  *        19.70 GB
 **********************************************************************************************************************************


 PROGRAM * CCSD (Unrestricted open-shell coupled cluster)     Authors: C. Hampel, H.-J. Werner, 1991, M. Deegan, P.J. Knowles, 1992

                           UCCSD-F12 implementation by G. Knizia and H.-J. Werner, 2008

                   Density fitting integral evaluation by F.R. Manby, 2003,2007, G. Knizia, 2010


 Basis set VTZ-F12/JKFIT generated.      Number of basis functions:   704 
 Basis set CC-PVTZ-F12/OPTRI generated.  Number of basis functions:   539 
 Basis set CC-PVTZ-F12/MP2FIT generated. Number of basis functions:   714 

 Convergence thresholds:  THRVAR = 1.00D-08  THRDEN = 1.00D-06

 CCSD(T)     terms to be evaluated (factor= 1.000)


 Number of core orbitals:           5 (   5 )
 Number of closed-shell orbitals:  15 (  15 )
 Number of active  orbitals:        1 (   1 )
 Number of external orbitals:     316 ( 316 )

 Memory could be reduced to 835.59 Mwords without degradation in triples

 Number of N-1 electron functions:              31
 Number of N-2 electron functions:             465
 Number of singly external CSFs:              9827
 Number of doubly external CSFs:          35386710
 Total number of CSFs:                    35396537

 Molecular orbitals read from record     2100.2  Type=RHF/CANONICAL  

 Integral transformation finished. Total CPU:  76.03 sec, npass=  1  Memory used: 354.04 MW

 Geminal basis:    OPTFULL  GEM_TYPE=SLATER  BETA=1.0  NGEM=6

 Optimizing Gaussian exponents for each gem_beta

 Geminal optimization for beta= 1.0000
 Weight function:   m=0, omega= 1.4646

 Augmented Hessian optimization of geminal fit. Trust ratio= 0.40000
 Convergence reached after   2 iterations. Final gradient= 8.66D-16, Step= 4.23D-06, Delta= 1.28D-09

 Alpha:                 0.19532     0.81920     2.85917     9.50073    35.69989   197.79328
 Coeff:                 0.27070     0.30552     0.18297     0.10986     0.06810     0.04224


 WFN_F12=FIX,EG    DECOUPLE_EXPL=F   HYBRID=0    NOX=F   SEMIINT_F12=T   CORE_SINGLES=F


 AO(A)-basis ORBITAL           loaded. Number of functions:     337
 RI(R)-basis CC-PVTZ-F12/OPTRI loaded. Number of functions:     539
 DF-basis VTZ-F12/JKFIT        loaded. Number of functions:     704

 Screening thresholds:   THRAO=  1.00D-10  THRMO=  1.00D-09  THRPROD=  1.00D-09
                         THRSW=  1.00D-05  THROV=  1.00D-12  THRAOF12= 1.00D-08

 CPU time for one-electron matrices               9.12 sec

 Construction of ABS:
 Pseudo-inverse stability          4.26E-12
 Smallest eigenvalue of S          1.57E-04  (threshold= 1.00E-08)
 Ratio eigmin/eigmax               1.96E-05  (threshold= 1.00E-09)
 Smallest eigenvalue of S kept     1.57E-04  (threshold= 1.57E-04, 0 functions deleted, 539 kept)

 Construction of CABS:
 Pseudo-inverse stability          3.78E-10
 Smallest eigenvalue of S          3.60E-07  (threshold= 1.00E-08)
 Ratio eigmin/eigmax               3.60E-07  (threshold= 1.00E-09)
 Smallest eigenvalue of S kept     3.60E-07  (threshold= 3.60E-07, 0 functions deleted, 539 kept)

 CPU time for basis constructions                 0.13 sec
 Fock operators(MO) rebuilt from dump record.
 CPU time for Fock operator transformation        0.23 sec

                                      TOTAL          ALPHA          BETA    
  Singles Contributions MO        -0.005706334   -0.002813522   -0.002892812
  Singles Contributions CABS      -0.003139752   -0.001635327   -0.001504424
  Pure DF-RHF relaxation          -0.003122629

 CPU time for RHF CABS relaxation                 0.25 sec
 CPU time for singles (tot)                       0.61 sec

 AO(A)-basis ORBITAL           loaded. Number of functions:     337
 RI(R)-basis CC-PVTZ-F12/OPTRI loaded. Number of functions:     539
 DF-basis CC-PVTZ-F12/MP2FIT   loaded. Number of functions:     714

 Screening thresholds:   THRAO=  1.00D-10  THRMO=  1.00D-09  THRPROD=  1.00D-09
                         THRSW=  1.00D-05  THROV=  1.00D-12  THRAOF12= 1.00D-08

 CPU time for transformed integrals              68.77 sec
 CPU time for F12 matrices                        9.95 sec

 Diagonal F12 ansatz with fixed amplitudes:   TS= 0.5000  TT= 0.2500  TN= 0.3750

 ITER.     SQ.NORM      CORR.ENERGY   TOTAL ENERGY  ENERGY CHANGE      VAR         CPU   MICRO    DIIS
   1      1.31429947    -1.25331292  -316.54225011    -1.2564E+00   3.11E-01      0.59  1  1  1   0  0
   2      1.31386629    -1.25187222  -316.54080940     1.4407E-03   2.11E-04      3.58  0  0  0   1  1
   3      1.31436255    -1.25239617  -316.54133335    -5.2395E-04   1.98E-06      6.65  0  0  0   2  2
   4      1.31437318    -1.25239964  -316.54133683    -3.4769E-06   1.29E-08     10.41  0  0  0   3  3
   5      1.31437490    -1.25239966  -316.54133685    -2.2818E-08   1.27E-10     14.15  0  0  0   4  4

 - - Continuing with F12/conv. amplitude coupling turned on.

   6      1.31437617    -1.25296690  -316.54190408    -5.6726E-04   9.40E-05     17.46  1  1  1   1  1
   7      1.31437522    -1.25296723  -316.54190441    -3.2828E-07   3.04E-09     20.85  1  1  1   2  2

 CPU time for iterative RMP2-F12                 20.85 sec


 DF-RMP2-F12 doubles corrections:
 - - - - - - - - - - - - - - - - 
  Approx.                             TOTAL           A-B            A-A            B-B    
  RMP2-F12/3C(FIX)                -0.097252010   -0.089877666   -0.004007742   -0.003366602
  RMP2-F12/3*C(FIX)               -0.096684449   -0.089615176   -0.003846288   -0.003222986
  RMP2-F12/3*C(DX)                -0.097105405   -0.089993162   -0.003871370   -0.003240873
  RMP2-F12/3*C(FIX,DX)            -0.103284906   -0.095671472   -0.004152925   -0.003460510

 DF-RMP2-F12 doubles energies:
 - - - - - - - - - - - - - - -
  Approx.                             TOTAL           A-B            A-A            B-B    
  RMP2                            -1.150008882   -0.856248685   -0.148589883   -0.145170313
  RMP2-F12/3C(FIX)                -1.247260892   -0.946126352   -0.152597625   -0.148536915
  RMP2-F12/3*C(FIX)               -1.246693331   -0.945863861   -0.152436172   -0.148393299
  RMP2-F12/3*C(DX)                -1.247114287   -0.946241847   -0.152461253   -0.148411186
  RMP2-F12/3*C(FIX,DX)            -1.253293788   -0.951920157   -0.152742808   -0.148630823


  Reference energy                   -315.285814553721
  CABS relaxation correction to RHF    -0.003122629477
  New reference energy               -315.288937183199

  RMP2-F12 singles (MO) energy         -0.005706333670
  RMP2-F12 pair energy                 -1.247260891834
  RMP2-F12 correlation energy          -1.252967225504

 !RMP2-F12/3C(FIX) energy            -316.541904408703

 Starting RMP2 calculation, locsing= 0

 ITER.      SQ.NORM     CORR.ENERGY   TOTAL ENERGY   ENERGY CHANGE        DEN1      VAR(S)    VAR(P)  DIIS     TIME
   1      1.31034561    -1.15151866  -316.43733321    -1.15151866    -0.00387600  0.50D-04  0.15D-02  1  1   205.31
   2      1.31417885    -1.15571622  -316.44153077    -0.00419756    -0.00001386  0.27D-05  0.62D-05  2  2   209.02
   3      1.31437227    -1.15582082  -316.44163537    -0.00010460    -0.00000019  0.16D-06  0.37D-07  3  3   212.94
   4      1.31437922    -1.15582126  -316.44163581    -0.00000044    -0.00000001  0.64D-08  0.35D-09  4  4   216.97

 Norm of t1 vector:      0.05787624      S-energy:    -0.00570589      T1 diagnostic:  0.00103379
 Norm of t2 vector:      0.55770024      P-energy:    -1.15011537
                                         Alpha-Beta:  -0.85662070
                                         Alpha-Alpha: -0.14844918
                                         Beta-Beta:   -0.14504550

 Spin contamination <S**2-Sz**2-Sz>     0.00047668
  Reference energy                   -315.285814553721
  CABS singles correction              -0.003122629477
  New reference energy               -315.288937183199
  RHF-RMP2 correlation energy          -1.155821260598
 !RHF-RMP2 energy                    -316.444758443797

  F12/3C(FIX) correction               -0.097252010032
  RHF-RMP2-F12 correlation energy      -1.253073270630
 !RHF-RMP2-F12 total energy          -316.542010453829

 Starting UCCSD calculation

 ITER.      SQ.NORM     CORR.ENERGY   TOTAL ENERGY   ENERGY CHANGE        DEN1      VAR(S)    VAR(P)  DIIS     TIME
   1      1.29292871    -1.10766195  -316.39347650    -1.10766195    -0.03575119  0.11D-01  0.52D-02  0  0   577.71
   2      1.32400558    -1.13840021  -316.42421477    -0.03073826    -0.00467186  0.96D-03  0.14D-02  1  1   932.79
   3      1.34146071    -1.14145121  -316.42726577    -0.00305100    -0.00168940  0.15D-02  0.17D-03  2  2  1287.14
   4      1.36164702    -1.14697476  -316.43278931    -0.00552354    -0.00069956  0.66D-03  0.71D-04  3  3  1642.89
   5      1.38492434    -1.15008792  -316.43590247    -0.00311316    -0.00038769  0.47D-03  0.28D-04  4  4  1997.75
   6      1.40920595    -1.15163967  -316.43745422    -0.00155175    -0.00016678  0.18D-03  0.18D-04  5  5  2354.20
   7      1.43229651    -1.15287381  -316.43868836    -0.00123414    -0.00007365  0.85D-04  0.97D-05  6  6  2711.47
   8      1.44549767    -1.15354186  -316.43935641    -0.00066805    -0.00003252  0.39D-04  0.36D-05  6  1  3066.80
   9      1.45277132    -1.15373346  -316.43954801    -0.00019160    -0.00001486  0.20D-04  0.16D-05  6  2  3422.05
  10      1.46014944    -1.15409980  -316.43991435    -0.00036634    -0.00000756  0.94D-05  0.98D-06  6  3  3784.28
  11      1.46186741    -1.15408396  -316.43989852     0.00001584    -0.00000364  0.50D-05  0.39D-06  6  4  4237.45
  12      1.46521217    -1.15421889  -316.44003344    -0.00013493    -0.00000195  0.23D-05  0.26D-06  6  3  4710.24
  13      1.46537891    -1.15416380  -316.43997835     0.00005509    -0.00000094  0.11D-05  0.16D-06  6  4  5146.95
  14      1.46682748    -1.15419120  -316.44000576    -0.00002741    -0.00000023  0.15D-06  0.56D-07  6  2  5595.23
  15      1.46781847    -1.15421069  -316.44002524    -0.00001949    -0.00000008  0.60D-07  0.16D-07  6  5  6040.64
  16      1.46726675    -1.15418453  -316.43999908     0.00002616    -0.00000001  0.72D-08  0.27D-08  6  1  6486.78
  17      1.46737246    -1.15418905  -316.44000360    -0.00000452    -0.00000000  0.19D-08  0.16D-08  6  6  6934.59
  18      1.46735213    -1.15418992  -316.44000447    -0.00000087    -0.00000000  0.89D-09  0.56D-09  6  4  7378.31

 Norm of t1 vector:      0.35724284      S-energy:    -0.00585966      T1 diagnostic:  0.04437779
                                                                       D1 diagnostic:  0.21761574
                                                                       D2 diagnostic:  0.19586513 (external, symmetry=1)
 Norm of t2 vector:      0.58286335      P-energy:    -1.14833026
                                         Alpha-Beta:  -0.88583728
                                         Alpha-Alpha: -0.13062805
                                         Beta-Beta:   -0.13186494

 Singles amplitudes (print threshold =  0.500E-01):

         I         SYM. A    A   T(IA) [Alpha-Alpha]

         8         1         3     -0.07300844

         I         SYM. A    A   T(IA) [Beta-Beta]

         6         1         1      0.07062187
         8         1         3     -0.06918325
        10         1         1      0.07977525
        11         1         1      0.10793678
        12         1         1     -0.20783462
        13         1         3      0.05089513
        15         1         1      0.16755083

 Doubles amplitudes (print threshold =  0.500E-01):

         I         J         SYM. A    SYM. B    A         B      T(IJ, AB) [Alpha-Beta]

        13        13         1         1         3         3     -0.07662247

 Spin contamination <S**2-Sz**2-Sz>     0.00203168

 Memory could be reduced to 889.39 Mwords without degradation in triples


 RESULTS
 =======

  Reference energy                   -315.285814553721
  CABS relaxation correction to RHF    -0.003122629477
  New reference energy               -315.288937183199

  F12 corrections for ansatz 3C(FIX) added to UCCSD energy. Coupling mode: 15

  UCCSD-F12a singles energy            -0.005859656908
  UCCSD-F12a pair energy               -1.244026995505
  UCCSD-F12a correlation energy        -1.249886652413
  Triples (T) contribution             -0.057371131989
  Total correlation energy             -1.307257784402

  RHF-UCCSD-F12a energy              -316.538823835612
  RHF-UCCSD[T]-F12a energy           -316.601720941241
  RHF-UCCSD-T-F12a energy            -316.495703530405
 !RHF-UCCSD(T)-F12a energy           -316.496194967601

  F12 corrections for ansatz 3C(FIX) added to UCCSD energy. Coupling mode: 15

  UCCSD-F12b singles energy            -0.005859656908
  UCCSD-F12b pair energy               -1.227612975556
  UCCSD-F12b correlation energy        -1.233472632464
  Triples (T) contribution             -0.057371131989
  Total correlation energy             -1.290843764453

  RHF-UCCSD-F12b energy              -316.522409815662
  RHF-UCCSD[T]-F12b energy           -316.585306921292
  RHF-UCCSD-T-F12b energy            -316.579289510456
 !RHF-UCCSD(T)-F12b energy           -316.579780947651

 Program statistics:

 Available memory in ccsd:              1874997771
 Min. memory needed in ccsd:              98698463
 Max. memory used in ccsd:               143618888
 Max. memory used in cckext:             108880689 (19 integral passes)
 Max. memory used in cckint:             354036605 ( 1 integral passes)



 **********************************************************************************************************************************
 DATASETS  * FILE   NREC   LENGTH (MB)   RECORD NAMES
              1      19     4577.82       500      610      700      900      950      970     1000      129      960     1100   
                                          VAR    BASINP    GEOM    SYMINP    ZMAT    AOBASIS   BASIS     P2S    ABASIS      S 
                                         1400     1410     1200     1210     1080     1600     1650     1300     1700   
                                           T        V       H0       H01     AOSYM     SMH    MOLCAS    ERIS     OPER   

              2       5        4.87       700     1000      520     2100     7360   
                                         GEOM     BASIS   MCVARS     RHF    F12ABS    

 PROGRAMS   *        TOTAL  UCCSD(T)    HF-SCF       INT
 CPU TIMES  *     18380.97  17936.29    354.10     90.46
 REAL TIME  *     18693.72 SEC
 DISK USED  *        35.87 GB
 **********************************************************************************************************************************

 UCCSD(T)-F12/cc-pVTZ-F12 energy=   -310.579780947651

    UCCSD(T)-F12          HF-SCF
   -312.97978095   -312.28581455
 **********************************************************************************************************************************
 Molpro calculation terminated
