
                                 *****************
                                 * O   R   C   A *
                                 *****************

           --- An Ab Initio, DFT and Semiempirical electronic structure package ---

                  #######################################################
                  #                        -***-                        #
                  #          Department of theory and spectroscopy      #
                  #               Directorship: Frank Neese             #
                  #        Max Planck Institute fuer Kohlenforschung    #
                  #                Kaiser Wilhelm Platz 1               #
                  #                 D-45470 Muelheim/Ruhr               #
                  #                      Germany                        #
                  #                                                     #
                  #                  All rights reserved                #
                  #                        -***-                        #
                  #######################################################


                         Program Version 4.1.2  - RELEASE  -


 With contributions from (in alphabetic order):
   Daniel Aravena         : Magnetic Properties
   Michael Atanasov       : Ab Initio Ligand Field Theory
   Alexander A. Auer      : GIAO ZORA
   Ute Becker             : Parallelization
   Giovanni Bistoni       : ED, Open-shell LED
   Martin Brehm           : Molecular dynamics
   Dmytro Bykov           : SCF Hessian
   Vijay G. Chilkuri      : MRCI spin determinant printing
   Dipayan Datta          : RHF DLPNO-CCSD density
   Achintya Kumar Dutta   : EOM-CC, STEOM-CC
   Dmitry Ganyushin       : Spin-Orbit,Spin-Spin,Magnetic field MRCI
   Miquel Garcia          : C-PCM Hessian
   Yang Guo               : DLPNO-NEVPT2, CIM, IAO-localization
   Andreas Hansen         : Spin unrestricted coupled pair/coupled cluster methods
   Benjamin Helmich-Paris : CASSCF linear response (MC-RPA)
   Lee Huntington         : MR-EOM, pCC
   Robert Izsak           : Overlap fitted RIJCOSX, COSX-SCS-MP3, EOM
   Christian Kollmar      : KDIIS, OOCD, Brueckner-CCSD(T), CCSD density
   Simone Kossmann        : Meta GGA functionals, TD-DFT gradient, OOMP2, MP2 Hessian
   Martin Krupicka        : AUTO-CI
   Lucas Lang             : DCDCAS
   Dagmar Lenk            : GEPOL surface, SMD
   Dimitrios Liakos       : Extrapolation schemes; parallel MDCI
   Dimitrios Manganas     : ROCIS; embedding schemes
   Dimitrios Pantazis     : SARC Basis sets
   Taras Petrenko         : DFT Hessian,TD-DFT gradient, ASA, ECA, R-Raman, ABS, FL, XAS/XES, NRVS
   Peter Pinski           : DLPNO-MP2, DLPNO-MP2 Gradient
   Christoph Reimann      : Effective Core Potentials
   Marius Retegan         : Local ZFS, SOC
   Christoph Riplinger    : Optimizer, TS searches, QM/MM, DLPNO-CCSD(T), (RO)-DLPNO pert. Triples
   Tobias Risthaus        : Range-separated hybrids, TD-DFT gradient, RPA, STAB
   Michael Roemelt        : Restricted open shell CIS
   Masaaki Saitow         : Open-shell DLPNO
   Barbara Sandhoefer     : DKH picture change effects
   Avijit Sen             : IP-ROCIS
   Kantharuban Sivalingam : CASSCF convergence, NEVPT2, FIC-MRCI
   Bernardo de Souza      : ESD, SOC TD-DFT
   Georgi Stoychev        : AutoAux, RI-MP2 NMR
   Willem Van den Heuvel  : Paramagnetic NMR
   Boris Wezisla          : Elementary symmetry handling
   Frank Wennmohs         : Technical directorship


 We gratefully acknowledge several colleagues who have allowed us to
 interface, adapt or use parts of their codes:
   Stefan Grimme, W. Hujo, H. Kruse,             : VdW corrections, initial TS optimization,
                  C. Bannwarth                     DFT functionals, gCP, sTDA/sTD-DF
   Ed Valeev                                     : LibInt (2-el integral package), F12 methods
   Garnet Chan, S. Sharma, J. Yang, R. Olivares  : DMRG
   Ulf Ekstrom                                   : XCFun DFT Library
   Mihaly Kallay                                 : mrcc  (arbitrary order and MRCC methods)
   Andreas Klamt, Michael Diedenhofen            : otool_cosmo (COSMO solvation model)
   Jiri Pittner, Ondrej Demel                    : Mk-CCSD
   Frank Weinhold                                : gennbo (NPA and NBO analysis)
   Christopher J. Cramer and Donald G. Truhlar   : smd solvation model
   Lars Goerigk                                  : TD-DFT with DH, B97 family of functionals
   V. Asgeirsson, H. Jonsson                     : NEB implementation
   FAccTs GmbH                                   : IRC, NEB, NEB-TS, Multilevel


 Your calculation uses the libint2 library for the computation of 2-el integrals
 For citations please refer to: http://libint.valeyev.net

 This ORCA versions uses:
   CBLAS   interface :  Fast vector & matrix operations
   LAPACKE interface :  Fast linear algebra routines
   SCALAPACK package :  Parallel linear algebra routines


----- Orbital basis set information -----
Your calculation utilizes the basis: def2-SVP
   F. Weigend and R. Ahlrichs, Phys. Chem. Chem. Phys. 7, 3297 (2005).

----- AuxC basis set information -----
Your calculation utilizes the auxiliary basis: def2-SVP/C
  H-La, Hf-Rn : A. Hellweg, C. Hattig, S. Hofener and W. Klopper, Theor. Chem. Acc. 117, 587 (2007).
        Ce-Lu : J. Chmela and M. E. Harding, Mol. Phys. (2018).

================================================================================
                                        WARNINGS
                       Please study these warnings very carefully!
================================================================================


WARNING: MDCI localization with Augmented Hessian Foster-Boys
  ===> : Switching off randomization!

WARNING: Post HF methods need fully converged wavefunctions
  ===> : Setting SCFConvForced true
         You can overwrite this default with %scf ConvForced false 


INFO   : the flag for use of LIBINT has been found!

================================================================================
                                       INPUT FILE
================================================================================
NAME = input.in
|  1> !rHF dlpno-ccsd(t) def2-svp def2-svp/c  
|  2> ! NRSCF # using Newton–Raphson SCF algorithm 
|  3> !sp 
|  4> 
|  5> %maxcore 3687
|  6> %pal # job parallelization settings
|  7> nprocs 40
|  8> end
|  9> %scf # recommended SCF settings 
| 10> NRMaxIt 400
| 11> NRStart 0.00005
| 12> MaxIter 500
| 13> end
| 14> 
| 15> 
| 16> * xyz 0 1
| 17> C      -0.36862686   -0.00871354    0.04292587
| 18> O       0.98182901   -0.04902010    0.46594709
| 19> H      -0.57257378    0.95163086   -0.43693396
| 20> H      -0.55632373   -0.82564527   -0.65815446
| 21> H      -1.01755588   -0.12311763    0.91437513
| 22> H       1.10435907    0.67758465    1.10037299
| 23> *
| 24> 
| 25>                          ****END OF INPUT****
================================================================================

                       ****************************
                       * Single Point Calculation *
                       ****************************

---------------------------------
CARTESIAN COORDINATES (ANGSTROEM)
---------------------------------
  C     -0.368627   -0.008714    0.042926
  O      0.981829   -0.049020    0.465947
  H     -0.572574    0.951631   -0.436934
  H     -0.556324   -0.825645   -0.658154
  H     -1.017556   -0.123118    0.914375
  H      1.104359    0.677585    1.100373

----------------------------
CARTESIAN COORDINATES (A.U.)
----------------------------
  NO LB      ZA    FRAG     MASS         X           Y           Z
   0 C     6.0000    0    12.011   -0.696604   -0.016466    0.081118
   1 O     8.0000    0    15.999    1.855388   -0.092635    0.880512
   2 H     1.0000    0     1.008   -1.082008    1.798322   -0.825686
   3 H     1.0000    0     1.008   -1.051299   -1.560243   -1.243732
   4 H     1.0000    0     1.008   -1.922902   -0.232659    1.727919
   5 H     1.0000    0     1.008    2.086936    1.280449    2.079404

--------------------------------
INTERNAL COORDINATES (ANGSTROEM)
--------------------------------
 C      0   0   0     0.000000000000     0.00000000     0.00000000
 O      1   0   0     1.415733953879     0.00000000     0.00000000
 H      1   2   0     1.092758513687   109.52761085     0.00000000
 H      1   2   3     1.092758525751   109.52761469   120.80820503
 H      1   2   3     1.092529625027   108.98161849   240.40410079
 H      2   1   3     0.972349886058   107.09074725    60.40405757

---------------------------
INTERNAL COORDINATES (A.U.)
---------------------------
 C      0   0   0     0.000000000000     0.00000000     0.00000000
 O      1   0   0     2.675349451325     0.00000000     0.00000000
 H      1   2   0     2.065014321380   109.52761085     0.00000000
 H      1   2   3     2.065014344177   109.52761469   120.80820503
 H      1   2   3     2.064581784497   108.98161849   240.40410079
 H      2   1   3     1.837474990999   107.09074725    60.40405757

---------------------
BASIS SET INFORMATION
---------------------
There are 3 groups of distinct atoms

 Group   1 Type C   : 7s4p1d contracted to 3s2p1d pattern {511/31/1}
 Group   2 Type O   : 7s4p1d contracted to 3s2p1d pattern {511/31/1}
 Group   3 Type H   : 4s1p contracted to 2s1p pattern {31/1}

Atom   0C    basis set group =>   1
Atom   1O    basis set group =>   2
Atom   2H    basis set group =>   3
Atom   3H    basis set group =>   3
Atom   4H    basis set group =>   3
Atom   5H    basis set group =>   3
-------------------------------
AUXILIARY BASIS SET INFORMATION
-------------------------------
There are 3 groups of distinct atoms

 Group   1 Type C   : 8s6p5d3f contracted to 6s5p4d1f pattern {311111/21111/2111/3}
 Group   2 Type O   : 8s6p5d3f contracted to 6s5p4d1f pattern {311111/21111/2111/3}
 Group   3 Type H   : 4s3p2d contracted to 3s2p1d pattern {211/21/2}

Atom   0C    basis set group =>   1
Atom   1O    basis set group =>   2
Atom   2H    basis set group =>   3
Atom   3H    basis set group =>   3
Atom   4H    basis set group =>   3
Atom   5H    basis set group =>   3


           ************************************************************
           *        Program running with 40 parallel MPI-processes    *
           *              working on a common directory               *
           ************************************************************
------------------------------------------------------------------------------
                           ORCA GTO INTEGRAL CALCULATION
------------------------------------------------------------------------------

                         BASIS SET STATISTICS AND STARTUP INFO

 # of primitive gaussian shells          ...   44
 # of primitive gaussian functions       ...   76
 # of contracted shells                  ...   24
 # of contracted basis functions         ...   48
 Highest angular momentum                ...    2
 Maximum contraction depth               ...    5
 Integral package used                   ... LIBINT
 Integral threshhold            Thresh   ...  1.000e-10
 Primitive cut-off              TCut     ...  1.000e-11


------------------------------ INTEGRAL EVALUATION ----------------------------


 * One electron integrals 
 Pre-screening matrix                    ... done
 Shell pair data                         ... done (   0.000 sec)



           ************************************************************
           *        Program running with 40 parallel MPI-processes    *
           *              working on a common directory               *
           ************************************************************
-------------------------------------------------------------------------------
                                 ORCA SCF
-------------------------------------------------------------------------------

------------
SCF SETTINGS
------------
Hamiltonian:
 Ab initio Hamiltonian  Method          .... Hartree-Fock(GTOs)


General Settings:
 Integral files         IntName         .... input
 Hartree-Fock type      HFTyp           .... RHF
 Total Charge           Charge          ....    0
 Multiplicity           Mult            ....    1
 Number of Electrons    NEL             ....   18
 Basis Dimension        Dim             ....   48
 Nuclear Repulsion      ENuc            ....     40.3687355128 Eh

Convergence Acceleration:
 DIIS                   CNVDIIS         .... on
   Start iteration      DIISMaxIt       ....    12
   Startup error        DIISStart       ....  0.200000
   # of expansion vecs  DIISMaxEq       ....     5
   Bias factor          DIISBfac        ....   1.050
   Max. coefficient     DIISMaxC        ....  10.000
 Newton-Raphson         CNVNR           .... on
   Start iteration      NRMaxIt         ....   400
   Startup grad/error   NRStart         ....  0.000050
 SOSCF                  CNVSOSCF        .... off
 Level Shifting         CNVShift        .... on
   Level shift para.    LevelShift      ....    0.2500
   Turn off err/grad.   ShiftErr        ....    0.0010
 Zerner damping         CNVZerner       .... off
 Static damping         CNVDamp         .... on
   Fraction old density DampFac         ....    0.7000
   Max. Damping (<1)    DampMax         ....    0.9800
   Min. Damping (>=0)   DampMin         ....    0.0000
   Turn off err/grad.   DampErr         ....    0.1000
 Fernandez-Rico         CNVRico         .... off

SCF Procedure:
 Maximum # iterations   MaxIter         ....   500
 SCF integral mode      SCFMode         .... Direct
   Integral package                     .... LIBINT
 Reset frequency        DirectResetFreq ....    20
 Integral Threshold     Thresh          ....  1.000e-10 Eh
 Primitive CutOff       TCut            ....  1.000e-11 Eh

Convergence Tolerance:
 Convergence Check Mode ConvCheckMode   .... Total+1el-Energy
 Convergence forced     ConvForced      .... 1
 Energy Change          TolE            ....  1.000e-06 Eh
 1-El. energy change                    ....  1.000e-03 Eh
 Orbital Gradient       TolG            ....  5.000e-05
 Orbital Rotation angle TolX            ....  5.000e-05
 DIIS Error             TolErr          ....  1.000e-06


Diagonalization of the overlap matrix:
Smallest eigenvalue                        ... 1.137e-02
Time for diagonalization                   ...    0.002 sec
Threshold for overlap eigenvalues          ... 1.000e-08
Number of eigenvalues below threshold      ... 0
Time for construction of square roots      ...    0.030 sec
Total time needed                          ...    0.032 sec

-------------------
DFT GRID GENERATION
-------------------

General Integration Accuracy     IntAcc      ...  4.340
Radial Grid Type                 RadialGrid  ... Gauss-Chebyshev
Angular Grid (max. acc.)         AngularGrid ... Lebedev-110
Angular grid pruning method      GridPruning ... 3 (G Style)
Weight generation scheme         WeightScheme... Becke
Basis function cutoff            BFCut       ...    1.0000e-10
Integration weight cutoff        WCut        ...    1.0000e-14
Grids for H and He will be reduced by one unit

# of grid points (after initial pruning)     ...   6548 (   0.0 sec)
# of grid points (after weights+screening)   ...   6390 (   0.0 sec)
nearest neighbour list constructed           ...    0.0 sec
Grid point re-assignment to atoms done       ...    0.0 sec
Grid point division into batches done        ...    0.0 sec
Reduced shell lists constructed in    0.0 sec

Total number of grid points                  ...     6390
Total number of batches                      ...      103
Average number of points per batch           ...       62
Average number of grid points per atom       ...     1065
Average number of shells per batch           ...    17.75 (73.96%)
Average number of basis functions per batch  ...    35.75 (74.48%)
Average number of large shells per batch     ...    17.25 (97.18%)
Average number of large basis fcns per batch ...    35.25 (98.60%)
Maximum spatial batch extension              ...   1.79,  2.09,  1.99 au
Average spatial batch extension              ...   0.05,  0.05,  0.06 au

Time for grid setup =    0.085 sec

------------------------------
INITIAL GUESS: MODEL POTENTIAL
------------------------------
Loading Hartree-Fock densities                     ... done
Calculating cut-offs                               ... done
Setting up the integral package                    ... done
Initializing the effective Hamiltonian             ... done
Starting the Coulomb interaction                   ... done (   0.0 sec)
Reading the grid                                   ... done
Mapping shells                                     ... done
Starting the XC term evaluation                    ... done (   0.0 sec)
Transforming the Hamiltonian                       ... done (   0.0 sec)
Diagonalizing the Hamiltonian                      ... done (   0.0 sec)
Back transforming the eigenvectors                 ... done (   0.0 sec)
Now organizing SCF variables                       ... done
                      ------------------
                      INITIAL GUESS DONE (   0.2 sec)
                      ------------------
--------------
SCF ITERATIONS
--------------
ITER       Energy         Delta-E        Max-DP      RMS-DP      [F,P]     Damp
               ***  Starting incremental Fock matrix formation  ***
  0   -114.8497071784   0.000000000000 0.05468047  0.00338003  0.2402919 0.7000
  1   -114.8870097574  -0.037302578988 0.03808979  0.00243091  0.1448962 0.7000
                               ***Turning on DIIS***
  2   -114.9087715648  -0.021761807365 0.07330627  0.00492944  0.0793498 0.0000
  3   -114.7693577091   0.139413855658 0.03029894  0.00168191  0.0429324 0.0000
  4   -114.9557000495  -0.186342340392 0.00623032  0.00035882  0.0054209 0.0000
  5   -114.9512548952   0.004445154267 0.00169159  0.00014188  0.0017019 0.0000
  6   -114.9536464353  -0.002391540055 0.00082150  0.00007390  0.0007767 0.0000
  7   -114.9529052839   0.000741151407 0.00018377  0.00001307  0.0001188 0.0000
                      *** Initiating the Newton-Raphson procedure ***
                           *** Shutting down DIIS ***
                      *** Removing any level shift *** 
ITER      Energy       Delta-E        Grad      Rot      Max-DP    RMS-DP
  8   -114.95269994   0.0002053389  0.000023  0.000000  0.000062  0.000003
                   <<< The NR Solver signals convergence >>>
              ***Rediagonalizing the Fockian in SOSCF/NRSCF***

               *****************************************************
               *                     SUCCESS                       *
               *           SCF CONVERGED AFTER   9 CYCLES          *
               *****************************************************


----------------
TOTAL SCF ENERGY
----------------

Total Energy       :         -114.95264774 Eh           -3128.02057 eV

Components:
Nuclear Repulsion  :           40.36873551 Eh            1098.48914 eV
Electronic Energy  :         -155.32138325 Eh           -4226.50971 eV
One Electron Energy:         -236.85229747 Eh           -6445.07868 eV
Two Electron Energy:           81.53091422 Eh            2218.56897 eV

Virial components:
Potential Energy   :         -229.46308495 Eh           -6244.00798 eV
Kinetic Energy     :          114.51043721 Eh            3115.98741 eV
Virial Ratio       :            2.00386175


---------------
SCF CONVERGENCE
---------------

  Last Energy change         ...    2.0534e-04  Tolerance :   1.0000e-06
  Last MAX-Density change    ...    6.1758e-05  Tolerance :   1.0000e-05
  Last RMS-Density change    ...    3.4040e-06  Tolerance :   1.0000e-06
  Last Orbital Gradient      ...    1.1260e-05  Tolerance :   5.0000e-05
  Last Orbital Rotation      ...    0.0000e+00  Tolerance :   5.0000e-05

             **** THE GBW FILE WAS UPDATED (input.gbw) ****
             **** DENSITY FILE WAS UPDATED (input.scfp.tmp) ****
             **** ENERGY FILE WAS UPDATED (input.en.tmp) ****
----------------
ORBITAL ENERGIES
----------------

  NO   OCC          E(Eh)            E(eV) 
   0   2.0000     -20.541596      -558.9652 
   1   2.0000     -11.276217      -306.8415 
   2   2.0000      -1.330387       -36.2017 
   3   2.0000      -0.910055       -24.7639 
   4   2.0000      -0.681872       -18.5547 
   5   2.0000      -0.620670       -16.8893 
   6   2.0000      -0.593197       -16.1417 
   7   2.0000      -0.497345       -13.5335 
   8   2.0000      -0.443895       -12.0790 
   9   0.0000       0.175907         4.7867 
  10   0.0000       0.221702         6.0328 
  11   0.0000       0.264114         7.1869 
  12   0.0000       0.268766         7.3135 
  13   0.0000       0.358763         9.7624 
  14   0.0000       0.640961        17.4414 
  15   0.0000       0.645049        17.5527 
  16   0.0000       0.711958        19.3734 
  17   0.0000       0.823956        22.4210 
  18   0.0000       0.860974        23.4283 
  19   0.0000       0.898311        24.4443 
  20   0.0000       0.925601        25.1869 
  21   0.0000       0.942722        25.6528 
  22   0.0000       1.209575        32.9142 
  23   0.0000       1.224188        33.3118 
  24   0.0000       1.283141        34.9160 
  25   0.0000       1.487910        40.4881 
  26   0.0000       1.564253        42.5655 
  27   0.0000       1.720485        46.8168 
  28   0.0000       1.733308        47.1657 
  29   0.0000       1.790882        48.7324 
  30   0.0000       1.833549        49.8934 
  31   0.0000       1.989950        54.1493 
  32   0.0000       2.048992        55.7559 
  33   0.0000       2.099449        57.1289 
  34   0.0000       2.197301        59.7916 
  35   0.0000       2.290211        62.3198 
  36   0.0000       2.490110        67.7593 
  37   0.0000       2.537362        69.0451 
  38   0.0000       2.645622        71.9910 
  39   0.0000       2.715671        73.8972 
  40   0.0000       3.024696        82.3062 
  41   0.0000       3.178297        86.4858 
  42   0.0000       3.187288        86.7305 
  43   0.0000       3.316256        90.2399 
  44   0.0000       3.434189        93.4490 
  45   0.0000       3.540363        96.3382 
  46   0.0000       3.703877       100.7876 
  47   0.0000       4.158419       113.1563 

                    ********************************
                    * MULLIKEN POPULATION ANALYSIS *
                    ********************************

-----------------------
MULLIKEN ATOMIC CHARGES
-----------------------
   0 C :    0.218443
   1 O :   -0.472591
   2 H :    0.012662
   3 H :    0.037435
   4 H :    0.011274
   5 H :    0.192777
Sum of atomic charges:    0.0000000

--------------------------------
MULLIKEN REDUCED ORBITAL CHARGES
--------------------------------
  0 C s       :     3.015699  s :     3.015699
      pz      :     0.984683  p :     2.699248
      px      :     0.696282
      py      :     1.018284
      dz2     :     0.006543  d :     0.066610
      dxz     :     0.019431
      dyz     :     0.010849
      dx2y2   :     0.020740
      dxy     :     0.009046
  1 O s       :     3.763621  s :     3.763621
      pz      :     1.633032  p :     4.694411
      px      :     1.452257
      py      :     1.609122
      dz2     :     0.001587  d :     0.014559
      dxz     :     0.001760
      dyz     :     0.003741
      dx2y2   :     0.005773
      dxy     :     0.001698
  2 H s       :     0.962900  s :     0.962900
      pz      :     0.006849  p :     0.024438
      px      :     0.002592
      py      :     0.014996
  3 H s       :     0.937841  s :     0.937841
      pz      :     0.010131  p :     0.024724
      px      :     0.002183
      py      :     0.012410
  4 H s       :     0.964285  s :     0.964285
      pz      :     0.012860  p :     0.024441
      px      :     0.007192
      py      :     0.004390
  5 H s       :     0.737497  s :     0.737497
      pz      :     0.027192  p :     0.069726
      px      :     0.013405
      py      :     0.029129


                     *******************************
                     * LOEWDIN POPULATION ANALYSIS *
                     *******************************

----------------------
LOEWDIN ATOMIC CHARGES
----------------------
   0 C :    0.118468
   1 O :   -0.213578
   2 H :   -0.001892
   3 H :    0.015218
   4 H :   -0.002114
   5 H :    0.083898

-------------------------------
LOEWDIN REDUCED ORBITAL CHARGES
-------------------------------
  0 C s       :     2.834542  s :     2.834542
      pz      :     1.036181  p :     2.908123
      px      :     0.809454
      py      :     1.062488
      dz2     :     0.012774  d :     0.138866
      dxz     :     0.040510
      dyz     :     0.024583
      dx2y2   :     0.042972
      dxy     :     0.018026
  1 O s       :     3.458033  s :     3.458033
      pz      :     1.634964  p :     4.730830
      px      :     1.464672
      py      :     1.631194
      dz2     :     0.002159  d :     0.024715
      dxz     :     0.003143
      dyz     :     0.007553
      dx2y2   :     0.009399
      dxy     :     0.002461
  2 H s       :     0.938386  s :     0.938386
      pz      :     0.018283  p :     0.063505
      px      :     0.009549
      py      :     0.035673
  3 H s       :     0.922074  s :     0.922074
      pz      :     0.024709  p :     0.062708
      px      :     0.008113
      py      :     0.029885
  4 H s       :     0.938630  s :     0.938630
      pz      :     0.030753  p :     0.063484
      px      :     0.020485
      py      :     0.012247
  5 H s       :     0.736820  s :     0.736820
      pz      :     0.068507  p :     0.179283
      px      :     0.035108
      py      :     0.075668


                      *****************************
                      * MAYER POPULATION ANALYSIS *
                      *****************************

  NA   - Mulliken gross atomic population
  ZA   - Total nuclear charge
  QA   - Mulliken gross atomic charge
  VA   - Mayer's total valence
  BVA  - Mayer's bonded valence
  FA   - Mayer's free valence

  ATOM       NA         ZA         QA         VA         BVA        FA
  0 C      5.7816     6.0000     0.2184     3.8932     3.8932     0.0000
  1 O      8.4726     8.0000    -0.4726     1.8993     1.8993     0.0000
  2 H      0.9873     1.0000     0.0127     0.9757     0.9757     0.0000
  3 H      0.9626     1.0000     0.0374     0.9832     0.9832     0.0000
  4 H      0.9887     1.0000     0.0113     0.9760     0.9760     0.0000
  5 H      0.8072     1.0000     0.1928     0.9896     0.9896     0.0000

  Mayer bond orders larger than 0.1
B(  0-C ,  1-O ) :   0.9164 B(  0-C ,  2-H ) :   0.9895 B(  0-C ,  3-H ) :   0.9906 
B(  0-C ,  4-H ) :   0.9903 B(  1-O ,  5-H ) :   0.9776 

-------
TIMINGS
-------

Total SCF time: 0 days 0 hours 0 min 3 sec 

Total time                  ....       3.364 sec
Sum of individual times     ....       2.837 sec  ( 84.3%)

Fock matrix formation       ....       2.420 sec  ( 71.9%)
Diagonalization             ....       0.022 sec  (  0.6%)
Density matrix formation    ....       0.002 sec  (  0.0%)
Population analysis         ....       0.038 sec  (  1.1%)
Initial guess               ....       0.150 sec  (  4.5%)
Orbital Transformation      ....       0.000 sec  (  0.0%)
Orbital Orthonormalization  ....       0.000 sec  (  0.0%)
DIIS solution               ....       0.121 sec  (  3.6%)
NR solution                 ....       0.000 sec  (  0.0%)


           ************************************************************
           *        Program running with 40 parallel MPI-processes    *
           *              working on a common directory               *
           ************************************************************


------------------------------------------------------------------------------- 
                              ORCA-MATRIX DRIVEN CI                            
------------------------------------------------------------------------------- 


Wavefunction type
-----------------
Correlation treatment                      ...      CCSD     
Single excitations                         ... ON
Orbital optimization                       ... OFF
Calculation of Z vector                    ... OFF
Calculation of Brueckner orbitals          ... OFF
Perturbative triple excitations            ... ON
Calculation of F12 correction              ... OFF
Frozen core treatment                      ... chemical core (4 el)
Reference Wavefunction                     ... RHF
  Internal Orbitals:     2 ...    8 (  7 MO's/ 14 electrons)
  Virtual  Orbitals:     9 ...   47 ( 39 MO's              )
Number of AO's                             ...     48
Number of electrons                        ...     18
Number of correlated electrons             ...     14

Algorithmic settings
--------------------
Integral transformation                    ... All integrals via the RI transformation
K(C) Formation                             ... RI-DLPNO
   PNO-Integral Storage                    ... ON DISK
   PNO occupation number cut-off           ... 3.330e-07
   Singles PNO occupation number cut-off   ... 9.990e-09
   PNO Mulliken prescreening cut-off       ... 1.000e-03
   Domain cut-off (Mulliken population)    ... 1.000e-03
   PNO Normalization                       ...    1
Maximum number of iterations               ...        50
Convergence tolerance (max. residuum)      ... 2.500e-05
Level shift for amplitude update           ... 2.000e-01
Maximum number of DIIS vectors             ...         7
DIIS turned on at iteration                ...         0
Damping before turning on DIIS             ...     0.500
Damping after turning on DIIS              ...     0.000
Pair specific amplitude update             ... OFF
Natural orbital iterations                 ... OFF
Perturbative natural orbital generation    ... OFF
Printlevel                                 ... 2

Singles Fock matrix elements calculated using PNOs.

Memory handling:
----------------
Maximum memory for working arrays          ...   3687 MB
Data storage in matrix containers          ... UNCOMPRESSED
Data type for integral storage             ... DOUBLE
In-Core Storage of quantities:
   Amplitudes+Sigma Vector      ... NO
   J+K operators                ... NO
   DIIS vectors                 ... NO
   3-external integrals         ... NO
   4-external integrals         ... NO

Localization treatment:
-----------------------
Localization option                        ...    6
Localization threshhold                    ... -1.0e+00
Using relative localization threshhold     ... 1.0e-08
Neglect threshold for strong pairs         ... 1.000e-04 Eh
Prescreening threshold for very weak pairs ... 1.000e-06 Eh

Initializing the integral package          ... done
Localizing the valence orbitals
------------------------------------------------------------------------------
                           ORCA ORBITAL LOCALIZATION
------------------------------------------------------------------------------

Input orbitals are from                  ... input.proc0.gbw
Output orbitals are to                   ... input.proc0.loc
Max. number of iterations                ... 128
Localizations seeded randomly            ... off
Convergence tolerance                    ... 1.000e-06
Using relative localization threshhold   ... 1.000e-08
Treshold for strong local MOs            ... 9.500e-01
Treshold for bond MOs                    ... 8.500e-01
Operator                                 ... 0
Orbital range for localization           ... 2 to 8
Localization criterion                   ... FOSTER-BOYS (AUGMENTED HESSIAN)
Doing the dipole integrals     ... o.k.
Initial value of the localization sum :    19.960728
ITERATION   0 : L=   27.2572825726 DL=  7.30e+00 (AVERGE_DL)=    0.5894531212 
ITERATION   1 : L=   27.4871167263 DL=  2.30e-01 (AVERGE_DL)=    0.1046158856 
ITERATION   2 : L=   27.4973930104 DL=  1.03e-02 (AVERGE_DL)=    0.0221211858 
ITERATION   3 : L=   27.4981491680 DL=  7.56e-04 (AVERGE_DL)=    0.0060006253 
ITERATION   4 : L=   27.4982227388 DL=  7.36e-05 (AVERGE_DL)=    0.0018717299 
ITERATION   5 : L=   27.4982291462 DL=  6.41e-06 (AVERGE_DL)=    0.0005523702 
ITERATION   6 : L=   27.4982296760 DL=  5.30e-07 (AVERGE_DL)=    0.0001588355 
LOCALIZATION SUM CONVERGED

------------------------------------------------------
AUGMENTED HESSIAN OPTIMIZATION OF FOSTER-BOYS ORBITALS
------------------------------------------------------

Spin operator:           0
Orbital window:          2 to 8
Number of iterations:    128
Gradient tolerance:      1.000e-06
Number of pairs:         21
Davidson threshold:      2000
Diagonalization method:  LAPACK
Iter:    0   L: 27.4982296760   Grad. norm: 4.307385e-04
   *** Likely close to a maximum now. ***
       Augmented Hessian eigenvalues:  9.06e-08 -1.44e+00 -3.77e+00 -5.44e+00 ... 
Iter:    1   L: 27.4982297213   Grad. norm: 4.677677e-08
LOCALIZATION HAS CONVERGED.

Eigenvalues of the Hessian:
  0 -1.439e+00
  1 -3.773e+00
  2 -5.436e+00
  3 -5.723e+00
  4 -7.787e+00
  5 -1.066e+01
  6 -1.802e+01
  7 -2.139e+01
  8 -2.161e+01
  9 -2.446e+01
    ...


------------------------------------------------------------------------------- 
                    LOCALIZED MOLECULAR ORBITAL COMPOSITIONS                   
------------------------------------------------------------------------------- 

The Mulliken populations for each LMO on each atom are computed
The LMO`s will be ordered according to atom index and type
  (A) Strongly localized MO`s have populations of >=0.950 on one atom
  (B) Two center bond orbitals have populations of >=0.850 on two atoms
  (C) Other MO`s are considered to be `delocalized`

FOUND  -   2 strongly local MO`s
       -   5 two center bond MO`s
       -   0 significantly delocalized MO`s

Rather strongly localized orbitals:
MO   3:   1O  -   0.998306
MO   2:   1O  -   0.998508
Bond-like localized orbitals:
MO   8:   5H  -   0.411545  and   1O  -   0.592593
MO   7:   4H  -   0.512500  and   0C  -   0.511940
MO   6:   3H  -   0.494091  and   0C  -   0.522719
MO   5:   2H  -   0.511753  and   0C  -   0.512254
MO   4:   1O  -   0.672731  and   0C  -   0.337339
Localized MO's were stored in: input.proc0.loc

Localizing the core orbitals
------------------------------------------------------------------------------
                           ORCA ORBITAL LOCALIZATION
------------------------------------------------------------------------------

Input orbitals are from                  ... input.proc0.loc
Output orbitals are to                   ... input.proc0.loc
Max. number of iterations                ... 128
Localizations seeded randomly            ... off
Convergence tolerance                    ... 1.000e-06
Using relative localization threshhold   ... 1.000e-08
Treshold for strong local MOs            ... 9.500e-01
Treshold for bond MOs                    ... 8.500e-01
Operator                                 ... 0
Orbital range for localization           ... 0 to 1
Localization criterion                   ... FOSTER-BOYS (AUGMENTED HESSIAN)
Doing the dipole integrals     ... o.k.
Initial value of the localization sum :     4.717698
ITERATION   0 : L=    4.7176981682 DL=  6.51e-09 (AVERGE_DL)=    0.0000806546 
LOCALIZATION SUM CONVERGED

------------------------------------------------------
AUGMENTED HESSIAN OPTIMIZATION OF FOSTER-BOYS ORBITALS
------------------------------------------------------

Spin operator:           0
Orbital window:          0 to 1
Number of iterations:    128
Gradient tolerance:      1.000e-06
Number of pairs:         1
Davidson threshold:      2000
Diagonalization method:  LAPACK
Iter:    0   L: 4.7176981682   Grad. norm: 3.422013e-18
   *** Likely close to a maximum now. ***
       Augmented Hessian eigenvalues:  4.09e-37 -2.86e+01
Iter:    1   L: 4.7176981682   Grad. norm: 1.694066e-21
LOCALIZATION HAS CONVERGED.

Eigenvalues of the Hessian:
  0 -2.862e+01


------------------------------------------------------------------------------- 
                    LOCALIZED MOLECULAR ORBITAL COMPOSITIONS                   
------------------------------------------------------------------------------- 

The Mulliken populations for each LMO on each atom are computed
The LMO`s will be ordered according to atom index and type
  (A) Strongly localized MO`s have populations of >=0.950 on one atom
  (B) Two center bond orbitals have populations of >=0.850 on two atoms
  (C) Other MO`s are considered to be `delocalized`

FOUND  -   2 strongly local MO`s
       -   0 two center bond MO`s
       -   0 significantly delocalized MO`s

Rather strongly localized orbitals:
MO   1:   1O  -   0.999542
MO   0:   0C  -   0.999449
Localized MO's were stored in: input.proc0.loc

Warning: internal orbitals are localized - no re-canonicalization of internal orbitals

--------------------------
CLOSED-SHELL FOCK OPERATOR
--------------------------

<ss|ss>:         5565 b           21 skpd (  0.4%)    0.000 s ( 0.000 ms/b)
<ss|sp>:        11760 b           43 skpd (  0.4%)    0.001 s ( 0.000 ms/b)
<ss|sd>:         2940 b           12 skpd (  0.4%)    0.006 s ( 0.002 ms/b)
<ss|pp>:         3780 b           16 skpd (  0.4%)    0.000 s ( 0.000 ms/b)
<ss|pd>:         1680 b           10 skpd (  0.6%)    0.008 s ( 0.005 ms/b)
<ss|dd>:          315 b            1 skpd (  0.3%)    0.000 s ( 0.001 ms/b)
<sp|sp>:         6328 b            0 skpd (  0.0%)    0.001 s ( 0.000 ms/b)
<sp|sd>:         3136 b            0 skpd (  0.0%)    0.000 s ( 0.000 ms/b)
<sp|pp>:         4032 b            3 skpd (  0.1%)    0.001 s ( 0.000 ms/b)
<sp|pd>:         1792 b            0 skpd (  0.0%)    0.000 s ( 0.000 ms/b)
<sp|dd>:          336 b            0 skpd (  0.0%)    0.000 s ( 0.001 ms/b)
<sd|sd>:          406 b            0 skpd (  0.0%)    0.000 s ( 0.001 ms/b)
<sd|pp>:         1008 b            0 skpd (  0.0%)    0.008 s ( 0.008 ms/b)
<sd|pd>:          448 b            0 skpd (  0.0%)    0.000 s ( 0.000 ms/b)
<sd|dd>:           84 b            0 skpd (  0.0%)    0.000 s ( 0.002 ms/b)
<pp|pp>:          666 b            1 skpd (  0.2%)    0.000 s ( 0.000 ms/b)
<pp|pd>:          576 b            0 skpd (  0.0%)    0.000 s ( 0.000 ms/b)
<pp|dd>:          108 b            0 skpd (  0.0%)    0.000 s ( 0.003 ms/b)
<pd|pd>:          136 b            0 skpd (  0.0%)    0.001 s ( 0.010 ms/b)
<pd|dd>:           48 b            0 skpd (  0.0%)    0.000 s ( 0.006 ms/b)
<dd|dd>:            6 b            0 skpd (  0.0%)    0.000 s ( 0.016 ms/b)
[file orca_mdci/mdci_def.cpp, line 3426, Process 16]: Error (ORCA_MDCI): Number of processes in parallel calculation exceeds number of pairs

[file orca_mdci/mdci_def.cpp, line 3426, Process 22]: Error (ORCA_MDCI): Number of processes in parallel calculation exceeds number of pairs

[file orca_mdci/mdci_def.cpp, line 3426, Process 32]: Error (ORCA_MDCI): Number of processes in parallel calculation exceeds number of pairs

[file orca_mdci/mdci_def.cpp, line 3426, Process 2]: Error (ORCA_MDCI): Number of processes in parallel calculation exceeds number of pairs

[file orca_mdci/mdci_def.cpp, line 3426, Process 3]: Error (ORCA_MDCI): Number of processes in parallel calculation exceeds number of pairs

[file orca_mdci/mdci_def.cpp, line 3426, Process 4]: Error (ORCA_MDCI): Number of processes in parallel calculation exceeds number of pairs

[file orca_mdci/mdci_def.cpp, line 3426, Process 5]: Error (ORCA_MDCI): Number of processes in parallel calculation exceeds number of pairs

[file orca_mdci/mdci_def.cpp, line 3426, Process 6]: Error (ORCA_MDCI): Number of processes in parallel calculation exceeds number of pairs

[file orca_mdci/mdci_def.cpp, line 3426, Process 7]: Error (ORCA_MDCI): Number of processes in parallel calculation exceeds number of pairs

[file orca_mdci/mdci_def.cpp, line 3426, Process 8]: Error (ORCA_MDCI): Number of processes in parallel calculation exceeds number of pairs

[file orca_mdci/mdci_def.cpp, line 3426, Process 9]: Error (ORCA_MDCI): Number of processes in parallel calculation exceeds number of pairs

[file orca_mdci/mdci_def.cpp, line 3426, Process 10]: Error (ORCA_MDCI): Number of processes in parallel calculation exceeds number of pairs

[file orca_mdci/mdci_def.cpp, line 3426, Process 11]: Error (ORCA_MDCI): Number of processes in parallel calculation exceeds number of pairs

[file orca_mdci/mdci_def.cpp, line 3426, Process 12]: Error (ORCA_MDCI): Number of processes in parallel calculation exceeds number of pairs

[file orca_mdci/mdci_def.cpp, line 3426, Process 13]: Error (ORCA_MDCI): Number of processes in parallel calculation exceeds number of pairs

[file orca_mdci/mdci_def.cpp, line 3426, Process 14]: Error (ORCA_MDCI): Number of processes in parallel calculation exceeds number of pairs

[file orca_mdci/mdci_def.cpp, line 3426, Process 15]: Error (ORCA_MDCI): Number of processes in parallel calculation exceeds number of pairs

[file orca_mdci/mdci_def.cpp, line 3426, Process 17]: Error (ORCA_MDCI): Number of processes in parallel calculation exceeds number of pairs

[file orca_mdci/mdci_def.cpp, line 3426, Process 18]: Error (ORCA_MDCI): Number of processes in parallel calculation exceeds number of pairs

[file orca_mdci/mdci_def.cpp, line 3426, Process 19]: Error (ORCA_MDCI): Number of processes in parallel calculation exceeds number of pairs

[file orca_mdci/mdci_def.cpp, line 3426, Process 20]: Error (ORCA_MDCI): Number of processes in parallel calculation exceeds number of pairs

[file orca_mdci/mdci_def.cpp, line 3426, Process 21]: Error (ORCA_MDCI): Number of processes in parallel calculation exceeds number of pairs

[file orca_mdci/mdci_def.cpp, line 3426, Process 23]: Error (ORCA_MDCI): Number of processes in parallel calculation exceeds number of pairs

[file orca_mdci/mdci_def.cpp, line 3426, Process 24]: Error (ORCA_MDCI): Number of processes in parallel calculation exceeds number of pairs

[file orca_mdci/mdci_def.cpp, line 3426, Process 25]: Error (ORCA_MDCI): Number of processes in parallel calculation exceeds number of pairs

[file orca_mdci/mdci_def.cpp, line 3426, Process 26]: Error (ORCA_MDCI): Number of processes in parallel calculation exceeds number of pairs

[file orca_mdci/mdci_def.cpp, line 3426, Process 27]: Error (ORCA_MDCI): Number of processes in parallel calculation exceeds number of pairs

[file orca_mdci/mdci_def.cpp, line 3426, Process 28]: Error (ORCA_MDCI): Number of processes in parallel calculation exceeds number of pairs

[file orca_mdci/mdci_def.cpp, line 3426, Process 29]: Error (ORCA_MDCI): Number of processes in parallel calculation exceeds number of pairs

[file orca_mdci/mdci_def.cpp, line 3426, Process 30]: Error (ORCA_MDCI): Number of processes in parallel calculation exceeds number of pairs

[file orca_mdci/mdci_def.cpp, line 3426, Process 31]: Error (ORCA_MDCI): Number of processes in parallel calculation exceeds number of pairs

[file orca_mdci/mdci_def.cpp, line 3426, Process 33]: Error (ORCA_MDCI): Number of processes in parallel calculation exceeds number of pairs

[file orca_mdci/mdci_def.cpp, line 3426, Process 34]: Error (ORCA_MDCI): Number of processes in parallel calculation exceeds number of pairs

[file orca_mdci/mdci_def.cpp, line 3426, Process 35]: Error (ORCA_MDCI): Number of processes in parallel calculation exceeds number of pairs

[file orca_mdci/mdci_def.cpp, line 3426, Process 36]: Error (ORCA_MDCI): Number of processes in parallel calculation exceeds number of pairs

[file orca_mdci/mdci_def.cpp, line 3426, Process 37]: Error (ORCA_MDCI): Number of processes in parallel calculation exceeds number of pairs

[file orca_mdci/mdci_def.cpp, line 3426, Process 38]: Error (ORCA_MDCI): Number of processes in parallel calculation exceeds number of pairs

[file orca_mdci/mdci_def.cpp, line 3426, Process 39]: Error (ORCA_MDCI): Number of processes in parallel calculation exceeds number of pairs

[file orca_mdci/mdci_def.cpp, line 3426, Process 1]: Error (ORCA_MDCI): Number of processes in parallel calculation exceeds number of pairs

Time needed for Fock operator              ...            0.060 sec
Reference energy                           ...   -114.952647741
[file orca_mdci/mdci_def.cpp, line 3426, Process 0]: Error (ORCA_MDCI): Number of processes in parallel calculation exceeds number of pairs


ORCA finished by error termination in MDCI
Calling Command: mpirun -np 40  /gpfs/workspace/projects/mit_chemical_stability/orca/orca_4_1_2_linux_x86-64_openmpi313//orca_mdci_mpi input.mdciinp.tmp input 
[file orca_tools/qcmsg.cpp, line 458]: 
  .... aborting the run

