
                                 *****************
                                 * O   R   C   A *
                                 *****************

           --- An Ab Initio, DFT and Semiempirical electronic structure package ---

                  #######################################################
                  #                        -***-                        #
                  #          Department of theory and spectroscopy      #
                  #               Directorship: Frank Neese             #
                  #        Max Planck Institute fuer Kohlenforschung    #
                  #                Kaiser Wilhelm Platz 1               #
                  #                 D-45470 Muelheim/Ruhr               #
                  #                      Germany                        #
                  #                                                     #
                  #                  All rights reserved                #
                  #                        -***-                        #
                  #######################################################


                         Program Version 4.2.0 -  RELEASE  -


 With contributions from (in alphabetic order):
   Daniel Aravena         : Magnetic Suceptibility
   Michael Atanasov       : Ab Initio Ligand Field Theory (pilot matlab implementation)
   Alexander A. Auer      : GIAO ZORA, VPT2
   Ute Becker             : Parallelization
   Giovanni Bistoni       : ED, misc. LED, open-shell LED, HFLED
   Martin Brehm           : Molecular dynamics
   Dmytro Bykov           : SCF Hessian
   Vijay G. Chilkuri      : MRCI spin determinant printing, contributions to CSF-ICE
   Dipayan Datta          : RHF DLPNO-CCSD density
   Achintya Kumar Dutta   : EOM-CC, STEOM-CC
   Dmitry Ganyushin       : Spin-Orbit,Spin-Spin,Magnetic field MRCI
   Miquel Garcia          : C-PCM Hessian, Gaussian charge scheme
   Yang Guo               : DLPNO-NEVPT2, CIM, IAO-localization
   Andreas Hansen         : Spin unrestricted coupled pair/coupled cluster methods
   Benjamin Helmich-Paris : CASSCF linear response (MC-RPA)
   Lee Huntington         : MR-EOM, pCC
   Robert Izsak           : Overlap fitted RIJCOSX, COSX-SCS-MP3, EOM
   Christian Kollmar      : KDIIS, OOCD, Brueckner-CCSD(T), CCSD density
   Simone Kossmann        : Meta GGA functionals, TD-DFT gradient, OOMP2, MP2 Hessian
   Martin Krupicka        : AUTO-CI
   Lucas Lang             : DCDCAS
   Dagmar Lenk            : GEPOL surface, SMD
   Dimitrios Liakos       : Extrapolation schemes; Compound Job, initial MDCI parallelization
   Dimitrios Manganas     : Further ROCIS development; embedding schemes
   Dimitrios Pantazis     : SARC Basis sets
   Taras Petrenko         : DFT Hessian,TD-DFT gradient, ASA, ECA, R-Raman, ABS, FL, XAS/XES, NRVS
   Peter Pinski           : DLPNO-MP2, DLPNO-MP2 Gradient
   Christoph Reimann      : Effective Core Potentials
   Marius Retegan         : Local ZFS, SOC
   Christoph Riplinger    : Optimizer, TS searches, QM/MM, DLPNO-CCSD(T), (RO)-DLPNO pert. Triples
   Tobias Risthaus        : Range-separated hybrids, TD-DFT gradient, RPA, STAB
   Michael Roemelt        : Original ROCIS implementation
   Masaaki Saitow         : Open-shell DLPNO-CCSD energy and density
   Barbara Sandhoefer     : DKH picture change effects
   Avijit Sen             : IP-ROCIS
   Kantharuban Sivalingam : CASSCF convergence, NEVPT2, FIC-MRCI
   Bernardo de Souza      : ESD, SOC TD-DFT
   Georgi Stoychev        : AutoAux, RI-MP2 NMR
   Willem Van den Heuvel  : Paramagnetic NMR
   Boris Wezisla          : Elementary symmetry handling
   Frank Wennmohs         : Technical directorship


 We gratefully acknowledge several colleagues who have allowed us to
 interface, adapt or use parts of their codes:
   Stefan Grimme, W. Hujo, H. Kruse,             : VdW corrections, initial TS optimization,
                  C. Bannwarth                     DFT functionals, gCP, sTDA/sTD-DF
   Ed Valeev, F. Pavosevic, A. Kumar             : LibInt (2-el integral package), F12 methods
   Garnet Chan, S. Sharma, J. Yang, R. Olivares  : DMRG
   Ulf Ekstrom                                   : XCFun DFT Library
   Mihaly Kallay                                 : mrcc  (arbitrary order and MRCC methods)
   Andreas Klamt, Michael Diedenhofen            : otool_cosmo (COSMO solvation model)
   Jiri Pittner, Ondrej Demel                    : Mk-CCSD
   Frank Weinhold                                : gennbo (NPA and NBO analysis)
   Christopher J. Cramer and Donald G. Truhlar   : smd solvation model
   Lars Goerigk                                  : TD-DFT with DH, B97 family of functionals
   V. Asgeirsson, H. Jonsson                     : NEB implementation
   FAccTs GmbH                                   : IRC, NEB, NEB-TS, Multilevel, MM, QM/MM, CI optimization
   S Lehtola, MJT Oliveira, MAL Marques          : LibXC Library


 Your calculation uses the libint2 library for the computation of 2-el integrals
 For citations please refer to: http://libint.valeyev.net

 Your ORCA version has been built with support for libXC version: 4.2.3
 For citations please refer to: https://tddft.org/programs/libxc/

 This ORCA versions uses:
   CBLAS   interface :  Fast vector & matrix operations
   LAPACKE interface :  Fast linear algebra routines
   SCALAPACK package :  Parallel linear algebra routines


----- Orbital basis set information -----
Your calculation utilizes the basis: aug-cc-pVTZ 
    H, B-Ne : Obtained from the ccRepo (grant-hill.group.shef.ac.uk/ccrepo) Feb. 2017
              R. A. Kendall, T. H. Dunning, Jr., R. J. Harrison, J. Chem. Phys. 96, 6796 (1992)
         He : Obtained from the ccRepo (grant-hill.group.shef.ac.uk/ccrepo) Feb. 2017
              D. E. Woon, T. H. Dunning, Jr., J. Chem. Phys. 100, 2975 (1994)
  Li-Be, Na : Obtained from the ccRepo (grant-hill.group.shef.ac.uk/ccrepo) Feb. 2017
              B. P. Prascher, D. E. Woon, K. A. Peterson, T. H. Dunning, Jr., A. K. Wilson, Theor. Chem. Acc. 128, 69 (2011)
         Mg : Obtained from the Peterson Research Group Website (tyr0.chem.wsu.edu/~kipeters) Feb. 2017
              B. P. Prascher, D. E. Woon, K. A. Peterson, T. H. Dunning, Jr., A. K. Wilson, Theor. Chem. Acc. 128, 69 (2011)
      Al-Ar : Obtained from the ccRepo (grant-hill.group.shef.ac.uk/ccrepo) Feb. 2017
              D. E. Woon, T. H. Dunning, Jr., J. Chem. Phys. 98, 1358 (1993)
      Sc-Zn : Obtained from the ccRepo (grant-hill.group.shef.ac.uk/ccrepo) Feb. 2017
              N. B. Balabanov, K. A. Peterson, J. Chem. Phys. 123, 064107 (2005)
              N. B. Balabanov, K. A. Peterson, J. Chem. Phys. 125, 074110 (2006)
      Ga-Kr : Obtained from the ccRepo (grant-hill.group.shef.ac.uk/ccrepo) Feb. 2017
              A. K. Wilson, D. E. Woon, K. A. Peterson, T. H. Dunning, Jr., J. Chem. Phys. 110, 7667 (1999)
     Ag, Au : Obtained from the Peterson Research Group Website (tyr0.chem.wsu.edu/~kipeters) Feb. 2017
              K. A. Peterson, C. Puzzarini, Theor. Chem. Acc. 114, 283 (2005)

----- AuxC basis set information -----
Your calculation utilizes the auxiliary basis: aug-cc-pVTZ/C 
  H-He, B-F, Al-Ar, Ga-Kr : Obtained from the EMSL Basis Set Exchange (bse.pnl.gov) Feb. 2017
                            F. Weigend, A. Kohn, C. Hattig, J. Chem. Phys. 116, 3175 (2002)
                   Be, Mg : Obtained from the TURBOMOLE 7.0 basis set library
                            C. Haettig, Phys. Chem. Chem. Phys. 7, 59 (2005)
                       Ne : Obtained from the EMSL Basis Set Exchange (bse.pnl.gov) Feb. 2017
                            C. Haettig, Phys. Chem. Chem. Phys. 7, 59 (2005)
                            F. Weigend, A. Kohn, C. Hattig, J. Chem. Phys. 116, 3175 (2002)
                    Sc-Zn : Obtained from the EMSL Basis Set Exchange (bse.pnl.gov) Feb. 2017
                            J. G. Hill, J. A. Platts, J. Chem. Phys. 128, 044104 (2008)

----- CABS information -----
Your calculation utilizes the basis: cc-pVTZ-F12 


                    <<< The CABS basis set will be decontracted >>>

================================================================================
                                        WARNINGS
                       Please study these warnings very carefully!
================================================================================


WARNING: your system is open-shell and RHF/RKS was chosen
  ===> : WILL SWITCH to UHF/UKS


WARNING: PNO calculations with unrestricted orbitals require UNOs
  ===> : Switching on UNOs

WARNING: Unrestricted DLPNO-CCSD(T0/T) with FullLMP2-Guess requested.
         This is not yet implemented.
         When comparing energies between closed and open shell calculations:
  ===> : Be aware to set UseFullLMP2Guess to false for the corresponding closed shell calculations.
         Note that UseFullLMP2Guess is done by default only for TightPNO closed shell calculations.


WARNING: MDCI localization with Augmented Hessian Foster-Boys
  ===> : Switching off randomization!

WARNING: Post HF methods need fully converged wavefunctions
  ===> : Setting SCFConvForced true
         You can overwrite this default with %scf ConvForced false 


INFO   : the flag for use of LIBINT has been found!

================================================================================
                                       INPUT FILE
================================================================================
NAME = acene_14_ion.inp
|  1> !RHF DLPNO-CCSD(T)-F12 aug-cc-pVTZ aug-cc-pVTZ/C cc-pVTZ-F12-CABS TightSCF TightPNO
|  2> %maxcore 16000
|  3> %pal
|  4> nprocs 32
|  5> end
|  6> 
|  7> # RHF DLPNO-ccsd(T)
|  8> *xyz 1 2
|  9> H	-0.577612	0.924372	0.000000
| 10> C	0.000000	0.000000	0.000000
| 11> H	-0.545000	-0.943968	0.000000
| 12> C	1.360000	0.000000	0.000000
| 13> H	1.905000	0.943968	0.000000
| 14> C	2.123084	-1.221189	0.000000
| 15> H	1.578084	-2.165157	0.000000
| 16> C	3.483084	-1.221189	0.000000
| 17> H	4.028084	-0.277221	0.000000
| 18> C	4.246168	-2.442378	0.000000
| 19> H	3.701168	-3.386346	0.000000
| 20> C	5.606168	-2.442378	0.000000
| 21> H	6.151168	-1.498410	0.000000
| 22> C	6.369252	-3.663567	0.000000
| 23> H	5.824252	-4.607535	0.000000
| 24> C	7.729252	-3.663567	0.000000
| 25> H	8.274252	-2.719599	0.000000
| 26> C	8.492336	-4.884756	0.000000
| 27> H	7.947336	-5.828724	0.000000
| 28> C	9.852336	-4.884756	0.000000
| 29> H	10.397336	-3.940788	0.000000
| 30> C	10.615420	-6.105945	0.000000
| 31> H	10.070420	-7.049913	0.000000
| 32> C	11.975420	-6.105945	0.000000
| 33> H	12.520420	-5.161977	0.000000
| 34> C	12.738504	-7.327134	0.000000
| 35> H	12.193504	-8.271102	0.000000
| 36> C	14.098504	-7.327134	0.000000
| 37> H	14.643504	-6.383166	0.000000
| 38> C	14.861588	-8.548323	0.000000
| 39> H	14.316588	-9.492291	0.000000
| 40> C	16.221588	-8.548323	0.000000
| 41> H	16.766588	-7.604355	0.000000
| 42> C	16.984672	-9.769512	0.000000
| 43> H	16.439672	-10.713480	0.000000
| 44> C	18.344672	-9.769512	0.000000
| 45> H	18.889672	-8.825544	0.000000
| 46> C	19.107756	-10.990701	0.000000
| 47> H	18.562756	-11.934669	0.000000
| 48> C	20.467756	-10.990701	0.000000
| 49> H	21.012756	-10.046733	0.000000
| 50> C	21.230840	-12.211890	0.000000
| 51> H	20.685840	-13.155858	0.000000
| 52> C	22.590840	-12.211890	0.000000
| 53> H	23.135840	-11.267922	0.000000
| 54> C	23.353924	-13.433079	0.000000
| 55> H	22.808924	-14.377047	0.000000
| 56> C	24.713924	-13.433079	0.000000
| 57> H	25.258924	-12.489111	0.000000
| 58> C	25.477008	-14.654268	0.000000
| 59> H	24.932008	-15.598236	0.000000
| 60> C	26.837008	-14.654268	0.000000
| 61> H	27.382008	-13.710300	0.000000
| 62> C	27.600092	-15.875457	0.000000
| 63> H	27.055092	-16.819425	0.000000
| 64> C	28.960092	-15.875457	0.000000
| 65> H	29.505092	-14.931489	0.000000
| 66> H	29.537704	-16.799829	0.000000
| 67> *
| 68> 
| 69> 
| 70>                          ****END OF INPUT****
================================================================================

                       ****************************
                       * Single Point Calculation *
                       ****************************

---------------------------------
CARTESIAN COORDINATES (ANGSTROEM)
---------------------------------
  H     -0.577612    0.924372    0.000000
  C      0.000000    0.000000    0.000000
  H     -0.545000   -0.943968    0.000000
  C      1.360000    0.000000    0.000000
  H      1.905000    0.943968    0.000000
  C      2.123084   -1.221189    0.000000
  H      1.578084   -2.165157    0.000000
  C      3.483084   -1.221189    0.000000
  H      4.028084   -0.277221    0.000000
  C      4.246168   -2.442378    0.000000
  H      3.701168   -3.386346    0.000000
  C      5.606168   -2.442378    0.000000
  H      6.151168   -1.498410    0.000000
  C      6.369252   -3.663567    0.000000
  H      5.824252   -4.607535    0.000000
  C      7.729252   -3.663567    0.000000
  H      8.274252   -2.719599    0.000000
  C      8.492336   -4.884756    0.000000
  H      7.947336   -5.828724    0.000000
  C      9.852336   -4.884756    0.000000
  H     10.397336   -3.940788    0.000000
  C     10.615420   -6.105945    0.000000
  H     10.070420   -7.049913    0.000000
  C     11.975420   -6.105945    0.000000
  H     12.520420   -5.161977    0.000000
  C     12.738504   -7.327134    0.000000
  H     12.193504   -8.271102    0.000000
  C     14.098504   -7.327134    0.000000
  H     14.643504   -6.383166    0.000000
  C     14.861588   -8.548323    0.000000
  H     14.316588   -9.492291    0.000000
  C     16.221588   -8.548323    0.000000
  H     16.766588   -7.604355    0.000000
  C     16.984672   -9.769512    0.000000
  H     16.439672  -10.713480    0.000000
  C     18.344672   -9.769512    0.000000
  H     18.889672   -8.825544    0.000000
  C     19.107756  -10.990701    0.000000
  H     18.562756  -11.934669    0.000000
  C     20.467756  -10.990701    0.000000
  H     21.012756  -10.046733    0.000000
  C     21.230840  -12.211890    0.000000
  H     20.685840  -13.155858    0.000000
  C     22.590840  -12.211890    0.000000
  H     23.135840  -11.267922    0.000000
  C     23.353924  -13.433079    0.000000
  H     22.808924  -14.377047    0.000000
  C     24.713924  -13.433079    0.000000
  H     25.258924  -12.489111    0.000000
  C     25.477008  -14.654268    0.000000
  H     24.932008  -15.598236    0.000000
  C     26.837008  -14.654268    0.000000
  H     27.382008  -13.710300    0.000000
  C     27.600092  -15.875457    0.000000
  H     27.055092  -16.819425    0.000000
  C     28.960092  -15.875457    0.000000
  H     29.505092  -14.931489    0.000000
  H     29.537704  -16.799829    0.000000

----------------------------
CARTESIAN COORDINATES (A.U.)
----------------------------
  NO LB      ZA    FRAG     MASS         X           Y           Z
   0 H     1.0000    0     1.008   -1.091528    1.746810    0.000000
   1 C     6.0000    0    12.011    0.000000    0.000000    0.000000
   2 H     1.0000    0     1.008   -1.029901   -1.783841    0.000000
   3 C     6.0000    0    12.011    2.570028    0.000000    0.000000
   4 H     1.0000    0     1.008    3.599928    1.783841    0.000000
   5 C     6.0000    0    12.011    4.012047   -2.307713    0.000000
   6 H     1.0000    0     1.008    2.982147   -4.091554    0.000000
   7 C     6.0000    0    12.011    6.582075   -2.307713    0.000000
   8 H     1.0000    0     1.008    7.611976   -0.523872    0.000000
   9 C     6.0000    0    12.011    8.024095   -4.615426    0.000000
  10 H     1.0000    0     1.008    6.994194   -6.399267    0.000000
  11 C     6.0000    0    12.011   10.594122   -4.615426    0.000000
  12 H     1.0000    0     1.008   11.624023   -2.831585    0.000000
  13 C     6.0000    0    12.011   12.036142   -6.923138    0.000000
  14 H     1.0000    0     1.008   11.006241   -8.706979    0.000000
  15 C     6.0000    0    12.011   14.606170   -6.923138    0.000000
  16 H     1.0000    0     1.008   15.636070   -5.139297    0.000000
  17 C     6.0000    0    12.011   16.048189   -9.230851    0.000000
  18 H     1.0000    0     1.008   15.018289  -11.014692    0.000000
  19 C     6.0000    0    12.011   18.618217   -9.230851    0.000000
  20 H     1.0000    0     1.008   19.648118   -7.447010    0.000000
  21 C     6.0000    0    12.011   20.060237  -11.538564    0.000000
  22 H     1.0000    0     1.008   19.030336  -13.322405    0.000000
  23 C     6.0000    0    12.011   22.630264  -11.538564    0.000000
  24 H     1.0000    0     1.008   23.660165   -9.754723    0.000000
  25 C     6.0000    0    12.011   24.072284  -13.846277    0.000000
  26 H     1.0000    0     1.008   23.042383  -15.630118    0.000000
  27 C     6.0000    0    12.011   26.642311  -13.846277    0.000000
  28 H     1.0000    0     1.008   27.672212  -12.062436    0.000000
  29 C     6.0000    0    12.011   28.084331  -16.153989    0.000000
  30 H     1.0000    0     1.008   27.054430  -17.937830    0.000000
  31 C     6.0000    0    12.011   30.654359  -16.153989    0.000000
  32 H     1.0000    0     1.008   31.684260  -14.370148    0.000000
  33 C     6.0000    0    12.011   32.096379  -18.461702    0.000000
  34 H     1.0000    0     1.008   31.066478  -20.245543    0.000000
  35 C     6.0000    0    12.011   34.666406  -18.461702    0.000000
  36 H     1.0000    0     1.008   35.696307  -16.677861    0.000000
  37 C     6.0000    0    12.011   36.108426  -20.769415    0.000000
  38 H     1.0000    0     1.008   35.078525  -22.553256    0.000000
  39 C     6.0000    0    12.011   38.678453  -20.769415    0.000000
  40 H     1.0000    0     1.008   39.708354  -18.985574    0.000000
  41 C     6.0000    0    12.011   40.120473  -23.077128    0.000000
  42 H     1.0000    0     1.008   39.090572  -24.860969    0.000000
  43 C     6.0000    0    12.011   42.690501  -23.077128    0.000000
  44 H     1.0000    0     1.008   43.720401  -21.293287    0.000000
  45 C     6.0000    0    12.011   44.132521  -25.384840    0.000000
  46 H     1.0000    0     1.008   43.102620  -27.168681    0.000000
  47 C     6.0000    0    12.011   46.702548  -25.384840    0.000000
  48 H     1.0000    0     1.008   47.732449  -23.600999    0.000000
  49 C     6.0000    0    12.011   48.144568  -27.692553    0.000000
  50 H     1.0000    0     1.008   47.114667  -29.476394    0.000000
  51 C     6.0000    0    12.011   50.714595  -27.692553    0.000000
  52 H     1.0000    0     1.008   51.744496  -25.908712    0.000000
  53 C     6.0000    0    12.011   52.156615  -30.000266    0.000000
  54 H     1.0000    0     1.008   51.126714  -31.784107    0.000000
  55 C     6.0000    0    12.011   54.726643  -30.000266    0.000000
  56 H     1.0000    0     1.008   55.756543  -28.216425    0.000000
  57 H     1.0000    0     1.008   55.818171  -31.747076    0.000000

--------------------------------
INTERNAL COORDINATES (ANGSTROEM)
--------------------------------
 H      0   0   0     0.000000000000     0.00000000     0.00000000
 C      1   0   0     1.089999640793     0.00000000     0.00000000
 H      2   1   0     1.090000268360   117.99999622     0.00000000
 C      2   1   3     1.360000000000   122.00001192   180.00000121
 H      4   2   1     1.090000268360   119.99999186     0.00000000
 C      4   2   1     1.439999918325   122.00001421   180.00000085
 H      6   4   2     1.090000268360   117.99999394     0.00000000
 C      6   4   2     1.360000000000   122.00001421   180.00000000
 H      8   6   4     1.090000268360   119.99999186     0.00000000
 C      8   6   4     1.439999918325   122.00001421   180.00000000
 H     10   8   6     1.090000268360   117.99999394     0.00000000
 C     10   8   6     1.360000000000   122.00001421   180.00000000
 H     12  10   8     1.090000268360   119.99999186     0.00000000
 C     12  10   8     1.439999918325   122.00001421   180.00000085
 H     14  12  10     1.090000268360   117.99999394     0.00000000
 C     14  12  10     1.360000000000   122.00001421   180.00000000
 H     16  14  12     1.090000268360   119.99999186     0.00000000
 C     16  14  12     1.439999918325   122.00001421   180.00000085
 H     18  16  14     1.090000268360   117.99999394     0.00000000
 C     18  16  14     1.360000000000   122.00001421   180.00000000
 H     20  18  16     1.090000268360   119.99999186     0.00000000
 C     20  18  16     1.439999918325   122.00001421   180.00000085
 H     22  20  18     1.090000268360   117.99999394     0.00000000
 C     22  20  18     1.360000000000   122.00001421   180.00000000
 H     24  22  20     1.090000268360   119.99999186     0.00000000
 C     24  22  20     1.439999918325   122.00001421   180.00000121
 H     26  24  22     1.090000268360   117.99999394     0.00000000
 C     26  24  22     1.360000000000   122.00001421   180.00000000
 H     28  26  24     1.090000268360   119.99999186     0.00000000
 C     28  26  24     1.439999918325   122.00001421   180.00000121
 H     30  28  26     1.090000268360   117.99999394     0.00000000
 C     30  28  26     1.360000000000   122.00001421   180.00000000
 H     32  30  28     1.090000268360   119.99999186     0.00000000
 C     32  30  28     1.439999918325   122.00001421   180.00000085
 H     34  32  30     1.090000268360   117.99999394     0.00000000
 C     34  32  30     1.360000000000   122.00001421   180.00000000
 H     36  34  32     1.090000268360   119.99999186     0.00000000
 C     36  34  32     1.439999918325   122.00001421   180.00000000
 H     38  36  34     1.090000268360   117.99999394     0.00000000
 C     38  36  34     1.360000000000   122.00001421   180.00000000
 H     40  38  36     1.090000268360   119.99999186     0.00000000
 C     40  38  36     1.439999918325   122.00001421   180.00000000
 H     42  40  38     1.090000268360   117.99999394     0.00000000
 C     42  40  38     1.360000000000   122.00001421   180.00000000
 H     44  42  40     1.090000268360   119.99999186     0.00000000
 C     44  42  40     1.439999918325   122.00001421   180.00000000
 H     46  44  42     1.090000268360   117.99999394     0.00000000
 C     46  44  42     1.360000000000   122.00001421   180.00000000
 H     48  46  44     1.090000268360   119.99999186     0.00000000
 C     48  46  44     1.439999918325   122.00001421   180.00000000
 H     50  48  46     1.090000268360   117.99999394     0.00000000
 C     50  48  46     1.360000000000   122.00001421   180.00000000
 H     52  50  48     1.090000268360   119.99999186     0.00000000
 C     52  50  48     1.439999918325   122.00001421   180.00000000
 H     54  52  50     1.090000268360   117.99999394     0.00000000
 C     54  52  50     1.360000000000   122.00001421   180.00000000
 H     56  54  52     1.090000268360   119.99999186     0.00000000
 H     56  54  52     1.089999640793   122.00001192   180.00000000

---------------------------
INTERNAL COORDINATES (A.U.)
---------------------------
 H      0   0   0     0.000000000000     0.00000000     0.00000000
 C      1   0   0     2.059800807171     0.00000000     0.00000000
 H      2   1   0     2.059801993100   117.99999622     0.00000000
 C      2   1   3     2.570027542133   122.00001192   180.00000121
 H      4   2   1     2.059801993100   119.99999186     0.00000000
 C      4   2   1     2.721205478504   122.00001421   180.00000085
 H      6   4   2     2.059801993100   117.99999394     0.00000000
 C      6   4   2     2.570027542133   122.00001421   180.00000000
 H      8   6   4     2.059801993100   119.99999186     0.00000000
 C      8   6   4     2.721205478504   122.00001421   180.00000000
 H     10   8   6     2.059801993100   117.99999394     0.00000000
 C     10   8   6     2.570027542133   122.00001421   180.00000000
 H     12  10   8     2.059801993100   119.99999186     0.00000000
 C     12  10   8     2.721205478504   122.00001421   180.00000085
 H     14  12  10     2.059801993100   117.99999394     0.00000000
 C     14  12  10     2.570027542133   122.00001421   180.00000000
 H     16  14  12     2.059801993100   119.99999186     0.00000000
 C     16  14  12     2.721205478504   122.00001421   180.00000085
 H     18  16  14     2.059801993100   117.99999394     0.00000000
 C     18  16  14     2.570027542133   122.00001421   180.00000000
 H     20  18  16     2.059801993100   119.99999186     0.00000000
 C     20  18  16     2.721205478504   122.00001421   180.00000085
 H     22  20  18     2.059801993100   117.99999394     0.00000000
 C     22  20  18     2.570027542133   122.00001421   180.00000000
 H     24  22  20     2.059801993100   119.99999186     0.00000000
 C     24  22  20     2.721205478504   122.00001421   180.00000121
 H     26  24  22     2.059801993100   117.99999394     0.00000000
 C     26  24  22     2.570027542133   122.00001421   180.00000000
 H     28  26  24     2.059801993100   119.99999186     0.00000000
 C     28  26  24     2.721205478504   122.00001421   180.00000121
 H     30  28  26     2.059801993100   117.99999394     0.00000000
 C     30  28  26     2.570027542133   122.00001421   180.00000000
 H     32  30  28     2.059801993100   119.99999186     0.00000000
 C     32  30  28     2.721205478504   122.00001421   180.00000085
 H     34  32  30     2.059801993100   117.99999394     0.00000000
 C     34  32  30     2.570027542133   122.00001421   180.00000000
 H     36  34  32     2.059801993100   119.99999186     0.00000000
 C     36  34  32     2.721205478504   122.00001421   180.00000000
 H     38  36  34     2.059801993100   117.99999394     0.00000000
 C     38  36  34     2.570027542133   122.00001421   180.00000000
 H     40  38  36     2.059801993100   119.99999186     0.00000000
 C     40  38  36     2.721205478504   122.00001421   180.00000000
 H     42  40  38     2.059801993100   117.99999394     0.00000000
 C     42  40  38     2.570027542133   122.00001421   180.00000000
 H     44  42  40     2.059801993100   119.99999186     0.00000000
 C     44  42  40     2.721205478504   122.00001421   180.00000000
 H     46  44  42     2.059801993100   117.99999394     0.00000000
 C     46  44  42     2.570027542133   122.00001421   180.00000000
 H     48  46  44     2.059801993100   119.99999186     0.00000000
 C     48  46  44     2.721205478504   122.00001421   180.00000000
 H     50  48  46     2.059801993100   117.99999394     0.00000000
 C     50  48  46     2.570027542133   122.00001421   180.00000000
 H     52  50  48     2.059801993100   119.99999186     0.00000000
 C     52  50  48     2.721205478504   122.00001421   180.00000000
 H     54  52  50     2.059801993100   117.99999394     0.00000000
 C     54  52  50     2.570027542133   122.00001421   180.00000000
 H     56  54  52     2.059801993100   119.99999186     0.00000000
 H     56  54  52     2.059800807171   122.00001192   180.00000000

---------------------
BASIS SET INFORMATION
---------------------
There are 2 groups of distinct atoms

 Group   1 Type H   : 6s3p2d contracted to 4s3p2d pattern {3111/111/11}
 Group   2 Type C   : 19s6p3d2f contracted to 5s4p3d2f pattern {88111/3111/111/11}

Atom   0H    basis set group =>   1
Atom   1C    basis set group =>   2
Atom   2H    basis set group =>   1
Atom   3C    basis set group =>   2
Atom   4H    basis set group =>   1
Atom   5C    basis set group =>   2
Atom   6H    basis set group =>   1
Atom   7C    basis set group =>   2
Atom   8H    basis set group =>   1
Atom   9C    basis set group =>   2
Atom  10H    basis set group =>   1
Atom  11C    basis set group =>   2
Atom  12H    basis set group =>   1
Atom  13C    basis set group =>   2
Atom  14H    basis set group =>   1
Atom  15C    basis set group =>   2
Atom  16H    basis set group =>   1
Atom  17C    basis set group =>   2
Atom  18H    basis set group =>   1
Atom  19C    basis set group =>   2
Atom  20H    basis set group =>   1
Atom  21C    basis set group =>   2
Atom  22H    basis set group =>   1
Atom  23C    basis set group =>   2
Atom  24H    basis set group =>   1
Atom  25C    basis set group =>   2
Atom  26H    basis set group =>   1
Atom  27C    basis set group =>   2
Atom  28H    basis set group =>   1
Atom  29C    basis set group =>   2
Atom  30H    basis set group =>   1
Atom  31C    basis set group =>   2
Atom  32H    basis set group =>   1
Atom  33C    basis set group =>   2
Atom  34H    basis set group =>   1
Atom  35C    basis set group =>   2
Atom  36H    basis set group =>   1
Atom  37C    basis set group =>   2
Atom  38H    basis set group =>   1
Atom  39C    basis set group =>   2
Atom  40H    basis set group =>   1
Atom  41C    basis set group =>   2
Atom  42H    basis set group =>   1
Atom  43C    basis set group =>   2
Atom  44H    basis set group =>   1
Atom  45C    basis set group =>   2
Atom  46H    basis set group =>   1
Atom  47C    basis set group =>   2
Atom  48H    basis set group =>   1
Atom  49C    basis set group =>   2
Atom  50H    basis set group =>   1
Atom  51C    basis set group =>   2
Atom  52H    basis set group =>   1
Atom  53C    basis set group =>   2
Atom  54H    basis set group =>   1
Atom  55C    basis set group =>   2
Atom  56H    basis set group =>   1
Atom  57H    basis set group =>   1
---------------------------------
AUXILIARY/C BASIS SET INFORMATION
---------------------------------
There are 2 groups of distinct atoms

 Group   1 Type H   : 5s4p3d2f contracted to 5s4p3d2f pattern {11111/1111/111/11}
 Group   2 Type C   : 9s7p6d4f2g contracted to 9s7p6d4f2g pattern {111111111/1111111/111111/1111/11}

Atom   0H    basis set group =>   1
Atom   1C    basis set group =>   2
Atom   2H    basis set group =>   1
Atom   3C    basis set group =>   2
Atom   4H    basis set group =>   1
Atom   5C    basis set group =>   2
Atom   6H    basis set group =>   1
Atom   7C    basis set group =>   2
Atom   8H    basis set group =>   1
Atom   9C    basis set group =>   2
Atom  10H    basis set group =>   1
Atom  11C    basis set group =>   2
Atom  12H    basis set group =>   1
Atom  13C    basis set group =>   2
Atom  14H    basis set group =>   1
Atom  15C    basis set group =>   2
Atom  16H    basis set group =>   1
Atom  17C    basis set group =>   2
Atom  18H    basis set group =>   1
Atom  19C    basis set group =>   2
Atom  20H    basis set group =>   1
Atom  21C    basis set group =>   2
Atom  22H    basis set group =>   1
Atom  23C    basis set group =>   2
Atom  24H    basis set group =>   1
Atom  25C    basis set group =>   2
Atom  26H    basis set group =>   1
Atom  27C    basis set group =>   2
Atom  28H    basis set group =>   1
Atom  29C    basis set group =>   2
Atom  30H    basis set group =>   1
Atom  31C    basis set group =>   2
Atom  32H    basis set group =>   1
Atom  33C    basis set group =>   2
Atom  34H    basis set group =>   1
Atom  35C    basis set group =>   2
Atom  36H    basis set group =>   1
Atom  37C    basis set group =>   2
Atom  38H    basis set group =>   1
Atom  39C    basis set group =>   2
Atom  40H    basis set group =>   1
Atom  41C    basis set group =>   2
Atom  42H    basis set group =>   1
Atom  43C    basis set group =>   2
Atom  44H    basis set group =>   1
Atom  45C    basis set group =>   2
Atom  46H    basis set group =>   1
Atom  47C    basis set group =>   2
Atom  48H    basis set group =>   1
Atom  49C    basis set group =>   2
Atom  50H    basis set group =>   1
Atom  51C    basis set group =>   2
Atom  52H    basis set group =>   1
Atom  53C    basis set group =>   2
Atom  54H    basis set group =>   1
Atom  55C    basis set group =>   2
Atom  56H    basis set group =>   1
Atom  57H    basis set group =>   1
--------------
CABS BASIS SET
--------------
There are 2 groups of distinct atoms

 Group   1 Type H   : 9s6p4d2f contracted to 9s6p4d2f pattern {111111111/111111/1111/11}
 Group   2 Type C   : 17s11p7d5f2g contracted to 17s11p7d5f2g pattern {11111111111111111/11111111111/1111111/11111/11}

Atom   0H    basis set group =>   1
Atom   1C    basis set group =>   2
Atom   2H    basis set group =>   1
Atom   3C    basis set group =>   2
Atom   4H    basis set group =>   1
Atom   5C    basis set group =>   2
Atom   6H    basis set group =>   1
Atom   7C    basis set group =>   2
Atom   8H    basis set group =>   1
Atom   9C    basis set group =>   2
Atom  10H    basis set group =>   1
Atom  11C    basis set group =>   2
Atom  12H    basis set group =>   1
Atom  13C    basis set group =>   2
Atom  14H    basis set group =>   1
Atom  15C    basis set group =>   2
Atom  16H    basis set group =>   1
Atom  17C    basis set group =>   2
Atom  18H    basis set group =>   1
Atom  19C    basis set group =>   2
Atom  20H    basis set group =>   1
Atom  21C    basis set group =>   2
Atom  22H    basis set group =>   1
Atom  23C    basis set group =>   2
Atom  24H    basis set group =>   1
Atom  25C    basis set group =>   2
Atom  26H    basis set group =>   1
Atom  27C    basis set group =>   2
Atom  28H    basis set group =>   1
Atom  29C    basis set group =>   2
Atom  30H    basis set group =>   1
Atom  31C    basis set group =>   2
Atom  32H    basis set group =>   1
Atom  33C    basis set group =>   2
Atom  34H    basis set group =>   1
Atom  35C    basis set group =>   2
Atom  36H    basis set group =>   1
Atom  37C    basis set group =>   2
Atom  38H    basis set group =>   1
Atom  39C    basis set group =>   2
Atom  40H    basis set group =>   1
Atom  41C    basis set group =>   2
Atom  42H    basis set group =>   1
Atom  43C    basis set group =>   2
Atom  44H    basis set group =>   1
Atom  45C    basis set group =>   2
Atom  46H    basis set group =>   1
Atom  47C    basis set group =>   2
Atom  48H    basis set group =>   1
Atom  49C    basis set group =>   2
Atom  50H    basis set group =>   1
Atom  51C    basis set group =>   2
Atom  52H    basis set group =>   1
Atom  53C    basis set group =>   2
Atom  54H    basis set group =>   1
Atom  55C    basis set group =>   2
Atom  56H    basis set group =>   1
Atom  57H    basis set group =>   1


           ************************************************************
           *        Program running with 32 parallel MPI-processes    *
           *              working on a shared directory               *
           ************************************************************
------------------------------------------------------------------------------
                           ORCA GTO INTEGRAL CALCULATION
------------------------------------------------------------------------------

                         BASIS SET STATISTICS AND STARTUP INFO

 # of primitive gaussian shells          ... 1170
 # of primitive gaussian functions       ... 2598
 # of contracted shells                  ...  662
 # of contracted basis functions         ... 1978
 Highest angular momentum                ...    3
 Maximum contraction depth               ...    8
 Integral package used                   ... LIBINT
 Integral threshhold            Thresh   ...  2.500e-11
 Primitive cut-off              TCut     ...  2.500e-12


------------------------------ INTEGRAL EVALUATION ----------------------------


 * One electron integrals 
 Pre-screening matrix                    ... done
 Shell pair data                         ... done (   0.089 sec)



           ************************************************************
           *        Program running with 32 parallel MPI-processes    *
           *              working on a shared directory               *
           ************************************************************
-------------------------------------------------------------------------------
                                 ORCA SCF
-------------------------------------------------------------------------------

------------
SCF SETTINGS
------------
Hamiltonian:
 Ab initio Hamiltonian  Method          .... Hartree-Fock(GTOs)


General Settings:
 Integral files         IntName         .... acene_14_ion
 Hartree-Fock type      HFTyp           .... UHF
 Total Charge           Charge          ....    1
 Multiplicity           Mult            ....    2
 Number of Electrons    NEL             ....  197
 Basis Dimension        Dim             .... 1978
 Nuclear Repulsion      ENuc            ....   1706.1314597197 Eh

Convergence Acceleration:
 DIIS                   CNVDIIS         .... on
   Start iteration      DIISMaxIt       ....    12
   Startup error        DIISStart       ....  0.200000
   # of expansion vecs  DIISMaxEq       ....     5
   Bias factor          DIISBfac        ....   1.050
   Max. coefficient     DIISMaxC        ....  10.000
 Newton-Raphson         CNVNR           .... off
 SOSCF                  CNVSOSCF        .... off
 Level Shifting         CNVShift        .... on
   Level shift para.    LevelShift      ....    0.2500
   Turn off err/grad.   ShiftErr        ....    0.0010
 Zerner damping         CNVZerner       .... off
 Static damping         CNVDamp         .... on
   Fraction old density DampFac         ....    0.7000
   Max. Damping (<1)    DampMax         ....    0.9800
   Min. Damping (>=0)   DampMin         ....    0.0000
   Turn off err/grad.   DampErr         ....    0.1000
 Fernandez-Rico         CNVRico         .... off

SCF Procedure:
 Maximum # iterations   MaxIter         ....   125
 SCF integral mode      SCFMode         .... Direct
   Integral package                     .... LIBINT
 Reset frequency        DirectResetFreq ....    20
 Integral Threshold     Thresh          ....  2.500e-11 Eh
 Primitive CutOff       TCut            ....  2.500e-12 Eh

Convergence Tolerance:
 Convergence Check Mode ConvCheckMode   .... Total+1el-Energy
 Convergence forced     ConvForced      .... 1
 Energy Change          TolE            ....  1.000e-08 Eh
 1-El. energy change                    ....  1.000e-05 Eh
 DIIS Error             TolErr          ....  5.000e-07


Diagonalization of the overlap matrix:
Smallest eigenvalue                        ... 4.032e-08
Time for diagonalization                   ...   25.160 sec
Threshold for overlap eigenvalues          ... 1.000e-08
Number of eigenvalues below threshold      ... 0
Time for construction of square roots      ...    2.843 sec
Total time needed                          ...   28.047 sec

-------------------
DFT GRID GENERATION
-------------------

General Integration Accuracy     IntAcc      ...  4.340
Radial Grid Type                 RadialGrid  ... Gauss-Chebyshev
Angular Grid (max. acc.)         AngularGrid ... Lebedev-110
Angular grid pruning method      GridPruning ... 3 (G Style)
Weight generation scheme         WeightScheme... Becke
Basis function cutoff            BFCut       ...    1.0000e-11
Integration weight cutoff        WCut        ...    1.0000e-14
Grids for H and He will be reduced by one unit

# of grid points (after initial pruning)     ...  70188 (   0.0 sec)
# of grid points (after weights+screening)   ...  64354 (   0.3 sec)
nearest neighbour list constructed           ...    0.0 sec
Grid point re-assignment to atoms done       ...    0.0 sec
Grid point division into batches done        ...    0.1 sec
Reduced shell lists constructed in    0.3 sec

Total number of grid points                  ...    64354
Total number of batches                      ...     1038
Average number of points per batch           ...       61
Average number of grid points per atom       ...     1110
Average number of shells per batch           ...   124.82 (18.86%)
Average number of basis functions per batch  ...   340.24 (17.20%)
Average number of large shells per batch     ...    88.88 (71.21%)
Average number of large basis fcns per batch ...   248.88 (73.15%)
Maximum spatial batch extension              ...  17.52, 16.14, 22.02 au
Average spatial batch extension              ...   0.15,  0.13,  0.21 au

Time for grid setup =    0.990 sec

------------------------------
INITIAL GUESS: MODEL POTENTIAL
------------------------------
Loading Hartree-Fock densities                     ... done
Calculating cut-offs                               ... done
Setting up the integral package                    ... done
Initializing the effective Hamiltonian             ... done
Starting the Coulomb interaction                   ... done (   1.3 sec)
Reading the grid                                   ... done
Mapping shells                                     ... done
Starting the XC term evaluation                    ... done (   0.8 sec)
Transforming the Hamiltonian                       ... done (  42.3 sec)
Diagonalizing the Hamiltonian                      ... done (  42.6 sec)
Back transforming the eigenvectors                 ... done (  16.8 sec)
Now organizing SCF variables                       ... done
                      ------------------
                      INITIAL GUESS DONE ( 105.7 sec)
                      ------------------
--------------
SCF ITERATIONS
--------------
ITER       Energy         Delta-E        Max-DP      RMS-DP      [F,P]     Damp
               ***  Starting incremental Fock matrix formation  ***
  0  -1076.5957453881   0.000000000000448589.71718497 2716.69097446  0.2062145 0.7000
  1 -213151.7616662336-212075.165920845524193308.25763284 1036.81489734  1.2570293 0.7000
  2 -1898627.8452158154-1685476.083549581701344613.37034418 2177.98297592  0.5146747 0.7000
  3 -5604999.1802446181-3706371.335028802976276836.02736901 1545.98291784  0.7091187 0.7000
  4 -9023300.3678825144-3418301.187637896277203365.93803184 1077.09518682  0.7021072 0.7000
  5 -11863648.9648720548-2840348.596989540383146921.39130603 749.20528741  0.5869975 0.7000
  6 -14079240.9287939109-2215591.963921856135105231.81651233 521.36477061  0.4556386 0.7000
  7 -15744138.3291044310-1664897.40031052008374973.23914520 363.20614694  0.3398838 0.7000
  8 -16966393.2595375925-1222254.93043316155753227.61222982 253.32836938  0.2476218 0.7000
                               ***Turning on DIIS***
  9 -17850231.7203168198-883838.46077922731637695.68580419 176.89511566  0.1777269 0.7000
 10 -18980407.3570443988-1130175.63672757893827034.69239745 123.44496931  0.1262979 0.7000
 11 -19427403.4588958174-446996.10185141861463261.63345895 289.27170531  0.0890423 0.0000
 12 -20008236.0235337615-580832.564637944102813.97564995  4.19186833  0.0050912 0.0000
 13 -20006297.35341400651938.670119754970261.18809715  1.57365643  0.0012846 0.0000
 14 -20005753.0381168462 544.31529716029840.32911977  0.18414725  0.0001488 0.0000
 15 -20005808.8080072328 -55.769890386611 3.65741445  0.01870152  0.0000280 0.0000
 16 -20005808.4236566201   0.384350612760 0.09789006  0.00054661  0.0000012 0.0000
                            ***DIIS convergence achieved***

               *****************************************************
               *                     SUCCESS                       *
               *           SCF CONVERGED AFTER  17 CYCLES          *
               *****************************************************


----------------
TOTAL SCF ENERGY
----------------

Total Energy       :    -20005808.43189283 Eh      -544385723.46719 eV

Components:
Nuclear Repulsion  :         1706.13145972 Eh           46426.19728 eV
Electronic Energy  :    -20007514.56335255 Eh      -544432149.66447 eV
One Electron Energy:        -2447.06732388 Eh          -66588.08716 eV
Two Electron Energy:    -20005067.49602867 Eh      -544365561.57731 eV

Virial components:
Potential Energy   :    -20006410.18377850 Eh      -544402097.96846 eV
Kinetic Energy     :          601.75188568 Eh           16374.50127 eV
Virial Ratio       :        33246.94223654


---------------
SCF CONVERGENCE
---------------

  Last Energy change         ...   -8.2362e-03  Tolerance :   1.0000e-08
  Last MAX-Density change    ...    7.5694e-03  Tolerance :   1.0000e-07
  Last RMS-Density change    ...    4.7371e-05  Tolerance :   5.0000e-09
  Last DIIS Error            ...    9.2767e-08  Tolerance :   5.0000e-07

================================================================================
                                        WARNING
Check your MOs and check whether a frozen core calculation is appropriate
MO 3 should be a C  d core orbital but seems to be delocalized with a C  p orbital (82.4% vs. 10.8%)
================================================================================
================================================================================
                                        WARNING
Check your MOs and check whether a frozen core calculation is appropriate
MO 4 should be a C  d core orbital but seems to be delocalized with a C  p orbital (77.1% vs. 14.3%)
================================================================================
================================================================================
                                        WARNING
Check your MOs and check whether a frozen core calculation is appropriate
MO 5 should be a C  p core orbital but seems to be delocalized with a C  d orbital (78.6% vs. 12.9%)
================================================================================
================================================================================
                                        WARNING
Check your MOs and check whether a frozen core calculation is appropriate
MO 6 should be a C  d core orbital but seems to be delocalized with a C  p orbital (71.1% vs. 34.3%)
================================================================================
================================================================================
                                        WARNING
Check your MOs and check whether a frozen core calculation is appropriate
MO 7 should be a C  d core orbital but seems to be delocalized with a C  p orbital (71.3% vs. 32.9%)
================================================================================
================================================================================
                                        WARNING
Check your MOs and check whether a frozen core calculation is appropriate
MO 8 should be a C  d core orbital but seems to be delocalized with a C  p orbital (60.1% vs. 50.4%)
================================================================================
================================================================================
                                        WARNING
Check your MOs and check whether a frozen core calculation is appropriate
MO 9 should be a C  p core orbital but seems to be delocalized with a C  d orbital (70.8% vs. 27.5%)
================================================================================
================================================================================
                                        WARNING
Check your MOs and check whether a frozen core calculation is appropriate
MO 10 should be a C  p core orbital but seems to be delocalized with a C  d orbital (62.8% vs. 44.9%)
================================================================================
================================================================================
                                        WARNING
Check your MOs and check whether a frozen core calculation is appropriate
MO 11 should be a C  d core orbital but seems to be delocalized with a C  p orbital (48.8% vs. 42.6%)
================================================================================
================================================================================
                                        WARNING
Check your MOs and check whether a frozen core calculation is appropriate
MO 13 should be a C  d core orbital but seems to be delocalized with a C  p orbital (44.4% vs. 44.0%)
================================================================================
================================================================================
                                        WARNING
Check your MOs and check whether a frozen core calculation is appropriate
MO 14 should be a C  p core orbital but seems to be delocalized with a C  d orbital (71.7% vs. 18.6%)
================================================================================
================================================================================
                                        WARNING
Check your MOs and check whether a frozen core calculation is appropriate
MO 15 should be a C  p core orbital but seems to be delocalized with a C  d orbital (70.5% vs. 29.9%)
================================================================================
================================================================================
                                        WARNING
Check your MOs and check whether a frozen core calculation is appropriate
MO 16 should be a C  d core orbital but seems to be delocalized with a C  p orbital (54.5% vs. 49.1%)
================================================================================
================================================================================
                                        WARNING
Check your MOs and check whether a frozen core calculation is appropriate
MO 17 should be a C  p core orbital but seems to be delocalized with a C  d orbital (68.1% vs. 31.1%)
================================================================================
================================================================================
                                        WARNING
Check your MOs and check whether a frozen core calculation is appropriate
MO 18 should be a C  p core orbital but seems to be delocalized with a C  d orbital (50.0% vs. 48.8%)
================================================================================
================================================================================
                                        WARNING
Check your MOs and check whether a frozen core calculation is appropriate
MO 19 should be a C  p core orbital but seems to be delocalized with a C  d orbital (60.6% vs. 26.3%)
================================================================================
================================================================================
                                        WARNING
Check your MOs and check whether a frozen core calculation is appropriate
MO 20 should be a C  d core orbital but seems to be delocalized with a C  p orbital (61.2% vs. 30.1%)
================================================================================
================================================================================
                                        WARNING
Check your MOs and check whether a frozen core calculation is appropriate
MO 21 should be a C  d core orbital but seems to be delocalized with a C  p orbital (51.7% vs. 37.2%)
================================================================================
================================================================================
                                        WARNING
Check your MOs and check whether a frozen core calculation is appropriate
MO 22 should be a C  d core orbital but seems to be delocalized with a C  p orbital (56.4% vs. 33.1%)
================================================================================
================================================================================
                                        WARNING
Check your MOs and check whether a frozen core calculation is appropriate
MO 23 should be a C  p core orbital but seems to be delocalized with a C  d orbital (46.2% vs. 36.5%)
================================================================================
================================================================================
                                        WARNING
Check your MOs and check whether a frozen core calculation is appropriate
MO 24 should be a C  d core orbital but seems to be delocalized with a C  p orbital (46.3% vs. 44.2%)
================================================================================
================================================================================
                                        WARNING
Check your MOs and check whether a frozen core calculation is appropriate
MO 25 should be a C  p core orbital but seems to be delocalized with a C  d orbital (50.7% vs. 42.3%)
================================================================================
================================================================================
                                        WARNING
Check your MOs and check whether a frozen core calculation is appropriate
MO 26 should be a C  p core orbital but seems to be delocalized with a C  d orbital (62.8% vs. 21.8%)
================================================================================
================================================================================
                                        WARNING
Check your MOs and check whether a frozen core calculation is appropriate
MO 27 should be a C  p core orbital but seems to be delocalized with a C  s orbital (37.1% vs. 28.8%)
================================================================================
================================================================================
                                        WARNING
Check your MOs and check whether a frozen core calculation is appropriate
MO 3 should be a C  d core orbital but seems to be delocalized with a C  p orbital (82.4% vs. 10.8%)
================================================================================
================================================================================
                                        WARNING
Check your MOs and check whether a frozen core calculation is appropriate
MO 4 should be a C  d core orbital but seems to be delocalized with a C  p orbital (77.1% vs. 14.3%)
================================================================================
================================================================================
                                        WARNING
Check your MOs and check whether a frozen core calculation is appropriate
MO 5 should be a C  p core orbital but seems to be delocalized with a C  d orbital (78.6% vs. 12.9%)
================================================================================
================================================================================
                                        WARNING
Check your MOs and check whether a frozen core calculation is appropriate
MO 6 should be a C  d core orbital but seems to be delocalized with a C  p orbital (71.1% vs. 34.3%)
================================================================================
================================================================================
                                        WARNING
Check your MOs and check whether a frozen core calculation is appropriate
MO 7 should be a C  d core orbital but seems to be delocalized with a C  p orbital (71.3% vs. 32.9%)
================================================================================
================================================================================
                                        WARNING
Check your MOs and check whether a frozen core calculation is appropriate
MO 8 should be a C  d core orbital but seems to be delocalized with a C  p orbital (60.1% vs. 50.4%)
================================================================================
================================================================================
                                        WARNING
Check your MOs and check whether a frozen core calculation is appropriate
MO 9 should be a C  p core orbital but seems to be delocalized with a C  d orbital (70.8% vs. 27.5%)
================================================================================
================================================================================
                                        WARNING
Check your MOs and check whether a frozen core calculation is appropriate
MO 10 should be a C  p core orbital but seems to be delocalized with a C  d orbital (62.8% vs. 44.9%)
================================================================================
================================================================================
                                        WARNING
Check your MOs and check whether a frozen core calculation is appropriate
MO 11 should be a C  d core orbital but seems to be delocalized with a C  p orbital (48.8% vs. 42.6%)
================================================================================
================================================================================
                                        WARNING
Check your MOs and check whether a frozen core calculation is appropriate
MO 13 should be a C  d core orbital but seems to be delocalized with a C  p orbital (44.4% vs. 44.0%)
================================================================================
================================================================================
                                        WARNING
Check your MOs and check whether a frozen core calculation is appropriate
MO 14 should be a C  p core orbital but seems to be delocalized with a C  d orbital (71.7% vs. 18.6%)
================================================================================
================================================================================
                                        WARNING
Check your MOs and check whether a frozen core calculation is appropriate
MO 15 should be a C  p core orbital but seems to be delocalized with a C  d orbital (70.5% vs. 29.9%)
================================================================================
================================================================================
                                        WARNING
Check your MOs and check whether a frozen core calculation is appropriate
MO 16 should be a C  d core orbital but seems to be delocalized with a C  p orbital (54.5% vs. 49.1%)
================================================================================
================================================================================
                                        WARNING
Check your MOs and check whether a frozen core calculation is appropriate
MO 17 should be a C  p core orbital but seems to be delocalized with a C  d orbital (68.1% vs. 31.1%)
================================================================================
================================================================================
                                        WARNING
Check your MOs and check whether a frozen core calculation is appropriate
MO 18 should be a C  p core orbital but seems to be delocalized with a C  d orbital (50.0% vs. 48.8%)
================================================================================
================================================================================
                                        WARNING
Check your MOs and check whether a frozen core calculation is appropriate
MO 19 should be a C  p core orbital but seems to be delocalized with a C  d orbital (60.6% vs. 26.3%)
================================================================================
================================================================================
                                        WARNING
Check your MOs and check whether a frozen core calculation is appropriate
MO 20 should be a C  d core orbital but seems to be delocalized with a C  p orbital (61.2% vs. 30.1%)
================================================================================
================================================================================
                                        WARNING
Check your MOs and check whether a frozen core calculation is appropriate
MO 21 should be a C  d core orbital but seems to be delocalized with a C  p orbital (51.7% vs. 37.2%)
================================================================================
================================================================================
                                        WARNING
Check your MOs and check whether a frozen core calculation is appropriate
MO 22 should be a C  d core orbital but seems to be delocalized with a C  p orbital (56.4% vs. 33.1%)
================================================================================
================================================================================
                                        WARNING
Check your MOs and check whether a frozen core calculation is appropriate
MO 23 should be a C  p core orbital but seems to be delocalized with a C  d orbital (46.2% vs. 36.5%)
================================================================================
================================================================================
                                        WARNING
Check your MOs and check whether a frozen core calculation is appropriate
MO 24 should be a C  d core orbital but seems to be delocalized with a C  p orbital (46.3% vs. 44.2%)
================================================================================
================================================================================
                                        WARNING
Check your MOs and check whether a frozen core calculation is appropriate
MO 25 should be a C  p core orbital but seems to be delocalized with a C  d orbital (50.7% vs. 42.3%)
================================================================================
================================================================================
                                        WARNING
Check your MOs and check whether a frozen core calculation is appropriate
MO 26 should be a C  p core orbital but seems to be delocalized with a C  d orbital (62.8% vs. 21.8%)
================================================================================
================================================================================
                                        WARNING
Check your MOs and check whether a frozen core calculation is appropriate
MO 27 should be a C  p core orbital but seems to be delocalized with a C  s orbital (37.1% vs. 28.8%)
================================================================================
             **** THE GBW FILE WAS UPDATED (acene_14_ion.gbw) ****
             **** DENSITY FILE WAS UPDATED (acene_14_ion.scfp) ****
             **** ENERGY FILE WAS UPDATED (acene_14_ion.en.tmp) ****
----------------------
UHF SPIN CONTAMINATION
----------------------

Expectation value of <S**2>     :     0.750000
Ideal value S*(S+1) for S=0.5   :     0.750000
Deviation                       :     0.000000

             **** THE GBW FILE WAS UPDATED (acene_14_ion.gbw) ****
             **** DENSITY FILE WAS UPDATED (acene_14_ion.scfp) ****
----------------
ORBITAL ENERGIES
----------------
                 SPIN UP ORBITALS
  NO   OCC          E(Eh)            E(eV) 
   0   1.0000   -8137456.864921   -221431458.6523 
   1   1.0000   -4964454.741669   -135089681.3475 
   2   1.0000   -2382265.623423   -64824743.2396 
   3   1.0000   -825452.287224   -22461698.6661 
   4   1.0000   -675484.760010   -18380874.7855 
   5   1.0000   -300238.730266   -8169911.2008 
   6   1.0000   -257025.813310   -6994027.9497 
   7   1.0000   -254900.977923   -6936208.2393 
   8   1.0000   -209393.479998   -5697886.2657 
   9   1.0000   -206480.200259   -5618611.8938 
  10   1.0000   -201769.349550   -5490423.1290 
  11   1.0000   -199814.235205   -5437221.7629 
  12   1.0000   -142932.039593   -3889378.5295 
  13   1.0000   -129019.078183   -3510787.6023 
  14   1.0000   -121972.872892   -3319050.6087 
  15   1.0000   -108602.332985   -2955219.7210 
  16   1.0000   -91328.453118   -2485173.5531 
  17   1.0000   -83450.290949   -2270797.8619 
  18   1.0000   -69451.883295   -1889881.8242 
  19   1.0000   -60238.513071   -1639173.2746 
  20   1.0000   -54216.173358   -1475297.0797 
  21   1.0000   -49074.065444   -1335373.2098 
  22   1.0000   -48049.694557   -1307498.6609 
  23   1.0000   -46646.460708   -1269314.7266 
  24   1.0000   -36542.990933   -994385.3369 
  25   1.0000   -34984.662651   -951981.0685 
  26   1.0000   -32407.988117   -881866.1899 
  27   1.0000   -28886.549488   -786042.9732 
  28   1.0000   -22355.936084   -608335.9480 
  29   1.0000   -21178.656945   -576300.5540 
  30   1.0000   -18660.667083   -507782.5665 
  31   1.0000   -16175.319524   -440152.8212 
  32   1.0000   -14911.435837   -405760.7976 
  33   1.0000   -12266.239128   -333781.3358 
  34   1.0000   -12065.820517   -328327.6681 
  35   1.0000   -9805.152574   -266811.7660 
  36   1.0000   -9594.599267   -261082.3192 
  37   1.0000   -8991.356310   -244667.2438 
  38   1.0000   -6852.651649   -186470.1313 
  39   1.0000   -6527.371004   -177618.7950 
  40   1.0000   -5644.883780   -153605.0968 
  41   1.0000   -5603.982809   -152492.1248 
  42   1.0000   -5222.682431   -142116.4140 
  43   1.0000   -4845.359947   -131848.9472 
  44   1.0000   -4660.564006   -126820.3940 
  45   1.0000   -4313.756045   -117383.2696 
  46   1.0000   -3939.017881   -107186.1258 
  47   1.0000   -3700.852262   -100705.3098 
  48   1.0000   -3497.270407    -95165.5659 
  49   1.0000   -3198.893613    -87046.3206 
  50   1.0000   -3093.107768    -84167.7414 
  51   1.0000   -2865.271671    -77968.0060 
  52   1.0000   -2627.981485    -71511.0118 
  53   1.0000   -2530.460202    -68857.3227 
  54   1.0000   -2309.220684    -62837.0894 
  55   1.0000   -1999.167507    -54400.1135 
  56   1.0000   -1960.345349    -53343.7089 
  57   1.0000   -1773.892083    -48270.0576 
  58   1.0000   -1767.777343    -48103.6670 
  59   1.0000   -1602.643352    -43610.1427 
  60   1.0000   -1483.257341    -40361.4842 
  61   1.0000   -1364.008560    -37116.5599 
  62   1.0000   -1360.085469    -37009.8072 
  63   1.0000   -1234.739260    -33598.9634 
  64   1.0000   -1200.354564    -32663.3083 
  65   1.0000   -1135.397317    -30895.7317 
  66   1.0000   -1055.864354    -28731.5298 
  67   1.0000   -1054.418477    -28692.1854 
  68   1.0000   -1020.388050    -27766.1705 
  69   1.0000    -936.051265    -25471.2498 
  70   1.0000    -928.822149    -25274.5356 
  71   1.0000    -841.512971    -22898.7321 
  72   1.0000    -838.896046    -22827.5219 
  73   1.0000    -756.597709    -20588.0704 
  74   1.0000    -716.800994    -19505.1467 
  75   1.0000    -674.088755    -18342.8876 
  76   1.0000    -655.734636    -17843.4466 
  77   1.0000    -645.964965    -17577.6003 
  78   1.0000    -605.179786    -16467.7792 
  79   1.0000    -601.424462    -16365.5916 
  80   1.0000    -588.352048    -16009.8732 
  81   1.0000    -571.802607    -15559.5400 
  82   1.0000    -557.999375    -15183.9349 
  83   1.0000    -519.490031    -14136.0424 
  84   1.0000    -507.947218    -13821.9465 
  85   1.0000    -471.331433    -12825.5803 
  86   1.0000    -458.558500    -12478.0112 
  87   1.0000    -457.040596    -12436.7069 
  88   1.0000    -456.462065    -12420.9643 
  89   1.0000    -432.982638    -11782.0566 
  90   1.0000    -418.966724    -11400.6642 
  91   1.0000    -395.310125    -10756.9354 
  92   1.0000    -387.093637    -10533.3534 
  93   1.0000    -378.401244    -10296.8213 
  94   1.0000    -354.419671     -9644.2496 
  95   1.0000    -346.881436     -9439.1238 
  96   1.0000    -317.704874     -8645.1891 
  97   1.0000    -317.211003     -8631.7502 
  98   1.0000    -316.011679     -8599.1150 
  99   0.0000    -303.110655     -8248.0602 
 100   0.0000    -289.707443     -7883.3403 
 101   0.0000    -278.570993     -7580.3021 
 102   0.0000    -254.455216     -6924.0784 
 103   0.0000    -249.740264     -6795.7781 
 104   0.0000    -237.139995     -6452.9073 
 105   0.0000    -234.377566     -6377.7378 
 106   0.0000    -230.895095     -6282.9750 
 107   0.0000    -228.174658     -6208.9481 
 108   0.0000    -217.670468     -5923.1146 
 109   0.0000    -212.394444     -5779.5467 
 110   0.0000    -211.407073     -5752.6789 
 111   0.0000    -201.571964     -5485.0520 
 112   0.0000    -185.464381     -5046.7424 
 113   0.0000    -180.817010     -4920.2810 
 114   0.0000    -180.461734     -4910.6134 
 115   0.0000    -178.160587     -4847.9960 
 116   0.0000    -174.081931     -4737.0102 
 117   0.0000    -169.440903     -4610.7214 
 118   0.0000    -168.368837     -4581.5490 
 119   0.0000    -162.185171     -4413.2829 
 120   0.0000    -157.557095     -4287.3465 
 121   0.0000    -146.083723     -3975.1402 
 122   0.0000    -140.418427     -3820.9796 
 123   0.0000    -134.242982     -3652.9372 
 124   0.0000    -131.054602     -3566.1770 
 125   0.0000    -125.996557     -3428.5406 
 126   0.0000    -122.039740     -3320.8701 
 127   0.0000    -113.404361     -3085.8896 
 128   0.0000    -113.148824     -3078.9360 
 129   0.0000    -106.913601     -2909.2670 
 130   0.0000     -99.619004     -2710.7709 
 131   0.0000     -99.206117     -2699.5357 
 132   0.0000     -98.644844     -2684.2627 
 133   0.0000     -95.897018     -2609.4905 
 134   0.0000     -85.554353     -2328.0523 
 135   0.0000     -85.132841     -2316.5824 
 136   0.0000     -80.889566     -2201.1170 
 137   0.0000     -79.880528     -2173.6597 
 138   0.0000     -76.810661     -2090.1243 
 139   0.0000     -75.832188     -2063.4988 
 140   0.0000     -74.808360     -2035.6390 
 141   0.0000     -73.277215     -1993.9744 
 142   0.0000     -70.507198     -1918.5984 
 143   0.0000     -68.077396     -1852.4801 
 144   0.0000     -65.194695     -1774.0378 
 145   0.0000     -65.170822     -1773.3882 
 146   0.0000     -63.208026     -1719.9778 
 147   0.0000     -61.605252     -1676.3641 
 148   0.0000     -60.961074     -1658.8352 
 149   0.0000     -59.016578     -1605.9227 
 150   0.0000     -57.590070     -1567.1055 
 151   0.0000     -56.860185     -1547.2443 
 152   0.0000     -54.285411     -1477.1811 
 153   0.0000     -52.549247     -1429.9377 
 154   0.0000     -51.852619     -1410.9815 
 155   0.0000     -49.264527     -1340.5559 
 156   0.0000     -48.534248     -1320.6840 
 157   0.0000     -45.731852     -1244.4270 
 158   0.0000     -45.659260     -1242.4516 
 159   0.0000     -45.453822     -1236.8614 
 160   0.0000     -43.356274     -1179.7842 
 161   0.0000     -42.603627     -1159.3036 
 162   0.0000     -42.024770     -1143.5521 
 163   0.0000     -40.721310     -1108.0832 
 164   0.0000     -40.112209     -1091.5087 
 165   0.0000     -39.463164     -1073.8473 
 166   0.0000     -37.825865     -1029.2941 
 167   0.0000     -37.367193     -1016.8130 
 168   0.0000     -37.089060     -1009.2446 
 169   0.0000     -35.223151      -958.4707 
 170   0.0000     -34.652649      -942.9465 
 171   0.0000     -34.605040      -941.6510 
 172   0.0000     -33.366554      -907.9501 
 173   0.0000     -31.622417      -860.4897 
 174   0.0000     -31.614612      -860.2773 
 175   0.0000     -30.174291      -821.0842 
 176   0.0000     -29.386038      -799.6347 
 177   0.0000     -28.993698      -788.9586 
 178   0.0000     -28.494745      -775.3814 
 179   0.0000     -28.182784      -766.8925 
 180   0.0000     -27.101544      -737.4705 
 181   0.0000     -26.623173      -724.4534 
 182   0.0000     -25.121801      -683.5990 
 183   0.0000     -24.543583      -667.8649 
 184   0.0000     -24.147970      -657.0997 
 185   0.0000     -23.897517      -650.2845 
 186   0.0000     -23.374448      -636.0511 
 187   0.0000     -23.100451      -628.5952 
 188   0.0000     -22.952905      -624.5803 
 189   0.0000     -22.113832      -601.7480 
 190   0.0000     -22.024802      -599.3253 
 191   0.0000     -21.995327      -598.5233 
 192   0.0000     -21.976742      -598.0175 
 193   0.0000     -21.749526      -591.8347 
 194   0.0000     -21.736408      -591.4777 
 195   0.0000     -21.716909      -590.9471 
 196   0.0000     -21.571556      -586.9919 
 197   0.0000     -21.410662      -582.6137 
 198   0.0000     -21.235458      -577.8462 
 199   0.0000     -21.234954      -577.8325 
 200   0.0000     -21.148064      -575.4681 
 201   0.0000     -20.692205      -563.0635 
 202   0.0000     -20.580120      -560.0135 
 203   0.0000     -20.567981      -559.6832 
 204   0.0000     -20.541159      -558.9534 
 205   0.0000     -20.310552      -552.6782 
 206   0.0000     -20.204241      -549.7854 
 207   0.0000     -20.033978      -545.1523 
 208   0.0000     -20.010951      -544.5257 
 209   0.0000     -19.351154      -526.5717 
 210   0.0000     -19.249361      -523.8017 
 211   0.0000     -19.146715      -521.0086 
 212   0.0000     -18.963282      -516.0171 
 213   0.0000     -18.934475      -515.2332 
 214   0.0000     -18.522524      -504.0235 
 215   0.0000     -18.443606      -501.8760 
 216   0.0000     -18.339903      -499.0541 
 217   0.0000     -18.240257      -496.3426 
 218   0.0000     -18.216297      -495.6906 
 219   0.0000     -18.104546      -492.6498 
 220   0.0000     -18.090526      -492.2683 
 221   0.0000     -17.989119      -489.5088 
 222   0.0000     -17.869879      -486.2641 
 223   0.0000     -17.756643      -483.1828 
 224   0.0000     -17.692298      -481.4319 
 225   0.0000     -17.302181      -470.8163 
 226   0.0000     -17.016370      -463.0390 
 227   0.0000     -16.530743      -449.8244 
 228   0.0000     -16.207573      -441.0305 
 229   0.0000     -16.125106      -438.7865 
 230   0.0000     -14.927352      -406.1939 
 231   0.0000     -14.734238      -400.9390 
 232   0.0000     -14.332359      -390.0033 
 233   0.0000     -14.220756      -386.9664 
 234   0.0000     -13.958426      -379.8281 
 235   0.0000     -13.275154      -361.2353 
 236   0.0000     -12.764831      -347.3487 
 237   0.0000     -12.550834      -341.5256 
 238   0.0000     -11.805383      -321.2408 
 239   0.0000     -11.726485      -319.0939 
 240   0.0000     -11.539133      -313.9958 
 241   0.0000     -11.136530      -303.0404 
 242   0.0000     -11.088881      -301.7438 
 243   0.0000     -10.970963      -298.5351 
 244   0.0000     -10.659307      -290.0545 
 245   0.0000     -10.539824      -286.8032 
 246   0.0000     -10.417457      -283.4734 
 247   0.0000     -10.315491      -280.6988 
 248   0.0000     -10.020642      -272.6755 
 249   0.0000      -9.823648      -267.3150 
 250   0.0000      -9.684181      -263.5200 
 251   0.0000      -9.411002      -256.0864 
 252   0.0000      -9.369634      -254.9607 
 253   0.0000      -9.294352      -252.9122 
 254   0.0000      -9.200715      -250.3642 
 255   0.0000      -9.092873      -247.4296 
 256   0.0000      -9.086759      -247.2633 
 257   0.0000      -9.002637      -244.9742 
 258   0.0000      -9.000618      -244.9193 
 259   0.0000      -8.830872      -240.3002 
 260   0.0000      -8.821982      -240.0583 
 261   0.0000      -8.808492      -239.6912 
 262   0.0000      -8.700282      -236.7467 
 263   0.0000      -8.672409      -235.9882 
 264   0.0000      -8.655951      -235.5404 
 265   0.0000      -8.640624      -235.1233 
 266   0.0000      -8.565499      -233.0791 
 267   0.0000      -8.564581      -233.0541 
 268   0.0000      -8.529994      -232.1129 
 269   0.0000      -8.524361      -231.9597 
 270   0.0000      -8.461982      -230.2622 
 271   0.0000      -8.440726      -229.6838 
 272   0.0000      -8.440118      -229.6673 
 273   0.0000      -8.407365      -228.7760 
 274   0.0000      -8.385163      -228.1719 
 275   0.0000      -8.371716      -227.8060 
 276   0.0000      -8.313065      -226.2100 
 277   0.0000      -8.301250      -225.8885 
 278   0.0000      -8.267883      -224.9805 
 279   0.0000      -8.264179      -224.8798 
 280   0.0000      -8.262802      -224.8423 
 281   0.0000      -8.256630      -224.6743 
 282   0.0000      -8.198416      -223.0902 
 283   0.0000      -8.177827      -222.5300 
 284   0.0000      -8.169039      -222.2909 
 285   0.0000      -8.163587      -222.1425 
 286   0.0000      -8.145751      -221.6572 
 287   0.0000      -8.140640      -221.5181 
 288   0.0000      -8.029112      -218.4832 
 289   0.0000      -8.021719      -218.2821 
 290   0.0000      -8.021668      -218.2807 
 291   0.0000      -8.013276      -218.0523 
 292   0.0000      -8.007136      -217.8853 
 293   0.0000      -7.877653      -214.3618 
 294   0.0000      -7.843141      -213.4227 
 295   0.0000      -7.819765      -212.7866 
 296   0.0000      -7.802247      -212.3099 
 297   0.0000      -7.762995      -211.2418 
 298   0.0000      -7.758420      -211.1173 
 299   0.0000      -7.740673      -210.6344 
 300   0.0000      -7.736033      -210.5082 
 301   0.0000      -7.667446      -208.6418 
 302   0.0000      -7.638445      -207.8527 
 303   0.0000      -7.626369      -207.5240 
 304   0.0000      -7.534286      -205.0183 
 305   0.0000      -7.524250      -204.7453 
 306   0.0000      -7.515338      -204.5027 
 307   0.0000      -7.374993      -200.6838 
 308   0.0000      -7.336318      -199.6314 
 309   0.0000      -7.242928      -197.0901 
 310   0.0000      -7.175305      -195.2500 
 311   0.0000      -7.175075      -195.2437 
 312   0.0000      -7.164310      -194.9508 
 313   0.0000      -7.159074      -194.8083 
 314   0.0000      -7.156145      -194.7286 
 315   0.0000      -7.106700      -193.3831 
 316   0.0000      -7.077653      -192.5927 
 317   0.0000      -7.075893      -192.5448 
 318   0.0000      -7.044328      -191.6859 
 319   0.0000      -7.039631      -191.5581 
 320   0.0000      -7.015394      -190.8986 
 321   0.0000      -6.834391      -185.9732 
 322   0.0000      -6.828652      -185.8171 
 323   0.0000      -6.728246      -183.0849 
 324   0.0000      -6.702301      -182.3789 
 325   0.0000      -6.692336      -182.1077 
 326   0.0000      -6.664034      -181.3376 
 327   0.0000      -6.632943      -180.4916 
 328   0.0000      -6.630934      -180.4369 
 329   0.0000      -6.613920      -179.9739 
 330   0.0000      -6.586875      -179.2380 
 331   0.0000      -6.560387      -178.5172 
 332   0.0000      -6.543972      -178.0705 
 333   0.0000      -6.518546      -177.3787 
 334   0.0000      -6.512318      -177.2092 
 335   0.0000      -6.444367      -175.3601 
 336   0.0000      -6.431536      -175.0110 
 337   0.0000      -6.416883      -174.6123 
 338   0.0000      -6.383957      -173.7163 
 339   0.0000      -6.372670      -173.4092 
 340   0.0000      -6.338924      -172.4909 
 341   0.0000      -6.336784      -172.4327 
 342   0.0000      -6.215377      -169.1290 
 343   0.0000      -6.214862      -169.1150 
 344   0.0000      -6.206598      -168.8901 
 345   0.0000      -6.182703      -168.2399 
 346   0.0000      -6.179265      -168.1463 
 347   0.0000      -6.177128      -168.0882 
 348   0.0000      -6.143133      -167.1631 
 349   0.0000      -6.139324      -167.0595 
 350   0.0000      -6.097299      -165.9159 
 351   0.0000      -6.087880      -165.6596 
 352   0.0000      -6.077208      -165.3692 
 353   0.0000      -6.075190      -165.3143 
 354   0.0000      -6.051125      -164.6595 
 355   0.0000      -6.046564      -164.5354 
 356   0.0000      -6.025870      -163.9723 
 357   0.0000      -5.985936      -162.8856 
 358   0.0000      -5.965419      -162.3273 
 359   0.0000      -5.956302      -162.0792 
 360   0.0000      -5.952580      -161.9779 
 361   0.0000      -5.933254      -161.4520 
 362   0.0000      -5.908277      -160.7724 
 363   0.0000      -5.905335      -160.6923 
 364   0.0000      -5.887783      -160.2147 
 365   0.0000      -5.847853      -159.1282 
 366   0.0000      -5.839794      -158.9089 
 367   0.0000      -5.823548      -158.4668 
 368   0.0000      -5.812559      -158.1678 
 369   0.0000      -5.807129      -158.0200 
 370   0.0000      -5.797738      -157.7645 
 371   0.0000      -5.766940      -156.9264 
 372   0.0000      -5.766688      -156.9196 
[...]
<pp|dd>:     36933000 b      6694580 skpd ( 18.1%)   26.450 s ( 0.001 ms/b)
<pp|df>:     28334240 b      5819278 skpd ( 20.5%)   31.045 s ( 0.001 ms/b)
<pp|ff>:      5521010 b       943736 skpd ( 17.1%)    9.608 s ( 0.002 ms/b)
<pd|pd>:     74279766 b     14761124 skpd ( 19.9%)   58.707 s ( 0.001 ms/b)
<pd|pf>:     57186096 b     11909130 skpd ( 20.8%)   61.193 s ( 0.001 ms/b)
<pd|dd>:     47533200 b      8424744 skpd ( 17.7%)   60.073 s ( 0.002 ms/b)
<pd|df>:     36466496 b      7284054 skpd ( 20.0%)   71.880 s ( 0.002 ms/b)
<pd|ff>:      7105604 b      1176324 skpd ( 16.6%)   22.835 s ( 0.004 ms/b)
<pf|pf>:     11009778 b      2399303 skpd ( 21.8%)   19.070 s ( 0.002 ms/b)
<pf|dd>:     18298800 b      3413682 skpd ( 18.7%)   36.405 s ( 0.002 ms/b)
<pf|df>:     14038464 b      2926292 skpd ( 20.8%)   44.416 s ( 0.004 ms/b)
<pf|ff>:      2735436 b       484660 skpd ( 17.7%)   14.397 s ( 0.006 ms/b)
<dd|dd>:      7606950 b      1188929 skpd ( 15.6%)   18.926 s ( 0.003 ms/b)
<dd|df>:     11668800 b      2074520 skpd ( 17.8%)   44.304 s ( 0.005 ms/b)
<dd|ff>:      2273700 b       342197 skpd ( 15.1%)   14.235 s ( 0.007 ms/b)
<df|df>:      4477528 b       926729 skpd ( 20.7%)   27.839 s ( 0.008 ms/b)
<df|ff>:      1744336 b       294112 skpd ( 16.9%)   18.056 s ( 0.012 ms/b)
<ff|ff>:       170236 b        22896 skpd ( 13.4%)    3.682 s ( 0.025 ms/b)
Reference energy                           ... -20006038.872869126

--------------
make Fock-transformed occupied orbitals: alpha and beta  
--------------


--------------
Fock-transformed occupied orbitals: DONE!
--------------

Calculating differential overlap integrals (occ,PAO) ... ok
 >> Construction of the PNO with the Koopmans (K)-matrix << 
Entering the RI transformation section

-----------------
RI-TRANSFORMATION (AUX index driven)
-----------------

Dimension of the orbital-basis         ... 1978
Dimension of the aux-basis             ... 4348
Transformation of internal MOs         ...   98-  98
Number Format for Storage              ... Double (8 Byte)
Integral mode                          ... Direct

First Phase: integral generation and transformation of MO indices
  Aux angular momentum 0               ... done (    2.032 sec)
  Aux angular momentum 1               ... done (    3.047 sec)
  Aux angular momentum 2               ... done (    4.310 sec)
  Aux angular momentum 3               ... done (    4.223 sec)
  Aux angular momentum 4               ... done (    1.802 sec)
Closing buffer VIJ ( 0.00 GB; CompressionRatio= 0.40)
  Phase 1 completed in    16.421 sec
Second Phase: sorting and transformation of aux index

IJ-Transformation
Memory available                       ... 16000 MB 
Max. # MO pairs treated in a batch     ... 1    
# of internal orbitals                 ... 1
# batches for internal orbitals        ... 1
Closing buffer IJV ( 0.00 GB; CompressionRatio= 1.00)
(ij|v) transformation done in     1.666 sec

  Phase 2 completed in     3.397 sec
RI-Integral transformation completed in    19.845 sec

-----------------------
RI-FORMATION OF (ij|kl)
-----------------------

Max core memory to be used            ... 16000 MB
Memory needed per MO pair             ...   0.0 MB
# of MO pairs included in trafo       ... 1
# of MO pairs treated in a batch      ... 1
# of batches needed                   ... 1
Data format used                      ... DOUBLE
 done (    0.002 sec)
Closing buffer JIJ ( 0.00 GB; CompressionRatio= 0.40)
(ij|kl) transformation completed in     1.689 sec
     ... leaving the RI transformation section
 >> 4-active ERIs are generated & stored in-core fast memory 
 >> End construction..
F12 correction will be calculated
 >>>>>>>>>>>>>>>>>>>>>>>>>>>>>>>>>>>>> 
       Dipole-based Prescreening       
 <<<<<<<<<<<<<<<<<<<<<<<<<<<<<<<<<<<<< 
Threshold for domain construction in prescreening:
   TCutDO    ...     5.0e-03
--------------------------
ELECTRON PAIR PRESCREENING
--------------------------

PAO based multipole pair screening          .... used
   TCutDOij = 1.000000e-05
   TCutPre  = 1.000000e-07
 done

sum of pair energies estimated for screened out pairs ...       0.000000000000 Eh
                                                           
  __   __        __   ___     __        ___  __   __       
 /  ` |__) |  | |  \ |__     / _` |  | |__  /__` /__`     
 \__, |  \ \__/ |__/ |___    \__> \__/ |___ .__/ .__/ 
                                                           

Parameters for the crude guess:
   TScaleDOMP2PreScr   : 2.000e+00
   TScaleMKNMP2PreScr  : 1.000e+01
   TScalePNOMP2PreScr  : 1.000e+00
   TScalePairsMP2PreScr: 1.000e+00
   PAO overlap thresh    1.000e-08
Thresholds for map construction and integral transformation for crude MP2:
   TCutMKN                    ...     1.0e-02
   TCutDO                     ...     1.0e-02
   TCutPairs                  ...     1.0e-05
   TCutPairs_CrudeMP2         ...     1.0e-05
   TCutPNO_CrudeMP2           ...     1.0e-07
   TCutPNOSingles_CrudeMP2    ...     3.0e-09
--------------------------------
LOCAL RI TRANSFORMATION (IAVPAO)
--------------------------------

Orbital window:      28 to 98
Number of PAOs:    1979
Basis functions:   1978 (662 shells)
Aux. functions:    4348 (1204 shells)

Processing maps (0.6 sec)
Average map sizes:
   Aux shells -> MOs              71.0
   Aux shells -> PAOs           1979.0
   MOs        -> AO shells       662.0
   PAOs       -> AO shells       662.0

Calculating integrals (70.3 sec, 4661.100 MB)
Sorting integrals (1550.2 sec, 4661.051 MB)
Total time for the integral transformation: 1623.5 sec

-----------------------------------------
   _  _______   __    ___  _  ______     
  / |/ / __/ | / /___/ _ \/ |/ / __ \  
 /    / _/ | |/ /___/ ___/    / /_/ /    
/_/|_/___/ |___/   /_/  /_/|_/\____/    
                                         
                for open-shell molecules 
-----------------------------------------


 ==> UMP guess in NEV-PNO space 

Truncation parameters                       .... 
    PAOOverlapThresh     =        1.000e-08
Pair selection                          .... not used
    TCutPairs            =        1.000e-05
    TCutMKN              =        1.000e-02
    TCutDO               =        5.000e-03
    TCutCMO              =        1.000e-03
    TCutCPAO             =        1.000e-03
    TCutPNO              =        1.000e-07
    TScaleTCutPNO_SS     =        1.000e+00
    TScaleTCutPNO_SD     =        1.000e+00
    TScalePNO_Core       =        1.000e-02
    TCutDO_Crude         =        1.000e-02
    TCutMKN_Crude        =        1.000e-02
    TCutPairs_Crude      =        1.000e-05
    TCutPNO_Crude        =        1.000e-07
    TCutCMO              =        1.000e-03
    TCutCPAO             =        1.000e-03
Spin component scaling in ijab excitation            .... not used

Formation of guess energy and open-shell PNO.

NEV-PNO operators..
  E(ij->ab)
  E(ip->ab)
  E(pq->ra)
  E(ip->qr)
  E(ip->aq) and E(ip->qa)

 Norm of Semi-Internal Fock Operators ...   0.0006058269
  ==> Semi-internal excitations detected 

#WARNING: ( 28,  28) singles pair does not have PNOs .. 
#WARNING: ( 60,  60) singles pair does not have PNOs .. 
#WARNING: ( 92,  92) singles pair does not have PNOs .. 
   .... Finished loop over pairs

                       ===========================
                         71 OF 4971 PAIRS ARE KEPT CC PAIRS
                          0 OF 4971 PAIRS ARE KEPT PT2 PAIRS
                       4900 OF 4971 PAIRS ARE SKIPPED
                       ===========================

 Initial PAO correlation energy (all pairs)    ...  -2.8591954926 Eh
 Energy constituents in PAO basis (Eh):
  | Vijab(+0) ...  -0.0011991504
  | Viab (-1) ...  -0.0000345416
  | Va   (-1) ...  -0.0000026019
  | Vija (+1) ...  -0.0000012621
  | Via  (+0) ...  -2.8579573276
  | Vi   (+1) ...  -0.0000006089
 Initial PNO correlation energy                ...  -2.8579605275 Eh
 Energy constituents in PNO basis (Eh):
  | Viab (-1) ...  -0.0000000000 (err=  0.0000345416)
  | Va   (-1) ...  -0.0000026019 (err=  0.0000000000)
  | Via  (+0) ...  -2.8579573168 (err=  0.0000000109)
  | Vi   (+1) ...  -0.0000006089 (err=  0.0000000000)
 Sum of total truncation errors ...   0.0012349650 Eh
  | Pair screening ...   0.0012004126 Eh
  | PNO truncation ...   0.0000345525 Eh

 UMP2 correlation energy (PAO) ...  -0.0012350106
  | alpha-alpha ...  -0.0002880482 (NP_aa= 2485)
  | alpha-beta  ...  -0.0006749818 (NP_ab= 4970)
  | beta -beta  ...  -0.0002719806 (NP_bb= 2415)
 UMP2 correlation energy (PNO) ...  -0.0000000000
  | alpha-alpha ...   0.0000000000 (err=  0.0002880482, NP_aa= 2485)
  | alpha-beta  ...  -0.0000000000 (err=  0.0006749818, NP_ab= 4970)
  | beta -beta  ...   0.0000000000 (err=  0.0002719806, NP_bb= 2415)
 Sum of total UMP2 truncation errors ...   0.0012350106 Eh
  | Pair screening ...   0.0012004126 Eh
  | PNO truncation ...   0.0000345980 Eh
 Timing for NEV-PNO construction (sec.)
  | Intermediate construction  ..            8.531
  | Amplitude construction     ..          580.456
  | Total time                 ..          588.987
 Making pair pair interaction lists ...      ok
                                                 
  ___         ___     __        ___  __   __     
 |__  | |\ | |__     / _` |  | |__  /__` /__`   
 |    | | \| |___    \__> \__/ |___ .__/ .__/ 
                                                 

Thresholds for map construction and integral transformation:
   TCutMKN   ...     1.0e-03
   TCutDO    ...     5.0e-03
   TCutCMO   ...     1.0e-03
   TCutCPAO  ...     1.0e-03

Thresholds for map construction and integral transformation for strong Triples:
   TCutMKN   ...     1.0e-02
   TCutDO    ...     1.0e-02
   TCutCMO   ...     1.0e-03
   TCutCPAO  ...     1.0e-03

Thresholds for map construction and integral transformation for weak Triples:
   TCutMKN   ...     1.0e-01
   TCutDO    ...     2.0e-02
   TCutCMO   ...     1.0e-03
   TCutCPAO  ...     1.0e-03

--------------------------------
LOCAL RI TRANSFORMATION (IAVPAO)
--------------------------------

Orbital window:      28 to 98
Number of PAOs:    1979
Basis functions:   1978 (662 shells)
Aux. functions:    4348 (1204 shells)

Processing maps (0.6 sec)
Average map sizes:
   Aux shells -> MOs              66.4
   Aux shells -> PAOs           1979.0
   MOs        -> AO shells       662.0
   PAOs       -> AO shells       662.0

Calculating integrals (60.7 sec, 4380.870 MB)
Sorting integrals (89.2 sec, 4380.821 MB)
Total time for the integral transformation: 153.7 sec

 ==> UMP guess in NEV-PNO space 

Truncation parameters                       .... 
    PAOOverlapThresh     =        1.000e-08
Pair selection                          .... not used
    TCutPairs            =        1.000e-05
    TCutMKN              =        1.000e-03
    TCutDO               =        5.000e-03
    TCutCMO              =        1.000e-03
    TCutCPAO             =        1.000e-03
    TCutPNO              =        1.000e-07
    TScaleTCutPNO_SS     =        1.000e+00
    TScaleTCutPNO_SD     =        1.000e+00
    TScalePNO_Core       =        1.000e-02
    TScaleTCutPairs_Somo =        3.300e-01
    TScaleTCutPairs_Core =        1.000e+00
    TCutPairs_MP2        =        1.000e-06
    TCutCMO              =        1.000e-03
    TCutCPAO             =        1.000e-03
Spin component scaling in ijab excitation            .... not used

Formation of guess energy and open-shell PNO.

NEV-PNO operators..
  E(ij->ab)
  E(ip->ab)
  E(pq->ra)
  E(ip->qr)
  E(ip->aq) and E(ip->qa)

#WARNING: ( 28,  28) diagonal doubles pair does not have PNOs .. 
#WARNING: ( 28,  28) singles pair does not have PNOs .. 
#WARNING: ( 60,  60) diagonal doubles pair does not have PNOs .. 
#WARNING: ( 60,  60) singles pair does not have PNOs .. 
#WARNING: ( 92,  92) diagonal doubles pair does not have PNOs .. 
#WARNING: ( 92,  92) singles pair does not have PNOs .. 
   .... Finished loop over pairs
Initial amplitudes guess done. Entering LNEVPT2 iteration loop:
   Max. no of iterations          ...  50
   Energy convergence tolerance   ...    1.0e-07
   Residual convergence tolerance ...    5.0e-07
   Fock matrix cutoff             ...    1.0e-05 Eh
   DIIS convergence acceleration parameters:
        Max # vectors in DIIS     ... 0
        Start iteration of DIIS   ... 0
        Levelshift                ... 2.000e-01
        Damping factor 1          ... 5.000e-01
        Damping factor 2          ... 1.000e+00
   L-NEVPT2 PNO cut-off           ...   1.0e-09
   L-NEVPT2 PNO cut-off (core)    ...   1.0e-11

 PNO Occupation Number Statistics: 
  | Av. % of trace(Dij) retained        ...   0.000000000000
  | Av. % of trace(Dip) retained        ...   0.000000000000
  | Av. % of trace(Dpq) retained        ...  99.987443389199
  | sigma^2 in % of trace(Dij) retained ...   0.00e+00
  | sigma^2 in % of trace(Dip) retained ...   0.00e+00
  | sigma^2 in % of trace(Dpq) retained ...   0.00e+00
  | Av. % of trace(Di) retained         ...   0.000000000000
  | Av. % of trace(Dp) retained         ...  99.995903992822
  | sigma^2 in % of trace(Di) retained  ...   0.00e+00
  | sigma^2 in % of trace(Dp) retained  ...   0.00e+00
 Distributions of % trace(Dpq) recovered:
  |       >= 99.9  ...     1 (100.0 % of all PQ-pairs)
 Distributions of % trace(Di) recovered :
 Distributions of % trace(Dp) recovered :
  |       >= 99.9  ...     1 (100.0 % of all P-pairs )

                       ===========================
                          1 OF  141 PAIRS ARE KEPT
                       ===========================

 Initial PAO correlation energy (all pairs)    ...  -3.0066327611 Eh
 Energy constituents in PAO basis (Eh):
  | Vijab(+0) ...  -0.0000241348
  | Viab (-1) ...  -0.0000373228
  | Va   (-1) ...  -0.0000047119
  | Vija (+1) ...  -0.0000000266
  | Via  (+0) ...  -3.0065659561
  | Vi   (+1) ...  -0.0000006089
 Initial PNO correlation energy                ...  -0.0000047119 Eh
 Energy constituents in PNO basis (Eh):
  | Va   (-1) ...  -0.0000047119 (err=  0.0000000000)
 Sum of total truncation errors ...   3.0066280491 Eh
  | Pair screening ...   3.0066280491 Eh
  | PNO truncation ...  -0.0000000000 Eh

 UMP2 correlation energy (PAO) ...  -0.0000615436
  | alpha-alpha ...  -0.0000179339 (NP_aa=   70)
  | alpha-beta  ...  -0.0000436097 (NP_ab=  140)
  | beta -beta  ...   0.0000000000 (NP_bb=    0)
 UMP2 correlation energy (PNO) ...   0.0000000000
  | alpha-alpha ...   0.0000000000 (err=  0.0000179339, NP_aa=    0)
  | alpha-beta  ...   0.0000000000 (err=  0.0000436097, NP_ab=    0)
  | beta -beta  ...   0.0000000000 (err=  0.0000000000, NP_bb=    0)
 Sum of total UMP2 truncation errors ...   0.0000615436 Eh
  | Pair screening ...   0.0000615436 Eh
  | PNO truncation ...   0.0000000000 Eh
 Timing for NEV-PNO construction (sec.)
  | Intermediate construction  ..           19.165
  | Amplitude construction     ..           60.505
  | Total time                 ..           79.670
 Making pair pair interaction lists ...      ok
 Total size for 2-ext PNO integrals ...      0.0 MB
Checking the number of SOMO/SOMO doubles PNOs ...  No PNOs should be truncated!

Number of pairs in F12 (TCutDOF12 = 3.000e-04)        ...     1

--------------------------------
LOCAL RI TRANSFORMATION (VABPAO)
--------------------------------

Number of PAOs:    1979
Basis functions:   1978 (662 shells)
Aux. functions:    4348 (1204 shells)

Processing maps (0.1 sec)
Average map sizes:
   Aux shells -> PAOs           1944.8
   PAOs       -> AO shells       662.0

Calculating integrals (10154.7 sec, 248014.945 MB)
Finished
-----------------------------
LOCAL RI TRANSFORMATION (IJV)
-----------------------------

Orbital window:      28 to 98
Basis functions:   1978 (662 shells)
Aux. functions:    4348 (1204 shells)

Processing maps (0.0 sec)
Average map sizes:
   Aux shells -> MOs(i)           44.8
   Aux shells -> MOs(j)           71.0
   MOs        -> AO shells       662.0

Calculating integrals (37.9 sec, 108.310 MB)
Sorting integrals (2.4 sec, 96.763 MB)
Total time for the integral transformation: 40.6 sec


-------------------------------------
Pair Pair Term precalculation with     
RI-(ij|mn) and (im|jn) transformation  
ON THE FLY                             
-------------------------------------

   IBatch   1 (of   1)              ... done ( 6419.630 sec)
Total EXT                           ...        6419.630 sec

---------------------
RI-PNO TRANSFORMATION
---------------------

Total Number of PNOs                   ...     9
Total Number of IJ-PNOs                ...     0
Total Number of IP-PNOs                ...     0
Total Number of PQ-PNOs                ...     9
Total Number of IJ-pairs               ...     0
Total Number of PI-pairs               ...     0
Total Number of PQ-pairs               ...     1
Average number of PNOs per pair        ...     9
Maximal number of PNOs per pair        ...     9
>> Statistics for pq-pairs..
   #pairs with  1 -  5 PNOs   :    0
   #pairs with  6 - 10 PNOs   :    1
   #pairs with 11 - 15 PNOs   :    0
   #pairs with 16 - 20 PNOs   :    0
   #pairs with 21 - 25 PNOs   :    0
   #pairs with 26 - 30 PNOs   :    0
   #pairs with 31 - 35 PNOs   :    0
   #pairs with 36 - 40 PNOs   :    0
   #pairs with 41 - 45 PNOs   :    0
   #pairs with 46 - 50 PNOs   :    0

Generation of (ij|ab)[P] integrals            ... on
Generation of (ia|bc)[P],(ja|bc)[P] integrals ... on
Storage of 3 and 4 external integrals         ... on
Generation of ALL (ka|bc)[P] integrals        ... on
Keep RI integrals in memory                   ... off

Ibatch:  1 (of  1)
Starting 2-4 index PNO integral generation ... done

Timings:
Total PNO integral transformation time     ...      25416.492 sec
Size of the 3-external file                ...         0 MB
Size of the 4-external file                ...         0 MB
Size of the IKJL file                      ...         0 MB
Size of the all 3-external file            ...         0 MB
Size of the 1-external file                ...         0 MB

Size of the PAO/PNO coefficient matrices   ...       0.1 MB

Making pair/pair overlap matrices          ... done (    2.231 sec)
Size of the pair overlap file              ...       0.0 MB
Total # unrestricted pairs ...          0
  # of alpha-alpha pairs   ...          0
  # of alpha-beta pairs    ...          0
  # of beta-beta pairs     ...          0
Constructing the guess amplitudes          ... done (    0.937 sec)

-------------------------
FINAL STARTUP INFORMATION
-------------------------

E(0)                                       ... -20006038.872869126
E(SL-UMP2 in NEV-PNO space)                ...     -0.001261956
Initial E(tot)                             ... -20006038.874131083
<T|T>                                      ...     -1.000000000
Number of unrestricted pairs included      ... 0
Total number of pairs                      ... 9870
----------------------------------------------------------
                     OPEN-SHELL COUPLED CLUSTER ITERATIONS
----------------------------------------------------------

Number of PNO amplitudes to be optimized        ...                6
Number of canonical amplitudes for strong pairs ...           265009
Untruncated number of canonical amplitudes      ...      34866108294

Iter       E(tot)           E(Corr)          Delta-E          Residual     Time
  0 WARNING!!!
Timer restarted without having been stopped!
WARNING!!!
Timer restarted without having been stopped!
-20006038.874131091     -0.000000008      0.001261950      0.000000208   91.21
               --- The CCSD iterations have converged ---

2 total processes killed (some possibly by mpirun during cleanup)

ORCA finished by error termination in MDCI
Calling Command: mpirun -np 32  /cm/shared/c3ddb/orca/4.2.0//orca_mdci_mpi acene_14_ion.mdciinp.tmp acene_14_ion 
[file orca_tools/qcmsg.cpp, line 458]: 
  .... aborting the run

