
                                 *****************
                                 * O   R   C   A *
                                 *****************

           --- An Ab Initio, DFT and Semiempirical electronic structure package ---

                  #######################################################
                  #                        -***-                        #
                  #          Department of theory and spectroscopy      #
                  #               Directorship: Frank Neese             #
                  #        Max Planck Institute fuer Kohlenforschung    #
                  #                Kaiser Wilhelm Platz 1               #
                  #                 D-45470 Muelheim/Ruhr               #
                  #                      Germany                        #
                  #                                                     #
                  #                  All rights reserved                #
                  #                        -***-                        #
                  #######################################################


                         Program Version 4.2.0 -  RELEASE  -


 With contributions from (in alphabetic order):
   Daniel Aravena         : Magnetic Suceptibility
   Michael Atanasov       : Ab Initio Ligand Field Theory (pilot matlab implementation)
   Alexander A. Auer      : GIAO ZORA, VPT2
   Ute Becker             : Parallelization
   Giovanni Bistoni       : ED, misc. LED, open-shell LED, HFLED
   Martin Brehm           : Molecular dynamics
   Dmytro Bykov           : SCF Hessian
   Vijay G. Chilkuri      : MRCI spin determinant printing, contributions to CSF-ICE
   Dipayan Datta          : RHF DLPNO-CCSD density
   Achintya Kumar Dutta   : EOM-CC, STEOM-CC
   Dmitry Ganyushin       : Spin-Orbit,Spin-Spin,Magnetic field MRCI
   Miquel Garcia          : C-PCM Hessian, Gaussian charge scheme
   Yang Guo               : DLPNO-NEVPT2, CIM, IAO-localization
   Andreas Hansen         : Spin unrestricted coupled pair/coupled cluster methods
   Benjamin Helmich-Paris : CASSCF linear response (MC-RPA)
   Lee Huntington         : MR-EOM, pCC
   Robert Izsak           : Overlap fitted RIJCOSX, COSX-SCS-MP3, EOM
   Christian Kollmar      : KDIIS, OOCD, Brueckner-CCSD(T), CCSD density
   Simone Kossmann        : Meta GGA functionals, TD-DFT gradient, OOMP2, MP2 Hessian
   Martin Krupicka        : AUTO-CI
   Lucas Lang             : DCDCAS
   Dagmar Lenk            : GEPOL surface, SMD
   Dimitrios Liakos       : Extrapolation schemes; Compound Job, initial MDCI parallelization
   Dimitrios Manganas     : Further ROCIS development; embedding schemes
   Dimitrios Pantazis     : SARC Basis sets
   Taras Petrenko         : DFT Hessian,TD-DFT gradient, ASA, ECA, R-Raman, ABS, FL, XAS/XES, NRVS
   Peter Pinski           : DLPNO-MP2, DLPNO-MP2 Gradient
   Christoph Reimann      : Effective Core Potentials
   Marius Retegan         : Local ZFS, SOC
   Christoph Riplinger    : Optimizer, TS searches, QM/MM, DLPNO-CCSD(T), (RO)-DLPNO pert. Triples
   Tobias Risthaus        : Range-separated hybrids, TD-DFT gradient, RPA, STAB
   Michael Roemelt        : Original ROCIS implementation
   Masaaki Saitow         : Open-shell DLPNO-CCSD energy and density
   Barbara Sandhoefer     : DKH picture change effects
   Avijit Sen             : IP-ROCIS
   Kantharuban Sivalingam : CASSCF convergence, NEVPT2, FIC-MRCI
   Bernardo de Souza      : ESD, SOC TD-DFT
   Georgi Stoychev        : AutoAux, RI-MP2 NMR
   Willem Van den Heuvel  : Paramagnetic NMR
   Boris Wezisla          : Elementary symmetry handling
   Frank Wennmohs         : Technical directorship


 We gratefully acknowledge several colleagues who have allowed us to
 interface, adapt or use parts of their codes:
   Stefan Grimme, W. Hujo, H. Kruse,             : VdW corrections, initial TS optimization,
                  C. Bannwarth                     DFT functionals, gCP, sTDA/sTD-DF
   Ed Valeev, F. Pavosevic, A. Kumar             : LibInt (2-el integral package), F12 methods
   Garnet Chan, S. Sharma, J. Yang, R. Olivares  : DMRG
   Ulf Ekstrom                                   : XCFun DFT Library
   Mihaly Kallay                                 : mrcc  (arbitrary order and MRCC methods)
   Andreas Klamt, Michael Diedenhofen            : otool_cosmo (COSMO solvation model)
   Jiri Pittner, Ondrej Demel                    : Mk-CCSD
   Frank Weinhold                                : gennbo (NPA and NBO analysis)
   Christopher J. Cramer and Donald G. Truhlar   : smd solvation model
   Lars Goerigk                                  : TD-DFT with DH, B97 family of functionals
   V. Asgeirsson, H. Jonsson                     : NEB implementation
   FAccTs GmbH                                   : IRC, NEB, NEB-TS, Multilevel, MM, QM/MM, CI optimization
   S Lehtola, MJT Oliveira, MAL Marques          : LibXC Library


 Your calculation uses the libint2 library for the computation of 2-el integrals
 For citations please refer to: http://libint.valeyev.net

 Your ORCA version has been built with support for libXC version: 4.2.3
 For citations please refer to: https://tddft.org/programs/libxc/

 This ORCA versions uses:
   CBLAS   interface :  Fast vector & matrix operations
   LAPACKE interface :  Fast linear algebra routines
   SCALAPACK package :  Parallel linear algebra routines


----- Orbital basis set information -----
Your calculation utilizes the basis: aug-cc-pVTZ 
    H, B-Ne : Obtained from the ccRepo (grant-hill.group.shef.ac.uk/ccrepo) Feb. 2017
              R. A. Kendall, T. H. Dunning, Jr., R. J. Harrison, J. Chem. Phys. 96, 6796 (1992)
         He : Obtained from the ccRepo (grant-hill.group.shef.ac.uk/ccrepo) Feb. 2017
              D. E. Woon, T. H. Dunning, Jr., J. Chem. Phys. 100, 2975 (1994)
  Li-Be, Na : Obtained from the ccRepo (grant-hill.group.shef.ac.uk/ccrepo) Feb. 2017
              B. P. Prascher, D. E. Woon, K. A. Peterson, T. H. Dunning, Jr., A. K. Wilson, Theor. Chem. Acc. 128, 69 (2011)
         Mg : Obtained from the Peterson Research Group Website (tyr0.chem.wsu.edu/~kipeters) Feb. 2017
              B. P. Prascher, D. E. Woon, K. A. Peterson, T. H. Dunning, Jr., A. K. Wilson, Theor. Chem. Acc. 128, 69 (2011)
      Al-Ar : Obtained from the ccRepo (grant-hill.group.shef.ac.uk/ccrepo) Feb. 2017
              D. E. Woon, T. H. Dunning, Jr., J. Chem. Phys. 98, 1358 (1993)
      Sc-Zn : Obtained from the ccRepo (grant-hill.group.shef.ac.uk/ccrepo) Feb. 2017
              N. B. Balabanov, K. A. Peterson, J. Chem. Phys. 123, 064107 (2005)
              N. B. Balabanov, K. A. Peterson, J. Chem. Phys. 125, 074110 (2006)
      Ga-Kr : Obtained from the ccRepo (grant-hill.group.shef.ac.uk/ccrepo) Feb. 2017
              A. K. Wilson, D. E. Woon, K. A. Peterson, T. H. Dunning, Jr., J. Chem. Phys. 110, 7667 (1999)
     Ag, Au : Obtained from the Peterson Research Group Website (tyr0.chem.wsu.edu/~kipeters) Feb. 2017
              K. A. Peterson, C. Puzzarini, Theor. Chem. Acc. 114, 283 (2005)

----- AuxC basis set information -----
Your calculation utilizes the auxiliary basis: aug-cc-pVTZ/C 
  H-He, B-F, Al-Ar, Ga-Kr : Obtained from the EMSL Basis Set Exchange (bse.pnl.gov) Feb. 2017
                            F. Weigend, A. Kohn, C. Hattig, J. Chem. Phys. 116, 3175 (2002)
                   Be, Mg : Obtained from the TURBOMOLE 7.0 basis set library
                            C. Haettig, Phys. Chem. Chem. Phys. 7, 59 (2005)
                       Ne : Obtained from the EMSL Basis Set Exchange (bse.pnl.gov) Feb. 2017
                            C. Haettig, Phys. Chem. Chem. Phys. 7, 59 (2005)
                            F. Weigend, A. Kohn, C. Hattig, J. Chem. Phys. 116, 3175 (2002)
                    Sc-Zn : Obtained from the EMSL Basis Set Exchange (bse.pnl.gov) Feb. 2017
                            J. G. Hill, J. A. Platts, J. Chem. Phys. 128, 044104 (2008)

================================================================================
                                        WARNINGS
                       Please study these warnings very carefully!
================================================================================


WARNING: MDCI localization with Augmented Hessian Foster-Boys
  ===> : Switching off randomization!

WARNING: Post HF methods need fully converged wavefunctions
  ===> : Setting SCFConvForced true
         You can overwrite this default with %scf ConvForced false 


INFO   : the flag for use of LIBINT has been found!

================================================================================
                                       INPUT FILE
================================================================================
NAME = acene_14.inp
|  1> !RHF DLPNO-CCSD(T) aug-cc-pVTZ aug-cc-pVTZ/C  TightSCF TightPNO
|  2> %maxcore 8000
|  3> %pal
|  4> nprocs 32
|  5> end
|  6> 
|  7> # RHF DLPNO-ccsd(T)
|  8> *xyz 0 1
|  9> H	-0.577612	0.924372	0.000000
| 10> C	0.000000	0.000000	0.000000
| 11> H	-0.545000	-0.943968	0.000000
| 12> C	1.360000	0.000000	0.000000
| 13> H	1.905000	0.943968	0.000000
| 14> C	2.123084	-1.221189	0.000000
| 15> H	1.578084	-2.165157	0.000000
| 16> C	3.483084	-1.221189	0.000000
| 17> H	4.028084	-0.277221	0.000000
| 18> C	4.246168	-2.442378	0.000000
| 19> H	3.701168	-3.386346	0.000000
| 20> C	5.606168	-2.442378	0.000000
| 21> H	6.151168	-1.498410	0.000000
| 22> C	6.369252	-3.663567	0.000000
| 23> H	5.824252	-4.607535	0.000000
| 24> C	7.729252	-3.663567	0.000000
| 25> H	8.274252	-2.719599	0.000000
| 26> C	8.492336	-4.884756	0.000000
| 27> H	7.947336	-5.828724	0.000000
| 28> C	9.852336	-4.884756	0.000000
| 29> H	10.397336	-3.940788	0.000000
| 30> C	10.615420	-6.105945	0.000000
| 31> H	10.070420	-7.049913	0.000000
| 32> C	11.975420	-6.105945	0.000000
| 33> H	12.520420	-5.161977	0.000000
| 34> C	12.738504	-7.327134	0.000000
| 35> H	12.193504	-8.271102	0.000000
| 36> C	14.098504	-7.327134	0.000000
| 37> H	14.643504	-6.383166	0.000000
| 38> C	14.861588	-8.548323	0.000000
| 39> H	14.316588	-9.492291	0.000000
| 40> C	16.221588	-8.548323	0.000000
| 41> H	16.766588	-7.604355	0.000000
| 42> C	16.984672	-9.769512	0.000000
| 43> H	16.439672	-10.713480	0.000000
| 44> C	18.344672	-9.769512	0.000000
| 45> H	18.889672	-8.825544	0.000000
| 46> C	19.107756	-10.990701	0.000000
| 47> H	18.562756	-11.934669	0.000000
| 48> C	20.467756	-10.990701	0.000000
| 49> H	21.012756	-10.046733	0.000000
| 50> C	21.230840	-12.211890	0.000000
| 51> H	20.685840	-13.155858	0.000000
| 52> C	22.590840	-12.211890	0.000000
| 53> H	23.135840	-11.267922	0.000000
| 54> C	23.353924	-13.433079	0.000000
| 55> H	22.808924	-14.377047	0.000000
| 56> C	24.713924	-13.433079	0.000000
| 57> H	25.258924	-12.489111	0.000000
| 58> C	25.477008	-14.654268	0.000000
| 59> H	24.932008	-15.598236	0.000000
| 60> C	26.837008	-14.654268	0.000000
| 61> H	27.382008	-13.710300	0.000000
| 62> C	27.600092	-15.875457	0.000000
| 63> H	27.055092	-16.819425	0.000000
| 64> C	28.960092	-15.875457	0.000000
| 65> H	29.505092	-14.931489	0.000000
| 66> H	29.537704	-16.799829	0.000000
| 67> *
| 68> 
| 69> 
| 70>                          ****END OF INPUT****
================================================================================

                       ****************************
                       * Single Point Calculation *
                       ****************************

---------------------------------
CARTESIAN COORDINATES (ANGSTROEM)
---------------------------------
  H     -0.577612    0.924372    0.000000
  C      0.000000    0.000000    0.000000
  H     -0.545000   -0.943968    0.000000
  C      1.360000    0.000000    0.000000
  H      1.905000    0.943968    0.000000
  C      2.123084   -1.221189    0.000000
  H      1.578084   -2.165157    0.000000
  C      3.483084   -1.221189    0.000000
  H      4.028084   -0.277221    0.000000
  C      4.246168   -2.442378    0.000000
  H      3.701168   -3.386346    0.000000
  C      5.606168   -2.442378    0.000000
  H      6.151168   -1.498410    0.000000
  C      6.369252   -3.663567    0.000000
  H      5.824252   -4.607535    0.000000
  C      7.729252   -3.663567    0.000000
  H      8.274252   -2.719599    0.000000
  C      8.492336   -4.884756    0.000000
  H      7.947336   -5.828724    0.000000
  C      9.852336   -4.884756    0.000000
  H     10.397336   -3.940788    0.000000
  C     10.615420   -6.105945    0.000000
  H     10.070420   -7.049913    0.000000
  C     11.975420   -6.105945    0.000000
  H     12.520420   -5.161977    0.000000
  C     12.738504   -7.327134    0.000000
  H     12.193504   -8.271102    0.000000
  C     14.098504   -7.327134    0.000000
  H     14.643504   -6.383166    0.000000
  C     14.861588   -8.548323    0.000000
  H     14.316588   -9.492291    0.000000
  C     16.221588   -8.548323    0.000000
  H     16.766588   -7.604355    0.000000
  C     16.984672   -9.769512    0.000000
  H     16.439672  -10.713480    0.000000
  C     18.344672   -9.769512    0.000000
  H     18.889672   -8.825544    0.000000
  C     19.107756  -10.990701    0.000000
  H     18.562756  -11.934669    0.000000
  C     20.467756  -10.990701    0.000000
  H     21.012756  -10.046733    0.000000
  C     21.230840  -12.211890    0.000000
  H     20.685840  -13.155858    0.000000
  C     22.590840  -12.211890    0.000000
  H     23.135840  -11.267922    0.000000
  C     23.353924  -13.433079    0.000000
  H     22.808924  -14.377047    0.000000
  C     24.713924  -13.433079    0.000000
  H     25.258924  -12.489111    0.000000
  C     25.477008  -14.654268    0.000000
  H     24.932008  -15.598236    0.000000
  C     26.837008  -14.654268    0.000000
  H     27.382008  -13.710300    0.000000
  C     27.600092  -15.875457    0.000000
  H     27.055092  -16.819425    0.000000
  C     28.960092  -15.875457    0.000000
  H     29.505092  -14.931489    0.000000
  H     29.537704  -16.799829    0.000000

----------------------------
CARTESIAN COORDINATES (A.U.)
----------------------------
  NO LB      ZA    FRAG     MASS         X           Y           Z
   0 H     1.0000    0     1.008   -1.091528    1.746810    0.000000
   1 C     6.0000    0    12.011    0.000000    0.000000    0.000000
   2 H     1.0000    0     1.008   -1.029901   -1.783841    0.000000
   3 C     6.0000    0    12.011    2.570028    0.000000    0.000000
   4 H     1.0000    0     1.008    3.599928    1.783841    0.000000
   5 C     6.0000    0    12.011    4.012047   -2.307713    0.000000
   6 H     1.0000    0     1.008    2.982147   -4.091554    0.000000
   7 C     6.0000    0    12.011    6.582075   -2.307713    0.000000
   8 H     1.0000    0     1.008    7.611976   -0.523872    0.000000
   9 C     6.0000    0    12.011    8.024095   -4.615426    0.000000
  10 H     1.0000    0     1.008    6.994194   -6.399267    0.000000
  11 C     6.0000    0    12.011   10.594122   -4.615426    0.000000
  12 H     1.0000    0     1.008   11.624023   -2.831585    0.000000
  13 C     6.0000    0    12.011   12.036142   -6.923138    0.000000
  14 H     1.0000    0     1.008   11.006241   -8.706979    0.000000
  15 C     6.0000    0    12.011   14.606170   -6.923138    0.000000
  16 H     1.0000    0     1.008   15.636070   -5.139297    0.000000
  17 C     6.0000    0    12.011   16.048189   -9.230851    0.000000
  18 H     1.0000    0     1.008   15.018289  -11.014692    0.000000
  19 C     6.0000    0    12.011   18.618217   -9.230851    0.000000
  20 H     1.0000    0     1.008   19.648118   -7.447010    0.000000
  21 C     6.0000    0    12.011   20.060237  -11.538564    0.000000
  22 H     1.0000    0     1.008   19.030336  -13.322405    0.000000
  23 C     6.0000    0    12.011   22.630264  -11.538564    0.000000
  24 H     1.0000    0     1.008   23.660165   -9.754723    0.000000
  25 C     6.0000    0    12.011   24.072284  -13.846277    0.000000
  26 H     1.0000    0     1.008   23.042383  -15.630118    0.000000
  27 C     6.0000    0    12.011   26.642311  -13.846277    0.000000
  28 H     1.0000    0     1.008   27.672212  -12.062436    0.000000
  29 C     6.0000    0    12.011   28.084331  -16.153989    0.000000
  30 H     1.0000    0     1.008   27.054430  -17.937830    0.000000
  31 C     6.0000    0    12.011   30.654359  -16.153989    0.000000
  32 H     1.0000    0     1.008   31.684260  -14.370148    0.000000
  33 C     6.0000    0    12.011   32.096379  -18.461702    0.000000
  34 H     1.0000    0     1.008   31.066478  -20.245543    0.000000
  35 C     6.0000    0    12.011   34.666406  -18.461702    0.000000
  36 H     1.0000    0     1.008   35.696307  -16.677861    0.000000
  37 C     6.0000    0    12.011   36.108426  -20.769415    0.000000
  38 H     1.0000    0     1.008   35.078525  -22.553256    0.000000
  39 C     6.0000    0    12.011   38.678453  -20.769415    0.000000
  40 H     1.0000    0     1.008   39.708354  -18.985574    0.000000
  41 C     6.0000    0    12.011   40.120473  -23.077128    0.000000
  42 H     1.0000    0     1.008   39.090572  -24.860969    0.000000
  43 C     6.0000    0    12.011   42.690501  -23.077128    0.000000
  44 H     1.0000    0     1.008   43.720401  -21.293287    0.000000
  45 C     6.0000    0    12.011   44.132521  -25.384840    0.000000
  46 H     1.0000    0     1.008   43.102620  -27.168681    0.000000
  47 C     6.0000    0    12.011   46.702548  -25.384840    0.000000
  48 H     1.0000    0     1.008   47.732449  -23.600999    0.000000
  49 C     6.0000    0    12.011   48.144568  -27.692553    0.000000
  50 H     1.0000    0     1.008   47.114667  -29.476394    0.000000
  51 C     6.0000    0    12.011   50.714595  -27.692553    0.000000
  52 H     1.0000    0     1.008   51.744496  -25.908712    0.000000
  53 C     6.0000    0    12.011   52.156615  -30.000266    0.000000
  54 H     1.0000    0     1.008   51.126714  -31.784107    0.000000
  55 C     6.0000    0    12.011   54.726643  -30.000266    0.000000
  56 H     1.0000    0     1.008   55.756543  -28.216425    0.000000
  57 H     1.0000    0     1.008   55.818171  -31.747076    0.000000

--------------------------------
INTERNAL COORDINATES (ANGSTROEM)
--------------------------------
 H      0   0   0     0.000000000000     0.00000000     0.00000000
 C      1   0   0     1.089999640793     0.00000000     0.00000000
 H      2   1   0     1.090000268360   117.99999622     0.00000000
 C      2   1   3     1.360000000000   122.00001192   180.00000121
 H      4   2   1     1.090000268360   119.99999186     0.00000000
 C      4   2   1     1.439999918325   122.00001421   180.00000085
 H      6   4   2     1.090000268360   117.99999394     0.00000000
 C      6   4   2     1.360000000000   122.00001421   180.00000000
 H      8   6   4     1.090000268360   119.99999186     0.00000000
 C      8   6   4     1.439999918325   122.00001421   180.00000000
 H     10   8   6     1.090000268360   117.99999394     0.00000000
 C     10   8   6     1.360000000000   122.00001421   180.00000000
 H     12  10   8     1.090000268360   119.99999186     0.00000000
 C     12  10   8     1.439999918325   122.00001421   180.00000085
 H     14  12  10     1.090000268360   117.99999394     0.00000000
 C     14  12  10     1.360000000000   122.00001421   180.00000000
 H     16  14  12     1.090000268360   119.99999186     0.00000000
 C     16  14  12     1.439999918325   122.00001421   180.00000085
 H     18  16  14     1.090000268360   117.99999394     0.00000000
 C     18  16  14     1.360000000000   122.00001421   180.00000000
 H     20  18  16     1.090000268360   119.99999186     0.00000000
 C     20  18  16     1.439999918325   122.00001421   180.00000085
 H     22  20  18     1.090000268360   117.99999394     0.00000000
 C     22  20  18     1.360000000000   122.00001421   180.00000000
 H     24  22  20     1.090000268360   119.99999186     0.00000000
 C     24  22  20     1.439999918325   122.00001421   180.00000121
 H     26  24  22     1.090000268360   117.99999394     0.00000000
 C     26  24  22     1.360000000000   122.00001421   180.00000000
 H     28  26  24     1.090000268360   119.99999186     0.00000000
 C     28  26  24     1.439999918325   122.00001421   180.00000121
 H     30  28  26     1.090000268360   117.99999394     0.00000000
 C     30  28  26     1.360000000000   122.00001421   180.00000000
 H     32  30  28     1.090000268360   119.99999186     0.00000000
 C     32  30  28     1.439999918325   122.00001421   180.00000085
 H     34  32  30     1.090000268360   117.99999394     0.00000000
 C     34  32  30     1.360000000000   122.00001421   180.00000000
 H     36  34  32     1.090000268360   119.99999186     0.00000000
 C     36  34  32     1.439999918325   122.00001421   180.00000000
 H     38  36  34     1.090000268360   117.99999394     0.00000000
 C     38  36  34     1.360000000000   122.00001421   180.00000000
 H     40  38  36     1.090000268360   119.99999186     0.00000000
 C     40  38  36     1.439999918325   122.00001421   180.00000000
 H     42  40  38     1.090000268360   117.99999394     0.00000000
 C     42  40  38     1.360000000000   122.00001421   180.00000000
 H     44  42  40     1.090000268360   119.99999186     0.00000000
 C     44  42  40     1.439999918325   122.00001421   180.00000000
 H     46  44  42     1.090000268360   117.99999394     0.00000000
 C     46  44  42     1.360000000000   122.00001421   180.00000000
 H     48  46  44     1.090000268360   119.99999186     0.00000000
 C     48  46  44     1.439999918325   122.00001421   180.00000000
 H     50  48  46     1.090000268360   117.99999394     0.00000000
 C     50  48  46     1.360000000000   122.00001421   180.00000000
 H     52  50  48     1.090000268360   119.99999186     0.00000000
 C     52  50  48     1.439999918325   122.00001421   180.00000000
 H     54  52  50     1.090000268360   117.99999394     0.00000000
 C     54  52  50     1.360000000000   122.00001421   180.00000000
 H     56  54  52     1.090000268360   119.99999186     0.00000000
 H     56  54  52     1.089999640793   122.00001192   180.00000000

---------------------------
INTERNAL COORDINATES (A.U.)
---------------------------
 H      0   0   0     0.000000000000     0.00000000     0.00000000
 C      1   0   0     2.059800807171     0.00000000     0.00000000
 H      2   1   0     2.059801993100   117.99999622     0.00000000
 C      2   1   3     2.570027542133   122.00001192   180.00000121
 H      4   2   1     2.059801993100   119.99999186     0.00000000
 C      4   2   1     2.721205478504   122.00001421   180.00000085
 H      6   4   2     2.059801993100   117.99999394     0.00000000
 C      6   4   2     2.570027542133   122.00001421   180.00000000
 H      8   6   4     2.059801993100   119.99999186     0.00000000
 C      8   6   4     2.721205478504   122.00001421   180.00000000
 H     10   8   6     2.059801993100   117.99999394     0.00000000
 C     10   8   6     2.570027542133   122.00001421   180.00000000
 H     12  10   8     2.059801993100   119.99999186     0.00000000
 C     12  10   8     2.721205478504   122.00001421   180.00000085
 H     14  12  10     2.059801993100   117.99999394     0.00000000
 C     14  12  10     2.570027542133   122.00001421   180.00000000
 H     16  14  12     2.059801993100   119.99999186     0.00000000
 C     16  14  12     2.721205478504   122.00001421   180.00000085
 H     18  16  14     2.059801993100   117.99999394     0.00000000
 C     18  16  14     2.570027542133   122.00001421   180.00000000
 H     20  18  16     2.059801993100   119.99999186     0.00000000
 C     20  18  16     2.721205478504   122.00001421   180.00000085
 H     22  20  18     2.059801993100   117.99999394     0.00000000
 C     22  20  18     2.570027542133   122.00001421   180.00000000
 H     24  22  20     2.059801993100   119.99999186     0.00000000
 C     24  22  20     2.721205478504   122.00001421   180.00000121
 H     26  24  22     2.059801993100   117.99999394     0.00000000
 C     26  24  22     2.570027542133   122.00001421   180.00000000
 H     28  26  24     2.059801993100   119.99999186     0.00000000
 C     28  26  24     2.721205478504   122.00001421   180.00000121
 H     30  28  26     2.059801993100   117.99999394     0.00000000
 C     30  28  26     2.570027542133   122.00001421   180.00000000
 H     32  30  28     2.059801993100   119.99999186     0.00000000
 C     32  30  28     2.721205478504   122.00001421   180.00000085
 H     34  32  30     2.059801993100   117.99999394     0.00000000
 C     34  32  30     2.570027542133   122.00001421   180.00000000
 H     36  34  32     2.059801993100   119.99999186     0.00000000
 C     36  34  32     2.721205478504   122.00001421   180.00000000
 H     38  36  34     2.059801993100   117.99999394     0.00000000
 C     38  36  34     2.570027542133   122.00001421   180.00000000
 H     40  38  36     2.059801993100   119.99999186     0.00000000
 C     40  38  36     2.721205478504   122.00001421   180.00000000
 H     42  40  38     2.059801993100   117.99999394     0.00000000
 C     42  40  38     2.570027542133   122.00001421   180.00000000
 H     44  42  40     2.059801993100   119.99999186     0.00000000
 C     44  42  40     2.721205478504   122.00001421   180.00000000
 H     46  44  42     2.059801993100   117.99999394     0.00000000
 C     46  44  42     2.570027542133   122.00001421   180.00000000
 H     48  46  44     2.059801993100   119.99999186     0.00000000
 C     48  46  44     2.721205478504   122.00001421   180.00000000
 H     50  48  46     2.059801993100   117.99999394     0.00000000
 C     50  48  46     2.570027542133   122.00001421   180.00000000
 H     52  50  48     2.059801993100   119.99999186     0.00000000
 C     52  50  48     2.721205478504   122.00001421   180.00000000
 H     54  52  50     2.059801993100   117.99999394     0.00000000
 C     54  52  50     2.570027542133   122.00001421   180.00000000
 H     56  54  52     2.059801993100   119.99999186     0.00000000
 H     56  54  52     2.059800807171   122.00001192   180.00000000

---------------------
BASIS SET INFORMATION
---------------------
There are 2 groups of distinct atoms

 Group   1 Type H   : 6s3p2d contracted to 4s3p2d pattern {3111/111/11}
 Group   2 Type C   : 19s6p3d2f contracted to 5s4p3d2f pattern {88111/3111/111/11}

Atom   0H    basis set group =>   1
Atom   1C    basis set group =>   2
Atom   2H    basis set group =>   1
Atom   3C    basis set group =>   2
Atom   4H    basis set group =>   1
Atom   5C    basis set group =>   2
Atom   6H    basis set group =>   1
Atom   7C    basis set group =>   2
Atom   8H    basis set group =>   1
Atom   9C    basis set group =>   2
Atom  10H    basis set group =>   1
Atom  11C    basis set group =>   2
Atom  12H    basis set group =>   1
Atom  13C    basis set group =>   2
Atom  14H    basis set group =>   1
Atom  15C    basis set group =>   2
Atom  16H    basis set group =>   1
Atom  17C    basis set group =>   2
Atom  18H    basis set group =>   1
Atom  19C    basis set group =>   2
Atom  20H    basis set group =>   1
Atom  21C    basis set group =>   2
Atom  22H    basis set group =>   1
Atom  23C    basis set group =>   2
Atom  24H    basis set group =>   1
Atom  25C    basis set group =>   2
Atom  26H    basis set group =>   1
Atom  27C    basis set group =>   2
Atom  28H    basis set group =>   1
Atom  29C    basis set group =>   2
Atom  30H    basis set group =>   1
Atom  31C    basis set group =>   2
Atom  32H    basis set group =>   1
Atom  33C    basis set group =>   2
Atom  34H    basis set group =>   1
Atom  35C    basis set group =>   2
Atom  36H    basis set group =>   1
Atom  37C    basis set group =>   2
Atom  38H    basis set group =>   1
Atom  39C    basis set group =>   2
Atom  40H    basis set group =>   1
Atom  41C    basis set group =>   2
Atom  42H    basis set group =>   1
Atom  43C    basis set group =>   2
Atom  44H    basis set group =>   1
Atom  45C    basis set group =>   2
Atom  46H    basis set group =>   1
Atom  47C    basis set group =>   2
Atom  48H    basis set group =>   1
Atom  49C    basis set group =>   2
Atom  50H    basis set group =>   1
Atom  51C    basis set group =>   2
Atom  52H    basis set group =>   1
Atom  53C    basis set group =>   2
Atom  54H    basis set group =>   1
Atom  55C    basis set group =>   2
Atom  56H    basis set group =>   1
Atom  57H    basis set group =>   1
---------------------------------
AUXILIARY/C BASIS SET INFORMATION
---------------------------------
There are 2 groups of distinct atoms

 Group   1 Type H   : 5s4p3d2f contracted to 5s4p3d2f pattern {11111/1111/111/11}
 Group   2 Type C   : 9s7p6d4f2g contracted to 9s7p6d4f2g pattern {111111111/1111111/111111/1111/11}

Atom   0H    basis set group =>   1
Atom   1C    basis set group =>   2
Atom   2H    basis set group =>   1
Atom   3C    basis set group =>   2
Atom   4H    basis set group =>   1
Atom   5C    basis set group =>   2
Atom   6H    basis set group =>   1
Atom   7C    basis set group =>   2
Atom   8H    basis set group =>   1
Atom   9C    basis set group =>   2
Atom  10H    basis set group =>   1
Atom  11C    basis set group =>   2
Atom  12H    basis set group =>   1
Atom  13C    basis set group =>   2
Atom  14H    basis set group =>   1
Atom  15C    basis set group =>   2
Atom  16H    basis set group =>   1
Atom  17C    basis set group =>   2
Atom  18H    basis set group =>   1
Atom  19C    basis set group =>   2
Atom  20H    basis set group =>   1
Atom  21C    basis set group =>   2
Atom  22H    basis set group =>   1
Atom  23C    basis set group =>   2
Atom  24H    basis set group =>   1
Atom  25C    basis set group =>   2
Atom  26H    basis set group =>   1
Atom  27C    basis set group =>   2
Atom  28H    basis set group =>   1
Atom  29C    basis set group =>   2
Atom  30H    basis set group =>   1
Atom  31C    basis set group =>   2
Atom  32H    basis set group =>   1
Atom  33C    basis set group =>   2
Atom  34H    basis set group =>   1
Atom  35C    basis set group =>   2
Atom  36H    basis set group =>   1
Atom  37C    basis set group =>   2
Atom  38H    basis set group =>   1
Atom  39C    basis set group =>   2
Atom  40H    basis set group =>   1
Atom  41C    basis set group =>   2
Atom  42H    basis set group =>   1
Atom  43C    basis set group =>   2
Atom  44H    basis set group =>   1
Atom  45C    basis set group =>   2
Atom  46H    basis set group =>   1
Atom  47C    basis set group =>   2
Atom  48H    basis set group =>   1
Atom  49C    basis set group =>   2
Atom  50H    basis set group =>   1
Atom  51C    basis set group =>   2
Atom  52H    basis set group =>   1
Atom  53C    basis set group =>   2
Atom  54H    basis set group =>   1
Atom  55C    basis set group =>   2
Atom  56H    basis set group =>   1
Atom  57H    basis set group =>   1


           ************************************************************
           *        Program running with 32 parallel MPI-processes    *
           *              working on a shared directory               *
           ************************************************************
------------------------------------------------------------------------------
                           ORCA GTO INTEGRAL CALCULATION
------------------------------------------------------------------------------

                         BASIS SET STATISTICS AND STARTUP INFO

 # of primitive gaussian shells          ... 1170
 # of primitive gaussian functions       ... 2598
 # of contracted shells                  ...  662
 # of contracted basis functions         ... 1978
 Highest angular momentum                ...    3
 Maximum contraction depth               ...    8
 Integral package used                   ... LIBINT
 Integral threshhold            Thresh   ...  2.500e-11
 Primitive cut-off              TCut     ...  2.500e-12


------------------------------ INTEGRAL EVALUATION ----------------------------


 * One electron integrals 
 Pre-screening matrix                    ... done
 Shell pair data                         ... done (   0.084 sec)



           ************************************************************
           *        Program running with 32 parallel MPI-processes    *
           *              working on a shared directory               *
           ************************************************************
-------------------------------------------------------------------------------
                                 ORCA SCF
-------------------------------------------------------------------------------

------------
SCF SETTINGS
------------
Hamiltonian:
 Ab initio Hamiltonian  Method          .... Hartree-Fock(GTOs)


General Settings:
 Integral files         IntName         .... acene_14
 Hartree-Fock type      HFTyp           .... RHF
 Total Charge           Charge          ....    0
 Multiplicity           Mult            ....    1
 Number of Electrons    NEL             ....  198
 Basis Dimension        Dim             .... 1978
 Nuclear Repulsion      ENuc            ....   1706.1314597197 Eh

Convergence Acceleration:
 DIIS                   CNVDIIS         .... on
   Start iteration      DIISMaxIt       ....    12
   Startup error        DIISStart       ....  0.200000
   # of expansion vecs  DIISMaxEq       ....     5
   Bias factor          DIISBfac        ....   1.050
   Max. coefficient     DIISMaxC        ....  10.000
 Newton-Raphson         CNVNR           .... off
 SOSCF                  CNVSOSCF        .... on
   Start iteration      SOSCFMaxIt      ....   150
   Startup grad/error   SOSCFStart      ....  0.003300
 Level Shifting         CNVShift        .... on
   Level shift para.    LevelShift      ....    0.2500
   Turn off err/grad.   ShiftErr        ....    0.0010
 Zerner damping         CNVZerner       .... off
 Static damping         CNVDamp         .... on
   Fraction old density DampFac         ....    0.7000
   Max. Damping (<1)    DampMax         ....    0.9800
   Min. Damping (>=0)   DampMin         ....    0.0000
   Turn off err/grad.   DampErr         ....    0.1000
 Fernandez-Rico         CNVRico         .... off

SCF Procedure:
 Maximum # iterations   MaxIter         ....   125
 SCF integral mode      SCFMode         .... Direct
   Integral package                     .... LIBINT
 Reset frequency        DirectResetFreq ....    20
 Integral Threshold     Thresh          ....  2.500e-11 Eh
 Primitive CutOff       TCut            ....  2.500e-12 Eh

Convergence Tolerance:
 Convergence Check Mode ConvCheckMode   .... Total+1el-Energy
 Convergence forced     ConvForced      .... 1
 Energy Change          TolE            ....  1.000e-08 Eh
 1-El. energy change                    ....  1.000e-05 Eh
 Orbital Gradient       TolG            ....  1.000e-05
 Orbital Rotation angle TolX            ....  1.000e-05
 DIIS Error             TolErr          ....  5.000e-07


Diagonalization of the overlap matrix:
Smallest eigenvalue                        ... 4.032e-08
Time for diagonalization                   ...   12.214 sec
Threshold for overlap eigenvalues          ... 1.000e-08
Number of eigenvalues below threshold      ... 0
Time for construction of square roots      ...    1.463 sec
Total time needed                          ...   13.710 sec

-------------------
DFT GRID GENERATION
-------------------

General Integration Accuracy     IntAcc      ...  4.340
Radial Grid Type                 RadialGrid  ... Gauss-Chebyshev
Angular Grid (max. acc.)         AngularGrid ... Lebedev-110
Angular grid pruning method      GridPruning ... 3 (G Style)
Weight generation scheme         WeightScheme... Becke
Basis function cutoff            BFCut       ...    1.0000e-11
Integration weight cutoff        WCut        ...    1.0000e-14
Grids for H and He will be reduced by one unit

# of grid points (after initial pruning)     ...  70188 (   0.0 sec)
# of grid points (after weights+screening)   ...  64354 (   0.2 sec)
nearest neighbour list constructed           ...    0.0 sec
Grid point re-assignment to atoms done       ...    0.0 sec
Grid point division into batches done        ...    0.1 sec
Reduced shell lists constructed in    0.3 sec

Total number of grid points                  ...    64354
Total number of batches                      ...     1038
Average number of points per batch           ...       61
Average number of grid points per atom       ...     1110
Average number of shells per batch           ...   124.82 (18.86%)
Average number of basis functions per batch  ...   340.24 (17.20%)
Average number of large shells per batch     ...    88.88 (71.21%)
Average number of large basis fcns per batch ...   248.88 (73.15%)
Maximum spatial batch extension              ...  17.52, 16.14, 22.02 au
Average spatial batch extension              ...   0.15,  0.13,  0.21 au

Time for grid setup =    0.706 sec

------------------------------
INITIAL GUESS: MODEL POTENTIAL
------------------------------
Loading Hartree-Fock densities                     ... done
Calculating cut-offs                               ... done
Setting up the integral package                    ... done
Initializing the effective Hamiltonian             ... done
Starting the Coulomb interaction                   ... done (   1.3 sec)
Reading the grid                                   ... done
Mapping shells                                     ... done
Starting the XC term evaluation                    ... done (   0.8 sec)
Transforming the Hamiltonian                       ... done (   2.1 sec)
Diagonalizing the Hamiltonian                      ... done (  20.6 sec)
Back transforming the eigenvectors                 ... done (   0.6 sec)
Now organizing SCF variables                       ... done
                      ------------------
                      INITIAL GUESS DONE (  26.8 sec)
                      ------------------
--------------
SCF ITERATIONS
--------------
ITER       Energy         Delta-E        Max-DP      RMS-DP      [F,P]     Damp
               ***  Starting incremental Fock matrix formation  ***
  0  -1076.6615662471   0.000000000000896279.28758374 5430.77201661  0.2154020 0.7000
  1 -211559.1855735708-210482.524007323664386667.20600795 2073.42231711  1.2456315 0.7000
  2 -1898352.1403046236-1686792.954731052974689432.37802477 4356.38167322  0.5152547 0.7000
  3 -5604725.5810775058-3706373.440772882197553705.80571253 3092.14470849  0.7015948 0.7000
  4 -9023145.8601828273-3418420.279105321504406747.38152345 2154.30012241  0.6947514 0.7000
  5 -11863610.2126788832-2840464.352496055886293848.75203713 1498.49163889  0.5809374 0.7000
  6 -14079297.1074904446-2215686.894811561331210464.73408130 1042.79115067  0.4509681 0.7000
  7 -15744267.2805518322-1664970.173061387613149945.37964668 726.45865874  0.3364330 0.7000
  8 -16966575.9878102876-1222308.707258455455106453.33194970 506.69130428  0.2451444 0.7000
                               ***Turning on DIIS***
  9 -17850453.4100541621-883877.42224387452075389.36110429 353.81580937  0.1759845 0.7000
 10 -18980704.8147348017-1130251.40468063950554066.95640106 246.91014906  0.1250916 0.7000
 11 -19427747.2365626357-447042.421827834100126517.09915951 578.46725431  0.0882007 0.0000
 12 -20008543.6313675642-580796.3948049284521618.03112306  8.35788558  0.0050769 0.0000
 13 -20006608.73366417361934.897703390568523.26086764  3.14473861  0.0012841 0.0000
 14 -20006070.8202109821 537.91345319151979.52205055  0.36334250  0.0001459 0.0000
 15 -20006125.0573456362 -54.237134654075 7.18575090  0.03669710  0.0000276 0.0000
 16 -20006124.6772085354   0.380137100816 0.18413129  0.00103425  0.0000012 0.0000
                            ***DIIS convergence achieved***

               *****************************************************
               *                     SUCCESS                       *
               *           SCF CONVERGED AFTER  17 CYCLES          *
               *****************************************************


----------------
TOTAL SCF ENERGY
----------------

Total Energy       :    -20006124.68383977 Eh      -544394329.12017 eV

Components:
Nuclear Repulsion  :         1706.13145972 Eh           46426.19728 eV
Electronic Energy  :    -20007830.81529949 Eh      -544440755.31745 eV
One Electron Energy:        -2461.10988648 Eh          -66970.20471 eV
Two Electron Energy:    -20005369.70541301 Eh      -544373785.11274 eV

Virial components:
Potential Energy   :    -20006727.78418318 Eh      -544410740.31484 eV
Kinetic Energy     :          603.10034341 Eh           16411.19467 eV
Virial Ratio       :        33173.13280082


---------------
SCF CONVERGENCE
---------------

  Last Energy change         ...   -6.6312e-03  Tolerance :   1.0000e-08
  Last MAX-Density change    ...    1.1582e-02  Tolerance :   1.0000e-07
  Last RMS-Density change    ...    8.1864e-05  Tolerance :   5.0000e-09
  Last DIIS Error            ...    1.0198e-07  Tolerance :   5.0000e-07

================================================================================
                                        WARNING
Check your MOs and check whether a frozen core calculation is appropriate
MO 3 should be a C  d core orbital but seems to be delocalized with a C  p orbital (82.4% vs. 10.8%)
================================================================================
================================================================================
                                        WARNING
Check your MOs and check whether a frozen core calculation is appropriate
MO 4 should be a C  d core orbital but seems to be delocalized with a C  p orbital (77.1% vs. 14.3%)
================================================================================
================================================================================
                                        WARNING
Check your MOs and check whether a frozen core calculation is appropriate
MO 5 should be a C  p core orbital but seems to be delocalized with a C  d orbital (78.6% vs. 12.9%)
================================================================================
================================================================================
                                        WARNING
Check your MOs and check whether a frozen core calculation is appropriate
MO 6 should be a C  d core orbital but seems to be delocalized with a C  p orbital (71.1% vs. 34.3%)
================================================================================
================================================================================
                                        WARNING
Check your MOs and check whether a frozen core calculation is appropriate
MO 7 should be a C  d core orbital but seems to be delocalized with a C  p orbital (71.3% vs. 32.9%)
================================================================================
================================================================================
                                        WARNING
Check your MOs and check whether a frozen core calculation is appropriate
MO 8 should be a C  d core orbital but seems to be delocalized with a C  p orbital (60.1% vs. 50.4%)
================================================================================
================================================================================
                                        WARNING
Check your MOs and check whether a frozen core calculation is appropriate
MO 9 should be a C  p core orbital but seems to be delocalized with a C  d orbital (70.8% vs. 27.5%)
================================================================================
================================================================================
                                        WARNING
Check your MOs and check whether a frozen core calculation is appropriate
MO 10 should be a C  p core orbital but seems to be delocalized with a C  d orbital (62.8% vs. 44.9%)
================================================================================
================================================================================
                                        WARNING
Check your MOs and check whether a frozen core calculation is appropriate
MO 11 should be a C  d core orbital but seems to be delocalized with a C  p orbital (48.8% vs. 42.6%)
================================================================================
================================================================================
                                        WARNING
Check your MOs and check whether a frozen core calculation is appropriate
MO 13 should be a C  d core orbital but seems to be delocalized with a C  p orbital (44.4% vs. 44.0%)
================================================================================
================================================================================
                                        WARNING
Check your MOs and check whether a frozen core calculation is appropriate
MO 14 should be a C  p core orbital but seems to be delocalized with a C  d orbital (71.7% vs. 18.6%)
================================================================================
================================================================================
                                        WARNING
Check your MOs and check whether a frozen core calculation is appropriate
MO 15 should be a C  p core orbital but seems to be delocalized with a C  d orbital (70.5% vs. 29.9%)
================================================================================
================================================================================
                                        WARNING
Check your MOs and check whether a frozen core calculation is appropriate
MO 16 should be a C  d core orbital but seems to be delocalized with a C  p orbital (54.5% vs. 49.1%)
================================================================================
================================================================================
                                        WARNING
Check your MOs and check whether a frozen core calculation is appropriate
MO 17 should be a C  p core orbital but seems to be delocalized with a C  d orbital (68.1% vs. 31.1%)
================================================================================
================================================================================
                                        WARNING
Check your MOs and check whether a frozen core calculation is appropriate
MO 18 should be a C  p core orbital but seems to be delocalized with a C  d orbital (50.0% vs. 48.8%)
================================================================================
================================================================================
                                        WARNING
Check your MOs and check whether a frozen core calculation is appropriate
MO 19 should be a C  p core orbital but seems to be delocalized with a C  d orbital (60.6% vs. 26.3%)
================================================================================
================================================================================
                                        WARNING
Check your MOs and check whether a frozen core calculation is appropriate
MO 20 should be a C  d core orbital but seems to be delocalized with a C  p orbital (61.2% vs. 30.1%)
================================================================================
================================================================================
                                        WARNING
Check your MOs and check whether a frozen core calculation is appropriate
MO 21 should be a C  d core orbital but seems to be delocalized with a C  p orbital (51.7% vs. 37.2%)
================================================================================
================================================================================
                                        WARNING
Check your MOs and check whether a frozen core calculation is appropriate
MO 22 should be a C  d core orbital but seems to be delocalized with a C  p orbital (56.4% vs. 33.1%)
================================================================================
================================================================================
                                        WARNING
Check your MOs and check whether a frozen core calculation is appropriate
MO 23 should be a C  p core orbital but seems to be delocalized with a C  d orbital (46.2% vs. 36.5%)
================================================================================
================================================================================
                                        WARNING
Check your MOs and check whether a frozen core calculation is appropriate
MO 24 should be a C  d core orbital but seems to be delocalized with a C  p orbital (46.3% vs. 44.2%)
================================================================================
================================================================================
                                        WARNING
Check your MOs and check whether a frozen core calculation is appropriate
MO 25 should be a C  p core orbital but seems to be delocalized with a C  d orbital (50.7% vs. 42.3%)
================================================================================
================================================================================
                                        WARNING
Check your MOs and check whether a frozen core calculation is appropriate
MO 26 should be a C  p core orbital but seems to be delocalized with a C  d orbital (62.8% vs. 21.8%)
================================================================================
================================================================================
                                        WARNING
Check your MOs and check whether a frozen core calculation is appropriate
MO 27 should be a C  p core orbital but seems to be delocalized with a C  s orbital (37.1% vs. 28.8%)
================================================================================
             **** THE GBW FILE WAS UPDATED (acene_14.gbw) ****
             **** DENSITY FILE WAS UPDATED (acene_14.scfp) ****
             **** ENERGY FILE WAS UPDATED (acene_14.en.tmp) ****
             **** THE GBW FILE WAS UPDATED (acene_14.gbw) ****
             **** DENSITY FILE WAS UPDATED (acene_14.scfp) ****
----------------
ORBITAL ENERGIES
----------------

  NO   OCC          E(Eh)            E(eV) 
   0   2.0000   -8137485.016650   -221432224.6998 
   1   2.0000   -4964592.807557   -135093438.3113 
   2   2.0000   -2382256.844650   -64824504.3570 
   3   2.0000   -825448.419249   -22461593.4131 
   4   2.0000   -675483.553588   -18380841.9571 
   5   2.0000   -300241.547217   -8169987.8539 
   6   2.0000   -257022.923042   -6993949.3015 
   7   2.0000   -254898.956361   -6936153.2298 
   8   2.0000   -209392.578663   -5697861.7391 
   9   2.0000   -206480.753420   -5618626.9460 
  10   2.0000   -201770.027918   -5490441.5883 
  11   2.0000   -199815.448670   -5437254.7830 
  12   2.0000   -142932.371753   -3889387.5680 
  13   2.0000   -129020.032094   -3510813.5596 
  14   2.0000   -121973.853212   -3319077.2845 
  15   2.0000   -108603.290256   -2955245.7696 
  16   2.0000   -91330.679067   -2485234.1243 
  17   2.0000   -83448.943854   -2270761.2055 
  18   2.0000   -69452.351203   -1889894.5566 
  19   2.0000   -60238.881608   -1639183.3030 
  20   2.0000   -54216.328628   -1475301.3048 
  21   2.0000   -49074.195523   -1335376.7494 
  22   2.0000   -48049.942857   -1307505.4174 
  23   2.0000   -46647.089507   -1269331.8371 
  24   2.0000   -36542.571959   -994373.9360 
  25   2.0000   -34984.644876   -951980.5848 
  26   2.0000   -32407.831645   -881861.9320 
  27   2.0000   -28886.616992   -786044.8101 
  28   2.0000   -22355.970169   -608336.8756 
  29   2.0000   -21178.540718   -576297.3913 
  30   2.0000   -18660.630908   -507781.5821 
  31   2.0000   -16175.348280   -440153.6037 
  32   2.0000   -14911.245026   -405755.6054 
  33   2.0000   -12266.240191   -333781.3647 
  34   2.0000   -12066.015125   -328332.9637 
  35   2.0000   -9805.033347   -266808.5217 
  36   2.0000   -9594.601682   -261082.3849 
  37   2.0000   -8991.355354   -244667.2178 
  38   2.0000   -6852.621050   -186469.2987 
  39   2.0000   -6527.375257   -177618.9107 
  40   2.0000   -5644.831028   -153603.6613 
  41   2.0000   -5603.960306   -152491.5124 
  42   2.0000   -5222.588462   -142113.8570 
  43   2.0000   -4845.337724   -131848.3425 
  44   2.0000   -4660.454456   -126817.4130 
  45   2.0000   -4313.670763   -117380.9490 
  46   2.0000   -3938.991923   -107185.4194 
  47   2.0000   -3700.786023   -100703.5073 
  48   2.0000   -3497.163589    -95162.6592 
  49   2.0000   -3198.856995    -87045.3241 
  50   2.0000   -3093.107381    -84167.7308 
  51   2.0000   -2865.220583    -77966.6158 
  52   2.0000   -2627.952644    -71510.2270 
  53   2.0000   -2530.371159    -68854.8997 
  54   2.0000   -2309.176818    -62835.8957 
  55   2.0000   -1999.125930    -54398.9822 
  56   2.0000   -1960.266121    -53341.5530 
  57   2.0000   -1773.821434    -48268.1351 
  58   2.0000   -1767.736356    -48102.5517 
  59   2.0000   -1602.583255    -43608.5074 
  60   2.0000   -1483.199708    -40359.9159 
  61   2.0000   -1363.920674    -37114.1684 
  62   2.0000   -1360.012075    -37007.8100 
  63   2.0000   -1234.682350    -33597.4148 
  64   2.0000   -1200.282095    -32661.3363 
  65   2.0000   -1135.323892    -30893.7337 
  66   2.0000   -1055.792413    -28729.5721 
  67   2.0000   -1054.358477    -28690.5527 
  68   2.0000   -1020.323013    -27764.4007 
  69   2.0000    -935.982023    -25469.3657 
  70   2.0000    -928.739601    -25272.2894 
  71   2.0000    -841.439098    -22896.7219 
  72   2.0000    -838.830635    -22825.7420 
  73   2.0000    -756.534064    -20586.3385 
  74   2.0000    -716.742511    -19503.5553 
  75   2.0000    -674.018617    -18340.9790 
  76   2.0000    -655.671351    -17841.7245 
  77   2.0000    -645.893707    -17575.6613 
  78   2.0000    -605.101918    -16465.6603 
  79   2.0000    -601.346397    -16363.4674 
  80   2.0000    -588.278731    -16007.8781 
  81   2.0000    -571.738412    -15557.7931 
  82   2.0000    -557.928804    -15182.0146 
  83   2.0000    -519.424524    -14134.2599 
  84   2.0000    -507.876035    -13820.0095 
  85   2.0000    -471.258546    -12823.5970 
  86   2.0000    -458.478527    -12475.8350 
  87   2.0000    -456.960949    -12434.5396 
  88   2.0000    -456.393952    -12419.1108 
  89   2.0000    -432.910052    -11780.0814 
  90   2.0000    -418.901250    -11398.8825 
  91   2.0000    -395.244324    -10755.1448 
  92   2.0000    -387.024828    -10531.4810 
  93   2.0000    -378.325775    -10294.7677 
  94   2.0000    -354.346520     -9642.2590 
  95   2.0000    -346.808124     -9437.1288 
  96   2.0000    -317.630249     -8643.1585 
  97   2.0000    -317.123277     -8629.3631 
  98   2.0000    -315.930781     -8596.9136 
  99   0.0000    -303.043394     -8246.2300 
 100   0.0000    -289.634613     -7881.3585 
 101   0.0000    -278.502098     -7578.4274 
 102   0.0000    -254.382837     -6922.1089 
 103   0.0000    -249.667500     -6793.7981 
 104   0.0000    -237.069828     -6450.9980 
 105   0.0000    -234.308611     -6375.8614 
 106   0.0000    -230.820512     -6280.9455 
 107   0.0000    -228.104696     -6207.0443 
 108   0.0000    -217.597406     -5921.1264 
 109   0.0000    -212.324365     -5777.6397 
 110   0.0000    -211.337616     -5750.7889 
 111   0.0000    -201.498036     -5483.0403 
 112   0.0000    -185.395146     -5044.8584 
 113   0.0000    -180.742255     -4918.2468 
 114   0.0000    -180.385534     -4908.5399 
 115   0.0000    -178.098570     -4846.3085 
 116   0.0000    -174.010245     -4735.0595 
 117   0.0000    -169.349938     -4608.2461 
 118   0.0000    -168.278316     -4579.0858 
 119   0.0000    -162.110941     -4411.2630 
 120   0.0000    -157.494897     -4285.6540 
 121   0.0000    -146.008868     -3973.1033 
 122   0.0000    -140.342460     -3818.9125 
 123   0.0000    -134.172914     -3651.0306 
 124   0.0000    -130.979667     -3564.1379 
 125   0.0000    -125.929252     -3426.7092 
 126   0.0000    -121.968258     -3318.9250 
 127   0.0000    -113.325480     -3083.7431 
 128   0.0000    -113.080983     -3077.0900 
 129   0.0000    -106.838944     -2907.2355 
 130   0.0000     -99.534383     -2708.4683 
 131   0.0000     -99.127195     -2697.3881 
 132   0.0000     -98.566141     -2682.1211 
 133   0.0000     -95.827936     -2607.6107 
 134   0.0000     -85.488584     -2326.2626 
 135   0.0000     -85.056260     -2314.4985 
 136   0.0000     -80.825943     -2199.3857 
 137   0.0000     -79.802583     -2171.5387 
 138   0.0000     -76.731987     -2087.9835 
 139   0.0000     -75.763724     -2061.6357 
 140   0.0000     -74.731648     -2033.5515 
 141   0.0000     -73.203430     -1991.9666 
 142   0.0000     -70.435699     -1916.6528 
 143   0.0000     -68.006223     -1850.5434 
 144   0.0000     -65.121045     -1772.0337 
 145   0.0000     -65.098759     -1771.4273 
 146   0.0000     -63.137429     -1718.0568 
 147   0.0000     -61.535049     -1674.4538 
 148   0.0000     -60.888660     -1656.8647 
 149   0.0000     -58.940401     -1603.8498 
 150   0.0000     -57.517653     -1565.1349 
 151   0.0000     -56.786022     -1545.2262 
 152   0.0000     -54.216805     -1475.3143 
 153   0.0000     -52.476368     -1427.9546 
 154   0.0000     -51.780606     -1409.0219 
 155   0.0000     -49.190611     -1338.5446 
 156   0.0000     -48.465955     -1318.8257 
 157   0.0000     -45.661945     -1242.5247 
 158   0.0000     -45.594642     -1240.6933 
 159   0.0000     -45.383086     -1234.9365 
 160   0.0000     -43.288802     -1177.9482 
 161   0.0000     -42.525778     -1157.1852 
 162   0.0000     -41.954833     -1141.6490 
 163   0.0000     -40.649871     -1106.1392 
 164   0.0000     -40.043793     -1089.6470 
 165   0.0000     -39.389478     -1071.8422 
 166   0.0000     -37.753747     -1027.3317 
 167   0.0000     -37.292684     -1014.7855 
 168   0.0000     -37.008864     -1007.0624 
 169   0.0000     -35.145832      -956.3667 
 170   0.0000     -34.582600      -941.0404 
 171   0.0000     -34.529331      -939.5909 
 172   0.0000     -33.288306      -905.8209 
 173   0.0000     -31.551550      -858.5613 
 174   0.0000     -31.548967      -858.4910 
 175   0.0000     -30.107546      -819.2680 
 176   0.0000     -29.314771      -797.6955 
 177   0.0000     -28.906847      -786.5953 
 178   0.0000     -28.421618      -773.3915 
 179   0.0000     -28.116775      -765.0963 
 180   0.0000     -27.032625      -735.5951 
 181   0.0000     -26.556794      -722.6471 
 182   0.0000     -25.053074      -681.7288 
 183   0.0000     -24.471855      -665.9130 
 184   0.0000     -24.072765      -655.0532 
 185   0.0000     -23.828775      -648.4139 
 186   0.0000     -23.306493      -634.2019 
 187   0.0000     -23.030569      -626.6937 
 188   0.0000     -22.882994      -622.6779 
 189   0.0000     -22.061656      -600.3282 
 190   0.0000     -21.972811      -597.9106 
 191   0.0000     -21.937324      -596.9449 
 192   0.0000     -21.918850      -596.4422 
 193   0.0000     -21.694249      -590.3305 
 194   0.0000     -21.690722      -590.2345 
 195   0.0000     -21.660434      -589.4104 
 196   0.0000     -21.506227      -585.2142 
 197   0.0000     -21.340337      -580.7001 
 198   0.0000     -21.166555      -575.9712 
 199   0.0000     -21.166036      -575.9571 
 200   0.0000     -21.076272      -573.5145 
 201   0.0000     -20.618832      -561.0670 
 202   0.0000     -20.538783      -558.8887 
 203   0.0000     -20.500096      -557.8360 
 204   0.0000     -20.494723      -557.6898 
 205   0.0000     -20.234675      -550.6135 
 206   0.0000     -20.128283      -547.7184 
 207   0.0000     -19.956413      -543.0416 
 208   0.0000     -19.932318      -542.3859 
 209   0.0000     -19.267220      -524.2877 
 210   0.0000     -19.164275      -521.4864 
 211   0.0000     -19.066206      -518.8178 
 212   0.0000     -18.873716      -513.5799 
 213   0.0000     -18.860745      -513.2270 
 214   0.0000     -18.423497      -501.3289 
 215   0.0000     -18.352986      -499.4101 
 216   0.0000     -18.252678      -496.6806 
 217   0.0000     -18.150139      -493.8904 
 218   0.0000     -18.128798      -493.3097 
 219   0.0000     -17.996344      -489.7054 
 220   0.0000     -17.991779      -489.5812 
 221   0.0000     -17.913779      -487.4587 
 222   0.0000     -17.771248      -483.5802 
 223   0.0000     -17.644667      -480.1358 
 224   0.0000     -17.580421      -478.3876 
 225   0.0000     -17.209950      -468.3065 
 226   0.0000     -16.944112      -461.0727 
 227   0.0000     -16.459114      -447.8753 
 228   0.0000     -16.132360      -438.9838 
 229   0.0000     -16.049110      -436.7185 
 230   0.0000     -14.855029      -404.2259 
 231   0.0000     -14.660541      -398.9336 
 232   0.0000     -14.262140      -388.0926 
 233   0.0000     -14.152055      -385.0970 
 234   0.0000     -13.888621      -377.9286 
 235   0.0000     -13.199270      -359.1704 
 236   0.0000     -12.692168      -345.3714 
 237   0.0000     -12.480511      -339.6120 
 238   0.0000     -11.727668      -319.1261 
 239   0.0000     -11.659882      -317.2815 
 240   0.0000     -11.470532      -312.1290 
 241   0.0000     -11.060140      -300.9617 
 242   0.0000     -11.021992      -299.9237 
 243   0.0000     -10.896529      -296.5096 
 244   0.0000     -10.587231      -288.0932 
 245   0.0000     -10.471825      -284.9528 
 246   0.0000     -10.348963      -281.6096 
 247   0.0000     -10.247125      -278.8384 
 248   0.0000      -9.952852      -270.8309 
 249   0.0000      -9.756763      -265.4950 
 250   0.0000      -9.610147      -261.5054 
 251   0.0000      -9.350434      -254.4382 
 252   0.0000      -9.314439      -253.4588 
 253   0.0000      -9.235319      -251.3058 
 254   0.0000      -9.131726      -248.4869 
 255   0.0000      -9.043452      -246.0849 
 256   0.0000      -9.037168      -245.9138 
 257   0.0000      -8.943067      -243.3532 
 258   0.0000      -8.941318      -243.3056 
 259   0.0000      -8.764922      -238.5056 
 260   0.0000      -8.746167      -237.9953 
 261   0.0000      -8.742742      -237.9021 
 262   0.0000      -8.639918      -235.1041 
 263   0.0000      -8.620783      -234.5834 
 264   0.0000      -8.596400      -233.9199 
 265   0.0000      -8.587865      -233.6877 
 266   0.0000      -8.512850      -231.6464 
 267   0.0000      -8.512090      -231.6258 
 268   0.0000      -8.475996      -230.6436 
 269   0.0000      -8.470032      -230.4813 
 270   0.0000      -8.404550      -228.6994 
 271   0.0000      -8.386375      -228.2049 
 272   0.0000      -8.384114      -228.1433 
 273   0.0000      -8.356667      -227.3965 
 274   0.0000      -8.326466      -226.5747 
 275   0.0000      -8.315270      -226.2700 
 276   0.0000      -8.250656      -224.5118 
 277   0.0000      -8.250623      -224.5109 
 278   0.0000      -8.210316      -223.4140 
 279   0.0000      -8.209296      -223.3863 
 280   0.0000      -8.196525      -223.0388 
 281   0.0000      -8.196387      -223.0350 
 282   0.0000      -8.128766      -221.1950 
 283   0.0000      -8.123588      -221.0541 
 284   0.0000      -8.117000      -220.8748 
 285   0.0000      -8.109574      -220.6727 
 286   0.0000      -8.082113      -219.9255 
 287   0.0000      -8.077182      -219.7913 
 288   0.0000      -7.970289      -216.8826 
 289   0.0000      -7.967363      -216.8030 
 290   0.0000      -7.958322      -216.5569 
 291   0.0000      -7.955229      -216.4728 
 292   0.0000      -7.939488      -216.0444 
 293   0.0000      -7.810836      -212.5436 
 294   0.0000      -7.777198      -211.6283 
 295   0.0000      -7.753215      -210.9757 
 296   0.0000      -7.734130      -210.4564 
 297   0.0000      -7.688463      -209.2137 
 298   0.0000      -7.684322      -209.1010 
 299   0.0000      -7.671906      -208.7632 
 300   0.0000      -7.667040      -208.6308 
 301   0.0000      -7.593629      -206.6331 
 302   0.0000      -7.569286      -205.9707 
 303   0.0000      -7.559882      -205.7148 
 304   0.0000      -7.487973      -203.7581 
 305   0.0000      -7.482009      -203.5958 
 306   0.0000      -7.430482      -202.1937 
 307   0.0000      -7.305642      -198.7966 
 308   0.0000      -7.266402      -197.7289 
 309   0.0000      -7.174331      -195.2235 
 310   0.0000      -7.122812      -193.8216 
 311   0.0000      -7.118160      -193.6950 
 312   0.0000      -7.101186      -193.2331 
 313   0.0000      -7.100932      -193.2262 
 314   0.0000      -7.084204      -192.7710 
 315   0.0000      -7.037322      -191.4953 
 316   0.0000      -7.035523      -191.4463 
 317   0.0000      -7.030411      -191.3072 
 318   0.0000      -6.969964      -189.6624 
 319   0.0000      -6.966450      -189.5668 
 320   0.0000      -6.939040      -188.8209 
 321   0.0000      -6.760543      -183.9637 
 322   0.0000      -6.756664      -183.8582 
 323   0.0000      -6.683342      -181.8630 
 324   0.0000      -6.650721      -180.9753 
 325   0.0000      -6.616971      -180.0569 
 326   0.0000      -6.584345      -179.1691 
 327   0.0000      -6.554436      -178.3553 
 328   0.0000      -6.552441      -178.3010 
 329   0.0000      -6.535684      -177.8450 
 330   0.0000      -6.522602      -177.4890 
 331   0.0000      -6.504150      -176.9869 
 332   0.0000      -6.481802      -176.3788 
 333   0.0000      -6.447429      -175.4435 
 334   0.0000      -6.435786      -175.1267 
 335   0.0000      -6.383591      -173.7063 
 336   0.0000      -6.364147      -173.1772 
 337   0.0000      -6.362682      -173.1374 
 338   0.0000      -6.318426      -171.9331 
 339   0.0000      -6.298507      -171.3911 
 340   0.0000      -6.282948      -170.9677 
 341   0.0000      -6.281581      -170.9305 
 342   0.0000      -6.155871      -167.5098 
 343   0.0000      -6.152418      -167.4158 
 344   0.0000      -6.129565      -166.7939 
 345   0.0000      -6.127806      -166.7461 
 346   0.0000      -6.126970      -166.7233 
 347   0.0000      -6.102556      -166.0590 
 348   0.0000      -6.080516      -165.4593 
 349   0.0000      -6.070260      -165.1802 
 350   0.0000      -6.006301      -163.4398 
 351   0.0000      -5.997420      -163.1981 
 352   0.0000      -5.994344      -163.1144 
 353   0.0000      -5.992131      -163.0542 
 354   0.0000      -5.990558      -163.0114 
 355   0.0000      -5.988665      -162.9599 
 356   0.0000      -5.958879      -162.1493 
 357   0.0000      -5.922546      -161.1607 
 358   0.0000      -5.907274      -160.7451 
 359   0.0000      -5.891884      -160.3263 
 360   0.0000      -5.869973      -159.7301 
 361   0.0000      -5.867887      -159.6733 
 362   0.0000      -5.852571      -159.2566 
 363   0.0000      -5.839391      -158.8979 
 364   0.0000      -5.829566      -158.6305 
 365   0.0000      -5.777572      -157.2157 
 366   0.0000      -5.771850      -157.0600 
 367   0.0000      -5.743734      -156.2949 
 368   0.0000      -5.727197      -155.8450 
 369   0.0000      -5.725944      -155.8109 
 370   0.0000      -5.720634      -155.6664 
 371   0.0000      -5.705977      -155.2675 
 372   0.0000      -5.705880      -155.2649 
 373   0.0000      -5.703652      -155.2043 
 374   0.0000      -5.696505      -155.0098 
 375   0.0000      -5.674413      -154.4086 
 376   0.0000      -5.673795      -154.3918 
 377   0.0000      -5.658739      -153.9821 
 378   0.0000      -5.625900      -153.0885 
 379   0.0000      -5.622609      -152.9990 
 380   0.0000      -5.580705      -151.8587 
 381   0.0000      -5.574854      -151.6995 
 382   0.0000      -5.544566      -150.8753 
 383   0.0000      -5.541616      -150.7950 
 384   0.0000      -5.538398      -150.7075 
 385   0.0000      -5.537542      -150.6842 
 386   0.0000      -5.532540      -150.5481 
 387   0.0000      -5.513902      -150.0409 
 388   0.0000      -5.468547      -148.8067 
 389   0.0000      -5.461403      -148.6123 
 390   0.0000      -5.460123      -148.5775 
 391   0.0000      -5.446046      -148.1944 
 392   0.0000      -5.442323      -148.0931 
 393   0.0000      -5.440690      -148.0487 
 394   0.0000      -5.431187      -147.7901 
 395   0.0000      -5.381535      -146.4390 
 396   0.0000      -5.378718      -146.3624 
 397   0.0000      -5.366619      -146.0331 
 398   0.0000      -5.339277      -145.2891 
 399   0.0000      -5.337631      -145.2443 
 400   0.0000      -5.333275      -145.1258 
 401   0.0000      -5.331729      -145.0837 
 402   0.0000      -5.324835      -144.8961 
 403   0.0000      -5.313652      -144.5918 
 404   0.0000      -5.309134      -144.4689 
 405   0.0000      -5.308035      -144.4390 
 406   0.0000      -5.270998      -143.4312 
 407   0.0000      -5.267468      -143.3351 
 408   0.0000      -5.243805      -142.6912 
 409   0.0000      -5.234356      -142.4341 
 410   0.0000      -5.230072      -142.3175 
 411   0.0000      -5.223130      -142.1286 
 412   0.0000      -5.195211      -141.3689 
 413   0.0000      -5.184324      -141.0726 
 414   0.0000      -5.183093      -141.0391 
 415   0.0000      -5.137640      -139.8023 
 416   0.0000      -5.135589      -139.7465 
 417   0.0000      -5.130136      -139.5981 
 418   0.0000      -5.106428      -138.9530 
 419   0.0000      -5.105368      -138.9241 
 420   0.0000      -5.103307      -138.8681 
 421   0.0000      -5.099659      -138.7688 
 422   0.0000      -5.094763      -138.6356 
 423   0.0000      -5.084057      -138.3442 
 424   0.0000      -5.083252      -138.3223 
 425   0.0000      -5.064235      -137.8048 
 426   0.0000      -5.048611      -137.3797 
 427   0.0000      -5.045047      -137.2827 
 428   0.0000      -5.042376      -137.2100 
 429   0.0000      -5.035410      -137.0205 
 430   0.0000      -5.035116      -137.0125 
 431   0.0000      -5.025324      -136.7460 
 432   0.0000      -5.023121      -136.6861 
 433   0.0000      -5.000502      -136.0706 
 434   0.0000      -4.989687      -135.7763 
 435   0.0000      -4.979211      -135.4912 
 436   0.0000      -4.975532      -135.3911 
 437   0.0000      -4.955327      -134.8413 
 438   0.0000      -4.917536      -133.8130 
 439   0.0000      -4.895368      -133.2097 
 440   0.0000      -4.891621      -133.1078 
 441   0.0000      -4.853013      -132.0572 
 442   0.0000      -4.851418      -132.0138 
 443   0.0000      -4.841880      -131.7543 
 444   0.0000      -4.833995      -131.5397 
 445   0.0000      -4.831756      -131.4788 
 446   0.0000      -4.814668      -131.0138 
 447   0.0000      -4.813334      -130.9775 
 448   0.0000      -4.809138      -130.8633 
 449   0.0000      -4.781600      -130.1139 
 450   0.0000      -4.781370      -130.1077 
 451   0.0000      -4.779912      -130.0680 
 452   0.0000      -4.769791      -129.7926 
 453   0.0000      -4.759216      -129.5048 
 454   0.0000      -4.757425      -129.4561 
 455   0.0000      -4.744410      -129.1020 
 456   0.0000      -4.734068      -128.8205 
 457   0.0000      -4.732160      -128.7686 
 458   0.0000      -4.715033      -128.3026 
 459   0.0000      -4.708411      -128.1224 
 460   0.0000      -4.694118      -127.7335 
 461   0.0000      -4.693286      -127.7108 
 462   0.0000      -4.681533      -127.3910 
 463   0.0000      -4.669727      -127.0697 
 464   0.0000      -4.668416      -127.0340 
 465   0.0000      -4.662725      -126.8792 
 466   0.0000      -4.643801      -126.3642 
 467   0.0000      -4.634598      -126.1138 
 468   0.0000      -4.626807      -125.9018 
 469   0.0000      -4.619308      -125.6978 
 470   0.0000      -4.612861      -125.5223 
 471   0.0000      -4.610271      -125.4518 
 472   0.0000      -4.601889      -125.2238 
 473   0.0000      -4.600036      -125.1734 
 474   0.0000      -4.595945      -125.0620 
 475   0.0000      -4.558353      -124.0391 
 476   0.0000      -4.549663      -123.8026 
 477   0.0000      -4.522635      -123.0672 
 478   0.0000      -4.522156      -123.0541 
 479   0.0000      -4.519278      -122.9758 
 480   0.0000      -4.506342      -122.6238 
 481   0.0000      -4.503459      -122.5453 
 482   0.0000      -4.499019      -122.4245 
 483   0.0000      -4.491094      -122.2089 
 484   0.0000      -4.485582      -122.0589 
 485   0.0000      -4.450738      -121.1107 
 486   0.0000      -4.442298      -120.8811 
 487   0.0000      -4.433482      -120.6412 
 488   0.0000      -4.430752      -120.5669 
 489   0.0000      -4.428027      -120.4927 
 490   0.0000      -4.407461      -119.9331 
 491   0.0000      -4.382567      -119.2557 
 492   0.0000      -4.372206      -118.9738 
 493   0.0000      -4.371342      -118.9503 
 494   0.0000      -4.370315      -118.9223 
 495   0.0000      -4.362122      -118.6994 
 496   0.0000      -4.350977      -118.3961 
 497   0.0000      -4.341551      -118.1396 
 498   0.0000      -4.340274      -118.1049 
 499   0.0000      -4.323566      -117.6502 
 500   0.0000      -4.319457      -117.5384 
 501   0.0000      -4.310554      -117.2961 
 502   0.0000      -4.309812      -117.2760 
 503   0.0000      -4.303127      -117.0940 
 504   0.0000      -4.299680      -117.0002 
 505   0.0000      -4.279961      -116.4637 
 506   0.0000      -4.277686      -116.4018 
 507   0.0000      -4.264474      -116.0422 
 508   0.0000      -4.261934      -115.9731 
 509   0.0000      -4.258427      -115.8777 
 510   0.0000      -4.249173      -115.6259 
 511   0.0000      -4.237401      -115.3055 
 512   0.0000      -4.234421      -115.2245 
 513   0.0000      -4.231980      -115.1580 
 514   0.0000      -4.216030      -114.7240 
 515   0.0000      -4.209399      -114.5436 
 516   0.0000      -4.178818      -113.7114 
 517   0.0000      -4.174610      -113.5969 
 518   0.0000      -4.170533      -113.4860 
 519   0.0000      -4.169388      -113.4548 
 520   0.0000      -4.152955      -113.0076 
 521   0.0000      -4.135875      -112.5429 
 522   0.0000      -4.134050      -112.4932 
 523   0.0000      -4.112323      -111.9020 
 524   0.0000      -4.109956      -111.8376 
 525   0.0000      -4.106736      -111.7500 
 526   0.0000      -4.086540      -111.2004 
 527   0.0000      -4.067558      -110.6839 
 528   0.0000      -4.067138      -110.6724 
 529   0.0000      -4.054182      -110.3199 
 530   0.0000      -4.047982      -110.1512 
 531   0.0000      -4.034446      -109.7828 
 532   0.0000      -4.031141      -109.6929 
 533   0.0000      -4.029594      -109.6508 
 534   0.0000      -4.019660      -109.3805 
 535   0.0000      -4.013547      -109.2142 
 536   0.0000      -4.010282      -109.1253 
 537   0.0000      -3.994023      -108.6829 
 538   0.0000      -3.984471      -108.4230 
 539   0.0000      -3.961018      -107.7848 
 540   0.0000      -3.953530      -107.5810 
 541   0.0000      -3.939457      -107.1981 
 542   0.0000      -3.929720      -106.9331 
 543   0.0000      -3.925193      -106.8099 
 544   0.0000      -3.920431      -106.6804 
 545   0.0000      -3.919583      -106.6573 
 546   0.0000      -3.907013      -106.3152 
 547   0.0000      -3.896703      -106.0347 
 548   0.0000      -3.886443      -105.7555 
 549   0.0000      -3.872242      -105.3691 
 550   0.0000      -3.857706      -104.9735 
 551   0.0000      -3.849596      -104.7528 
 552   0.0000      -3.845710      -104.6471 
 553   0.0000      -3.841800      -104.5407 
 554   0.0000      -3.838388      -104.4478 
 555   0.0000      -3.826445      -104.1229 
 556   0.0000      -3.824071      -104.0582 
 557   0.0000      -3.817347      -103.8753 
 558   0.0000      -3.810635      -103.6926 
 559   0.0000      -3.810133      -103.6790 
 560   0.0000      -3.804914      -103.5370 
 561   0.0000      -3.800447      -103.4154 
 562   0.0000      -3.798286      -103.3566 
 563   0.0000      -3.795342      -103.2765 
 564   0.0000      -3.779208      -102.8375 
 565   0.0000      -3.768786      -102.5539 
 566   0.0000      -3.759768      -102.3085 
 567   0.0000      -3.748137      -101.9920 
 568   0.0000      -3.744133      -101.8830 
 569   0.0000      -3.741273      -101.8052 
 570   0.0000      -3.737904      -101.7135 
 571   0.0000      -3.735667      -101.6527 
 572   0.0000      -3.714897      -101.0875 
 573   0.0000      -3.701730      -100.7292 
 574   0.0000      -3.701034      -100.7103 
 575   0.0000      -3.688101      -100.3583 
 576   0.0000      -3.687497      -100.3419 
 577   0.0000      -3.683644      -100.2370 
 578   0.0000      -3.679302      -100.1189 
 579   0.0000      -3.669489       -99.8519 
 580   0.0000      -3.645124       -99.1889 
 581   0.0000      -3.644649       -99.1760 
 582   0.0000      -3.635550       -98.9283 
 583   0.0000      -3.633625       -98.8760 
 584   0.0000      -3.625753       -98.6618 
 585   0.0000      -3.623651       -98.6046 
 586   0.0000      -3.613490       -98.3281 
 587   0.0000      -3.611031       -98.2612 
 588   0.0000      -3.595358       -97.8347 
 589   0.0000      -3.585769       -97.5737 
 590   0.0000      -3.585330       -97.5618 
 591   0.0000      -3.566292       -97.0437 
 592   0.0000      -3.550069       -96.6023 
 593   0.0000      -3.542921       -96.4078 
 594   0.0000      -3.541319       -96.3642 
 595   0.0000      -3.534937       -96.1905 
 596   0.0000      -3.525149       -95.9242 
 597   0.0000      -3.513659       -95.6115 
 598   0.0000      -3.505961       -95.4021 
 599   0.0000      -3.495398       -95.1146 
 600   0.0000      -3.492315       -95.0307 
 601   0.0000      -3.486374       -94.8691 
 602   0.0000      -3.485953       -94.8576 
 603   0.0000      -3.481258       -94.7298 
 604   0.0000      -3.467945       -94.3676 
 605   0.0000      -3.466900       -94.3392 
 606   0.0000      -3.450927       -93.9045 
 607   0.0000      -3.444990       -93.7430 
 608   0.0000      -3.432651       -93.4072 
 609   0.0000      -3.423822       -93.1669 
 610   0.0000      -3.421200       -93.0956 
 611   0.0000      -3.401778       -92.5671 
 612   0.0000      -3.399217       -92.4974 
 613   0.0000      -3.387131       -92.1685 
 614   0.0000      -3.383666       -92.0742 
 615   0.0000      -3.381597       -92.0179 
 616   0.0000      -3.380666       -91.9926 
 617   0.0000      -3.363716       -91.5314 
 618   0.0000      -3.357039       -91.3497 
 619   0.0000      -3.355504       -91.3079 
 620   0.0000      -3.331584       -90.6570 
 621   0.0000      -3.324944       -90.4763 
 622   0.0000      -3.324285       -90.4584 
 623   0.0000      -3.318638       -90.3047 
 624   0.0000      -3.315254       -90.2126 
 625   0.0000      -3.312915       -90.1490 
 626   0.0000      -3.302709       -89.8713 
 627   0.0000      -3.291507       -89.5665 
 628   0.0000      -3.281479       -89.2936 
 629   0.0000      -3.279538       -89.2408 
 630   0.0000      -3.274924       -89.1152 
 631   0.0000      -3.271922       -89.0335 
 632   0.0000      -3.265161       -88.8496 
 633   0.0000      -3.257254       -88.6344 
 634   0.0000      -3.241272       -88.1995 
 635   0.0000      -3.233981       -88.0011 
 636   0.0000      -3.233566       -87.9898 
 637   0.0000      -3.219182       -87.5984 
 638   0.0000      -3.218400       -87.5771 
 639   0.0000      -3.214627       -87.4744 
 640   0.0000      -3.209697       -87.3403 
 641   0.0000      -3.202114       -87.1340 
 642   0.0000      -3.201056       -87.1052 
 643   0.0000      -3.179707       -86.5242 
 644   0.0000      -3.179153       -86.5092 
 645   0.0000      -3.176504       -86.4371 
 646   0.0000      -3.172180       -86.3194 
 647   0.0000      -3.171383       -86.2977 
 648   0.0000      -3.166564       -86.1666 
 649   0.0000      -3.166092       -86.1537 
[...]
LOCALIZATION HAS CONVERGED.

Eigenvalues of the Hessian:
  0 -4.234e-01
  1 -4.257e-01
  2 -6.190e-01
  3 -9.424e-01
  4 -9.454e-01
  5 -1.627e+00
  6 -1.674e+00
  7 -1.726e+00
  8 -2.294e+00
  9 -2.383e+00
    ...


------------------------------------------------------------------------------- 
                    LOCALIZED MOLECULAR ORBITAL COMPOSITIONS                   
------------------------------------------------------------------------------- 

The Mulliken populations for each LMO on each atom are computed
The LMO`s will be ordered according to atom index and type
  (A) Strongly localized MO`s have populations of >=0.950 on one atom
  (B) Two center bond orbitals have populations of >=0.850 on two atoms
  (C) Other MO`s are considered to be `delocalized`

FOUND  -   0 strongly local MO`s
       -   4 two center bond MO`s
       -  24 significantly delocalized MO`s

Bond-like localized orbitals:
MO   3:  37C  -   0.507449  and  21C  -   0.527699
MO   2:  37C  -   0.605786  and  17C  -   0.456869
MO   1:  35C  -   0.527345  and  19C  -   0.507600
MO   0:  23C  -   0.328354  and  19C  -   0.606060
More delocalized orbitals:
MO  27:  19C --0.123 21C - 0.335 23C --0.116 27C - 0.297 31C - 0.177 41C --0.086 43C - 0.391
MO  26:  13C - 0.391 15C --0.087 25C - 0.177 29C - 0.297 33C --0.117 35C - 0.335 37C --0.123
MO  25:  11C - 0.160 13C - 0.224 17C - 0.110 27C - 0.132 29C - 0.315
MO  24:  21C - 0.085 25C - 0.286 41C - 0.391
MO  23:  19C - 0.093 23C - 0.252 29C - 0.140 31C --0.077 39C - 0.272 41C - 0.103
MO  22:  21C - 0.156 23C - 0.294 35C - 0.157 39C - 0.129 43C - 0.194
MO  21:  13C - 0.193 17C - 0.129 21C - 0.157 33C - 0.294 35C - 0.156
MO  20:  15C - 0.102 17C - 0.272 25C --0.077 27C - 0.140 33C - 0.251 37C - 0.094
MO  19:  9C - 0.267 17C - 0.207 21C --0.093 25C - 0.431 27C --0.302 29C - 0.305
MO  18:  5C - 0.134 9C - 0.120 11C - 0.272 19C - 0.080 21C - 0.222 23C --0.192 27C - 0.387 31C --0.125 33C - 0.086
MO  17:  25C - 0.150 33C - 0.312 45C - 0.109 47C - 0.078 49C - 0.184
MO  16:  11C - 0.077 13C - 0.089 15C - 0.280 23C --0.170 25C - 0.240 31C - 0.239 35C - 0.258
MO  15:  21C --0.170 23C - 0.408 27C --0.140 29C - 0.289 31C --0.265 33C - 0.307 35C --0.095 41C - 0.146
MO  14:  15C - 0.146 21C --0.095 23C - 0.307 25C --0.266 27C - 0.289 29C --0.141 33C - 0.408 35C --0.170
MO  13:  27C - 0.315 29C - 0.132 39C - 0.110 43C - 0.224 45C - 0.160
MO  12:  23C - 0.087 25C --0.126 29C - 0.388 33C --0.192 35C - 0.222 37C - 0.080 45C - 0.272 47C - 0.120 51C - 0.134
MO  11:  35C - 0.086 37C - 0.301 49C - 0.121 53C - 0.240
MO  10:  21C - 0.258 25C - 0.239 31C - 0.240 33C --0.170 41C - 0.280 43C - 0.090 45C - 0.077
MO   9:  7C - 0.184 9C - 0.078 11C - 0.109 23C - 0.312 31C - 0.150
MO   8:  3C - 0.240 7C - 0.121 19C - 0.301 21C - 0.086
MO   7:  15C - 0.392 31C - 0.286 35C - 0.085
MO   6:  33C - 0.203 39C --0.185 43C - 0.235 45C --0.079 47C - 0.121 49C - 0.279 51C - 0.224 53C - 0.082
MO   5:  3C - 0.082 5C - 0.224 7C - 0.279 9C - 0.121 11C --0.079 13C - 0.235 17C --0.185 23C - 0.202
MO   4:  27C - 0.306 29C --0.302 31C - 0.431 35C --0.093 39C - 0.207 47C - 0.267
Localized MO's were stored in: acene_14.loc

Warning: reference  - re-canonicalizations have been set to INT 1 VIRT 1
Warning: internal orbitals are localized - no re-canonicalization of internal orbitals
Warning: UsePNO is turned on - no re-canonicalization of internal and virtual orbitals

--------------------------
CLOSED-SHELL FOCK OPERATOR
--------------------------

<ss|ss>:    132006876 b     21597675 skpd ( 16.4%)    4.576 s ( 0.000 ms/b)
<ss|sp>:    401358096 b     66785266 skpd ( 16.6%)   20.528 s ( 0.000 ms/b)
<ss|sd>:    264030000 b     44566160 skpd ( 16.9%)   16.351 s ( 0.000 ms/b)
<ss|sf>:    100640112 b     16580914 skpd ( 16.5%)    7.784 s ( 0.000 ms/b)
<ss|pp>:    153868560 b     23723832 skpd ( 15.4%)    8.784 s ( 0.000 ms/b)
<ss|pd>:    198030624 b     30831482 skpd ( 15.6%)   17.390 s ( 0.000 ms/b)
<ss|pf>:     76235616 b     12274312 skpd ( 16.1%)    8.522 s ( 0.000 ms/b)
<ss|dd>:     63367200 b      8549969 skpd ( 13.5%)    7.242 s ( 0.000 ms/b)
<ss|df>:     48614016 b      7638102 skpd ( 15.7%)    8.005 s ( 0.000 ms/b)
<ss|ff>:      9472584 b      1186711 skpd ( 12.5%)    2.301 s ( 0.000 ms/b)
<sp|sp>:    305106753 b     52830207 skpd ( 17.3%)   18.869 s ( 0.000 ms/b)
<sp|sd>:    401407500 b     67877278 skpd ( 16.9%)   33.997 s ( 0.000 ms/b)
<sp|sf>:    153004188 b     25286476 skpd ( 16.5%)   17.317 s ( 0.000 ms/b)
<sp|pp>:    233927940 b     35938620 skpd ( 15.4%)   22.262 s ( 0.000 ms/b)
<sp|pd>:    301067976 b     47058668 skpd ( 15.6%)   46.357 s ( 0.000 ms/b)
<sp|pf>:    115901784 b     18853770 skpd ( 16.3%)   24.101 s ( 0.000 ms/b)
<sp|dd>:     96337800 b     13063266 skpd ( 13.6%)   22.238 s ( 0.000 ms/b)
<sp|df>:     73908384 b     11736486 skpd ( 15.9%)   24.834 s ( 0.000 ms/b)
<sp|ff>:     14401266 b      1796152 skpd ( 12.5%)    7.702 s ( 0.001 ms/b)
<sd|sd>:    132039375 b     23592955 skpd ( 17.9%)   17.176 s ( 0.000 ms/b)
<sd|sf>:    100652500 b     16984052 skpd ( 16.9%)   18.874 s ( 0.000 ms/b)
<sd|pp>:    153887500 b     24094484 skpd ( 15.7%)   25.456 s ( 0.000 ms/b)
<sd|pd>:    198055000 b     31669556 skpd ( 16.0%)   50.389 s ( 0.000 ms/b)
<sd|pf>:     76245000 b     12694218 skpd ( 16.6%)   27.042 s ( 0.000 ms/b)
<sd|dd>:     63375000 b      8716566 skpd ( 13.8%)   26.219 s ( 0.000 ms/b)
<sd|df>:     48620000 b      7884102 skpd ( 16.2%)   31.601 s ( 0.001 ms/b)
<sd|ff>:      9473750 b      1221434 skpd ( 12.9%)   10.669 s ( 0.001 ms/b)
<sf|sf>:     19185915 b      3233618 skpd ( 16.9%)    6.875 s ( 0.000 ms/b)
<sf|pp>:     58657180 b      8917477 skpd ( 15.2%)   15.640 s ( 0.000 ms/b)
<sf|pd>:     75492472 b     11655660 skpd ( 15.4%)   31.980 s ( 0.001 ms/b)
<sf|pf>:     29062248 b      4683542 skpd ( 16.1%)   18.812 s ( 0.001 ms/b)
<sf|dd>:     24156600 b      3208198 skpd ( 13.3%)   17.243 s ( 0.001 ms/b)
<sf|df>:     18532448 b      2913404 skpd ( 15.7%)   22.955 s ( 0.001 ms/b)
<sf|ff>:      3611102 b       445662 skpd ( 12.3%)    8.045 s ( 0.003 ms/b)
<pp|pp>:     44845185 b      6568461 skpd ( 14.6%)    9.363 s ( 0.000 ms/b)
<pp|pd>:    115420360 b     16959574 skpd ( 14.7%)   40.292 s ( 0.000 ms/b)
<pp|pf>:     44433240 b      6778772 skpd ( 15.3%)   21.592 s ( 0.001 ms/b)
<pp|dd>:     36933000 b      4698916 skpd ( 12.7%)   21.210 s ( 0.001 ms/b)
<pp|df>:     28334240 b      4263632 skpd ( 15.0%)   25.035 s ( 0.001 ms/b)
<pp|ff>:      5521010 b       641439 skpd ( 11.6%)    8.106 s ( 0.002 ms/b)
<pd|pd>:     74279766 b     11152565 skpd ( 15.0%)   45.168 s ( 0.001 ms/b)
<pd|pf>:     57186096 b      8587652 skpd ( 15.0%)   49.836 s ( 0.001 ms/b)
<pd|dd>:     47533200 b      5953774 skpd ( 12.5%)   49.916 s ( 0.001 ms/b)
<pd|df>:     36466496 b      5302608 skpd ( 14.5%)   60.649 s ( 0.002 ms/b)
<pd|ff>:      7105604 b       839854 skpd ( 11.8%)   20.276 s ( 0.003 ms/b)
<pf|pf>:     11009778 b      1831902 skpd ( 16.6%)   16.423 s ( 0.002 ms/b)
<pf|dd>:     18298800 b      2430054 skpd ( 13.3%)   31.555 s ( 0.002 ms/b)
<pf|df>:     14038464 b      2221246 skpd ( 15.8%)   38.885 s ( 0.003 ms/b)
<pf|ff>:      2735436 b       345614 skpd ( 12.6%)   13.239 s ( 0.006 ms/b)
<dd|dd>:      7606950 b       895067 skpd ( 11.8%)   15.856 s ( 0.002 ms/b)
<dd|df>:     11668800 b      1562730 skpd ( 13.4%)   37.963 s ( 0.004 ms/b)
<dd|ff>:      2273700 b       240608 skpd ( 10.6%)   12.605 s ( 0.006 ms/b)
<df|df>:      4477528 b       732617 skpd ( 16.4%)   24.242 s ( 0.006 ms/b)
<df|ff>:      1744336 b       208166 skpd ( 11.9%)   16.281 s ( 0.011 ms/b)
<ff|ff>:       170236 b        16042 skpd (  9.4%)    3.368 s ( 0.022 ms/b)
Time needed for Fock operator              ...         1220.177 sec
Reference energy                           ... -20006124.302031394

--------------
DLPNO SETTINGS (2015 fully linear scaling implementation)
--------------

TCutMKN:           1.000e-03
TCutPAO:           1.000e-03
TCutPNO:           1.000e-07
TCutPNOSingles:    3.000e-09
TCutEN:            9.700e-01
TCutPAOExt:        1.000e-01
TCutPairs:         1.000e-05
TCutPre:           1.000e-07
TCutOSV:           1.000e-06
TCutDOij:          1.000e-05
TCutDO:            5.000e-03
TCutC:             1.000e-04
TCutCPAO:          1.000e-03
TCutCMO:           1.000e-03
TScaleDOMP2PreScr: 2.000e+00
TScaleMKNMP2PreScr:1.000e+01
TScalePNOMP2PreScr:1.000e+00
PAO overlap thresh 1.000e-08
Using PNOs for Singles Fock computation
Use new domains
Use fully linear algorithm
TCutTNO:           1.000e-09
TCutMP2Pairs:      1.000e-06
TCutDOStrong:      2.000e-03
TCutMKNStrong:     1.000e-02
TCutMKNWeak:       1.000e-01
TCutDOWeak:        4.000e-03
NTCutTNO:          1

--------------------------
Calculating differential overlap integrals ... ok
--------------------------
ELECTRON PAIR PRESCREENING
--------------------------

Dipole-based pair screening          .... used

   TCutDOij = 1.000000e-05
   TCutPre  = 1.000000e-07
   .... Finished loop over pairs
Total time spent in the prescreening                  ...     0.507 sec
sum of pair energies estimated for screened out pairs ...       0.000000000000 Eh
Thresholds for map construction and integral transformation for crude MP2:
   TCutMKN                    ...     1.0e-02
   TCutDO                     ...     1.0e-02
   TCutPairs                  ...     1.0e-05
   TCutPNO_CrudeMP2           ...     1.0e-07
   TCutPNOSingles_CrudeMP2    ...     3.0e-09
--------------------------------
LOCAL RI TRANSFORMATION (IAVPAO)
--------------------------------

Orbital window:      28 to 98
Number of PAOs:    1978
Basis functions:   1978 (662 shells)
Aux. functions:    4348 (1204 shells)

Processing maps (0.6 sec)
Average map sizes:
   Aux shells -> MOs              71.0
   Aux shells -> PAOs           1978.0
   MOs        -> AO shells       662.0
   PAOs       -> AO shells       662.0

Calculating integrals (59.1 sec, 4658.744 MB)
Sorting integrals (44.0 sec, 4658.695 MB)
Total time for the integral transformation: 107.9 sec
--------------------------------
INITIAL GUESS AND PNO GENERATION
--------------------------------

PNO truncation parameters                   .... 
    PAOOverlapThresh   =        1.000e-08

    TCutPairs          =        1.000e-05
    TCutPNO            =        1.000e-07
    TCutPNOSingles     =        3.000e-09
    TCutMP2Pairs       =        1.000e-06
    TCutMKN            =        1.000e-02
    TCutDO             =        1.000e-02

Pair selection                          .... not used
Type of local MP2 treatment                 .... semi-local MP2
Strategy for PNO selection                  .... occupation number selection
Pair density normalization                  .... MP2 norm
Spin component scaling                      .... not used

   .... Finished loop over pairs
Making pair pair interaction lists          ... done

                       ===========================
                          0 OF 2556 PAIRS ARE KEPT CCSD PAIRS
                          0 OF 2556 PAIRS ARE KEPT MP2 PAIRS FOR (T)
                       2556 OF 2556 PAIRS ARE SKIPPED
                       ===========================

Total time spent in the initial guess                 ...  2815.288 sec
SL-MP2 correlation energy (all non-screened pairs)    ...      -0.001283744719 Eh

Initial PNO correlation energy                        ...       0.000000000000 Eh
sum of pair energies prescreened and skipped MP2 pairs...      -0.001066589736 Eh
sum of pair energies of crude MP2 skipped pairs only  ...      -0.001066589736 Eh
sum of MP2 pair energies for pairs that were not kept ...      -0.001283744719 Eh
sum of PNO error estimates for the kept pairs         ...       0.000000000000 Eh
                                                          --------------------
sum of all corrections                                         -0.001283744719
Initial total correlation energy                               -0.001283744719
Thresholds for map construction and integral transformation for fine MP2 and CCSD(T) calculation:
   TCutMKN   ...     1.0e-03
   TCutDO    ...     5.0e-03
   TCutPairs ...     1.0e-05
   TCutCMO   ...     1.0e-03
   TCutCPAO  ...     1.0e-03

Thresholds for map construction and integral transformation for strong Triples:
   TCutMKN   ...     1.0e-02
   TCutDO    ...     1.0e-02
   TCutCMO   ...     1.0e-03
   TCutCPAO  ...     1.0e-03

Thresholds for map construction and integral transformation for weak Triples:
   TCutMKN   ...     1.0e-01
   TCutDO    ...     2.0e-02
   TCutCMO   ...     1.0e-03
   TCutCPAO  ...     1.0e-03

--------------------------------
LOCAL RI TRANSFORMATION (IAVPAO)
--------------------------------

Orbital window:      28 to 98
Number of PAOs:    1978
Basis functions:   1978 (662 shells)
Aux. functions:    4348 (1204 shells)

Processing maps (0.5 sec)
Average map sizes:
   Aux shells -> MOs              63.4
   Aux shells -> PAOs           1978.0
   MOs        -> AO shells       662.0
   PAOs       -> AO shells       662.0

Calculating integrals (50.4 sec, 4183.500 MB)
Sorting integrals (28.2 sec, 3932.357 MB)
Total time for the integral transformation: 82.8 sec
--------------------------------
INITIAL GUESS AND PNO GENERATION
--------------------------------

PNO truncation parameters                   .... 
    ScaleTCutPNO       =        1.000e-02
    PAOOverlapThresh   =        1.000e-08

    TCutPairs          =        1.000e-05
    TCutPNO            =        1.000e-07
    TCutPNOSingles     =        3.000e-09
    TCutMP2Pairs       =        1.000e-06
    TCutMKN            =        1.000e-03
    TCutDO             =        5.000e-03

Pair selection                          .... not used
Type of local MP2 treatment                 .... full local PMP2
Strategy for PNO selection                  .... occupation number selection
Pair density normalization                  .... MP2 norm
Spin component scaling                      .... not used

PASS-1: Formation of initial guess LMP2 amplitudes
Initial amplitudes guess done. Entering LMP2 iteration loop:
   Max. no of iterations          ...  50
   Energy convergence tolerance   ...    1.0e-07
   Residual convergence tolerance ...    5.0e-07
   Fock matrix cutoff             ...    1.0e-05 Eh
   DIIS convergence acceleration parameters:
        Max # vectors in DIIS     ... 7
        Start iteration of DIIS   ... 0
        Levelshift                ... 2.000e-01
        Damping factor 1          ... 5.000e-01
        Damping factor 2          ... 1.000e+00
   L-MP2 PNO cut-off              ...   1.0e-09
   L-MP2 PNO cut-off (core)       ...   1.0e-11
                           *** Turning on DIIS ***
LMP2-Iter=   0:  ELMP2= -0.000023808605  DE=   5.4e-06 RMAX=   1.5e-15
LMP2-Iter=   1:  ELMP2= -0.000023808605  DE=   0.0e+00 RMAX=   0.0e+00 => CONVERGED
PASS-2: Formation of Pair natural orbitals
   .... Finished loop over pairs

 PNO Occupation Number Statistics: 
  | Av. % of trace(Dij) retained        ...             -nan
  | sigma^2 in % of trace(Dij) retained ...   -nan
  | Av. % of trace(Di) retained         ...   0.000000000000
  | sigma^2 in % of trace(Di) retained  ...   0.00e+00
 Distributions of % trace(Dij) recovered:
 Distributions of % trace(Di) recovered :

Making pair pair interaction lists          ... done

                       ===========================
                          0 OF   71 PAIRS ARE KEPT
                       ===========================

Total time spent in the initial guess                 ...   322.447 sec
L-MP2 correlation energy (all non-screened pairs)     ...      -0.000023808605 Eh
L-MP2 PNO error correction                            ...      -0.000026222277 Eh
                                                          --------------------
Initial total L-MP2 energy (non-screened pairs)       ...      -0.000050030883 Eh

Initial PNO correlation energy                        ...       0.000000000000 Eh
sum of pair energies estimated for screened out pairs ...      -0.001066589736 Eh
sum of MP2 pair energies for pairs that were not kept ...      -0.000029235063 Eh
sum of PNO error estimates for the kept pairs         ...       0.000000000000 Eh
                                                          --------------------
sum of all corrections                                         -0.001095824799
Initial total correlation energy                               -0.001095824799
No CCSD pairs left, skipping CCSD iterations.

Maximum memory used throughout the entire calculation: 4928.0 MB


------------------------------------------------------------------------------- 
                                     TIMINGS                                   
------------------------------------------------------------------------------- 


Total execution time                   ...     6139.267 sec

Localization of occupied MO's          ...     1547.690 sec ( 25.2%)
Fock Matrix Formation                  ...     1220.177 sec ( 19.9%)
Global overlap, Fock, MKN matrices     ...       20.962 sec (  0.3%)
Differential overlap integrals         ...        3.070 sec (  0.1%)
Organizing maps                        ...        0.706 sec (  0.0%)
RI 3-index integral generations        ...      190.637 sec (  3.1%)
Initial Guess                          ...     3151.157 sec ( 51.3%)
DIIS Solver                            ...        0.166 sec (  0.0%)
Total Time for computing (T)           ...        0.000 sec (  0.0% of ALL)


-------------------------   --------------------
FINAL SINGLE POINT ENERGY   -20006124.303127218038
-------------------------   --------------------


                            ***************************************
                            *     ORCA property calculations      *
                            ***************************************

                                    ---------------------
                                    Active property flags
                                    ---------------------
   (+) Dipole Moment


------------------------------------------------------------------------------
                       ORCA ELECTRIC PROPERTIES CALCULATION
------------------------------------------------------------------------------

Dipole Moment Calculation                       ... on
Quadrupole Moment Calculation                   ... off
Polarizability Calculation                      ... off
GBWName                                         ... acene_14.gbw
Electron density file                           ... acene_14.scfp
The origin for moment calculation is the CENTER OF MASS  = (27.363321, -15.000133  0.000000)

-------------
DIPOLE MOMENT
-------------
                                X             Y             Z
Electronic contribution:      0.00001      -0.00000       0.00000
Nuclear contribution   :      0.00000      -0.00000       0.00000
                        -----------------------------------------
Total Dipole Moment    :      0.00001      -0.00000       0.00000
                        -----------------------------------------
Magnitude (a.u.)       :      0.00001
Magnitude (Debye)      :      0.00003



--------------------
Rotational spectrum 
--------------------
 
Rotational constants in cm-1:     0.175309     0.000465     0.000463 
Rotational constants in MHz :  5255.624134    13.931139    13.894309 

 Dipole components along the rotational axes: 
x,y,z [a.u.] :    -0.000013     0.000002     0.000000 
x,y,z [Debye]:    -0.000032     0.000005     0.000000 

 

Timings for individual modules:

Sum of individual times         ...    19945.485 sec (= 332.425 min)
GTO integral calculation        ...       15.939 sec (=   0.266 min)   0.1 %
SCF iterations                  ...    13778.541 sec (= 229.642 min)  69.1 %
MDCI module                     ...     6151.006 sec (= 102.517 min)  30.8 %
                             ****ORCA TERMINATED NORMALLY****
TOTAL RUN TIME: 0 days 5 hours 32 minutes 30 seconds 653 msec
