
                                 *****************
                                 * O   R   C   A *
                                 *****************

           --- An Ab Initio, DFT and Semiempirical electronic structure package ---

                  #######################################################
                  #                        -***-                        #
                  #          Department of theory and spectroscopy      #
                  #               Directorship: Frank Neese             #
                  #        Max Planck Institute fuer Kohlenforschung    #
                  #                Kaiser Wilhelm Platz 1               #
                  #                 D-45470 Muelheim/Ruhr               #
                  #                      Germany                        #
                  #                                                     #
                  #                  All rights reserved                #
                  #                        -***-                        #
                  #######################################################


                         Program Version 4.1.2  - RELEASE  -


 With contributions from (in alphabetic order):
   Daniel Aravena         : Magnetic Properties
   Michael Atanasov       : Ab Initio Ligand Field Theory
   Alexander A. Auer      : GIAO ZORA
   Ute Becker             : Parallelization
   Giovanni Bistoni       : ED, Open-shell LED
   Martin Brehm           : Molecular dynamics
   Dmytro Bykov           : SCF Hessian
   Vijay G. Chilkuri      : MRCI spin determinant printing
   Dipayan Datta          : RHF DLPNO-CCSD density
   Achintya Kumar Dutta   : EOM-CC, STEOM-CC
   Dmitry Ganyushin       : Spin-Orbit,Spin-Spin,Magnetic field MRCI
   Miquel Garcia          : C-PCM Hessian
   Yang Guo               : DLPNO-NEVPT2, CIM, IAO-localization
   Andreas Hansen         : Spin unrestricted coupled pair/coupled cluster methods
   Benjamin Helmich-Paris : CASSCF linear response (MC-RPA)
   Lee Huntington         : MR-EOM, pCC
   Robert Izsak           : Overlap fitted RIJCOSX, COSX-SCS-MP3, EOM
   Christian Kollmar      : KDIIS, OOCD, Brueckner-CCSD(T), CCSD density
   Simone Kossmann        : Meta GGA functionals, TD-DFT gradient, OOMP2, MP2 Hessian
   Martin Krupicka        : AUTO-CI
   Lucas Lang             : DCDCAS
   Dagmar Lenk            : GEPOL surface, SMD
   Dimitrios Liakos       : Extrapolation schemes; parallel MDCI
   Dimitrios Manganas     : ROCIS; embedding schemes
   Dimitrios Pantazis     : SARC Basis sets
   Taras Petrenko         : DFT Hessian,TD-DFT gradient, ASA, ECA, R-Raman, ABS, FL, XAS/XES, NRVS
   Peter Pinski           : DLPNO-MP2, DLPNO-MP2 Gradient
   Christoph Reimann      : Effective Core Potentials
   Marius Retegan         : Local ZFS, SOC
   Christoph Riplinger    : Optimizer, TS searches, QM/MM, DLPNO-CCSD(T), (RO)-DLPNO pert. Triples
   Tobias Risthaus        : Range-separated hybrids, TD-DFT gradient, RPA, STAB
   Michael Roemelt        : Restricted open shell CIS
   Masaaki Saitow         : Open-shell DLPNO
   Barbara Sandhoefer     : DKH picture change effects
   Avijit Sen             : IP-ROCIS
   Kantharuban Sivalingam : CASSCF convergence, NEVPT2, FIC-MRCI
   Bernardo de Souza      : ESD, SOC TD-DFT
   Georgi Stoychev        : AutoAux, RI-MP2 NMR
   Willem Van den Heuvel  : Paramagnetic NMR
   Boris Wezisla          : Elementary symmetry handling
   Frank Wennmohs         : Technical directorship


 We gratefully acknowledge several colleagues who have allowed us to
 interface, adapt or use parts of their codes:
   Stefan Grimme, W. Hujo, H. Kruse,             : VdW corrections, initial TS optimization,
                  C. Bannwarth                     DFT functionals, gCP, sTDA/sTD-DF
   Ed Valeev                                     : LibInt (2-el integral package), F12 methods
   Garnet Chan, S. Sharma, J. Yang, R. Olivares  : DMRG
   Ulf Ekstrom                                   : XCFun DFT Library
   Mihaly Kallay                                 : mrcc  (arbitrary order and MRCC methods)
   Andreas Klamt, Michael Diedenhofen            : otool_cosmo (COSMO solvation model)
   Jiri Pittner, Ondrej Demel                    : Mk-CCSD
   Frank Weinhold                                : gennbo (NPA and NBO analysis)
   Christopher J. Cramer and Donald G. Truhlar   : smd solvation model
   Lars Goerigk                                  : TD-DFT with DH, B97 family of functionals
   V. Asgeirsson, H. Jonsson                     : NEB implementation
   FAccTs GmbH                                   : IRC, NEB, NEB-TS, Multilevel


 Your calculation uses the libint2 library for the computation of 2-el integrals
 For citations please refer to: http://libint.valeyev.net

 This ORCA versions uses:
   CBLAS   interface :  Fast vector & matrix operations
   LAPACKE interface :  Fast linear algebra routines
   SCALAPACK package :  Parallel linear algebra routines


----- Orbital basis set information -----
Your calculation utilizes the basis: def2-TZVP
   F. Weigend and R. Ahlrichs, Phys. Chem. Chem. Phys. 7, 3297 (2005).

----- AuxC basis set information -----
Your calculation utilizes the auxiliary basis: def2-TZVP/C
  H-La, Hf-Rn : A. Hellweg, C. Hattig, S. Hofener and W. Klopper, Theor. Chem. Acc. 117, 587 (2007).
        Ce-Lu : J. Chmela and M. E. Harding, Mol. Phys. (2018).

================================================================================
                                        WARNINGS
                       Please study these warnings very carefully!
================================================================================


WARNING: MDCI localization with Augmented Hessian Foster-Boys
  ===> : Switching off randomization!

WARNING: Post HF methods need fully converged wavefunctions
  ===> : Setting SCFConvForced true
         You can overwrite this default with %scf ConvForced false 


INFO   : the flag for use of LIBINT has been found!

================================================================================
                                       INPUT FILE
================================================================================
NAME = input.in
|  1> !rHF dlpno-ccsd(t) def2-tzvp def2-tzvp/c  
|  2> ! NRSCF # using Newton–Raphson SCF algorithm 
|  3> !sp 
|  4> 
|  5> %maxcore 359
|  6> %pal # job parallelization settings
|  7> nprocs 40
|  8> end
|  9> %scf # recommended SCF settings 
| 10> NRMaxIt 400
| 11> NRStart 0.00005
| 12> MaxIter 500
| 13> end
| 14> 
| 15> 
| 16> * xyz 0 1
| 17> C      -2.30304800    0.61044700   -0.65744600
| 18> O      -2.19505400    2.01965900   -0.65490300
| 19> O      -2.65557700    2.52428700    0.59247400
| 20> N      -1.30349000   -0.03696700    0.15453700
| 21> C      -1.69069600   -1.42278100    0.38734700
| 22> C       0.00879700    0.05487400   -0.48854200
| 23> C       1.17327100   -0.31033100    0.41583900
| 24> C       2.50315000   -0.13374500   -0.29445100
| 25> N       3.61909000   -0.48380500    0.58485600
| 26> H      -3.29696300    0.32027300   -0.31336200
| 27> H      -2.20539800    0.36892500   -1.72676700
| 28> H      -1.85518700    2.52570700    1.13340400
| 29> H      -1.72975700   -2.00679900   -0.54488700
| 30> H      -0.98221400   -1.90571400    1.05798800
| 31> H      -2.67362600   -1.46003600    0.85769700
| 32> H       0.02962100   -0.58110400   -1.38941900
| 33> H       0.13908800    1.08530100   -0.82397300
| 34> H       1.09173500   -1.34550200    0.75513700
| 35> H       1.15365100    0.32597100    1.30637800
| 36> H       2.53868400   -0.79065300   -1.16663100
| 37> H       2.57198800    0.89487100   -0.67119400
| 38> H       3.63402400    0.16698300    1.36238900
| 39> H       4.48971300   -0.34007100    0.08760600
| 40> *
| 41> 
| 42>                          ****END OF INPUT****
================================================================================

                       ****************************
                       * Single Point Calculation *
                       ****************************

---------------------------------
CARTESIAN COORDINATES (ANGSTROEM)
---------------------------------
  C     -2.303048    0.610447   -0.657446
  O     -2.195054    2.019659   -0.654903
  O     -2.655577    2.524287    0.592474
  N     -1.303490   -0.036967    0.154537
  C     -1.690696   -1.422781    0.387347
  C      0.008797    0.054874   -0.488542
  C      1.173271   -0.310331    0.415839
  C      2.503150   -0.133745   -0.294451
  N      3.619090   -0.483805    0.584856
  H     -3.296963    0.320273   -0.313362
  H     -2.205398    0.368925   -1.726767
  H     -1.855187    2.525707    1.133404
  H     -1.729757   -2.006799   -0.544887
  H     -0.982214   -1.905714    1.057988
  H     -2.673626   -1.460036    0.857697
  H      0.029621   -0.581104   -1.389419
  H      0.139088    1.085301   -0.823973
  H      1.091735   -1.345502    0.755137
  H      1.153651    0.325971    1.306378
  H      2.538684   -0.790653   -1.166631
  H      2.571988    0.894871   -0.671194
  H      3.634024    0.166983    1.362389
  H      4.489713   -0.340071    0.087606

----------------------------
CARTESIAN COORDINATES (A.U.)
----------------------------
  NO LB      ZA    FRAG     MASS         X           Y           Z
   0 C     6.0000    0    12.011   -4.352130    1.153578   -1.242393
   1 O     8.0000    0    15.999   -4.148051    3.816602   -1.237587
   2 O     8.0000    0    15.999   -5.018313    4.770211    1.119614
   3 N     7.0000    0    14.007   -2.463239   -0.069858    0.292033
   4 C     6.0000    0    12.011   -3.194952   -2.688666    0.731980
   5 C     6.0000    0    12.011    0.016624    0.103697   -0.923211
   6 C     6.0000    0    12.011    2.217161   -0.586441    0.785822
   7 C     6.0000    0    12.011    4.730268   -0.252741   -0.556432
   8 N     7.0000    0    14.007    6.839089   -0.914259    1.105218
   9 H     1.0000    0     1.008   -6.230357    0.605228   -0.592168
  10 H     1.0000    0     1.008   -4.167598    0.697167   -3.263117
  11 H     1.0000    0     1.008   -3.505795    4.772895    2.141823
  12 H     1.0000    0     1.008   -3.268767   -3.792301   -1.029687
  13 H     1.0000    0     1.008   -1.856115   -3.601278    1.999308
  14 H     1.0000    0     1.008   -5.052421   -2.759068    1.620812
  15 H     1.0000    0     1.008    0.055976   -1.098127   -2.625621
  16 H     1.0000    0     1.008    0.262838    2.050922   -1.557083
  17 H     1.0000    0     1.008    2.063080   -2.542630    1.427002
  18 H     1.0000    0     1.008    2.180084    0.615996    2.468697
  19 H     1.0000    0     1.008    4.797418   -1.494118   -2.204613
  20 H     1.0000    0     1.008    4.860353    1.691061   -1.268373
  21 H     1.0000    0     1.008    6.867310    0.315552    2.574542
  22 H     1.0000    0     1.008    8.484328   -0.642641    0.165551

--------------------------------
INTERNAL COORDINATES (ANGSTROEM)
--------------------------------
 C      0   0   0     0.000000000000     0.00000000     0.00000000
 O      1   0   0     1.413346253340     0.00000000     0.00000000
 O      2   1   0     1.422209630133   109.30626964     0.00000000
 N      1   2   3     1.441380406086   113.19406250   286.08681196
 C      4   1   2     1.457604001481   109.43876012   164.91327455
 C      4   1   2     1.464268602372   110.23770271   287.99712185
 C      6   4   1     1.518973134016   114.23531745   166.81892639
 C      7   6   4     1.517983087566   111.41128149   182.54572381
 N      8   7   6     1.463230975427   111.04681359   179.83251740
 H      1   2   3     1.091082845872   109.52453301    48.64632746
 H      1   2   3     1.100597928412   102.34354882   164.41746804
 H      3   2   1     0.966039043414   102.90584564    89.49784936
 H      5   4   1     1.100755657174   112.24624981    63.50424682
 H      5   4   1     1.088545073800   110.32260957   184.03860451
 H      5   4   1     1.090306581850   109.93005916   302.80131027
 H      6   4   1     1.102941986049   109.84489287   290.25047959
 H      6   4   1     1.091452932000   107.52786383    46.26111489
 H      7   6   4     1.092405717369   110.82646187    61.34670684
 H      7   6   4     1.094680268446   109.32128271   303.32081442
 H      8   7   6     1.092469101632   109.39694547   299.09969048
 H      8   7   6     1.097599578056   108.93966745    55.39548836
 H      9   8   7     1.014054047568   108.57028056   295.83920087
 H      9   8   7     1.012867924946   109.06136873   180.97654307

---------------------------
INTERNAL COORDINATES (A.U.)
---------------------------
 C      0   0   0     0.000000000000     0.00000000     0.00000000
 O      1   0   0     2.670837351215     0.00000000     0.00000000
 O      2   1   0     2.687586705976   109.30626964     0.00000000
 N      1   2   3     2.723814222303   113.19406250   286.08681196
 C      4   1   2     2.754472374506   109.43876012   164.91327455
 C      4   1   2     2.767066644982   110.23770271   287.99712185
 C      6   4   1     2.870443228074   114.23531745   166.81892639
 C      7   6   4     2.868572311424   111.41128149   182.54572381
 N      8   7   6     2.765105814227   111.04681359   179.83251740
 H      1   2   3     2.061847768118   109.52453301    48.64632746
 H      1   2   3     2.079828668260   102.34354882   164.41746804
 H      3   2   1     1.825549226727   102.90584564    89.49784936
 H      5   4   1     2.080126732424   112.24624981    63.50424682
 H      5   4   1     2.057052073911   110.32260957   184.03860451
 H      5   4   1     2.060380841708   109.93005916   302.80131027
 H      6   4   1     2.084258295235   109.84489287   290.25047959
 H      6   4   1     2.062547129545   107.52786383    46.26111489
 H      7   6   4     2.064347632958   110.82646187    61.34670684
 H      7   6   4     2.068645911570   109.32128271   303.32081442
 H      8   7   6     2.064467411855   109.39694547   299.09969048
 H      8   7   6     2.074162607234   108.93966745    55.39548836
 H      9   8   7     1.916284434898   108.57028056   295.83920087
 H      9   8   7     1.914042987982   109.06136873   180.97654307

---------------------
BASIS SET INFORMATION
---------------------
There are 4 groups of distinct atoms

 Group   1 Type C   : 11s6p2d1f contracted to 5s3p2d1f pattern {62111/411/11/1}
 Group   2 Type O   : 11s6p2d1f contracted to 5s3p2d1f pattern {62111/411/11/1}
 Group   3 Type N   : 11s6p2d1f contracted to 5s3p2d1f pattern {62111/411/11/1}
 Group   4 Type H   : 5s1p contracted to 3s1p pattern {311/1}

Atom   0C    basis set group =>   1
Atom   1O    basis set group =>   2
Atom   2O    basis set group =>   2
Atom   3N    basis set group =>   3
Atom   4C    basis set group =>   1
Atom   5C    basis set group =>   1
Atom   6C    basis set group =>   1
Atom   7C    basis set group =>   1
Atom   8N    basis set group =>   3
Atom   9H    basis set group =>   4
Atom  10H    basis set group =>   4
Atom  11H    basis set group =>   4
Atom  12H    basis set group =>   4
Atom  13H    basis set group =>   4
Atom  14H    basis set group =>   4
Atom  15H    basis set group =>   4
Atom  16H    basis set group =>   4
Atom  17H    basis set group =>   4
Atom  18H    basis set group =>   4
Atom  19H    basis set group =>   4
Atom  20H    basis set group =>   4
Atom  21H    basis set group =>   4
Atom  22H    basis set group =>   4
-------------------------------
AUXILIARY BASIS SET INFORMATION
-------------------------------
There are 4 groups of distinct atoms

 Group   1 Type C   : 8s6p5d3f1g contracted to 8s6p4d3f1g pattern {11111111/111111/2111/111/1}
 Group   2 Type O   : 8s6p5d3f1g contracted to 8s6p4d3f1g pattern {11111111/111111/2111/111/1}
 Group   3 Type N   : 8s6p5d3f1g contracted to 8s6p4d3f1g pattern {11111111/111111/2111/111/1}
 Group   4 Type H   : 4s3p2d contracted to 4s2p1d pattern {1111/21/2}

Atom   0C    basis set group =>   1
Atom   1O    basis set group =>   2
Atom   2O    basis set group =>   2
Atom   3N    basis set group =>   3
Atom   4C    basis set group =>   1
Atom   5C    basis set group =>   1
Atom   6C    basis set group =>   1
Atom   7C    basis set group =>   1
Atom   8N    basis set group =>   3
Atom   9H    basis set group =>   4
Atom  10H    basis set group =>   4
Atom  11H    basis set group =>   4
Atom  12H    basis set group =>   4
Atom  13H    basis set group =>   4
Atom  14H    basis set group =>   4
Atom  15H    basis set group =>   4
Atom  16H    basis set group =>   4
Atom  17H    basis set group =>   4
Atom  18H    basis set group =>   4
Atom  19H    basis set group =>   4
Atom  20H    basis set group =>   4
Atom  21H    basis set group =>   4
Atom  22H    basis set group =>   4

ORCA finished by error termination in GTOInt
Calling Command: mpirun -np 40  /gpfs/workspace/projects/mit_chemical_stability/orca/orca_4_1_2_linux_x86-64_openmpi313//orca_gtoint_mpi input.int.tmp input 
[file orca_tools/qcmsg.cpp, line 458]: 
  .... aborting the run

