
                                 *****************
                                 * O   R   C   A *
                                 *****************

           --- An Ab Initio, DFT and Semiempirical electronic structure package ---

                  #######################################################
                  #                        -***-                        #
                  #          Department of theory and spectroscopy      #
                  #               Directorship: Frank Neese             #
                  #        Max Planck Institute fuer Kohlenforschung    #
                  #                Kaiser Wilhelm Platz 1               #
                  #                 D-45470 Muelheim/Ruhr               #
                  #                      Germany                        #
                  #                                                     #
                  #                  All rights reserved                #
                  #                        -***-                        #
                  #######################################################


                         Program Version 4.2.0 -  RELEASE  -


 With contributions from (in alphabetic order):
   Daniel Aravena         : Magnetic Suceptibility
   Michael Atanasov       : Ab Initio Ligand Field Theory (pilot matlab implementation)
   Alexander A. Auer      : GIAO ZORA, VPT2
   Ute Becker             : Parallelization
   Giovanni Bistoni       : ED, misc. LED, open-shell LED, HFLED
   Martin Brehm           : Molecular dynamics
   Dmytro Bykov           : SCF Hessian
   Vijay G. Chilkuri      : MRCI spin determinant printing, contributions to CSF-ICE
   Dipayan Datta          : RHF DLPNO-CCSD density
   Achintya Kumar Dutta   : EOM-CC, STEOM-CC
   Dmitry Ganyushin       : Spin-Orbit,Spin-Spin,Magnetic field MRCI
   Miquel Garcia          : C-PCM Hessian, Gaussian charge scheme
   Yang Guo               : DLPNO-NEVPT2, CIM, IAO-localization
   Andreas Hansen         : Spin unrestricted coupled pair/coupled cluster methods
   Benjamin Helmich-Paris : CASSCF linear response (MC-RPA)
   Lee Huntington         : MR-EOM, pCC
   Robert Izsak           : Overlap fitted RIJCOSX, COSX-SCS-MP3, EOM
   Christian Kollmar      : KDIIS, OOCD, Brueckner-CCSD(T), CCSD density
   Simone Kossmann        : Meta GGA functionals, TD-DFT gradient, OOMP2, MP2 Hessian
   Martin Krupicka        : AUTO-CI
   Lucas Lang             : DCDCAS
   Dagmar Lenk            : GEPOL surface, SMD
   Dimitrios Liakos       : Extrapolation schemes; Compound Job, initial MDCI parallelization
   Dimitrios Manganas     : Further ROCIS development; embedding schemes
   Dimitrios Pantazis     : SARC Basis sets
   Taras Petrenko         : DFT Hessian,TD-DFT gradient, ASA, ECA, R-Raman, ABS, FL, XAS/XES, NRVS
   Peter Pinski           : DLPNO-MP2, DLPNO-MP2 Gradient
   Christoph Reimann      : Effective Core Potentials
   Marius Retegan         : Local ZFS, SOC
   Christoph Riplinger    : Optimizer, TS searches, QM/MM, DLPNO-CCSD(T), (RO)-DLPNO pert. Triples
   Tobias Risthaus        : Range-separated hybrids, TD-DFT gradient, RPA, STAB
   Michael Roemelt        : Original ROCIS implementation
   Masaaki Saitow         : Open-shell DLPNO-CCSD energy and density
   Barbara Sandhoefer     : DKH picture change effects
   Avijit Sen             : IP-ROCIS
   Kantharuban Sivalingam : CASSCF convergence, NEVPT2, FIC-MRCI
   Bernardo de Souza      : ESD, SOC TD-DFT
   Georgi Stoychev        : AutoAux, RI-MP2 NMR
   Willem Van den Heuvel  : Paramagnetic NMR
   Boris Wezisla          : Elementary symmetry handling
   Frank Wennmohs         : Technical directorship


 We gratefully acknowledge several colleagues who have allowed us to
 interface, adapt or use parts of their codes:
   Stefan Grimme, W. Hujo, H. Kruse,             : VdW corrections, initial TS optimization,
                  C. Bannwarth                     DFT functionals, gCP, sTDA/sTD-DF
   Ed Valeev, F. Pavosevic, A. Kumar             : LibInt (2-el integral package), F12 methods
   Garnet Chan, S. Sharma, J. Yang, R. Olivares  : DMRG
   Ulf Ekstrom                                   : XCFun DFT Library
   Mihaly Kallay                                 : mrcc  (arbitrary order and MRCC methods)
   Andreas Klamt, Michael Diedenhofen            : otool_cosmo (COSMO solvation model)
   Jiri Pittner, Ondrej Demel                    : Mk-CCSD
   Frank Weinhold                                : gennbo (NPA and NBO analysis)
   Christopher J. Cramer and Donald G. Truhlar   : smd solvation model
   Lars Goerigk                                  : TD-DFT with DH, B97 family of functionals
   V. Asgeirsson, H. Jonsson                     : NEB implementation
   FAccTs GmbH                                   : IRC, NEB, NEB-TS, Multilevel, MM, QM/MM, CI optimization
   S Lehtola, MJT Oliveira, MAL Marques          : LibXC Library


 Your calculation uses the libint2 library for the computation of 2-el integrals
 For citations please refer to: http://libint.valeyev.net

 Your ORCA version has been built with support for libXC version: 4.2.3
 For citations please refer to: https://tddft.org/programs/libxc/

 This ORCA versions uses:
   CBLAS   interface :  Fast vector & matrix operations
   LAPACKE interface :  Fast linear algebra routines
   SCALAPACK package :  Parallel linear algebra routines


----- Orbital basis set information -----
Your calculation utilizes the basis: cc-pVTZ-F12 

----- AuxC basis set information -----
Your calculation utilizes the auxiliary basis: aug-cc-pVTZ/C 
  H-He, B-F, Al-Ar, Ga-Kr : Obtained from the EMSL Basis Set Exchange (bse.pnl.gov) Feb. 2017
                            F. Weigend, A. Kohn, C. Hattig, J. Chem. Phys. 116, 3175 (2002)
                   Be, Mg : Obtained from the TURBOMOLE 7.0 basis set library
                            C. Haettig, Phys. Chem. Chem. Phys. 7, 59 (2005)
                       Ne : Obtained from the EMSL Basis Set Exchange (bse.pnl.gov) Feb. 2017
                            C. Haettig, Phys. Chem. Chem. Phys. 7, 59 (2005)
                            F. Weigend, A. Kohn, C. Hattig, J. Chem. Phys. 116, 3175 (2002)
                    Sc-Zn : Obtained from the EMSL Basis Set Exchange (bse.pnl.gov) Feb. 2017
                            J. G. Hill, J. A. Platts, J. Chem. Phys. 128, 044104 (2008)

----- CABS information -----
Your calculation utilizes the basis: cc-pVTZ-F12 


                    <<< The CABS basis set will be decontracted >>>

================================================================================
                                        WARNINGS
                       Please study these warnings very carefully!
================================================================================


WARNING: your system is open-shell and RHF/RKS was chosen
  ===> : WILL SWITCH to UHF/UKS


WARNING: PNO calculations with unrestricted orbitals require UNOs
  ===> : Switching on UNOs

WARNING: Unrestricted DLPNO-CCSD(T0/T) with FullLMP2-Guess requested.
         This is not yet implemented.
         When comparing energies between closed and open shell calculations:
  ===> : Be aware to set UseFullLMP2Guess to false for the corresponding closed shell calculations.
         Note that UseFullLMP2Guess is done by default only for TightPNO closed shell calculations.


WARNING: MDCI localization with Augmented Hessian Foster-Boys
  ===> : Switching off randomization!

WARNING: Post HF methods need fully converged wavefunctions
  ===> : Setting SCFConvForced true
         You can overwrite this default with %scf ConvForced false 


INFO   : the flag for use of LIBINT has been found!

================================================================================
                                       INPUT FILE
================================================================================
NAME = 08_Corannulene_ion.inp
|  1> !RHF DLPNO-CCSD(T)-F12 cc-pVTZ-F12 aug-cc-pVTZ/C cc-pVTZ-F12-CABS TightSCF  TightPNO
|  2> %maxcore 8000
|  3> %pal
|  4> nprocs 32
|  5> end
|  6> 
|  7> # RHF DLPNO ccsd(T)
|  8> *xyz 1 2
|  9> C 1.312437 2.985808 -0.248941
| 10> C 2.434107 2.170867 -0.248941
| 11> C -1.312437 2.985808 -0.248941
| 12> C 0.000000 2.485633 0.092352
| 13> C 0.000000 1.203053 0.605999
| 14> C 2.363977 0.768103 0.092352
| 15> C -2.434107 2.170867 -0.248941
| 16> C 3.245237 -0.325536 -0.248941
| 17> C 0.693230 -3.187000 -0.248941 
| 18> C -0.693230 -3.187000 -0.248941
| 19> C 1.461018 -2.010919 0.092352
| 20> C 0.707137 -0.973291 0.605999
| 21> C -0.707137 -0.973291 0.605999
| 22> C -1.461018 -2.010919 0.092352
| 23> C -2.816797 -1.644138 -0.248941
| 24> C -3.245237 -0.325536 -0.248941
| 25> C -2.363977 0.768103 0.092352
| 26> C -1.144172 0.371764 0.605999
| 27> C 2.816797 -1.644138 -0.248941
| 28> C 1.144172 0.371764 0.605999
| 29> H -4.250055 -0.110280 -0.601407
| 30> H -3.503187 -2.408901 -0.601407
| 31> H -1.208457 -4.076121 -0.601407
| 32> H 1.208457 -4.076121 -0.601407
| 33> H 3.503187 -2.408901 -0.601407
| 34> H 4.250055 -0.110280 -0.601407
| 35> H 3.373546 2.587338 -0.601407
| 36> H 1.418221 4.007964 -0.601407
| 37> H -1.418221 4.007964 -0.601407
| 38> H -3.373546 2.587338 -0.601407 
| 39> *
| 40> 
| 41> 
| 42>                          ****END OF INPUT****
================================================================================

                       ****************************
                       * Single Point Calculation *
                       ****************************

---------------------------------
CARTESIAN COORDINATES (ANGSTROEM)
---------------------------------
  C      1.312437    2.985808   -0.248941
  C      2.434107    2.170867   -0.248941
  C     -1.312437    2.985808   -0.248941
  C      0.000000    2.485633    0.092352
  C      0.000000    1.203053    0.605999
  C      2.363977    0.768103    0.092352
  C     -2.434107    2.170867   -0.248941
  C      3.245237   -0.325536   -0.248941
  C      0.693230   -3.187000   -0.248941
  C     -0.693230   -3.187000   -0.248941
  C      1.461018   -2.010919    0.092352
  C      0.707137   -0.973291    0.605999
  C     -0.707137   -0.973291    0.605999
  C     -1.461018   -2.010919    0.092352
  C     -2.816797   -1.644138   -0.248941
  C     -3.245237   -0.325536   -0.248941
  C     -2.363977    0.768103    0.092352
  C     -1.144172    0.371764    0.605999
  C      2.816797   -1.644138   -0.248941
  C      1.144172    0.371764    0.605999
  H     -4.250055   -0.110280   -0.601407
  H     -3.503187   -2.408901   -0.601407
  H     -1.208457   -4.076121   -0.601407
  H      1.208457   -4.076121   -0.601407
  H      3.503187   -2.408901   -0.601407
  H      4.250055   -0.110280   -0.601407
  H      3.373546    2.587338   -0.601407
  H      1.418221    4.007964   -0.601407
  H     -1.418221    4.007964   -0.601407
  H     -3.373546    2.587338   -0.601407

----------------------------
CARTESIAN COORDINATES (A.U.)
----------------------------
  NO LB      ZA    FRAG     MASS         X           Y           Z
   0 C     6.0000    0    12.011    2.480146    5.642359   -0.470430
   1 C     6.0000    0    12.011    4.599796    4.102344   -0.470430
   2 C     6.0000    0    12.011   -2.480146    5.642359   -0.470430
   3 C     6.0000    0    12.011    0.000000    4.697166    0.174520
   4 C     6.0000    0    12.011    0.000000    2.273441    1.145172
   5 C     6.0000    0    12.011    4.467269    1.451504    0.174520
   6 C     6.0000    0    12.011   -4.599796    4.102344   -0.470430
   7 C     6.0000    0    12.011    6.132609   -0.615174   -0.470430
   8 C     6.0000    0    12.011    1.310015   -6.022557   -0.470430
   9 C     6.0000    0    12.011   -1.310015   -6.022557   -0.470430
  10 C     6.0000    0    12.011    2.760924   -3.800086    0.174520
  11 C     6.0000    0    12.011    1.336295   -1.839253    1.145172
  12 C     6.0000    0    12.011   -1.336295   -1.839253    1.145172
  13 C     6.0000    0    12.011   -2.760924   -3.800086    0.174520
  14 C     6.0000    0    12.011   -5.322975   -3.106971   -0.470430
  15 C     6.0000    0    12.011   -6.132609   -0.615174   -0.470430
  16 C     6.0000    0    12.011   -4.467269    1.451504    0.174520
  17 C     6.0000    0    12.011   -2.162172    0.702532    1.145172
  18 C     6.0000    0    12.011    5.322975   -3.106971   -0.470430
  19 C     6.0000    0    12.011    2.162172    0.702532    1.145172
  20 H     1.0000    0     1.008   -8.031440   -0.208399   -1.136495
  21 H     1.0000    0     1.008   -6.620064   -4.552163   -1.136495
  22 H     1.0000    0     1.008   -2.283653   -7.702752   -1.136495
  23 H     1.0000    0     1.008    2.283653   -7.702752   -1.136495
  24 H     1.0000    0     1.008    6.620064   -4.552163   -1.136495
  25 H     1.0000    0     1.008    8.031440   -0.208399   -1.136495
  26 H     1.0000    0     1.008    6.375078    4.889360   -1.136495
  27 H     1.0000    0     1.008    2.680049    7.573954   -1.136495
  28 H     1.0000    0     1.008   -2.680049    7.573954   -1.136495
  29 H     1.0000    0     1.008   -6.375078    4.889360   -1.136495

--------------------------------
INTERNAL COORDINATES (ANGSTROEM)
--------------------------------
 C      0   0   0     0.000000000000     0.00000000     0.00000000
 C      1   0   0     1.386460393369     0.00000000     0.00000000
 C      1   2   0     2.624874000000   143.99999858     0.00000000
 C      1   2   3     1.445388121386   122.08648330    16.18246955
 C      4   1   2     1.381609458932   114.14395481     9.31703275
 C      2   1   3     1.445387826310   122.08645975   343.81753134
 C      3   1   2     1.386460393369   143.99999858     0.00000000
 C      6   2   1     1.445387962372   130.46545118   156.98160463
 C      8   6   2     3.834151268709    99.14126531   209.54071711
 C      9   8   6     1.386460000000   131.72829045    13.83714441
 C      9   8   6     1.445387783037    16.09127888   315.41592830
 C     11   9   8     1.381608363160   114.14396041   140.68972207
 C     12  11   9     1.414274000000   123.06941010   350.57931934
 C     13  12  11     1.381608363160   123.06941010     0.00000000
 C     14  13  12     1.445387806317   114.14396006   200.81023467
 C     15  14  13     1.386460265570   122.08649511     9.31704494
 C      7   3   1     1.445387826310   122.08645975    16.18246866
 C     17   7   3     1.381608512407   114.14399507     9.31705070
 C      8   6   2     1.386460265570   122.08647178   203.01839264
 C      6   2   1     1.381608512407   114.14399507   350.68294930
 H     16  15  14     1.086382363542   118.31111407   174.55807100
 H     15  14  13     1.086382050397   119.38108873   183.81866952
 H     10   9   8     1.086382665236   118.31112914   158.37559876
 H      9   8   6     1.086382665236   107.16538274   173.98675141
 H     19   8   6     1.086382050397   118.31111751   174.55805767
 H      8   6   2     1.086382363542   119.38111548    17.52001685
 H      2   1   3     1.086382073544   118.31112093   158.37558815
 H      1   2   3     1.086381804039   118.31116504   201.62442691
 H      3   1   2     1.086381804039    95.58790255   199.02552657
 H      7   3   1     1.086382073544   118.31112093   201.62441185

---------------------------
INTERNAL COORDINATES (A.U.)
---------------------------
 C      0   0   0     0.000000000000     0.00000000     0.00000000
 C      1   0   0     2.620030438996     0.00000000     0.00000000
 C      1   2   0     4.960292996050   143.99999858     0.00000000
 C      1   2   3     2.731387706642   122.08648330    16.18246955
 C      4   1   2     2.610863501416   114.14395481     9.31703275
 C      2   1   3     2.731387149030   122.08645975   343.81753134
 C      3   1   2     2.620030438996   143.99999858     0.00000000
 C      6   2   1     2.731387406150   130.46545118   156.98160463
 C      8   6   2     7.245495853887    99.14126531   209.54071711
 C      9   8   6     2.620029695636   131.72829045    13.83714441
 C      9   8   6     2.731387067256    16.09127888   315.41592830
 C     11   9   8     2.610861430708   114.14396041   140.68972207
 C     12  11   9     2.672590538325   123.06941010   350.57931934
 C     13  12  11     2.610861430708   123.06941010     0.00000000
 C     14  13  12     2.731387111249   114.14396006   200.81023467
 C     15  14  13     2.620030197491   122.08649511     9.31704494
 C      7   3   1     2.731387149030   122.08645975    16.18246866
 C     17   7   3     2.610861712743   114.14399507     9.31705070
 C      8   6   2     2.620030197491   122.08647178   203.01839264
 C      6   2   1     2.610861712743   114.14399507   350.68294930
 H     16  15  14     2.052965143817   118.31111407   174.55807100
 H     15  14  13     2.052964552058   119.38108873   183.81866952
 H     10   9   8     2.052965713936   118.31112914   158.37559876
 H      9   8   6     2.052965713936   107.16538274   173.98675141
 H     19   8   6     2.052964552058   118.31111751   174.55805767
 H      8   6   2     2.052965143817   119.38111548    17.52001685
 H      2   1   3     2.052964595800   118.31112093   158.37558815
 H      1   2   3     2.052964086510   118.31116504   201.62442691
 H      3   1   2     2.052964086510    95.58790255   199.02552657
 H      7   3   1     2.052964595800   118.31112093   201.62441185

---------------------
BASIS SET INFORMATION
---------------------
There are 2 groups of distinct atoms

 Group   1 Type C   : 22s7p3d2f contracted to 6s6p3d2f pattern {991111/211111/111/11}
 Group   2 Type H   : 6s3p1d contracted to 4s3p1d pattern {3111/111/1}

Atom   0C    basis set group =>   1
Atom   1C    basis set group =>   1
Atom   2C    basis set group =>   1
Atom   3C    basis set group =>   1
Atom   4C    basis set group =>   1
Atom   5C    basis set group =>   1
Atom   6C    basis set group =>   1
Atom   7C    basis set group =>   1
Atom   8C    basis set group =>   1
Atom   9C    basis set group =>   1
Atom  10C    basis set group =>   1
Atom  11C    basis set group =>   1
Atom  12C    basis set group =>   1
Atom  13C    basis set group =>   1
Atom  14C    basis set group =>   1
Atom  15C    basis set group =>   1
Atom  16C    basis set group =>   1
Atom  17C    basis set group =>   1
Atom  18C    basis set group =>   1
Atom  19C    basis set group =>   1
Atom  20H    basis set group =>   2
Atom  21H    basis set group =>   2
Atom  22H    basis set group =>   2
Atom  23H    basis set group =>   2
Atom  24H    basis set group =>   2
Atom  25H    basis set group =>   2
Atom  26H    basis set group =>   2
Atom  27H    basis set group =>   2
Atom  28H    basis set group =>   2
Atom  29H    basis set group =>   2
---------------------------------
AUXILIARY/C BASIS SET INFORMATION
---------------------------------
There are 2 groups of distinct atoms

 Group   1 Type C   : 9s7p6d4f2g contracted to 9s7p6d4f2g pattern {111111111/1111111/111111/1111/11}
 Group   2 Type H   : 5s4p3d2f contracted to 5s4p3d2f pattern {11111/1111/111/11}

Atom   0C    basis set group =>   1
Atom   1C    basis set group =>   1
Atom   2C    basis set group =>   1
Atom   3C    basis set group =>   1
Atom   4C    basis set group =>   1
Atom   5C    basis set group =>   1
Atom   6C    basis set group =>   1
Atom   7C    basis set group =>   1
Atom   8C    basis set group =>   1
Atom   9C    basis set group =>   1
Atom  10C    basis set group =>   1
Atom  11C    basis set group =>   1
Atom  12C    basis set group =>   1
Atom  13C    basis set group =>   1
Atom  14C    basis set group =>   1
Atom  15C    basis set group =>   1
Atom  16C    basis set group =>   1
Atom  17C    basis set group =>   1
Atom  18C    basis set group =>   1
Atom  19C    basis set group =>   1
Atom  20H    basis set group =>   2
Atom  21H    basis set group =>   2
Atom  22H    basis set group =>   2
Atom  23H    basis set group =>   2
Atom  24H    basis set group =>   2
Atom  25H    basis set group =>   2
Atom  26H    basis set group =>   2
Atom  27H    basis set group =>   2
Atom  28H    basis set group =>   2
Atom  29H    basis set group =>   2
--------------
CABS BASIS SET
--------------
There are 2 groups of distinct atoms

 Group   1 Type C   : 17s11p7d5f2g contracted to 17s11p7d5f2g pattern {11111111111111111/11111111111/1111111/11111/11}
 Group   2 Type H   : 9s6p4d2f contracted to 9s6p4d2f pattern {111111111/111111/1111/11}

Atom   0C    basis set group =>   1
Atom   1C    basis set group =>   1
Atom   2C    basis set group =>   1
Atom   3C    basis set group =>   1
Atom   4C    basis set group =>   1
Atom   5C    basis set group =>   1
Atom   6C    basis set group =>   1
Atom   7C    basis set group =>   1
Atom   8C    basis set group =>   1
Atom   9C    basis set group =>   1
Atom  10C    basis set group =>   1
Atom  11C    basis set group =>   1
Atom  12C    basis set group =>   1
Atom  13C    basis set group =>   1
Atom  14C    basis set group =>   1
Atom  15C    basis set group =>   1
Atom  16C    basis set group =>   1
Atom  17C    basis set group =>   1
Atom  18C    basis set group =>   1
Atom  19C    basis set group =>   1
Atom  20H    basis set group =>   2
Atom  21H    basis set group =>   2
Atom  22H    basis set group =>   2
Atom  23H    basis set group =>   2
Atom  24H    basis set group =>   2
Atom  25H    basis set group =>   2
Atom  26H    basis set group =>   2
Atom  27H    basis set group =>   2
Atom  28H    basis set group =>   2
Atom  29H    basis set group =>   2


           ************************************************************
           *        Program running with 32 parallel MPI-processes    *
           *              working on a shared directory               *
           ************************************************************
------------------------------------------------------------------------------
                           ORCA GTO INTEGRAL CALCULATION
------------------------------------------------------------------------------

                         BASIS SET STATISTICS AND STARTUP INFO

 # of primitive gaussian shells          ...  780
 # of primitive gaussian functions       ... 1640
 # of contracted shells                  ...  420
 # of contracted basis functions         ... 1240
 Highest angular momentum                ...    3
 Maximum contraction depth               ...    9
 Integral package used                   ... LIBINT
 Integral threshhold            Thresh   ...  2.500e-11
 Primitive cut-off              TCut     ...  2.500e-12


------------------------------ INTEGRAL EVALUATION ----------------------------


 * One electron integrals 
 Pre-screening matrix                    ... done
 Shell pair data                         ... done (   0.057 sec)



           ************************************************************
           *        Program running with 32 parallel MPI-processes    *
           *              working on a shared directory               *
           ************************************************************
-------------------------------------------------------------------------------
                                 ORCA SCF
-------------------------------------------------------------------------------

------------
SCF SETTINGS
------------
Hamiltonian:
 Ab initio Hamiltonian  Method          .... Hartree-Fock(GTOs)


General Settings:
 Integral files         IntName         .... 08_Corannulene_ion
 Hartree-Fock type      HFTyp           .... UHF
 Total Charge           Charge          ....    1
 Multiplicity           Mult            ....    2
 Number of Electrons    NEL             ....  129
 Basis Dimension        Dim             .... 1240
 Nuclear Repulsion      ENuc            ....   1385.8574868516 Eh

Convergence Acceleration:
 DIIS                   CNVDIIS         .... on
   Start iteration      DIISMaxIt       ....    12
   Startup error        DIISStart       ....  0.200000
   # of expansion vecs  DIISMaxEq       ....     5
   Bias factor          DIISBfac        ....   1.050
   Max. coefficient     DIISMaxC        ....  10.000
 Newton-Raphson         CNVNR           .... off
 SOSCF                  CNVSOSCF        .... off
 Level Shifting         CNVShift        .... on
   Level shift para.    LevelShift      ....    0.2500
   Turn off err/grad.   ShiftErr        ....    0.0010
 Zerner damping         CNVZerner       .... off
 Static damping         CNVDamp         .... on
   Fraction old density DampFac         ....    0.7000
   Max. Damping (<1)    DampMax         ....    0.9800
   Min. Damping (>=0)   DampMin         ....    0.0000
   Turn off err/grad.   DampErr         ....    0.1000
 Fernandez-Rico         CNVRico         .... off

SCF Procedure:
 Maximum # iterations   MaxIter         ....   125
 SCF integral mode      SCFMode         .... Direct
   Integral package                     .... LIBINT
 Reset frequency        DirectResetFreq ....    20
 Integral Threshold     Thresh          ....  2.500e-11 Eh
 Primitive CutOff       TCut            ....  2.500e-12 Eh

Convergence Tolerance:
 Convergence Check Mode ConvCheckMode   .... Total+1el-Energy
 Convergence forced     ConvForced      .... 1
 Energy Change          TolE            ....  1.000e-08 Eh
 1-El. energy change                    ....  1.000e-05 Eh
 DIIS Error             TolErr          ....  5.000e-07


Diagonalization of the overlap matrix:
Smallest eigenvalue                        ... 1.151e-08
Time for diagonalization                   ...    2.068 sec
Threshold for overlap eigenvalues          ... 1.000e-08
Number of eigenvalues below threshold      ... 0
Time for construction of square roots      ...    0.782 sec
Total time needed                          ...    2.862 sec

-------------------
DFT GRID GENERATION
-------------------

General Integration Accuracy     IntAcc      ...  4.340
Radial Grid Type                 RadialGrid  ... Gauss-Chebyshev
Angular Grid (max. acc.)         AngularGrid ... Lebedev-110
Angular grid pruning method      GridPruning ... 3 (G Style)
Weight generation scheme         WeightScheme... Becke
Basis function cutoff            BFCut       ...    1.0000e-11
Integration weight cutoff        WCut        ...    1.0000e-14
Grids for H and He will be reduced by one unit

# of grid points (after initial pruning)     ...  41060 (   0.0 sec)
# of grid points (after weights+screening)   ...  36638 (   0.1 sec)
nearest neighbour list constructed           ...    0.0 sec
Grid point re-assignment to atoms done       ...    0.0 sec
Grid point division into batches done        ...    0.1 sec
Reduced shell lists constructed in    0.2 sec

Total number of grid points                  ...    36638
Total number of batches                      ...      592
Average number of points per batch           ...       61
Average number of grid points per atom       ...     1221
Average number of shells per batch           ...   220.10 (52.40%)
Average number of basis functions per batch  ...   645.60 (52.06%)
Average number of large shells per batch     ...   163.65 (74.35%)
Average number of large basis fcns per batch ...   468.25 (72.53%)
Maximum spatial batch extension              ...   7.48,  8.25, 18.44 au
Average spatial batch extension              ...   0.07,  0.08,  0.14 au

Time for grid setup =    0.442 sec

------------------------------
INITIAL GUESS: MODEL POTENTIAL
------------------------------
Loading Hartree-Fock densities                     ... done
Calculating cut-offs                               ... done
Setting up the integral package                    ... done
Initializing the effective Hamiltonian             ... done
Starting the Coulomb interaction                   ... done (   0.5 sec)
Reading the grid                                   ... done
Mapping shells                                     ... done
Starting the XC term evaluation                    ... done (   0.4 sec)
Transforming the Hamiltonian                       ... done (   0.4 sec)
Diagonalizing the Hamiltonian                      ... done (   1.0 sec)
Back transforming the eigenvectors                 ... done (   0.3 sec)
Now organizing SCF variables                       ... done
                      ------------------
                      INITIAL GUESS DONE (   3.7 sec)
                      ------------------
--------------
SCF ITERATIONS
--------------
ITER       Energy         Delta-E        Max-DP      RMS-DP      [F,P]     Damp
               ***  Starting incremental Fock matrix formation  ***
  0   -762.6261038187   0.000000000000 0.51123847  0.00176856  0.1568894 0.7000
  1   -762.8017453136  -0.175641494879 0.40747460  0.00141978  0.1084210 0.7000
                               ***Turning on DIIS***
  2   -762.9200316598  -0.118286346189 0.73322764  0.00275972  0.0774967 0.0000
  3   -762.6768987572   0.243132902593 0.46199772  0.00149919  0.0188859 0.0000
  4   -763.2566255817  -0.579726824458 0.10018862  0.00030985  0.0063724 0.0000
  5   -763.1527709019   0.103854679734 0.03598254  0.00010563  0.0021729 0.0000
  6   -763.1862963353  -0.033525433381 0.02327333  0.00006510  0.0014352 0.0000
  7   -763.2007191991  -0.014422863768 0.01361323  0.00004054  0.0011831 0.0000
  8   -763.1898202703   0.010898928831 0.01054769  0.00004617  0.0008524 0.0000
  9   -763.1944483110  -0.004628040750 0.00443151  0.00002189  0.0005402 0.0000
 10   -763.1964242328  -0.001975921799 0.00176872  0.00001438  0.0003543 0.0000
 11   -763.1954383986   0.000985834221 0.00050669  0.00000382  0.0003817 0.0000
 12   -763.1952486850   0.000189713534 0.00080128  0.00000263  0.0003813 0.0000
 13   -763.1949432625   0.000305422513 0.00168741  0.00000489  0.0003771 0.0000
 14   -763.1941352112   0.000808051335 0.00037929  0.00000351  0.0003954 0.0000
 15   -763.1958490073  -0.001713796125 0.00256698  0.00000999  0.0003897 0.0000
 16   -763.1985665761  -0.002717568816 0.00467485  0.00001307  0.0003591 0.0000
 17   -763.2000061465  -0.001439570315 0.00083699  0.00000417  0.0003538 0.0000
 18   -763.1993834034   0.000622743051 0.00094562  0.00000386  0.0003462 0.0000
 19   -763.1981647250   0.001218678421 0.00399923  0.00001121  0.0003552 0.0000
               *** Restarting incremental Fock matrix formation ***
                                   *** Resetting DIIS ***
 20   -763.1954646877   0.002700037300 0.01143002  0.00003425  0.0003621 0.0000
 21   -763.1972307739  -0.001766086224 0.00240210  0.00001887  0.0003970 0.0000
 22   -763.1985433897  -0.001312615813 0.00351218  0.00002673  0.0003881 0.0000
 23   -763.2007240730  -0.002180683249 0.00656217  0.00004656  0.0003142 0.0000
 24   -763.1977899354   0.002934137525 0.00339702  0.00002327  0.0002393 0.0000
 25   -763.1955717955   0.002218139948 0.00274746  0.00000910  0.0001753 0.0000
 26   -763.1957701988  -0.000198403263 0.00222769  0.00001128  0.0001609 0.0000
 27   -763.1957158723   0.000054326431 0.00372281  0.00001461  0.0001152 0.0000
 28   -763.1953361964   0.000379675887 0.00330585  0.00001320  0.0000931 0.0000
 29   -763.1950889369   0.000247259524 0.00217487  0.00001202  0.0000700 0.0000
 30   -763.1950062974   0.000082639554 0.00099215  0.00000609  0.0000726 0.0000
 31   -763.1953904130  -0.000384115633 0.00055200  0.00000279  0.0000726 0.0000
 32   -763.1951509952   0.000239417832 0.00127654  0.00000399  0.0000751 0.0000
 33   -763.1950558761   0.000095119060 0.00052249  0.00000150  0.0000842 0.0000
 34   -763.1949541967   0.000101679360 0.00067486  0.00000393  0.0000838 0.0000
 35   -763.1949942303  -0.000040033543 0.00445763  0.00001301  0.0000823 0.0000
 36   -763.1955895105  -0.000595280236 0.00262044  0.00000809  0.0000886 0.0000
 37   -763.1953341139   0.000255396597 0.00222712  0.00000730  0.0000787 0.0000
 38   -763.1953056421   0.000028471877 0.00212249  0.00000691  0.0000802 0.0000
 39   -763.1952004772   0.000105164801 0.00316477  0.00000818  0.0000813 0.0000
               *** Restarting incremental Fock matrix formation ***
                                   *** Resetting DIIS ***
 40   -763.1948255115   0.000374965769 0.01015558  0.00002764  0.0000825 0.0000
 41   -763.1956636744  -0.000838162955 0.00049836  0.00000368  0.0000934 0.0000
 42   -763.1954766447   0.000187029783 0.00078009  0.00000282  0.0000852 0.0000
 43   -763.1954179981   0.000058646558 0.00178472  0.00000486  0.0000834 0.0000
 44   -763.1953834995   0.000034498545 0.00102214  0.00000353  0.0000805 0.0000
 45   -763.1952647553   0.000118744249 0.00304783  0.00000957  0.0000774 0.0000
 46   -763.1952205081   0.000044247160 0.00674689  0.00001938  0.0000767 0.0000
 47   -763.1952456505  -0.000025142359 0.00798128  0.00002212  0.0000768 0.0000
 48   -763.1950489002   0.000196750291 0.00555785  0.00001576  0.0000800 0.0000
 49   -763.1949172488   0.000131651429 0.00880621  0.00002492  0.0000833 0.0000
 50   -763.1955440290  -0.000626780182 0.00174010  0.00000765  0.0000887 0.0000
 51   -763.1951468519   0.000397177090 0.00089323  0.00000313  0.0000811 0.0000
 52   -763.1951959547  -0.000049102858 0.00118771  0.00000353  0.0000816 0.0000
 53   -763.1951936655   0.000002289199 0.00180053  0.00000519  0.0000809 0.0000
 54   -763.1951934946   0.000000170934 0.00312278  0.00000868  0.0000814 0.0000
 55   -763.1948177677   0.000375726894 0.00236449  0.00000888  0.0000814 0.0000
 56   -763.1955096440  -0.000691876280 0.00843882  0.00002816  0.0000891 0.0000
 57   -763.1951423992   0.000367244799 0.00419962  0.00001338  0.0000821 0.0000
 58   -763.1951492056  -0.000006806400 0.00394061  0.00001288  0.0000825 0.0000
 59   -763.1951591025  -0.000009896888 0.00458505  0.00001476  0.0000828 0.0000
               *** Restarting incremental Fock matrix formation ***
                                   *** Resetting DIIS ***
 60   -763.1948257943   0.000333308197 0.01966377  0.00006182  0.0000836 0.0000
 61   -763.1953598723  -0.000534078003 0.00198330  0.00000699  0.0000915 0.0000
 62   -763.1952335215   0.000126350812 0.00134703  0.00000431  0.0000884 0.0000
 63   -763.1952446260  -0.000011104541 0.00089897  0.00000287  0.0000877 0.0000
 64   -763.1952545814  -0.000009955355 0.00089546  0.00000314  0.0000866 0.0000
 65   -763.1951540680   0.000100513411 0.00229115  0.00000734  0.0000854 0.0000
 66   -763.1949500993   0.000203968652 0.00527840  0.00001839  0.0000861 0.0000
 67   -763.1954403893  -0.000490290045 0.01303495  0.00004386  0.0000913 0.0000
 68   -763.1952105943   0.000229795038 0.00101345  0.00000391  0.0000871 0.0000
 69   -763.1951924053   0.000018189050 0.00190116  0.00000650  0.0000870 0.0000
 70   -763.1951500801   0.000042325148 0.00158675  0.00000503  0.0000873 0.0000
 71   -763.1951442568   0.000005823322 0.00282675  0.00000924  0.0000887 0.0000
 72   -763.1951776069  -0.000033350109 0.00236861  0.00001157  0.0000905 0.0000
 73   -763.1950258522   0.000151754711 0.00387988  0.00001322  0.0000884 0.0000
 74   -763.1955801884  -0.000554336182 0.01147213  0.00003660  0.0000943 0.0000
 75   -763.1951822583   0.000397930083 0.00793872  0.00002673  0.0000882 0.0000
 76   -763.1952172048  -0.000034946496 0.00574165  0.00001924  0.0000885 0.0000
 77   -763.1952573503  -0.000040145540 0.00326325  0.00001084  0.0000882 0.0000
 78   -763.1952363774   0.000020972936 0.00792338  0.00002628  0.0000873 0.0000
 79   -763.1947986984   0.000437679018 0.00078332  0.00000607  0.0000879 0.0000
               *** Restarting incremental Fock matrix formation ***
                                   *** Resetting DIIS ***
 80   -763.1948464306  -0.000047732279 0.01455844  0.00004628  0.0000952 0.0000
 81   -763.1956560475  -0.000809616841 0.00359727  0.00001265  0.0001055 0.0000
 82   -763.1954835089   0.000172538603 0.00443569  0.00001327  0.0000959 0.0000
 83   -763.1954949988  -0.000011489899 0.00347498  0.00000951  0.0000910 0.0000
 84   -763.1953649578   0.000130040965 0.00224801  0.00000767  0.0000852 0.0000
 85   -763.1952464649   0.000118492902 0.00454851  0.00001489  0.0000810 0.0000
 86   -763.1951815521   0.000064912822 0.00235165  0.00000768  0.0000786 0.0000
 87   -763.1951879068  -0.000006354663 0.00239235  0.00000789  0.0000765 0.0000
 88   -763.1951904499  -0.000002543125 0.00317248  0.00001162  0.0000731 0.0000
 89   -763.1952725654  -0.000082115480 0.01729020  0.00005411  0.0000665 0.0000
 90   -763.1949412626   0.000331302781 0.00892708  0.00002575  0.0000457 0.0000
 91   -763.1949315140   0.000009748554 0.00652834  0.00002036  0.0000323 0.0000
 92   -763.1949078787   0.000023635333 0.00439462  0.00001272  0.0000320 0.0000
 93   -763.1945940255   0.000313853160 0.00274924  0.00000978  0.0000115 0.0000
 94   -763.1947572759  -0.000163250394 0.00183400  0.00000586  0.0000097 0.0000
 95   -763.1947992992  -0.000042023240 0.00520325  0.00001665  0.0000077 0.0000
 96   -763.1947745969   0.000024702299 0.00433913  0.00001425  0.0000067 0.0000
 97   -763.1947985038  -0.000023906969 0.00437581  0.00001456  0.0000048 0.0000
 98   -763.1948230324  -0.000024528529 0.00044594  0.00000289  0.0000049 0.0000
 99   -763.1948275118  -0.000004479421 0.00039891  0.00000140  0.0000050 0.0000
               *** Restarting incremental Fock matrix formation ***
                                   *** Resetting DIIS ***
100   -763.1948402138  -0.000012702015 0.00365422  0.00001239  0.0000049 0.0000
101   -763.1948317954   0.000008418368 0.00022493  0.00000072  0.0000052 0.0000
102   -763.1948269728   0.000004822603 0.00231022  0.00000754  0.0000053 0.0000
103   -763.1948275371  -0.000000564266 0.00105475  0.00000341  0.0000052 0.0000
104   -763.1948276045  -0.000000067422 0.00136124  0.00000468  0.0000052 0.0000
105   -763.1948369286  -0.000009324134 0.00166838  0.00000500  0.0000052 0.0000
106   -763.1948179628   0.000018965871 0.01447919  0.00004782  0.0000058 0.0000
107   -763.1948183276  -0.000000364850 0.00652688  0.00002150  0.0000057 0.0000
108   -763.1948190708  -0.000000743124 0.01898951  0.00006433  0.0000055 0.0000
109   -763.1948158769   0.000003193822 0.01109430  0.00003802  0.0000055 0.0000
110   -763.1948035879   0.000012288997 0.01248608  0.00004066  0.0000048 0.0000
111   -763.1947870786   0.000016509332 0.00237417  0.00001117  0.0000038 0.0000
112   -763.1947993548  -0.000012276200 0.00690128  0.00002236  0.0000020 0.0000
113   -763.1948382981  -0.000038943294 0.00292181  0.00000968  0.0000017 0.0000
114   -763.1948429759  -0.000004677840 0.00390005  0.00001409  0.0000014 0.0000
115   -763.1948429997  -0.000000023798 0.00083954  0.00000464  0.0000012 0.0000
                            ***DIIS convergence achieved***

               *****************************************************
               *                     SUCCESS                       *
               *           SCF CONVERGED AFTER 116 CYCLES          *
               *****************************************************


----------------
TOTAL SCF ENERGY
----------------

Total Energy       :         -763.19484226 Eh          -20767.58746 eV

Components:
Nuclear Repulsion  :         1385.85748685 Eh           37711.09941 eV
Electronic Energy  :        -2149.05232911 Eh          -58478.68687 eV
One Electron Energy:        -3766.74771047 Eh         -102498.41612 eV
Two Electron Energy:         1617.69538136 Eh           44019.72925 eV

Virial components:
Potential Energy   :        -1525.54228060 Eh          -41512.11589 eV
Kinetic Energy     :          762.34743834 Eh           20744.52843 eV
Virial Ratio       :            2.00111157


---------------
SCF CONVERGENCE
---------------

  Last Energy change         ...    7.3781e-07  Tolerance :   1.0000e-08
  Last MAX-Density change    ...    3.0871e-04  Tolerance :   1.0000e-07
  Last RMS-Density change    ...    2.2336e-06  Tolerance :   5.0000e-09
  Last DIIS Error            ...    5.5020e-07  Tolerance :   5.0000e-07

             **** THE GBW FILE WAS UPDATED (08_Corannulene_ion.gbw) ****
             **** DENSITY FILE WAS UPDATED (08_Corannulene_ion.scfp) ****
             **** ENERGY FILE WAS UPDATED (08_Corannulene_ion.en.tmp) ****
----------------------
UHF SPIN CONTAMINATION
----------------------

Expectation value of <S**2>     :     0.832487
Ideal value S*(S+1) for S=0.5   :     0.750000
Deviation                       :     0.082487

             **** THE GBW FILE WAS UPDATED (08_Corannulene_ion.gbw) ****
             **** DENSITY FILE WAS UPDATED (08_Corannulene_ion.scfp) ****
----------------
ORBITAL ENERGIES
----------------
                 SPIN UP ORBITALS
  NO   OCC          E(Eh)            E(eV) 
   0   1.0000     -11.418368      -310.7096 
   1   1.0000     -11.418362      -310.7094 
   2   1.0000     -11.414974      -310.6172 
   3   1.0000     -11.414973      -310.6172 
   4   1.0000     -11.412826      -310.5588 
   5   1.0000     -11.412824      -310.5587 
   6   1.0000     -11.404497      -310.3321 
   7   1.0000     -11.404394      -310.3293 
   8   1.0000     -11.403783      -310.3127 
   9   1.0000     -11.403781      -310.3127 
  10   1.0000     -11.400667      -310.2279 
  11   1.0000     -11.400255      -310.2167 
  12   1.0000     -11.400253      -310.2166 
  13   1.0000     -11.395124      -310.0771 
  14   1.0000     -11.395123      -310.0770 
  15   1.0000     -11.394667      -310.0646 
  16   1.0000     -11.393576      -310.0350 
  17   1.0000     -11.386861      -309.8522 
  18   1.0000     -11.385567      -309.8170 
  19   1.0000     -11.380473      -309.6784 
  20   1.0000      -1.404293       -38.2128 
  21   1.0000      -1.323789       -36.0221 
  22   1.0000      -1.309317       -35.6283 
  23   1.0000      -1.250724       -34.0339 
  24   1.0000      -1.237594       -33.6766 
  25   1.0000      -1.234853       -33.6021 
  26   1.0000      -1.153558       -31.3899 
  27   1.0000      -1.152475       -31.3604 
  28   1.0000      -1.149284       -31.2736 
  29   1.0000      -1.132741       -30.8234 
  30   1.0000      -1.024466       -27.8771 
  31   1.0000      -1.024332       -27.8735 
  32   1.0000      -1.015866       -27.6431 
  33   1.0000      -0.968806       -26.3626 
  34   1.0000      -0.968139       -26.3444 
  35   1.0000      -0.937959       -25.5232 
  36   1.0000      -0.868633       -23.6367 
  37   1.0000      -0.863140       -23.4872 
  38   1.0000      -0.845885       -23.0177 
  39   1.0000      -0.834529       -22.7087 
  40   1.0000      -0.833859       -22.6905 
  41   1.0000      -0.774662       -21.0796 
  42   1.0000      -0.766226       -20.8501 
  43   1.0000      -0.764156       -20.7937 
  44   1.0000      -0.752796       -20.4846 
  45   1.0000      -0.748528       -20.3685 
  46   1.0000      -0.746035       -20.3006 
  47   1.0000      -0.744441       -20.2573 
  48   1.0000      -0.728390       -19.8205 
  49   1.0000      -0.711486       -19.3605 
  50   1.0000      -0.708563       -19.2810 
  51   1.0000      -0.683990       -18.6123 
  52   1.0000      -0.673929       -18.3385 
  53   1.0000      -0.660093       -17.9620 
  54   1.0000      -0.640812       -17.4374 
  55   1.0000      -0.633980       -17.2515 
  56   1.0000      -0.629875       -17.1398 
  57   1.0000      -0.628080       -17.0909 
  58   1.0000      -0.576783       -15.6951 
  59   1.0000      -0.561091       -15.2681 
  60   1.0000      -0.556766       -15.1504 
  61   1.0000      -0.489083       -13.3086 
  62   1.0000      -0.452243       -12.3062 
  63   1.0000      -0.447879       -12.1874 
  64   1.0000      -0.441869       -12.0239 
  65   0.0000      -0.105194        -2.8625 
  66   0.0000      -0.098621        -2.6836 
  67   0.0000      -0.048367        -1.3161 
  68   0.0000      -0.045983        -1.2513 
  69   0.0000      -0.044249        -1.2041 
  70   0.0000      -0.040458        -1.1009 
  71   0.0000      -0.032111        -0.8738 
  72   0.0000      -0.031900        -0.8681 
  73   0.0000      -0.026852        -0.7307 
  74   0.0000      -0.020278        -0.5518 
  75   0.0000      -0.018416        -0.5011 
  76   0.0000      -0.017288        -0.4704 
  77   0.0000      -0.015926        -0.4334 
  78   0.0000      -0.014456        -0.3934 
  79   0.0000      -0.012521        -0.3407 
  80   0.0000      -0.012348        -0.3360 
  81   0.0000      -0.000000        -0.0000 
  82   0.0000       0.002398         0.0652 
  83   0.0000       0.007719         0.2101 
  84   0.0000       0.008262         0.2248 
  85   0.0000       0.010837         0.2949 
  86   0.0000       0.011224         0.3054 
  87   0.0000       0.012538         0.3412 
  88   0.0000       0.012542         0.3413 
  89   0.0000       0.037457         1.0193 
  90   0.0000       0.037934         1.0322 
  91   0.0000       0.038073         1.0360 
  92   0.0000       0.039464         1.0739 
  93   0.0000       0.039475         1.0742 
  94   0.0000       0.042545         1.1577 
  95   0.0000       0.042609         1.1595 
  96   0.0000       0.043157         1.1744 
  97   0.0000       0.053720         1.4618 
  98   0.0000       0.064171         1.7462 
  99   0.0000       0.065085         1.7711 
 100   0.0000       0.069887         1.9017 
 101   0.0000       0.070070         1.9067 
 102   0.0000       0.073393         1.9971 
 103   0.0000       0.074015         2.0140 
 104   0.0000       0.075448         2.0530 
 105   0.0000       0.075596         2.0571 
 106   0.0000       0.081755         2.2247 
 107   0.0000       0.083717         2.2781 
 108   0.0000       0.085389         2.3236 
 109   0.0000       0.090158         2.4533 
 110   0.0000       0.091221         2.4823 
 111   0.0000       0.091665         2.4943 
 112   0.0000       0.091796         2.4979 
 113   0.0000       0.093910         2.5554 
 114   0.0000       0.101077         2.7505 
 115   0.0000       0.102862         2.7990 
 116   0.0000       0.104200         2.8354 
 117   0.0000       0.108975         2.9654 
 118   0.0000       0.112078         3.0498 
 119   0.0000       0.115227         3.1355 
 120   0.0000       0.115926         3.1545 
 121   0.0000       0.117522         3.1979 
 122   0.0000       0.123424         3.3585 
 123   0.0000       0.124148         3.3782 
 124   0.0000       0.128261         3.4901 
 125   0.0000       0.128362         3.4929 
 126   0.0000       0.135923         3.6987 
 127   0.0000       0.136041         3.7019 
 128   0.0000       0.136809         3.7228 
 129   0.0000       0.137353         3.7376 
 130   0.0000       0.142571         3.8795 
 131   0.0000       0.145770         3.9666 
 132   0.0000       0.150226         4.0878 
 133   0.0000       0.150807         4.1037 
 134   0.0000       0.158146         4.3034 
 135   0.0000       0.158179         4.3043 
 136   0.0000       0.158638         4.3168 
 137   0.0000       0.160632         4.3710 
 138   0.0000       0.161539         4.3957 
 139   0.0000       0.163190         4.4406 
 140   0.0000       0.164497         4.4762 
 141   0.0000       0.164975         4.4892 
 142   0.0000       0.170357         4.6356 
 143   0.0000       0.171728         4.6730 
 144   0.0000       0.185649         5.0518 
 145   0.0000       0.188776         5.1369 
 146   0.0000       0.191774         5.2184 
 147   0.0000       0.193992         5.2788 
 148   0.0000       0.196296         5.3415 
 149   0.0000       0.197173         5.3654 
 150   0.0000       0.205395         5.5891 
 151   0.0000       0.206611         5.6222 
 152   0.0000       0.212528         5.7832 
 153   0.0000       0.214520         5.8374 
 154   0.0000       0.219590         5.9753 
 155   0.0000       0.219694         5.9782 
 156   0.0000       0.226086         6.1521 
 157   0.0000       0.239132         6.5071 
 158   0.0000       0.239498         6.5171 
 159   0.0000       0.240456         6.5431 
 160   0.0000       0.242027         6.5859 
 161   0.0000       0.243785         6.6337 
 162   0.0000       0.244397         6.6504 
 163   0.0000       0.259698         7.0667 
 164   0.0000       0.260156         7.0792 
 165   0.0000       0.262474         7.1423 
 166   0.0000       0.264734         7.2038 
 167   0.0000       0.278906         7.5894 
 168   0.0000       0.280095         7.6218 
 169   0.0000       0.287184         7.8147 
 170   0.0000       0.289573         7.8797 
 171   0.0000       0.294467         8.0129 
 172   0.0000       0.295301         8.0356 
 173   0.0000       0.296174         8.0593 
 174   0.0000       0.302975         8.2444 
 175   0.0000       0.303809         8.2671 
 176   0.0000       0.304383         8.2827 
 177   0.0000       0.304573         8.2878 
 178   0.0000       0.305454         8.3118 
 179   0.0000       0.323682         8.8078 
 180   0.0000       0.324810         8.8385 
 181   0.0000       0.325827         8.8662 
 182   0.0000       0.327205         8.9037 
 183   0.0000       0.331397         9.0178 
 184   0.0000       0.354536         9.6474 
 185   0.0000       0.356637         9.7046 
 186   0.0000       0.359229         9.7751 
 187   0.0000       0.378367        10.2959 
 188   0.0000       0.379233        10.3195 
 189   0.0000       0.385049        10.4777 
 190   0.0000       0.387826        10.5533 
 191   0.0000       0.387952        10.5567 
 192   0.0000       0.388450        10.5703 
 193   0.0000       0.388660        10.5760 
 194   0.0000       0.397652        10.8207 
 195   0.0000       0.399926        10.8825 
 196   0.0000       0.402993        10.9660 
 197   0.0000       0.412695        11.2300 
 198   0.0000       0.413706        11.2575 
 199   0.0000       0.421617        11.4728 
 200   0.0000       0.426862        11.6155 
 201   0.0000       0.427543        11.6340 
 202   0.0000       0.427837        11.6420 
 203   0.0000       0.432461        11.7679 
 204   0.0000       0.434133        11.8134 
 205   0.0000       0.437107        11.8943 
 206   0.0000       0.437935        11.9168 
 207   0.0000       0.446861        12.1597 
 208   0.0000       0.451799        12.2941 
 209   0.0000       0.453688        12.3455 
 210   0.0000       0.453724        12.3465 
 211   0.0000       0.455255        12.3881 
 212   0.0000       0.459863        12.5135 
 213   0.0000       0.470785        12.8107 
 214   0.0000       0.472419        12.8552 
 215   0.0000       0.474213        12.9040 
 216   0.0000       0.477243        12.9864 
 217   0.0000       0.484039        13.1714 
 218   0.0000       0.485390        13.2081 
 219   0.0000       0.490139        13.3374 
 220   0.0000       0.495986        13.4965 
 221   0.0000       0.497106        13.5269 
 222   0.0000       0.497925        13.5492 
 223   0.0000       0.498797        13.5729 
 224   0.0000       0.500581        13.6215 
 225   0.0000       0.510545        13.8926 
 226   0.0000       0.511814        13.9272 
 227   0.0000       0.512608        13.9488 
 228   0.0000       0.515763        14.0346 
 229   0.0000       0.517090        14.0707 
 230   0.0000       0.518427        14.1071 
 231   0.0000       0.526380        14.3235 
 232   0.0000       0.527099        14.3431 
 233   0.0000       0.532859        14.4998 
 234   0.0000       0.534553        14.5459 
 235   0.0000       0.535064        14.5598 
 236   0.0000       0.540819        14.7164 
 237   0.0000       0.541475        14.7343 
 238   0.0000       0.545216        14.8361 
 239   0.0000       0.549254        14.9460 
 240   0.0000       0.549816        14.9613 
 241   0.0000       0.553389        15.0585 
 242   0.0000       0.554816        15.0973 
 243   0.0000       0.556078        15.1317 
 244   0.0000       0.559589        15.2272 
 245   0.0000       0.570762        15.5312 
 246   0.0000       0.572290        15.5728 
 247   0.0000       0.579129        15.7589 
 248   0.0000       0.579991        15.7823 
 249   0.0000       0.604682        16.4542 
 250   0.0000       0.605104        16.4657 
 251   0.0000       0.608657        16.5624 
 252   0.0000       0.609313        16.5802 
 253   0.0000       0.612994        16.6804 
 254   0.0000       0.613969        16.7070 
 255   0.0000       0.626029        17.0351 
 256   0.0000       0.627152        17.0657 
 257   0.0000       0.628574        17.1044 
 258   0.0000       0.641923        17.4676 
 259   0.0000       0.656657        17.8685 
 260   0.0000       0.661218        17.9927 
 261   0.0000       0.662002        18.0140 
 262   0.0000       0.666661        18.1408 
 263   0.0000       0.666920        18.1478 
 264   0.0000       0.670334        18.2407 
 265   0.0000       0.684678        18.6310 
 266   0.0000       0.685590        18.6559 
 267   0.0000       0.695525        18.9262 
 268   0.0000       0.699125        19.0242 
 269   0.0000       0.700037        19.0490 
 270   0.0000       0.703906        19.1543 
 271   0.0000       0.705694        19.2029 
 272   0.0000       0.714159        19.4332 
 273   0.0000       0.717734        19.5305 
 274   0.0000       0.729928        19.8623 
 275   0.0000       0.730442        19.8763 
 276   0.0000       0.746450        20.3119 
 277   0.0000       0.752276        20.4705 
 278   0.0000       0.753190        20.4954 
 279   0.0000       0.754243        20.5240 
 280   0.0000       0.768136        20.9020 
 281   0.0000       0.768904        20.9229 
 282   0.0000       0.772236        21.0136 
 283   0.0000       0.772978        21.0338 
 284   0.0000       0.787057        21.4169 
 285   0.0000       0.788070        21.4445 
 286   0.0000       0.795282        21.6407 
 287   0.0000       0.796808        21.6823 
 288   0.0000       0.798868        21.7383 
 289   0.0000       0.799148        21.7459 
 290   0.0000       0.816915        22.2294 
 291   0.0000       0.820372        22.3235 
 292   0.0000       0.820628        22.3304 
 293   0.0000       0.830125        22.5889 
 294   0.0000       0.830342        22.5947 
 295   0.0000       0.832147        22.6439 
 296   0.0000       0.839045        22.8316 
 297   0.0000       0.840183        22.8625 
 298   0.0000       0.853459        23.2238 
 299   0.0000       0.854235        23.2449 
 300   0.0000       0.872294        23.7363 
 301   0.0000       0.877320        23.8731 
 302   0.0000       0.879388        23.9294 
 303   0.0000       0.890043        24.2193 
 304   0.0000       0.890698        24.2371 
 305   0.0000       0.893001        24.2998 
 306   0.0000       0.899967        24.4893 
 307   0.0000       0.900371        24.5004 
 308   0.0000       0.901512        24.5314 
 309   0.0000       0.903085        24.5742 
 310   0.0000       0.903900        24.5964 
 311   0.0000       0.911929        24.8149 
 312   0.0000       0.912669        24.8350 
 313   0.0000       0.925427        25.1822 
 314   0.0000       0.925842        25.1934 
 315   0.0000       0.938239        25.5308 
 316   0.0000       0.938524        25.5385 
 317   0.0000       0.943828        25.6829 
 318   0.0000       0.946691        25.7608 
 319   0.0000       0.949174        25.8283 
 320   0.0000       0.963255        26.2115 
 321   0.0000       0.969958        26.3939 
 322   0.0000       0.975311        26.5396 
 323   0.0000       0.981547        26.7092 
 324   0.0000       0.983061        26.7505 
 325   0.0000       0.986260        26.8375 
 326   0.0000       0.989399        26.9229 
 327   0.0000       1.012124        27.5413 
 328   0.0000       1.014380        27.6027 
 329   0.0000       1.015188        27.6247 
 330   0.0000       1.015790        27.6410 
 331   0.0000       1.017363        27.6839 
 332   0.0000       1.029219        28.0065 
 333   0.0000       1.031342        28.0642 
 334   0.0000       1.036281        28.1986 
 335   0.0000       1.037247        28.2249 
 336   0.0000       1.054674        28.6991 
 337   0.0000       1.059346        28.8263 
 338   0.0000       1.066262        29.0145 
 339   0.0000       1.093414        29.7533 
 340   0.0000       1.094282        29.7769 
 341   0.0000       1.098933        29.9035 
 342   0.0000       1.102245        29.9936 
 343   0.0000       1.103641        30.0316 
 344   0.0000       1.114904        30.3381 
 345   0.0000       1.116308        30.3763 
 346   0.0000       1.134435        30.8696 
 347   0.0000       1.134602        30.8741 
 348   0.0000       1.137614        30.9561 
 349   0.0000       1.138544        30.9814 
 350   0.0000       1.153928        31.4000 
 351   0.0000       1.154029        31.4027 
 352   0.0000       1.156444        31.4684 
 353   0.0000       1.184696        32.2372 
 354   0.0000       1.217570        33.1318 
 355   0.0000       1.222728        33.2721 
 356   0.0000       1.225098        33.3366 
 357   0.0000       1.225304        33.3422 
 358   0.0000       1.227740        33.4085 
 359   0.0000       1.236988        33.6601 
 360   0.0000       1.238594        33.7038 
 361   0.0000       1.248543        33.9746 
 362   0.0000       1.249518        34.0011 
 363   0.0000       1.251143        34.0453 
 364   0.0000       1.263556        34.3831 
 365   0.0000       1.263868        34.3916 
 366   0.0000       1.268135        34.5077 
 367   0.0000       1.268547        34.5189 
 368   0.0000       1.284000        34.9394 
 369   0.0000       1.285922        34.9917 
 370   0.0000       1.286024        34.9945 
 371   0.0000       1.286172        34.9985 
 372   0.0000       1.289708        35.0947 
 373   0.0000       1.303034        35.4574 
 374   0.0000       1.303363        35.4663 
 375   0.0000       1.307838        35.5881 
 376   0.0000       1.310057        35.6485 
 377   0.0000       1.310780        35.6681 
 378   0.0000       1.332529        36.2600 
 379   0.0000       1.335263        36.3344 
 380   0.0000       1.335375        36.3374 
 381   0.0000       1.340262        36.4704 
 382   0.0000       1.348182        36.6859 
 383   0.0000       1.354923        36.8693 
 384   0.0000       1.357318        36.9345 
 385   0.0000       1.378724        37.5170 
 386   0.0000       1.379939        37.5501 
 387   0.0000       1.381511        37.5928 
 388   0.0000       1.385087        37.6901 
 389   0.0000       1.387678        37.7606 
 390   0.0000       1.388803        37.7913 
 391   0.0000       1.389376        37.8068 
 392   0.0000       1.392961        37.9044 
 393   0.0000       1.396401        37.9980 
 394   0.0000       1.400510        38.1098 
 395   0.0000       1.404983        38.2315 
 396   0.0000       1.416369        38.5414 
 397   0.0000       1.420293        38.6481 
 398   0.0000       1.421382        38.6778 
 399   0.0000       1.421860        38.6908 
 400   0.0000       1.439946        39.1829 
 401   0.0000       1.446703        39.3668 
 402   0.0000       1.446925        39.3728 
 403   0.0000       1.452767        39.5318 
 404   0.0000       1.453881        39.5621 
 405   0.0000       1.454110        39.5683 
 406   0.0000       1.457527        39.6613 
 407   0.0000       1.466368        39.9019 
 408   0.0000       1.472918        40.0801 
 409   0.0000       1.476027        40.1647 
 410   0.0000       1.480043        40.2740 
 411   0.0000       1.494146        40.6578 
 412   0.0000       1.498002        40.7627 
 413   0.0000       1.502281        40.8791 
 414   0.0000       1.505496        40.9666 
 415   0.0000       1.505543        40.9679 
 416   0.0000       1.510329        41.0982 
 417   0.0000       1.523008        41.4431 
 418   0.0000       1.524102        41.4729 
 419   0.0000       1.555837        42.3365 
 420   0.0000       1.556647        42.3585 
 421   0.0000       1.558171        42.4000 
 422   0.0000       1.558706        42.4146 
 423   0.0000       1.574826        42.8532 
 424   0.0000       1.575899        42.8824 
 425   0.0000       1.575951        42.8838 
 426   0.0000       1.582832        43.0710 
 427   0.0000       1.590882        43.2901 
 428   0.0000       1.591878        43.3172 
 429   0.0000       1.603054        43.6213 
 430   0.0000       1.615293        43.9544 
 431   0.0000       1.616045        43.9748 
 432   0.0000       1.620606        44.0989 
 433   0.0000       1.621389        44.1202 
 434   0.0000       1.629033        44.3282 
 435   0.0000       1.644902        44.7601 
 436   0.0000       1.647819        44.8394 
 437   0.0000       1.655766        45.0557 
 438   0.0000       1.656609        45.0786 
 439   0.0000       1.675897        45.6035 
 440   0.0000       1.676762        45.6270 
 441   0.0000       1.677722        45.6531 
 442   0.0000       1.677886        45.6576 
 443   0.0000       1.680302        45.7234 
 444   0.0000       1.683836        45.8195 
 445   0.0000       1.684719        45.8435 
 446   0.0000       1.702222        46.3198 
 447   0.0000       1.711750        46.5791 
 448   0.0000       1.713805        46.6350 
 449   0.0000       1.718844        46.7721 
 450   0.0000       1.729268        47.0558 
 451   0.0000       1.730041        47.0768 
 452   0.0000       1.734724        47.2042 
 453   0.0000       1.735941        47.2373 
 454   0.0000       1.738990        47.3203 
 455   0.0000       1.767848        48.1056 
 456   0.0000       1.769033        48.1378 
 457   0.0000       1.788655        48.6718 
 458   0.0000       1.788883        48.6780 
 459   0.0000       1.789602        48.6975 
 460   0.0000       1.789725        48.7009 
 461   0.0000       1.791191        48.7408 
 462   0.0000       1.800357        48.9902 
 463   0.0000       1.802676        49.0533 
 464   0.0000       1.807176        49.1758 
 465   0.0000       1.809695        49.2443 
 466   0.0000       1.810861        49.2760 
 467   0.0000       1.817797        49.4648 
 468   0.0000       1.819569        49.5130 
 469   0.0000       1.820926        49.5499 
 470   0.0000       1.828435        49.7542 
 471   0.0000       1.829273        49.7770 
 472   0.0000       1.865872        50.7730 
 473   0.0000       1.866185        50.7815 
 474   0.0000       1.873810        50.9890 
 475   0.0000       1.878182        51.1079 
 476   0.0000       1.879667        51.1483 
 477   0.0000       1.881405        51.1956 
 478   0.0000       1.906482        51.8780 
 479   0.0000       1.907884        51.9162 
 480   0.0000       1.916901        52.1615 
 481   0.0000       1.919413        52.2299 
 482   0.0000       1.920396        52.2566 
 483   0.0000       1.920414        52.2571 
 484   0.0000       1.930228        52.5242 
 485   0.0000       1.931476        52.5581 
 486   0.0000       1.931835        52.5679 
 487   0.0000       1.932651        52.5901 
 488   0.0000       1.940333        52.7991 
 489   0.0000       1.944155        52.9031 
 490   0.0000       1.946040        52.9544 
 491   0.0000       1.946834        52.9760 
 492   0.0000       1.949381        53.0454 
 493   0.0000       1.957706        53.2719 
 494   0.0000       1.957776        53.2738 
 495   0.0000       1.958764        53.3007 
 496   0.0000       1.965997        53.4975 
 497   0.0000       1.966614        53.5143 
 498   0.0000       1.970609        53.6230 
 499   0.0000       1.974896        53.7397 
 500   0.0000       1.980202        53.8840 
 501   0.0000       1.981927        53.9310 
 502   0.0000       1.983512        53.9741 
 503   0.0000       1.987069        54.0709 
 504   0.0000       1.991142        54.1817 
 505   0.0000       1.992860        54.2285 
 506   0.0000       2.002567        54.4926 
 507   0.0000       2.020069        54.9689 
 508   0.0000       2.021096        54.9968 
 509   0.0000       2.026751        55.1507 
 510   0.0000       2.031053        55.2678 
 511   0.0000       2.031777        55.2875 
 512   0.0000       2.035513        55.3891 
 513   0.0000       2.035710        55.3945 
 514   0.0000       2.043370        55.6029 
 515   0.0000       2.049510        55.7700 
 516   0.0000       2.056754        55.9671 
 517   0.0000       2.058547        56.0159 
 518   0.0000       2.059457        56.0407 
 519   0.0000       2.080656        56.6175 
 520   0.0000       2.080673        56.6180 
 521   0.0000       2.101052        57.1725 
 522   0.0000       2.101984        57.1979 
 523   0.0000       2.102764        57.2191 
 524   0.0000       2.115796        57.5737 
 525   0.0000       2.116554        57.5944 
 526   0.0000       2.118114        57.6368 
 527   0.0000       2.122016        57.7430 
 528   0.0000       2.126244        57.8580 
 529   0.0000       2.139886        58.2293 
 530   0.0000       2.140472        58.2452 
 531   0.0000       2.149352        58.4868 
 532   0.0000       2.149818        58.4995 
 533   0.0000       2.163844        58.8812 
 534   0.0000       2.174576        59.1732 
 535   0.0000       2.178827        59.2889 
 536   0.0000       2.186572        59.4997 
 537   0.0000       2.188589        59.5545 
 538   0.0000       2.188681        59.5570 
 539   0.0000       2.189329        59.5747 
 540   0.0000       2.189767        59.5866 
 541   0.0000       2.196599        59.7725 
 542   0.0000       2.216267        60.3077 
 543   0.0000       2.216592        60.3165 
 544   0.0000       2.228737        60.6470 
 545   0.0000       2.228794        60.6486 
 546   0.0000       2.247768        61.1649 
 547   0.0000       2.252123        61.2834 
 548   0.0000       2.253870        61.3309 
 549   0.0000       2.269305        61.7509 
 550   0.0000       2.269929        61.7679 
 551   0.0000       2.288341        62.2689 
 552   0.0000       2.289014        62.2872 
 553   0.0000       2.290598        62.3303 
 554   0.0000       2.291017        62.3417 
 555   0.0000       2.291292        62.3492 
 556   0.0000       2.311661        62.9035 
 557   0.0000       2.317826        63.0712 
 558   0.0000       2.317940        63.0744 
 559   0.0000       2.327127        63.3243 
 560   0.0000       2.333020        63.4847 
 561   0.0000       2.334637        63.5287 
 562   0.0000       2.335305        63.5469 
 563   0.0000       2.337942        63.6186 
 564   0.0000       2.354239        64.0621 
 565   0.0000       2.356984        64.1368 
 566   0.0000       2.361295        64.2541 
 567   0.0000       2.361915        64.2710 
 568   0.0000       2.367483        64.4225 
 569   0.0000       2.388670        64.9990 
 570   0.0000       2.388786        65.0022 
 571   0.0000       2.395094        65.1738 
 572   0.0000       2.396574        65.2141 
 573   0.0000       2.398853        65.2761 
 574   0.0000       2.410249        65.5862 
 575   0.0000       2.410906        65.6041 
 576   0.0000       2.422310        65.9144 
 577   0.0000       2.425722        66.0072 
 578   0.0000       2.434959        66.2586 
 579   0.0000       2.436656        66.3048 
 580   0.0000       2.437835        66.3369 
 581   0.0000       2.440194        66.4011 
 582   0.0000       2.445191        66.5370 
 583   0.0000       2.465050        67.0774 
 584   0.0000       2.483192        67.5711 
 585   0.0000       2.485202        67.6258 
 586   0.0000       2.485718        67.6398 
 587   0.0000       2.485887        67.6444 
 588   0.0000       2.486865        67.6710 
 589   0.0000       2.493039        67.8390 
 590   0.0000       2.494494        67.8786 
 591   0.0000       2.497221        67.9528 
 592   0.0000       2.518276        68.5258 
 593   0.0000       2.518324        68.5271 
 594   0.0000       2.545279        69.2606 
 595   0.0000       2.554116        69.5010 
 596   0.0000       2.561573        69.7039 
 597   0.0000       2.564282        69.7777 
 598   0.0000       2.565068        69.7991 
 599   0.0000       2.583354        70.2966 
 600   0.0000       2.587249        70.4026 
 601   0.0000       2.595914        70.6384 
 602   0.0000       2.601982        70.8035 
 603   0.0000       2.608604        70.9837 
 604   0.0000       2.608630        70.9844 
 605   0.0000       2.624567        71.4181 
 606   0.0000       2.625950        71.4557 
 607   0.0000       2.633489        71.6609 
 608   0.0000       2.635910        71.7268 
 609   0.0000       2.637046        71.7577 
 610   0.0000       2.640449        71.8503 
 611   0.0000       2.640991        71.8650 
 612   0.0000       2.642111        71.8955 
 613   0.0000       2.662404        72.4477 
 614   0.0000       2.667369        72.5828 
 615   0.0000       2.680195        72.9318 
 616   0.0000       2.680454        72.9389 
 617   0.0000       2.700035        73.4717 
 618   0.0000       2.703058        73.5540 
 619   0.0000       2.711311        73.7785 
 620   0.0000       2.714153        73.8559 
 621   0.0000       2.714868        73.8753 
 622   0.0000       2.717125        73.9367 
 623   0.0000       2.725666        74.1691 
 624   0.0000       2.729870        74.2836 
 625   0.0000       2.731008        74.3145 
 626   0.0000       2.746700        74.7415 
 627   0.0000       2.747166        74.7542 
 628   0.0000       2.769007        75.3485 
 629   0.0000       2.775297        75.5197 
 630   0.0000       2.775629        75.5287 
 631   0.0000       2.776099        75.5415 
 632   0.0000       2.778988        75.6201 
 633   0.0000       2.786667        75.8291 
 634   0.0000       2.791602        75.9634 
 635   0.0000       2.805638        76.3453 
 636   0.0000       2.806209        76.3608 
 637   0.0000       2.812001        76.5184 
 638   0.0000       2.812366        76.5284 
 639   0.0000       2.821072        76.7653 
 640   0.0000       2.821505        76.7770 
 641   0.0000       2.825688        76.8909 
 642   0.0000       2.826382        76.9098 
 643   0.0000       2.841390        77.3181 
 644   0.0000       2.842208        77.3404 
 645   0.0000       2.843515        77.3760 
 646   0.0000       2.859811        77.8194 
 647   0.0000       2.862750        77.8994 
 648   0.0000       2.882695        78.4421 
 649   0.0000       2.884141        78.4815 
 650   0.0000       2.884178        78.4825 
 651   0.0000       2.885690        78.5236 
 652   0.0000       2.900191        78.9182 
 653   0.0000       2.900828        78.9355 
 654   0.0000       2.905947        79.0748 
 655   0.0000       2.910076        79.1872 
 656   0.0000       2.946332        80.1738 
 657   0.0000       2.946802        80.1865 
 658   0.0000       2.959101        80.5212 
 659   0.0000       2.961227        80.5791 
 660   0.0000       2.975306        80.9622 
 661   0.0000       2.987522        81.2946 
 662   0.0000       2.987553        81.2954 
 663   0.0000       3.002771        81.7095 
 664   0.0000       3.007083        81.8269 
 665   0.0000       3.007852        81.8478 
 666   0.0000       3.007861        81.8481 
 667   0.0000       3.022393        82.2435 
 668   0.0000       3.025871        82.3381 
 669   0.0000       3.026532        82.3561 
 670   0.0000       3.035571        82.6021 
 671   0.0000       3.039103        82.6982 
 672   0.0000       3.039886        82.7195 
 673   0.0000       3.055127        83.1342 
 674   0.0000       3.080375        83.8213 
 675   0.0000       3.083222        83.8987 
 676   0.0000       3.084680        83.9384 
 677   0.0000       3.084963        83.9461 
 678   0.0000       3.126002        85.0628 
 679   0.0000       3.130236        85.1780 
 680   0.0000       3.130326        85.1805 
 681   0.0000       3.131797        85.2205 
 682   0.0000       3.132275        85.2335 
 683   0.0000       3.136503        85.3486 
 684   0.0000       3.142710        85.5175 
 685   0.0000       3.143615        85.5421 
 686   0.0000       3.144466        85.5653 
 687   0.0000       3.163140        86.0734 
 688   0.0000       3.163275        86.0771 
 689   0.0000       3.165030        86.1248 
 690   0.0000       3.165822        86.1464 
 691   0.0000       3.203964        87.1843 
 692   0.0000       3.203974        87.1846 
 693   0.0000       3.205200        87.2179 
 694   0.0000       3.206532        87.2542 
 695   0.0000       3.212060        87.4046 
 696   0.0000       3.212848        87.4260 
 697   0.0000       3.231732        87.9399 
 698   0.0000       3.261543        88.7511 
 699   0.0000       3.265722        88.8648 
 700   0.0000       3.267140        88.9034 
 701   0.0000       3.283240        89.3415 
 702   0.0000       3.283486        89.3482 
 703   0.0000       3.300225        89.8037 
 704   0.0000       3.301533        89.8393 
 705   0.0000       3.318468        90.3001 
 706   0.0000       3.319134        90.3182 
 707   0.0000       3.325440        90.4898 
 708   0.0000       3.344226        91.0010 
 709   0.0000       3.347043        91.0777 
 710   0.0000       3.347713        91.0959 
 711   0.0000       3.370127        91.7058 
 712   0.0000       3.382365        92.0388 
 713   0.0000       3.382767        92.0498 
 714   0.0000       3.411593        92.8342 
 715   0.0000       3.412796        92.8669 
 716   0.0000       3.421611        93.1068 
 717   0.0000       3.422759        93.1380 
 718   0.0000       3.433800        93.4384 
 719   0.0000       3.434591        93.4600 
 720   0.0000       3.465256        94.2944 
 721   0.0000       3.469405        94.4073 
 722   0.0000       3.475840        94.5824 
 723   0.0000       3.478043        94.6423 
 724   0.0000       3.480311        94.7041 
 725   0.0000       3.483185        94.7823 
 726   0.0000       3.483194        94.7825 
 727   0.0000       3.525973        95.9466 
 728   0.0000       3.526262        95.9545 
 729   0.0000       3.529086        96.0313 
 730   0.0000       3.537473        96.2595 
 731   0.0000       3.539355        96.3107 
 732   0.0000       3.569143        97.1213 
 733   0.0000       3.571584        97.1877 
 734   0.0000       3.571630        97.1890 
 735   0.0000       3.596808        97.8741 
 736   0.0000       3.598600        97.9229 
 737   0.0000       3.599027        97.9345 
 738   0.0000       3.613781        98.3360 
 739   0.0000       3.618888        98.4749 
 740   0.0000       3.657693        99.5309 
 741   0.0000       3.658576        99.5549 
 742   0.0000       3.665155        99.7339 
 743   0.0000       3.691479       100.4502 
 744   0.0000       3.693621       100.5085 
 745   0.0000       3.695052       100.5475 
 746   0.0000       3.695972       100.5725 
 747   0.0000       3.697159       100.6048 
 748   0.0000       3.707765       100.8934 
 749   0.0000       3.708392       100.9105 
 750   0.0000       3.713310       101.0443 
 751   0.0000       3.715689       101.1090 
 752   0.0000       3.720129       101.2299 
 753   0.0000       3.725976       101.3890 
 754   0.0000       3.726125       101.3930 
 755   0.0000       3.733759       101.6007 
 756   0.0000       3.733825       101.6025 
 757   0.0000       3.760709       102.3341 
 758   0.0000       3.760813       102.3369 
 759   0.0000       3.786172       103.0270 
 760   0.0000       3.787122       103.0528 
 761   0.0000       3.832360       104.2838 
 762   0.0000       3.834118       104.3317 
 763   0.0000       3.835266       104.3629 
 764   0.0000       3.852350       104.8278 
 765   0.0000       3.863157       105.1219 
 766   0.0000       3.867111       105.2294 
 767   0.0000       3.882297       105.6427 
 768   0.0000       3.883689       105.6806 
 769   0.0000       3.907019       106.3154 
 770   0.0000       3.934647       107.0672 
 771   0.0000       3.935514       107.0908 
 772   0.0000       3.987633       108.5090 
 773   0.0000       3.988860       108.5424 
 774   0.0000       4.021982       109.4437 
 775   0.0000       4.022485       109.4574 
 776   0.0000       4.039089       109.9092 
 777   0.0000       4.039805       109.9287 
 778   0.0000       4.041454       109.9736 
 779   0.0000       4.067170       110.6733 
 780   0.0000       4.072651       110.8225 
 781   0.0000       4.080121       111.0257 
 782   0.0000       4.080744       111.0427 
 783   0.0000       4.110890       111.8630 
 784   0.0000       4.111192       111.8712 
 785   0.0000       4.133702       112.4837 
 786   0.0000       4.162617       113.2706 
 787   0.0000       4.162690       113.2725 
 788   0.0000       4.166447       113.3748 
 789   0.0000       4.184885       113.8765 
 790   0.0000       4.213004       114.6417 
 791   0.0000       4.231424       115.1429 
 792   0.0000       4.267512       116.1249 
 793   0.0000       4.269395       116.1762 
 794   0.0000       4.302783       117.0847 
 795   0.0000       4.304242       117.1244 
 796   0.0000       4.306238       117.1787 
 797   0.0000       4.308074       117.2287 
 798   0.0000       4.318872       117.5225 
 799   0.0000       4.326505       117.7302 
 800   0.0000       4.327248       117.7504 
 801   0.0000       4.328535       117.7854 
 802   0.0000       4.399288       119.7107 
 803   0.0000       4.405569       119.8816 
 804   0.0000       4.414928       120.1363 
 805   0.0000       4.425599       120.4267 
 806   0.0000       4.426458       120.4500 
 807   0.0000       4.435256       120.6895 
 808   0.0000       4.437389       120.7475 
 809   0.0000       4.446512       120.9957 
 810   0.0000       4.446902       121.0064 
 811   0.0000       4.468996       121.6076 
 812   0.0000       4.472265       121.6965 
 813   0.0000       4.497341       122.3789 
 814   0.0000       4.499445       122.4361 
 815   0.0000       4.499632       122.4412 
 816   0.0000       4.513921       122.8300 
 817   0.0000       4.520195       123.0008 
 818   0.0000       4.520227       123.0016 
 819   0.0000       4.538847       123.5083 
 820   0.0000       4.544162       123.6529 
 821   0.0000       4.571836       124.4060 
 822   0.0000       4.576636       124.5366 
 823   0.0000       4.594362       125.0189 
 824   0.0000       4.595296       125.0444 
 825   0.0000       4.600027       125.1731 
 826   0.0000       4.607520       125.3770 
 827   0.0000       4.607884       125.3869 
 828   0.0000       4.609598       125.4335 
 829   0.0000       4.619689       125.7081 
 830   0.0000       4.632560       126.0584 
 831   0.0000       4.635310       126.1332 
 832   0.0000       4.645052       126.3983 
 833   0.0000       4.650228       126.5391 
 834   0.0000       4.655217       126.6749 
 835   0.0000       4.655685       126.6876 
 836   0.0000       4.675134       127.2169 
 837   0.0000       4.675546       127.2281 
 838   0.0000       4.683111       127.4339 
 839   0.0000       4.691590       127.6647 
 840   0.0000       4.692294       127.6838 
 841   0.0000       4.694014       127.7306 
 842   0.0000       4.698220       127.8451 
 843   0.0000       4.724827       128.5691 
 844   0.0000       4.725942       128.5994 
 845   0.0000       4.737505       128.9141 
 846   0.0000       4.741248       129.0159 
 847   0.0000       4.753312       129.3442 
 848   0.0000       4.775756       129.9549 
 849   0.0000       4.778339       130.0252 
 850   0.0000       4.780957       130.0965 
 851   0.0000       4.782683       130.1434 
 852   0.0000       4.811409       130.9251 
 853   0.0000       4.812338       130.9504 
 854   0.0000       4.812643       130.9587 
 855   0.0000       4.815873       131.0466 
 856   0.0000       4.842917       131.7825 
 857   0.0000       4.857281       132.1733 
 858   0.0000       4.866802       132.4324 
 859   0.0000       4.867052       132.4392 
 860   0.0000       4.886236       132.9612 
 861   0.0000       4.886668       132.9730 
 862   0.0000       4.895263       133.2069 
 863   0.0000       4.919855       133.8760 
 864   0.0000       4.925242       134.0227 
 865   0.0000       4.948902       134.6665 
 866   0.0000       4.959553       134.9563 
 867   0.0000       4.959946       134.9670 
 868   0.0000       4.971334       135.2769 
 869   0.0000       4.973307       135.3306 
 870   0.0000       4.990291       135.7927 
 871   0.0000       4.992998       135.8664 
 872   0.0000       5.006151       136.2243 
 873   0.0000       5.042084       137.2021 
 874   0.0000       5.043538       137.2417 
 875   0.0000       5.046852       137.3318 
 876   0.0000       5.100884       138.8021 
[...]
   PAOs       -> AO shells       420.0

Calculating integrals (13.7 sec, 1099.273 MB)
Sorting integrals (9.4 sec, 1099.244 MB)
Total time for the integral transformation: 24.3 sec

-----------------------------------------
   _  _______   __    ___  _  ______     
  / |/ / __/ | / /___/ _ \/ |/ / __ \  
 /    / _/ | |/ /___/ ___/    / /_/ /    
/_/|_/___/ |___/   /_/  /_/|_/\____/    
                                         
                for open-shell molecules 
-----------------------------------------


 ==> UMP guess in NEV-PNO space 

Truncation parameters                       .... 
    PAOOverlapThresh     =        1.000e-08
Pair selection                          .... not used
    TCutPairs            =        1.000e-05
    TCutMKN              =        1.000e-02
    TCutDO               =        5.000e-03
    TCutCMO              =        1.000e-03
    TCutCPAO             =        1.000e-03
    TCutPNO              =        1.000e-07
    TScaleTCutPNO_SS     =        1.000e+00
    TScaleTCutPNO_SD     =        1.000e+00
    TScalePNO_Core       =        1.000e-02
    TCutDO_Crude         =        1.000e-02
    TCutMKN_Crude        =        1.000e-02
    TCutPairs_Crude      =        1.000e-05
    TCutPNO_Crude        =        1.000e-07
    TCutCMO              =        1.000e-03
    TCutCPAO             =        1.000e-03
Spin component scaling in ijab excitation            .... not used

Formation of guess energy and open-shell PNO.

NEV-PNO operators..
  E(ij->ab)
  E(ip->ab)
  E(pq->ra)
  E(ip->qr)
  E(ip->aq) and E(ip->qa)

 Norm of Semi-Internal Fock Operators ...   0.0005876042
  ==> Semi-internal excitations detected 

   .... Finished loop over pairs

                       ===========================
                       1765 OF 1981 PAIRS ARE KEPT CC PAIRS
                        216 OF 1981 PAIRS ARE KEPT PT2 PAIRS
                          0 OF 1981 PAIRS ARE SKIPPED
                       ===========================

 Initial PAO correlation energy (all pairs)    ...  -3.0462668389 Eh
 Energy constituents in PAO basis (Eh):
  | Vijab(+0) ...  -2.8841484723
  | Viab (-1) ...  -0.0946148730
  | Va   (-1) ...  -0.0001808489
  | Vija (+1) ...  -0.0562684365
  | Via  (+0) ...  -0.0110425809
  | Vi   (+1) ...  -0.0000116273
 Initial PNO correlation energy                ...  -3.0334813113 Eh
 Energy constituents in PNO basis (Eh):
  | Vijab(+0) ...  -2.8745130382 (err=  0.0096354341)
  | Viab (-1) ...  -0.0914799638 (err=  0.0031349092)
  | Va   (-1) ...  -0.0001808489 (err=  0.0000000000)
  | Vija (+1) ...  -0.0562533480 (err=  0.0000150885)
  | Via  (+0) ...  -0.0110424850 (err=  0.0000000959)
  | Vi   (+1) ...  -0.0000116273 (err=  0.0000000000)
 Sum of total truncation errors ...   0.0127855276 Eh
  | Pair screening ...   0.0000000000 Eh
  | PNO truncation ...   0.0127855276 Eh

 UMP2 correlation energy (PAO) ...  -3.0416237686
  | alpha-alpha ...  -0.4010700750 (NP_aa=  990)
  | alpha-beta  ...  -2.2509231337 (NP_ab= 1980)
  | beta -beta  ...  -0.3896305598 (NP_bb=  946)
 UMP2 correlation energy (PNO) ...  -3.0288332803
  | alpha-alpha ...  -0.3979283862 (err=  0.0031416889, NP_aa=  990)
  | alpha-beta  ...  -2.2426343244 (err=  0.0082888092, NP_ab= 1980)
  | beta -beta  ...  -0.3882705697 (err=  0.0013599902, NP_bb=  946)
 Sum of total UMP2 truncation errors ...   0.0127904883 Eh
  | Pair screening ...   0.0000000000 Eh
  | PNO truncation ...   0.0127904883 Eh
 Timing for NEV-PNO construction (sec.)
  | Intermediate construction  ..            1.753
  | Amplitude construction     ..           53.770
  | Total time                 ..           55.523
 Making pair pair interaction lists ...      ok
                                                 
  ___         ___     __        ___  __   __     
 |__  | |\ | |__     / _` |  | |__  /__` /__`   
 |    | | \| |___    \__> \__/ |___ .__/ .__/ 
                                                 

Thresholds for map construction and integral transformation:
   TCutMKN   ...     1.0e-03
   TCutDO    ...     5.0e-03
   TCutCMO   ...     1.0e-03
   TCutCPAO  ...     1.0e-03

Thresholds for map construction and integral transformation for strong Triples:
   TCutMKN   ...     1.0e-02
   TCutDO    ...     1.0e-02
   TCutCMO   ...     1.0e-03
   TCutCPAO  ...     1.0e-03

Thresholds for map construction and integral transformation for weak Triples:
   TCutMKN   ...     1.0e-01
   TCutDO    ...     2.0e-02
   TCutCMO   ...     1.0e-03
   TCutCPAO  ...     1.0e-03

--------------------------------
LOCAL RI TRANSFORMATION (IAVPAO)
--------------------------------

Orbital window:      20 to 64
Number of PAOs:    1241
Basis functions:   1240 (420 shells)
Aux. functions:    2580 (700 shells)

Processing maps (0.2 sec)
Average map sizes:
   Aux shells -> MOs              45.0
   Aux shells -> PAOs           1241.0
   MOs        -> AO shells       413.4
   PAOs       -> AO shells       420.0

Calculating integrals (14.0 sec, 1099.273 MB)
Sorting integrals (9.5 sec, 1099.244 MB)
Total time for the integral transformation: 24.7 sec

 ==> UMP guess in NEV-PNO space 

Truncation parameters                       .... 
    PAOOverlapThresh     =        1.000e-08
Pair selection                          .... not used
    TCutPairs            =        1.000e-05
    TCutMKN              =        1.000e-03
    TCutDO               =        5.000e-03
    TCutCMO              =        1.000e-03
    TCutCPAO             =        1.000e-03
    TCutPNO              =        1.000e-07
    TScaleTCutPNO_SS     =        1.000e+00
    TScaleTCutPNO_SD     =        1.000e+00
    TScalePNO_Core       =        1.000e-02
    TScaleTCutPairs_Somo =        3.300e-01
    TScaleTCutPairs_Core =        1.000e+00
    TCutPairs_MP2        =        1.000e-06
    TCutCMO              =        1.000e-03
    TCutCPAO             =        1.000e-03
Spin component scaling in ijab excitation            .... not used

Formation of guess energy and open-shell PNO.

NEV-PNO operators..
  E(ij->ab)
  E(ip->ab)
  E(pq->ra)
  E(ip->qr)
  E(ip->aq) and E(ip->qa)

   .... Finished loop over pairs
Initial amplitudes guess done. Entering LNEVPT2 iteration loop:
   Max. no of iterations          ...  50
   Energy convergence tolerance   ...    1.0e-07
   Residual convergence tolerance ...    5.0e-07
   Fock matrix cutoff             ...    1.0e-05 Eh
   DIIS convergence acceleration parameters:
        Max # vectors in DIIS     ... 0
        Start iteration of DIIS   ... 0
        Levelshift                ... 2.000e-01
        Damping factor 1          ... 5.000e-01
        Damping factor 2          ... 1.000e+00
   L-NEVPT2 PNO cut-off           ...   1.0e-09
   L-NEVPT2 PNO cut-off (core)    ...   1.0e-11

 PNO Occupation Number Statistics: 
  | Av. % of trace(Dij) retained        ...  98.195950186334
  | Av. % of trace(Dip) retained        ...  99.097202354896
  | Av. % of trace(Dpq) retained        ...  99.999999159933
  | sigma^2 in % of trace(Dij) retained ...   4.94e+00
  | sigma^2 in % of trace(Dip) retained ...   1.27e+00
  | sigma^2 in % of trace(Dpq) retained ...   0.00e+00
  | Av. % of trace(Di) retained         ...  99.999204096955
  | Av. % of trace(Dp) retained         ...  99.999999972158
  | sigma^2 in % of trace(Di) retained  ...   2.53e-07
  | sigma^2 in % of trace(Dp) retained  ...   0.00e+00
 Distributions of % trace(Dij) recovered:
  |       >= 99.9  ...   154 ( 17.5 % of all IJ-pairs)
  |   [80.0, 90.0) ...     8 (  0.9 % of all IJ-pairs)
  |   [90.0, 99.0) ...   418 ( 47.4 % of all IJ-pairs)
  |   [99.0, 99.9) ...   302 ( 34.2 % of all IJ-pairs)
 Distributions of % trace(Dip) recovered:
  |       >= 99.9  ...     1 (  2.3 % of all IP-pairs)
  |   [90.0, 99.0) ...     9 ( 20.5 % of all IP-pairs)
  |   [99.0, 99.9) ...    34 ( 77.3 % of all IP-pairs)
 Distributions of % trace(Dpq) recovered:
  |       >= 99.9  ...     1 (100.0 % of all PQ-pairs)
 Distributions of % trace(Di) recovered :
  |       >= 99.9  ...    44 (100.0 % of all I-pairs )
 Distributions of % trace(Dp) recovered :
  |       >= 99.9  ...     1 (100.0 % of all P-pairs )

                       ===========================
                       1765 OF 1981 PAIRS ARE KEPT
                       ===========================

 Initial PAO correlation energy (all pairs)    ...  -3.0470380161 Eh
 Energy constituents in PAO basis (Eh):
  | Vijab(+0) ...  -2.8849181724
  | Viab (-1) ...  -0.0946137151
  | Va   (-1) ...  -0.0001808489
  | Vija (+1) ...  -0.0562710830
  | Via  (+0) ...  -0.0110425694
  | Vi   (+1) ...  -0.0000116273
 Initial PNO correlation energy                ...  -3.0337384219 Eh
 Energy constituents in PNO basis (Eh):
  | Vijab(+0) ...  -2.8747746530 (err=  0.0101435194)
  | Viab (-1) ...  -0.0914863061 (err=  0.0031274090)
  | Va   (-1) ...  -0.0001808489 (err=  0.0000000000)
  | Vija (+1) ...  -0.0562425170 (err=  0.0000285660)
  | Via  (+0) ...  -0.0110424696 (err=  0.0000000998)
  | Vi   (+1) ...  -0.0000116273 (err=  0.0000000000)
 Sum of total truncation errors ...   0.0132995943 Eh
  | Pair screening ...   0.0005647042 Eh
  | PNO truncation ...   0.0127348901 Eh

 UMP2 correlation energy (PAO) ...  -3.0423953059
  | alpha-alpha ...  -0.4009222524 (NP_aa=  990)
  | alpha-beta  ...  -2.2519609624 (NP_ab= 1980)
  | beta -beta  ...  -0.3895120911 (NP_bb=  946)
 UMP2 correlation energy (PNO) ...  -3.0290907084
  | alpha-alpha ...  -0.3977029959 (err=  0.0032192564, NP_aa=  882)
  | alpha-beta  ...  -2.2433258622 (err=  0.0086351002, NP_ab= 1764)
  | beta -beta  ...  -0.3880618503 (err=  0.0014502409, NP_bb=  838)
 Sum of total UMP2 truncation errors ...   0.0133045975 Eh
  | Pair screening ...   0.0005647291 Eh
  | PNO truncation ...   0.0127398684 Eh
 Timing for NEV-PNO construction (sec.)
  | Intermediate construction  ..            1.826
  | Amplitude construction     ..           64.583
  | Total time                 ..           66.409
 Making pair pair interaction lists ...      ok
 Total size for 2-ext PNO integrals ...     50.0 MB
Checking the number of SOMO/SOMO doubles PNOs ... 
 #Truncate: (64, 64)[408] -> [151] .. 

Number of pairs in F12 (TCutDOF12 = 3.000e-04)        ...     1765

--------------------------------
LOCAL RI TRANSFORMATION (VABPAO)
--------------------------------

Number of PAOs:    1241
Basis functions:   1240 (420 shells)
Aux. functions:    2580 (700 shells)

Processing maps (0.0 sec)
Average map sizes:
   Aux shells -> PAOs           1241.0
   PAOs       -> AO shells       420.0

Calculating integrals (686.4 sec, 59924.475 MB)
Finished
-----------------------------
LOCAL RI TRANSFORMATION (IJV)
-----------------------------

Orbital window:      20 to 64
Basis functions:   1240 (420 shells)
Aux. functions:    2580 (700 shells)

Processing maps (0.0 sec)
Average map sizes:
   Aux shells -> MOs(i)           45.0
   Aux shells -> MOs(j)           45.0
   MOs        -> AO shells       413.4

Calculating integrals (10.6 sec, 39.889 MB)
Sorting integrals (9.9 sec, 39.860 MB)
Total time for the integral transformation: 20.6 sec


-------------------------------------
Pair Pair Term precalculation with     
RI-(ij|mn) and (im|jn) transformation  
ON THE FLY                             
-------------------------------------

   IBatch   1 (of  18)              ... done (    0.000 sec)
   IBatch   2 (of  18)              ... done ( 1789.988 sec)
   IBatch   3 (of  18)              ... done ( 1188.778 sec)
   IBatch   4 (of  18)              ... done (  620.972 sec)
   IBatch   5 (of  18)              ... done (  643.613 sec)
   IBatch   6 (of  18)              ... done ( 1032.859 sec)
   IBatch   7 (of  18)              ... done (  426.933 sec)
   IBatch   8 (of  18)              ... done (  741.612 sec)
   IBatch   9 (of  18)              ... done (  511.619 sec)
   IBatch  10 (of  18)              ... done (  524.623 sec)
   IBatch  11 (of  18)              ... done (  726.118 sec)
   IBatch  12 (of  18)              ... done (  621.067 sec)
   IBatch  13 (of  18)              ... done (  877.582 sec)
   IBatch  14 (of  18)              ... done ( 1072.851 sec)
   IBatch  15 (of  18)              ... done (  987.241 sec)
   IBatch  16 (of  18)              ... done (  693.715 sec)
   IBatch  17 (of  18)              ... done ( 1245.454 sec)
   IBatch  18 (of  18)              ... done (  208.523 sec)
Total EXT                           ...       13913.549 sec

---------------------
RI-PNO TRANSFORMATION
---------------------

Total Number of PNOs                   ... 89311
Total Number of IJ-PNOs                ... 86352
Total Number of IP-PNOs                ...  2808
Total Number of PQ-PNOs                ...   151
Total Number of IJ-pairs               ...  1720
Total Number of PI-pairs               ...    44
Total Number of PQ-pairs               ...     1
Average number of PNOs per pair        ...    50
Maximal number of PNOs per pair        ...   189
>> Statistics for ij-pairs..
   #pairs with  1 -  5 PNOs   :    0
   #pairs with  6 - 10 PNOs   :   96
   #pairs with 11 - 15 PNOs   :  118
   #pairs with 16 - 20 PNOs   :  124
   #pairs with 21 - 25 PNOs   :   88
   #pairs with 26 - 30 PNOs   :  220
   #pairs with 31 - 35 PNOs   :   82
   #pairs with 36 - 40 PNOs   :   72
   #pairs with 41 - 45 PNOs   :   88
   #pairs with 46 - 50 PNOs   :  102
   #pairs with 51 - 55 PNOs   :   88
   #pairs with 56 - 60 PNOs   :   70
   #pairs with 61 - 65 PNOs   :   56
   #pairs with 66 - 70 PNOs   :   56
   #pairs with 71 - 75 PNOs   :   99
   #pairs with 76 - 80 PNOs   :   56
   #pairs with 81 - 85 PNOs   :   50
   #pairs with 86 - 90 PNOs   :   52
   #pairs with 91 - 95 PNOs   :   33
   #pairs with > 96 PNOs      :  170
>> Statistics for ip-pairs..
   #pairs with  1 -  5 PNOs   :    0
   #pairs with  6 - 10 PNOs   :    0
   #pairs with 11 - 15 PNOs   :    2
   #pairs with 16 - 20 PNOs   :    0
   #pairs with 21 - 25 PNOs   :    0
   #pairs with 26 - 30 PNOs   :    2
   #pairs with 31 - 35 PNOs   :    4
   #pairs with 36 - 40 PNOs   :    6
   #pairs with 41 - 45 PNOs   :    3
   #pairs with 46 - 50 PNOs   :    3
   #pairs with 56 - 60 PNOs   :    2
   #pairs with 61 - 65 PNOs   :    5
   #pairs with 66 - 70 PNOs   :    2
   #pairs with 71 - 75 PNOs   :    4
   #pairs with 76 - 80 PNOs   :    1
   #pairs with 81 - 85 PNOs   :    2
   #pairs with > 96 PNOs      :    8
>> Statistics for pq-pairs..
   #pairs with  1 -  5 PNOs   :    0
   #pairs with  6 - 10 PNOs   :    0
   #pairs with 11 - 15 PNOs   :    0
   #pairs with 16 - 20 PNOs   :    0
   #pairs with 21 - 25 PNOs   :    0
   #pairs with 26 - 30 PNOs   :    0
   #pairs with 31 - 35 PNOs   :    0
   #pairs with 36 - 40 PNOs   :    0
   #pairs with 41 - 45 PNOs   :    0
   #pairs with 46 - 50 PNOs   :    0
   #pairs with > 96 PNOs      :    1

Generation of (ij|ab)[P] integrals            ... on
Generation of (ia|bc)[P],(ja|bc)[P] integrals ... on
Storage of 3 and 4 external integrals         ... on
Generation of ALL (ka|bc)[P] integrals        ... on
Keep RI integrals in memory                   ... off

Ibatch:  1 (of  2)
Starting 2-4 index PNO integral generation ... done

Ibatch:  2 (of  2)
Starting 2-4 index PNO integral generation ... done

Timings:
Total PNO integral transformation time     ...      14951.665 sec
Size of the 3-external file                ...      2456 MB
Size of the 4-external file                ...     32661 MB
Size of the IKJL file                      ...        47 MB
Size of the all 3-external file            ...     55260 MB
Size of the 1-external file                ...        49 MB

Size of the PAO/PNO coefficient matrices   ...     813.2 MB

Making pair/pair overlap matrices          ... done ( 1126.523 sec)
Size of the pair overlap file              ...   12080.0 MB
Total # unrestricted pairs ...       3484
  # of alpha-alpha pairs   ...        882
  # of alpha-beta pairs    ...       1764
  # of beta-beta pairs     ...        838
Process  0: Error (ORCA_MDCI): not enough memory to treat a single 4ext-batch

Process  0:                    Please increase MaxCore - by at least ( 5674.2 MB)

[file orca_mdci/mdci_pno_openshell.cpp, line 1861, Process 0]:                    aborting calculation . . .

Process 26: Error (ORCA_MDCI): not enough memory to treat a single 4ext-batch

Process 26:                    Please increase MaxCore - by at least ( 9717.9 MB)

[file orca_mdci/mdci_pno_openshell.cpp, line 1861, Process 26]:                    aborting calculation . . .

Process  1: Error (ORCA_MDCI): not enough memory to treat a single 4ext-batch

Process  1:                    Please increase MaxCore - by at least ( 4683.0 MB)

[file orca_mdci/mdci_pno_openshell.cpp, line 1861, Process 1]:                    aborting calculation . . .

Process  2: Error (ORCA_MDCI): not enough memory to treat a single 4ext-batch

Process  2:                    Please increase MaxCore - by at least ( 4683.0 MB)

[file orca_mdci/mdci_pno_openshell.cpp, line 1861, Process 2]:                    aborting calculation . . .

Process  3: Error (ORCA_MDCI): not enough memory to treat a single 4ext-batch

Process  3:                    Please increase MaxCore - by at least (  839.3 MB)

[file orca_mdci/mdci_pno_openshell.cpp, line 1861, Process 3]:                    aborting calculation . . .

Process  4: Error (ORCA_MDCI): not enough memory to treat a single 4ext-batch

Process  4:                    Please increase MaxCore - by at least (  839.3 MB)

[file orca_mdci/mdci_pno_openshell.cpp, line 1861, Process 4]:                    aborting calculation . . .

Process  5: Error (ORCA_MDCI): not enough memory to treat a single 4ext-batch

Process  5:                    Please increase MaxCore - by at least (  192.9 MB)

[file orca_mdci/mdci_pno_openshell.cpp, line 1861, Process 5]:                    aborting calculation . . .

Process  6: Error (ORCA_MDCI): not enough memory to treat a single 4ext-batch

Process  6:                    Please increase MaxCore - by at least ( 5803.0 MB)

[file orca_mdci/mdci_pno_openshell.cpp, line 1861, Process 6]:                    aborting calculation . . .

Process  7: Error (ORCA_MDCI): not enough memory to treat a single 4ext-batch

Process  7:                    Please increase MaxCore - by at least ( 4803.2 MB)

[file orca_mdci/mdci_pno_openshell.cpp, line 1861, Process 7]:                    aborting calculation . . .

Process  8: Error (ORCA_MDCI): not enough memory to treat a single 4ext-batch

Process  8:                    Please increase MaxCore - by at least ( 4803.2 MB)

[file orca_mdci/mdci_pno_openshell.cpp, line 1861, Process 8]:                    aborting calculation . . .

Process  9: Error (ORCA_MDCI): not enough memory to treat a single 4ext-batch

Process  9:                    Please increase MaxCore - by at least (  923.8 MB)

[file orca_mdci/mdci_pno_openshell.cpp, line 1861, Process 9]:                    aborting calculation . . .

Process 10: Error (ORCA_MDCI): not enough memory to treat a single 4ext-batch

Process 10:                    Please increase MaxCore - by at least (  923.8 MB)

[file orca_mdci/mdci_pno_openshell.cpp, line 1861, Process 10]:                    aborting calculation . . .

Process 11: Error (ORCA_MDCI): not enough memory to treat a single 4ext-batch

Process 11:                    Please increase MaxCore - by at least (  270.9 MB)

[file orca_mdci/mdci_pno_openshell.cpp, line 1861, Process 11]:                    aborting calculation . . .

Process 13: Error (ORCA_MDCI): not enough memory to treat a single 4ext-batch

Process 13:                    Please increase MaxCore - by at least ( 6735.6 MB)

[file orca_mdci/mdci_pno_openshell.cpp, line 1861, Process 13]:                    aborting calculation . . .


ORCA finished by error termination in MDCI
Calling Command: mpirun -np 32  /cm/shared/c3ddb/orca/4.2.0//orca_mdci_mpi 08_Corannulene_ion.mdciinp.tmp 08_Corannulene_ion 
[file orca_tools/qcmsg.cpp, line 458]: 
  .... aborting the run

