
Running Job 1 of 1 input.in
qchem input.in_9485.0 /scratch/alongd/qlscratch/qchem9485/ 1
/opt/qchem/bin/mpi/mpirun_qchem -machinefile /tmp/547381.1.long1/hostfile -np 1 /opt/qchem/exe/qcprog.exe input.in_9485.0 /scratch/alongd/qlscratch/qchem9485/

Process 0 of 1 is on node18.cluster - thread support 0
initial socket setup ...start
initial socket setup ...done 
now start server 0 ... 

cmd = /usr/bin/ssh node96 /opt/qchem/bin/get_hostid 1262116212 > /scratch/alongd/qlscratch/qchem9485/lic.dat
                  Welcome to Q-Chem
     A Quantum Leap Into The Future Of Chemistry


 Q-Chem 4.4, Q-Chem, Inc., Pleasanton, CA (2016)

 Y. Shao,  Z. Gan,  E. Epifanovsky,  A. T. B. Gilbert,  M. Wormit,  
 J. Kussmann,  A. W. Lange,  A. Behn,  J. Deng,  X. Feng,  D. Ghosh,  
 M. Goldey,  P. R. Horn,  L. D. Jacobson,  I. Kaliman,  R. Z. Khaliullin,  
 T. Kus,  A. Landau,  J. Liu,  E. I. Proynov,  Y. M. Rhee,  R. M. Richard,  
 M. A. Rohrdanz,  R. P. Steele,  E. J. Sundstrom,  H. L. Woodcock III,  
 P. M. Zimmerman,  D. Zuev,  B. Albrecht,  E. Alguire,  B. Austin,  
 S. A. Baeppler,  G. J. O. Beran,  Y. A. Bernard,  E. Berquist,  
 K. Brandhorst,  K. B. Bravaya,  S. T. Brown,  D. Casanova,  C.-M. Chang,  
 Y. Chen,  S. H. Chien,  K. D. Closser,  M. P. Coons,  D. L. Crittenden,  
 S. Dasgupta,  M. Diedenhofen,  R. A. DiStasio Jr.,  H. Do,  A. D. Dutoi,  
 R. G. Edgar,  P.-T. Fang,  S. Fatehi,  Q. Feng,  L. Fusti-Molnar,  
 A. Ghysels,  A. Golubeva-Zadorozhnaya,  J. Gomes,  A. Gunina,  
 M. W. D. Hanson-Heine,  P. H. P. Harbach,  A. W. Hauser,  E. G. Hohenstein,  
 Z. C. Holden,  K. Hui,  T.-C. Jagau,  H. Ji,  B. Kaduk,  K. Khistyaev,  
 Jaehoon Kim,  Jihan Kim,  R. A. King,  P. Klunzinger,  D. Kosenkov,  
 T. Kowalczyk,  C. M. Krauter,  A. Kunitsa,  K. U. Lao,  A. Laurent,  
 K. V. Lawler,  D. Lefrancois,  S. Lehtola,  S. V. Levchenko,  C. Y. Lin,  
 Y.-S. Lin,  F. Liu,  E. Livshits,  R. C. Lochan,  A. Luenser,  P. Manohar,  
 S. F. Manzer,  S.-P. Mao,  Y. Mao,  N. Mardirossian,  A. V. Marenich,  
 L. A. Martinez-Martinez,  S. A. Maurer,  N. J. Mayhall,  J.-M. Mewes,  
 A. F. Morrison,  K. Nanda,  C. M. Oana,  R. Olivares-Amaya,  D. P. O'Neill,  
 J. A. Parkhill,  T. M. Perrine,  R. Peverati,  P. A. Pieniazek,  F. Plasser,  
 A. Prociuk,  D. R. Rehn,  E. Rosta,  N. J. Russ,  N. Sergueev,  
 S. M. Sharada,  S. Sharma,  D. W. Small,  A. Sodt,  T. Stauch,  T. Stein,  
 D. Stuck,  Y.-C. Su,  A. J. W. Thom,  T. Tsuchimochi,  L. Vogt,  O. Vydrov,  
 T. Wang,  M. A. Watson,  J. Wenzel,  A. White,  C. F. Williams,  
 V. Vanovschi,  S. Yeganeh,  S. R. Yost,  Z.-Q. You,  I. Y. Zhang,  X. Zhang,  
 Y. Zhao,  B. R. Brooks,  G. K. L. Chan,  D. M. Chipman,  C. J. Cramer,  
 W. A. Goddard III,  M. S. Gordon,  W. J. Hehre,  A. Klamt,  
 H. F. Schaefer III,  M. W. Schmidt,  C. D. Sherrill,  D. G. Truhlar,  
 A. Warshel,  X. Xu,  A. Aspuru-Guzik,  R. Baer,  A. T. Bell,  N. A. Besley,  
 J.-D. Chai,  A. Dreuw,  B. D. Dunietz,  T. R. Furlani,  S. R. Gwaltney,  
 C.-P. Hsu,  Y. Jung,  J. Kong,  D. S. Lambrecht,  W. Liang,  C. Ochsenfeld,  
 V. A. Rassolov,  L. V. Slipchenko,  J. E. Subotnik,  T. Van Voorhis,  
 J. M. Herbert,  A. I. Krylov,  P. M. W. Gill,  M. Head-Gordon

 Contributors to earlier versions of Q-Chem not listed above: 
 R. D. Adamson,  J. Baker,  E. F. C. Byrd,  A. K. Chakraborty,  C.-L. Cheng,  
 H. Dachsel,  R. J. Doerksen,  G. Hawkins,  A. Heyden,  S. Hirata,  
 G. Kedziora,  F. J. Keil,  C. Kelley,  P. P. Korambath,  W. Kurlancheek,  
 A. M. Lee,  M. S. Lee,  D. Liotard,  I. Lotan,  P. E. Maslen,  N. Nair,  
 D. Neuhauser,  R. Olson,  B. Peters,  J. Ritchie,  N. E. Schultz,  
 N. Shenvi,  A. C. Simmonett,  K. S. Thanthiriwatte,  Q. Wu,  W. Zhang

 Please cite Q-Chem as follows:
 Y. Shao et al., Mol. Phys. 113, 184-215 (2015)
 DOI: 10.1080/00268976.2014.952696

 Q-Chem 4.4.0 for Intel X86 Linux

 Parts of Q-Chem use Armadillo 5.200.1 (Boston Tea Smuggler).
 http://arma.sourceforge.net/

 Q-Chem begins on Fri Jan  4 16:40:52 2019  

Host: 
0

     Scratch files written to /scratch/alongd/qlscratch/qchem9485//
 Apr2716 1281_ 20995  20993 4150   
 Parallel job on  1  processors
Processing $rem in /opt/qchem/config/preferences.
 MEM_TOTAL  2000 

Checking the input file for inconsistencies... 	...done.

--------------------------------------------------------------
User input:
--------------------------------------------------------------
$molecule
0 1
C       0.00000000    0.00000000    0.76277895
C       0.00000000    0.00000000   -0.76277895
H       1.01819379    0.00000000    1.16159931
H      -0.50909690    0.88178169    1.16159931
H      -0.50909690   -0.88178169    1.16159931
H       0.50909690    0.88178169   -1.16159931
H       0.50909690   -0.88178169   -1.16159931
H      -1.01819379    0.00000000   -1.16159931

$end

$rem
JOBTYPE       freq
METHOD        wb97x-d3
UNRESTRICTED  False
BASIS         6-311+g(d,p)
$end

--------------------------------------------------------------
 ----------------------------------------------------------------
             Standard Nuclear Orientation (Angstroms)
    I     Atom           X                Y                Z
 ----------------------------------------------------------------
    1      C       0.0000000015     0.0000000000     0.7627789500
    2      C      -0.0000000015     0.0000000000    -0.7627789500
    3      H       1.0181937923     0.0000000000     1.1615993080
    4      H      -0.5090968977     0.8817816900     1.1615993110
    5      H      -0.5090968977    -0.8817816900     1.1615993110
    6      H       0.5090968977     0.8817816900    -1.1615993110
    7      H       0.5090968977    -0.8817816900    -1.1615993110
    8      H      -1.0181937923     0.0000000000    -1.1615993080
 ----------------------------------------------------------------
 Molecular Point Group                 D3d   NOp = 12
 Largest Abelian Subgroup              C2v   NOp =  4
 Nuclear Repulsion Energy =    42.2242864839 hartrees
 There are        9 alpha and        9 beta electrons

 Q-Chem warning in module snoman.F, line  322, PE  0:

 turning symmetry off for DFT job

 Requested basis set is 6-311+G(d,p)
 There are 36 shells and 80 basis functions

 Total QAlloc Memory Limit   2000 MB
 Mega-Array Size        61 MB
 MEM_STATIC part        62 MB

                       Distance Matrix (Angstroms)
             C (  1)   C (  2)   H (  3)   H (  4)   H (  5)   H (  6)
   C (  2)  1.525558
   H (  3)  1.093516  2.177143
   H (  4)  1.093516  2.177143  1.763563
   H (  5)  1.093516  2.177143  1.763563  1.763563
   H (  6)  2.177143  1.093516  2.536527  2.536527  3.089357
   H (  7)  2.177143  1.093516  2.536527  3.089357  2.536527  1.763563
   H (  8)  2.177143  1.093516  3.089357  2.536527  2.536527  1.763563
             H (  7)
   H (  8)  1.763563
 
 A cutoff of  1.0D-11 yielded    666 shell pairs
 There are      3326 function pairs (      3499 Cartesian)
 
 -------------------------------------------------------
 OpenMP Integral Computing Module                       
 Release: version 1.0, May 2013, Q-Chem Inc. Pittsburgh 
 -------------------------------------------------------
 Integral Job Info:
 Integral job number is                      11
 Integral operator is                         1
 short-range coefficients              19572800
 long-range coefficients              100000000
 Omega coefficients                         250
 if combine SR and LR in K                    1
 Integral screening is                        0
 Integral computing path is                   2
 max size of driver memory is            800000
 size of driver memory is                593474
 size of scratch memory is              2260544
 max col of scratch BK array               1296
 max len of scratch array in speh3          155
 max len of scratch index in speh4           18
 max int batch size is                      520
 min int batch size is                       52
 fixed nKL is                                52
 max L of basis functions is                  2
 order of int derivative is                   0
 number of shells is                         36
 number of basis is                          82
 number of cartesian basis is                82
 number of contracted shell pairs           666
 number of primitive shell pairs           1743
 maxK2 (contraction) of shell pair           36
 max number of K2 of shell pair               1
 max number of CS2 of shell pair             81
 max number of PS2 of shell pair            234
 mem total for path MDJ                   11092
 -------------------------------------------------------
 Smallest overlap matrix eigenvalue = 1.81E-04
 Guess from superposition of atomic densities
 Warning:  Energy on first SCF cycle will be non-variational
 Long-range K will be added via erf
 Coulomb attenuation parameter = 0.25 bohr**(-1)
 A restricted hybrid HF-DFT SCF calculation will be
 performed using Pulay DIIS extrapolation
 Exchange:     0.1957 Hartree-Fock + 1.0000 wB97X-D3 + LR-HF
 Correlation:  1.0000 wB97X-D3
 Using SG-1 standard quadrature grid
 Dispersion:   Grimme D3
 SCF converges when DIIS error is below 1.0E-08
 using 6 threads for integral computing 
 using 6 threads for integral computing 
 K construction time:  CPU 0.46 s  wall 0.08 s
 -------------------------------------------------------
 OpenMP BLAS3 based DFT computing Module                
 Release: version 1.0, May 2013, Q-Chem Inc. Pittsburgh 
 -------------------------------------------------------
 ---------------------------------------
  Cycle       Energy         DIIS Error
 ---------------------------------------
    1     -80.0906141780      6.12E-02
 K construction time:  CPU 0.70 s  wall 0.12 s
    2     -79.8010641326      5.64E-03
 K construction time:  CPU 0.70 s  wall 0.12 s
    3     -79.8146077635      4.08E-03
 K construction time:  CPU 0.56 s  wall 0.12 s
    4     -79.8274134086      1.86E-04
 K construction time:  CPU 0.69 s  wall 0.12 s
    5     -79.8274568844      3.57E-05
 K construction time:  CPU 0.77 s  wall 0.14 s
    6     -79.8274584995      6.13E-06
 K construction time:  CPU 0.58 s  wall 0.12 s
    7     -79.8274585724      9.83E-07
 K construction time:  CPU 0.69 s  wall 0.12 s
    8     -79.8274585747      1.10E-07
 K construction time:  CPU 0.69 s  wall 0.12 s
    9     -79.8274585748      8.92E-09 Convergence criterion met
 ---------------------------------------
 SCF time:  CPU 11.92 s  wall 2.34 s
 SCF   energy in the final basis set = -79.8274585748
 Total energy in the final basis set = -79.8274585748
 
 --------------------------------------------------------------
             Orbital Energies (a.u.) and Symmetries
 --------------------------------------------------------------
 
 Alpha MOs, Restricted
 -- Occupied --                  
-10.262 -10.262  -0.869  -0.726  -0.535  -0.535  -0.464  -0.436
  1 A1g   1 A2u   2 A1g   2 A2u   1 Eu    1 Eu    3 A1g   1 Eg                 
 -0.436
  1 Eg                                                                         
 -- Virtual --                   
  0.074   0.092   0.109   0.109   0.140   0.140   0.143   0.189
  4 A1g   3 A2u   2 Eu    2 Eu    2 Eg    2 Eg    5 A1g   4 A2u                
  0.236   0.236   0.253   0.253   0.289   0.319   0.336   0.482
  3 Eg    3 Eg    3 Eu    3 Eu    6 A1g   5 A2u   6 A2u   4 Eu                 
  0.482   0.534   0.534   0.535   0.691   0.694   0.694   0.720
  4 Eu    4 Eg    4 Eg    7 A1g   7 A2u   5 Eg    5 Eg    5 Eu                 
  0.720   0.744   0.822   0.935   0.991   1.053   1.053   1.352
  5 Eu    8 A1g   8 A2u   9 A1g   9 A2u   6 Eu    6 Eu    6 Eg                 
  1.352   1.566   1.573   1.633   1.633   1.634   1.634   1.660
  6 Eg    1 A1u   1 A2g   7 Eu    7 Eu    7 Eg    7 Eg   10 A1g                
  1.798   1.798   1.834   1.931   1.932   2.170   2.225   2.234
  8 Eu    8 Eu   10 A2u   8 Eg    8 Eg   11 A2u  11 A1g   9 Eu                 
  2.234   2.424   2.424   2.474   2.581   2.582   2.599   2.690
  9 Eu    9 Eg    9 Eg   12 A1g  10 Eg   10 Eg   12 A2u  10 Eu                 
  2.690   2.715   2.715   2.766   2.766   2.894   2.932   3.291
 10 Eu   11 Eu   11 Eu   11 Eg   11 Eg   13 A2u  13 A1g  14 A1g                
  3.912   3.912   3.931   3.931   4.345  24.038  24.125
 12 Eg   12 Eg   12 Eu   12 Eu   14 A2u  15 A2u  15 A1g                        
 
 Beta MOs, Restricted
 -- Occupied --                  
-10.262 -10.262  -0.869  -0.726  -0.535  -0.535  -0.464  -0.436
  1 A1g   1 A2u   2 A1g   2 A2u   1 Eu    1 Eu    3 A1g   1 Eg                 
 -0.436
  1 Eg                                                                         
 -- Virtual --                   
  0.074   0.092   0.109   0.109   0.140   0.140   0.143   0.189
  4 A1g   3 A2u   2 Eu    2 Eu    2 Eg    2 Eg    5 A1g   4 A2u                
  0.236   0.236   0.253   0.253   0.289   0.319   0.336   0.482
  3 Eg    3 Eg    3 Eu    3 Eu    6 A1g   5 A2u   6 A2u   4 Eu                 
  0.482   0.534   0.534   0.535   0.691   0.694   0.694   0.720
  4 Eu    4 Eg    4 Eg    7 A1g   7 A2u   5 Eg    5 Eg    5 Eu                 
  0.720   0.744   0.822   0.935   0.991   1.053   1.053   1.352
  5 Eu    8 A1g   8 A2u   9 A1g   9 A2u   6 Eu    6 Eu    6 Eg                 
  1.352   1.566   1.573   1.633   1.633   1.634   1.634   1.660
  6 Eg    1 A1u   1 A2g   7 Eu    7 Eu    7 Eg    7 Eg   10 A1g                
  1.798   1.798   1.834   1.931   1.932   2.170   2.225   2.234
  8 Eu    8 Eu   10 A2u   8 Eg    8 Eg   11 A2u  11 A1g   9 Eu                 
  2.234   2.424   2.424   2.474   2.581   2.582   2.599   2.690
  9 Eu    9 Eg    9 Eg   12 A1g  10 Eg   10 Eg   12 A2u  10 Eu                 
  2.690   2.715   2.715   2.766   2.766   2.894   2.932   3.291
 10 Eu   11 Eu   11 Eu   11 Eg   11 Eg   13 A2u  13 A1g  14 A1g                
  3.912   3.912   3.931   3.931   4.345  24.038  24.125
 12 Eg   12 Eg   12 Eu   12 Eu   14 A2u  15 A2u  15 A1g                        
 --------------------------------------------------------------
 
          Ground-State Mulliken Net Atomic Charges

     Atom                 Charge (a.u.)
  ----------------------------------------
      1 C                    -0.421506
      2 C                    -0.421506
      3 H                     0.140392
      4 H                     0.140557
      5 H                     0.140557
      6 H                     0.140557
      7 H                     0.140557
      8 H                     0.140392
  ----------------------------------------
  Sum of atomic charges =     0.000000

 -----------------------------------------------------------------
                    Cartesian Multipole Moments
 -----------------------------------------------------------------
    Charge (ESU x 10^10)
                 0.0000
    Dipole Moment (Debye)
         X       0.0000      Y       0.0000      Z       0.0000
       Tot       0.0000
    Quadrupole Moments (Debye-Ang)
        XX     -14.8941     XY       0.0000     YY     -14.8940
        XZ       0.0016     YZ       0.0000     ZZ     -15.5158
    Octopole Moments (Debye-Ang^2)
       XXX       0.0000    XXY       0.0000    XYY       0.0000
       YYY       0.0000    XXZ       0.0000    XYZ       0.0000
       YYZ       0.0000    XZZ       0.0000    YZZ       0.0000
       ZZZ       0.0000
    Hexadecapole Moments (Debye-Ang^3)
      XXXX     -30.0172   XXXY       0.0000   XXYY     -10.0069
      XYYY       0.0000   YYYY     -30.0215   XXXZ       1.5462
      XXYZ       0.0000   XYYZ      -1.5437   YYYZ       0.0000
      XXZZ     -19.6903   XYZZ       0.0000   YYZZ     -19.6916
      XZZZ       0.0037   YZZZ       0.0000   ZZZZ     -95.5983
 -----------------------------------------------------------------
 Calculating MO derivatives via CPSCF
   1         3          24      0.185886    0.026218
   2         3          24      0.024333    0.003368
   3         3          24      0.002576    0.000380
   4         3          24      0.000243    0.000032
   5        24           3      0.000006    0.000002
   6        27           0      0.000000    0.000000    Roots Converged
 Calculating analytic Hessian of the SCF energy
 Polarizability Matrix (a.u.)
            1           2           3
    1 -25.1507454   0.0000000   0.0003221
    2   0.0000000 -25.1575471   0.0000000
    3   0.0003221   0.0000000 -27.3613459
 Running MAKENN_D3_FD2ND
 K construction time:  CPU 8.61 s  wall 8.11 s
 
 Direct stationary perturbation theory relativistic correction:
 
 rels  =       0.017717472282
 relv  =      -0.073812077326
 rel2e =       0.000000000000
 E_rel =      -0.056094605044
 
 Hessian of the SCF Energy
            1           2           3           4           5           6
    1   0.5730729  -0.0000004   0.0001096  -0.0800393   0.0000000   0.0000305
    2  -0.0000004   0.5767491   0.0000002  -0.0000000  -0.0798714   0.0000000
    3   0.0001096   0.0000002   0.4928588   0.0000304  -0.0000000  -0.2149080
    4  -0.0800393  -0.0000000   0.0000304   0.5730712   0.0000004   0.0001092
    5   0.0000000  -0.0798714  -0.0000000   0.0000004   0.5767491  -0.0000002
    6   0.0000305   0.0000000  -0.2149080   0.0001092  -0.0000002   0.4928609
    7  -0.2832829  -0.0000001  -0.0870320   0.0027348  -0.0000000   0.0015334
    8   0.0000000  -0.0512599   0.0000000  -0.0000002  -0.0005203   0.0000001
    9  -0.0859806  -0.0000000  -0.0825320  -0.0328560  -0.0000001  -0.0117684
   10  -0.1065351   0.1009575   0.0434414   0.0002953  -0.0013914  -0.0007599
   11   0.1010197  -0.2244426  -0.0756962  -0.0014070   0.0018986   0.0013163
   12   0.0428996  -0.0746747  -0.0800226   0.0164484  -0.0284305  -0.0118028
   13  -0.1065350  -0.1009570   0.0434414   0.0002953   0.0013914  -0.0007599
   14  -0.1010250  -0.2244523   0.0757004   0.0014068   0.0018987  -0.0013163
   15   0.0428997   0.0746743  -0.0800227   0.0164484   0.0284303  -0.0118027
   16   0.0002934   0.0013914  -0.0007614  -0.1065338  -0.1009558   0.0434406
   17   0.0014087   0.0018988  -0.0013178  -0.1010227  -0.2244477   0.0756980
   18   0.0164484   0.0284301  -0.0118026   0.0429005   0.0746758  -0.0800232
   19   0.0002934  -0.0013914  -0.0007614  -0.1065338   0.1009553   0.0434406
   20  -0.0014049   0.0018985   0.0013149   0.1010228  -0.2244472  -0.0756980
   21   0.0164484  -0.0284300  -0.0118026   0.0429004  -0.0746754  -0.0800232
   22   0.0027327   0.0000000   0.0015321  -0.2832897   0.0000001  -0.0870345
   23   0.0000019  -0.0005203  -0.0000014  -0.0000001  -0.0512599   0.0000001
   24  -0.0328555   0.0000001  -0.0117683  -0.0859813   0.0000000  -0.0825326
            7           8           9          10          11          12
    1  -0.2832829   0.0000000  -0.0859806  -0.1065351   0.1010197   0.0428996
    2  -0.0000001  -0.0512599  -0.0000000   0.1009575  -0.2244426  -0.0746747
    3  -0.0870320   0.0000000  -0.0825320   0.0434414  -0.0756962  -0.0800226
    4   0.0027348  -0.0000002  -0.0328560   0.0002953  -0.0014070   0.0164484
    5  -0.0000000  -0.0005203  -0.0000001  -0.0013914   0.0018986  -0.0284305
    6   0.0015334   0.0000001  -0.0117684  -0.0007599   0.0013163  -0.0118028
    7   0.3047803   0.0000001   0.0954533  -0.0134235  -0.0010788  -0.0047132
    8   0.0000001   0.0495734   0.0000001   0.0255011   0.0006859   0.0103193
    9   0.0954533   0.0000001   0.0919072   0.0112558   0.0010903   0.0035199
   10  -0.0134235   0.0255011   0.0112558   0.1106462  -0.1110220  -0.0476014
   11  -0.0010788   0.0006859   0.0010903  -0.1110220   0.2400272   0.0828871
   12  -0.0047132   0.0103193   0.0035199  -0.0476014   0.0828871   0.0893583
   13  -0.0134235  -0.0255011   0.0112558   0.0077408   0.0132546  -0.0065601
   14   0.0010788   0.0006858  -0.0010903  -0.0132546  -0.0203239   0.0091321
   15  -0.0047132  -0.0103193   0.0035199  -0.0065601  -0.0091320   0.0035383
   16   0.0004861   0.0005645   0.0001288  -0.0002545  -0.0001157   0.0004075
   17   0.0003125  -0.0000103   0.0005693   0.0001153   0.0007268   0.0004215
   18  -0.0005709   0.0001798   0.0012600   0.0004070  -0.0004202   0.0013186
   19   0.0004861  -0.0005643   0.0001288   0.0010482  -0.0003389  -0.0003096
   20  -0.0003125  -0.0000106  -0.0005693  -0.0003406   0.0014365   0.0005241
   21  -0.0005709  -0.0001799   0.0012600  -0.0003101   0.0005236  -0.0071697
   22   0.0016427  -0.0000000   0.0006143   0.0004825  -0.0003119  -0.0005712
   23   0.0000000   0.0008560   0.0000000  -0.0005653  -0.0000085  -0.0001790
   24   0.0006137  -0.0000000  -0.0071666   0.0001274  -0.0005688   0.0012600
           13          14          15          16          17          18
    1  -0.1065350  -0.1010250   0.0428997   0.0002934   0.0014087   0.0164484
    2  -0.1009570  -0.2244523   0.0746743   0.0013914   0.0018988   0.0284301
    3   0.0434414   0.0757004  -0.0800227  -0.0007614  -0.0013178  -0.0118026
    4   0.0002953   0.0014068   0.0164484  -0.1065338  -0.1010227   0.0429005
    5   0.0013914   0.0018987   0.0284303  -0.1009558  -0.2244477   0.0746758
    6  -0.0007599  -0.0013163  -0.0118027   0.0434406   0.0756980  -0.0800232
    7  -0.0134235   0.0010788  -0.0047132   0.0004861   0.0003125  -0.0005709
    8  -0.0255011   0.0006858  -0.0103193   0.0005645  -0.0000103   0.0001798
    9   0.0112558  -0.0010903   0.0035199   0.0001288   0.0005693   0.0012600
   10   0.0077408  -0.0132546  -0.0065601  -0.0002545   0.0001153   0.0004070
   11   0.0132546  -0.0203239  -0.0091320  -0.0001157   0.0007268  -0.0004202
   12  -0.0065601   0.0091321   0.0035383   0.0004075   0.0004215   0.0013186
   13   0.1106462   0.1110272  -0.0476014   0.0010482   0.0003386  -0.0003101
   14   0.1110272   0.2400484  -0.0828916   0.0003391   0.0014330  -0.0005238
   15  -0.0476014  -0.0828916   0.0893583  -0.0003096  -0.0005226  -0.0071697
   16   0.0010482   0.0003391  -0.0003096   0.1106435   0.1110231  -0.0476014
   17   0.0003386   0.0014330  -0.0005226   0.1110231   0.2400374  -0.0828902
   18  -0.0003101  -0.0005238  -0.0071697  -0.0476014  -0.0828902   0.0893587
   19  -0.0002545   0.0001157   0.0004075   0.0077408  -0.0132545  -0.0065602
   20  -0.0001173   0.0007227  -0.0004198   0.0132546  -0.0203239  -0.0091321
   21   0.0004070   0.0004204   0.0013186  -0.0065601   0.0091321   0.0035384
   22   0.0004825   0.0003120  -0.0005712  -0.0134238   0.0010788  -0.0047132
   23   0.0005636  -0.0000124   0.0001807  -0.0255010   0.0006860  -0.0103194
   24   0.0001274   0.0005691   0.0012600   0.0112557  -0.0010903   0.0035199
           19          20          21          22          23          24
    1   0.0002934  -0.0014049   0.0164484   0.0027327   0.0000019  -0.0328555
    2  -0.0013914   0.0018985  -0.0284300   0.0000000  -0.0005203   0.0000001
    3  -0.0007614   0.0013149  -0.0118026   0.0015321  -0.0000014  -0.0117683
    4  -0.1065338   0.1010228   0.0429004  -0.2832897  -0.0000001  -0.0859813
    5   0.1009553  -0.2244472  -0.0746754   0.0000001  -0.0512599   0.0000000
    6   0.0434406  -0.0756980  -0.0800232  -0.0870345   0.0000001  -0.0825326
    7   0.0004861  -0.0003125  -0.0005709   0.0016427   0.0000000   0.0006137
    8  -0.0005643  -0.0000106  -0.0001799  -0.0000000   0.0008560  -0.0000000
    9   0.0001288  -0.0005693   0.0012600   0.0006143   0.0000000  -0.0071666
   10   0.0010482  -0.0003406  -0.0003101   0.0004825  -0.0005653   0.0001274
   11  -0.0003389   0.0014365   0.0005236  -0.0003119  -0.0000085  -0.0005688
   12  -0.0003096   0.0005241  -0.0071697  -0.0005712  -0.0001790   0.0012600
   13  -0.0002545  -0.0001173   0.0004070   0.0004825   0.0005636   0.0001274
   14   0.0001157   0.0007227   0.0004204   0.0003120  -0.0000124   0.0005691
   15   0.0004075  -0.0004198   0.0013186  -0.0005712   0.0001807   0.0012600
   16   0.0077408   0.0132546  -0.0065601  -0.0134238  -0.0255010   0.0112557
   17  -0.0132545  -0.0203239   0.0091321   0.0010788   0.0006860  -0.0010903
   18  -0.0065602  -0.0091321   0.0035384  -0.0047132  -0.0103194   0.0035199
   19   0.1106436  -0.1110233  -0.0476014  -0.0134237   0.0255012   0.0112557
   20  -0.1110233   0.2400382   0.0828899  -0.0010788   0.0006857   0.0010903
   21  -0.0476014   0.0828899   0.0893586  -0.0047132   0.0103193   0.0035199
   22  -0.0134237  -0.0010788  -0.0047132   0.3047968  -0.0000002   0.0954570
   23   0.0255012   0.0006857   0.0103193  -0.0000002   0.0495734  -0.0000004
   24   0.0112557   0.0010903   0.0035199   0.0954570  -0.0000004   0.0919076
 Gradient time:  CPU 134.90 s  wall 125.88 s
 **********************************************************************
 **                                                                  **
 **                       VIBRATIONAL ANALYSIS                       **
 **                       --------------------                       **
 **                                                                  **
 **        VIBRATIONAL FREQUENCIES (CM**-1) AND NORMAL MODES         **
 **     FORCE CONSTANTS (mDYN/ANGSTROM) AND REDUCED MASSES (AMU)     **
 **                  INFRARED INTENSITIES (KM/MOL)                   **
 **                                                                  **
 **********************************************************************
 

 Mode:                 1                      2                      3
 Frequency:       352.37                 847.01                 861.68
 Force Cnst:      0.0737                 0.4469                 0.4639
 Red. Mass:       1.0079                 1.0573                 1.0604
 IR Active:          YES                    YES                    YES
 IR Intens:        0.012                  4.323                  4.569
 Raman Active:       NO                     NO                     NO 
               X      Y      Z        X      Y      Z        X      Y      Z
 C          0.000  0.002  0.000    0.000  0.047  0.000    0.049  0.000  0.002
 C          0.000  0.002  0.000    0.000  0.047  0.000    0.049  0.000  0.002
 H          0.000  0.396  0.000    0.000 -0.230  0.000   -0.151  0.000  0.495
 H         -0.358 -0.208  0.008   -0.019 -0.168  0.440   -0.215 -0.031 -0.260
 H          0.358 -0.208 -0.008    0.019 -0.168 -0.440   -0.215  0.031 -0.260
 H          0.358 -0.208 -0.008    0.019 -0.168 -0.440   -0.215  0.031 -0.260
 H         -0.358 -0.208  0.008   -0.019 -0.168  0.440   -0.215 -0.031 -0.260
 H          0.000  0.396  0.000    0.000 -0.230  0.000   -0.151  0.000  0.495
 TransDip   0.000 -0.004  0.000    0.000 -0.067  0.000   -0.068  0.000 -0.001

 Mode:                 4                      5                      6
 Frequency:      1023.23                1232.66                1235.04
 Force Cnst:      1.9151                 1.3121                 1.3289
 Red. Mass:       3.1045                 1.4656                 1.4787
 IR Active:          NO                     NO                     NO 
 IR Intens:        0.000                  0.000                  0.000
 Raman Active:       YES                    YES                    YES
               X      Y      Z        X      Y      Z        X      Y      Z
 C         -0.001  0.000  0.309    0.000  0.144  0.000    0.146  0.000  0.005
 C          0.001  0.000 -0.309    0.000 -0.144  0.000   -0.146  0.000 -0.005
 H         -0.015  0.000  0.364    0.000 -0.254  0.000   -0.045  0.000  0.469
 H          0.008 -0.014  0.369   -0.085 -0.107  0.434   -0.231 -0.094 -0.257
 H          0.008  0.014  0.369    0.085 -0.107 -0.434   -0.231  0.094 -0.257
 H         -0.008 -0.014 -0.369   -0.085  0.107  0.434    0.231 -0.094  0.257
 H         -0.008  0.014 -0.369    0.085  0.107 -0.434    0.231  0.094  0.257
 H          0.015  0.000 -0.364    0.000  0.254  0.000    0.045  0.000 -0.469
 TransDip   0.000  0.000  0.000    0.000  0.000  0.000    0.000  0.000  0.000

 Mode:                 7                      8                      9
 Frequency:      1425.48                1455.31                1513.67
 Force Cnst:      1.4338                 1.5906                 1.4308
 Red. Mass:       1.1976                 1.2747                 1.0599
 IR Active:          YES                    NO                     YES
 IR Intens:        3.306                  0.000                 12.739
 Raman Active:       NO                     YES                    NO 
               X      Y      Z        X      Y      Z        X      Y      Z
 C          0.004  0.000 -0.093    0.008  0.000 -0.110   -0.048  0.000 -0.005
 C          0.004  0.000 -0.093   -0.008  0.000  0.110   -0.048  0.000 -0.005
 H         -0.161  0.000  0.366   -0.161  0.000  0.337   -0.135  0.000  0.256
 H          0.055 -0.161  0.370    0.036 -0.188  0.370    0.356  0.266 -0.097
 H          0.055  0.161  0.370    0.036  0.188  0.370    0.356 -0.266 -0.097
 H          0.055  0.161  0.370   -0.036 -0.188 -0.370    0.356 -0.266 -0.097
 H          0.055 -0.161  0.370   -0.036  0.188 -0.370    0.356  0.266 -0.097
 H         -0.161  0.000  0.366    0.161  0.000 -0.337   -0.136  0.000  0.256
 TransDip  -0.009  0.000  0.058    0.000  0.000  0.000    0.114  0.000  0.003

 Mode:                10                     11                     12
 Frequency:      1518.02                1526.18                1526.56
 Force Cnst:      1.3797                 1.4573                 1.3996
 Red. Mass:       1.0162                 1.0619                 1.0194
 IR Active:          NO                     YES                    YES
 IR Intens:        0.000                 13.006                  0.000
 Raman Active:       YES                    YES                    YES
               X      Y      Z        X      Y      Z        X      Y      Z
 C         -0.016  0.000 -0.011    0.000 -0.050  0.000    0.000 -0.023  0.000
 C          0.016  0.000  0.011    0.000 -0.050  0.000    0.000  0.023  0.000
 H         -0.138  0.000  0.344    0.000  0.521  0.000    0.000  0.489  0.000
 H          0.333  0.239 -0.115    0.271  0.034  0.192    0.263  0.033  0.248
 H          0.333 -0.239 -0.116   -0.271  0.034 -0.192   -0.263  0.034 -0.248
 H         -0.333  0.239  0.115   -0.273  0.034 -0.194    0.261 -0.033  0.246
 H         -0.333 -0.239  0.115    0.273  0.034  0.194   -0.261 -0.033 -0.246
 H          0.138  0.000 -0.344    0.000  0.525  0.000    0.000 -0.485  0.000
 TransDip   0.000  0.000  0.000    0.000  0.116  0.000    0.000  0.000  0.000

 Mode:                13                     14                     15
 Frequency:      3049.78                3053.32                3111.61
 Force Cnst:      5.6683                 5.7030                 6.2897
 Red. Mass:       1.0343                 1.0383                 1.1026
 IR Active:          YES                    YES                    NO 
 IR Intens:       61.240                  0.000                  0.000
 Raman Active:       YES                    YES                    YES
               X      Y      Z        X      Y      Z        X      Y      Z
 C          0.002  0.000 -0.035   -0.002  0.000  0.037    0.000  0.066  0.000
 C          0.002  0.000 -0.035    0.003  0.000 -0.037    0.000 -0.066  0.000
 H          0.370  0.000  0.133   -0.360  0.000 -0.133    0.004  0.015  0.001
 H         -0.195  0.340  0.141    0.195 -0.340 -0.144    0.239 -0.400 -0.178
 H         -0.195 -0.340  0.141    0.195  0.340 -0.144   -0.238 -0.398  0.177
 H         -0.194 -0.339  0.140   -0.196 -0.342  0.145    0.238  0.398 -0.177
 H         -0.194  0.338  0.140   -0.196  0.342  0.145   -0.239  0.400  0.178
 H          0.368  0.000  0.132    0.362  0.000  0.133   -0.003 -0.015 -0.001
 TransDip   0.007  0.000 -0.251    0.000  0.000 -0.001    0.000  0.000  0.000

 Mode:                16                     17                     18
 Frequency:      3114.20                3134.14                3136.80
 Force Cnst:      6.2935                 6.3853                 6.3919
 Red. Mass:       1.1014                 1.1033                 1.1026
 IR Active:          NO                     YES                    YES
 IR Intens:        0.000                 66.937                 68.106
 Raman Active:       YES                    NO                     YES
               X      Y      Z        X      Y      Z        X      Y      Z
 C         -0.065  0.000 -0.002    0.000 -0.066  0.000   -0.066  0.000 -0.001
 C          0.065  0.000  0.002    0.000 -0.066  0.000   -0.066  0.000 -0.001
 H          0.552  0.000  0.212   -0.002 -0.013 -0.001    0.546  0.000  0.213
 H          0.113 -0.224 -0.096   -0.237  0.399  0.181    0.117 -0.227 -0.099
 H          0.116  0.228 -0.098    0.237  0.398 -0.180    0.118  0.229 -0.101
 H         -0.115 -0.227  0.098    0.237  0.398 -0.180    0.118  0.229 -0.101
 H         -0.112  0.223  0.095   -0.237  0.400  0.181    0.117 -0.227 -0.100
 H         -0.552  0.000 -0.211   -0.002 -0.013 -0.001    0.547  0.000  0.213
 TransDip   0.000  0.000  0.000    0.001 -0.262  0.000   -0.264 -0.001 -0.008

 STANDARD THERMODYNAMIC QUANTITIES AT   298.15 K  AND     1.00 ATM

   This Molecule has  0 Imaginary Frequencies
   Zero point vibrational energy:       47.343 kcal/mol

   Atom    1 Element C  Has Mass   12.00000
   Atom    2 Element C  Has Mass   12.00000
   Atom    3 Element H  Has Mass    1.00783
   Atom    4 Element H  Has Mass    1.00783
   Atom    5 Element H  Has Mass    1.00783
   Atom    6 Element H  Has Mass    1.00783
   Atom    7 Element H  Has Mass    1.00783
   Atom    8 Element H  Has Mass    1.00783
   Molecular Mass:    30.046980 amu
   Principal axes and moments of inertia in amu*Bohr^2:
                             1           2           3
    Eigenvalues --       22.38706    90.19702    90.19702
          X               0.00000     1.00000     0.00000
          Y               0.00000     0.00000     1.00000
          Z               1.00000     0.00000     0.00000
   Rotational Symmetry Number is   6
   The Molecule is a Symmetric Top
   Translational Enthalpy:        0.889 kcal/mol
   Rotational Enthalpy:           0.889 kcal/mol
   Vibrational Enthalpy:         47.707 kcal/mol
   gas constant (RT):             0.592 kcal/mol
   Translational Entropy:        36.134  cal/mol.K
   Rotational Entropy:           16.277  cal/mol.K
   Vibrational Entropy:           1.721  cal/mol.K

   Total Enthalpy:               50.077 kcal/mol
   Total Entropy:                54.132  cal/mol.K
Archival summary:
1\1\node18\FREQ\ProcedureUnspecified\6-311+G**\26\alongd\FriJan416:43:002019FriJan416:43:002019\0\\#,FREQ,ProcedureUnspecified,6-311+G**,\\0,1\C\H,1,1.09352\H,1,1.09352,2,107.486\H,1,1.09352,2,107.486,3,-115.439,0\C,1,1.52556,2,111.39,3,122.281,0\H,5,1.09352,1,111.39,2,-180,0\H,5,1.09352,1,111.39,2,-60,0\H,5,1.09352,1,111.39,2,60,0\\\@

 Total job time:  128.55s(wall), 148.08s(cpu) 
 Fri Jan  4 16:43:00 2019

        *************************************************************
        *                                                           *
        *  Thank you very much for using Q-Chem.  Have a nice day.  *
        *                                                           *
        *************************************************************


0 sent ACK to 0 
now end server 0 ... 
cleanup process ... done
