
 Primary working directories    : /scratch/alongd/a11754-4280
 Secondary working directories  : /scratch/alongd/a11754-4280
 Wavefunction directory         : /home/alongd/wfu/
 Main file repository           : /scratch/alongd/a11754-4280/

 SHA1      : 5e3d8ac6839c721e2824de82269b4736200146bd
 NAME      : 2015.1.37
 ARCHNAME  : linux/x86_64
 FC        : /opt/intel/composer_xe_2015.1.133/bin/intel64/ifort
 BLASLIB   : -Wl,-_start-group /opt/intel/mkl/lib/intel64/libmkl_intel_ilp64.a /opt/intel/mkl/lib/intel64/libmkl_intel_thread.a /opt/intel/mkl/lib/intel64/libmkl_core.a -Wl,-_end-group
 id        : phalgunlolur

 Nodes     nprocs
 node02       8

 Using customized tuning parameters: mindgm=1; mindgv=20; mindgc=4; mindgr=1; noblas=0; minvec=7
 default implementation of scratch files=sf  

 ***,name
 memory,1500.0,m;
 geometry={angstrom;
 O       1.07073736   -0.07932420    0.03659869
 C       2.28230942   -0.07932420    0.03659869
 H       2.86215508   -0.17192070   -0.89717298
 H       2.86215508    0.01327230    0.97037035
 }
 
 basis=aug-cc-pvtz
 
 int;
 
 {hf;
 maxit,1000;
 wf,spin=0,charge=0;}
 
 ccsd(t);
 
 {frequencies;
 thermo;
 print,HESSIAN,thermo;}
 

 Variables initialized (889), CPU time= 0.02 sec
 Commands  initialized (702), CPU time= 0.02 sec, 572 directives.
 Default parameters read. Elapsed time= 0.15 sec

 Checking input...
 Passed
1


                                         ***  PROGRAM SYSTEM MOLPRO  ***
                                       Copyright, TTI GmbH Stuttgart, 2015
                                    Version 2015.1 linked Aug 10 2018 15:00:15


 **********************************************************************************************************************************
 LABEL *   name                                                                          
  64 bit mpp version                                                                     DATE: 01-May-19          TIME: 14:20:37  
 **********************************************************************************************************************************

 SHA1:             5e3d8ac6839c721e2824de82269b4736200146bd
 **********************************************************************************************************************************

Geometry recognized as XYZ


 Variable memory set to 1500000000 words,  buffer space   230000 words

 SETTING BASIS          =    AUG-CC-PVTZ


 Using spherical harmonics

 Library entry O      S aug-cc-pVTZ          selected for orbital group  1
 Library entry O      P aug-cc-pVTZ          selected for orbital group  1
 Library entry O      D aug-cc-pVTZ          selected for orbital group  1
 Library entry O      F aug-cc-pVTZ          selected for orbital group  1
 Library entry C      S aug-cc-pVTZ          selected for orbital group  2
 Library entry C      P aug-cc-pVTZ          selected for orbital group  2
 Library entry C      D aug-cc-pVTZ          selected for orbital group  2
 Library entry C      F aug-cc-pVTZ          selected for orbital group  2
 Library entry H      S aug-cc-pVTZ          selected for orbital group  3
 Library entry H      P aug-cc-pVTZ          selected for orbital group  3
 Library entry H      D aug-cc-pVTZ          selected for orbital group  3


 PROGRAM * SEWARD (Integral evaluation for generally contracted gaussian basis sets)     Author: Roland Lindh, 1990

 Geometry written to block  1 of record 700


 Point group  C1  



 ATOMIC COORDINATES

 NR  ATOM    CHARGE       X              Y              Z

   1  O       8.00    2.023400362   -0.149901013    0.069161501
   2  C       6.00    4.312939735   -0.149901013    0.069161501
   3  H       1.00    5.408689227   -0.324883038   -1.695411219
   4  H       1.00    5.408689227    0.025081012    1.833734201

 Bond lengths in Bohr (Angstrom)

 1-2  2.289539374  2-3  2.084466968  2-4  2.084466952
     ( 1.211572060)     ( 1.103052416)     ( 1.103052408)

 Bond angles

  1-2-3  121.71360841   1-2-4  121.71360868   3-2-4  116.57278292

 NUCLEAR CHARGE:                   16
 NUMBER OF PRIMITIVE AOS:         188
 NUMBER OF SYMMETRY AOS:          166
 NUMBER OF CONTRACTIONS:          138   ( 138A   )
 NUMBER OF CORE ORBITALS:           2   (   2A   )
 NUMBER OF VALENCE ORBITALS:       10   (  10A   )


 NUCLEAR REPULSION ENERGY   31.19049878


 Eigenvalues of metric

         1 0.835E-04 0.121E-03 0.382E-03 0.671E-03 0.104E-02 0.120E-02 0.216E-02 0.243E-02


 Contracted 2-electron integrals neglected if value below      1.0D-11
 AO integral compression algorithm  1   Integral accuracy      1.0D-11

     206.045 MB (compressed) written to integral file ( 45.1%)

     Node minimum: 15.991 MB, node maximum: 40.894 MB


 NUMBER OF SORTED TWO-ELECTRON INTEGRALS:    5745608.     BUFFER LENGTH:  32768
 NUMBER OF SEGMENTS:   1  SEGMENT LENGTH:    5745608      RECORD LENGTH: 524288

 Memory used in sort:       6.30 MW

 SORT1 READ    56916136. AND WROTE     4821190. INTEGRALS IN     14 RECORDS. CPU TIME:     1.62 SEC, REAL TIME:     1.73 SEC
 SORT2 READ    38587915. AND WROTE    45998436. INTEGRALS IN    664 RECORDS. CPU TIME:     0.23 SEC, REAL TIME:     0.33 SEC

 Node minimum:     5745608.  Node maximum:     5754001. integrals

 OPERATOR DM      FOR CENTER  0  COORDINATES:    0.000000    0.000000    0.000000


 **********************************************************************************************************************************
 DATASETS  * FILE   NREC   LENGTH (MB)   RECORD NAMES
              1      18       20.64       500      610      700      900      950      970     1000      129      960     1100   
                                          VAR    BASINP    GEOM    SYMINP    ZMAT    AOBASIS   BASIS     P2S    ABASIS      S 
                                         1400     1410     1200     1210     1080     1600     1650     1700   
                                           T        V       H0       H01     AOSYM     SMH    MOLCAS    OPER   

 PROGRAMS   *        TOTAL       INT
 CPU TIMES  *         4.31      4.05
 REAL TIME  *        21.54 SEC
 DISK USED  *       673.10 MB      
 GA USED    *         0.00 MB       (max)       0.00 MB       (current)
 **********************************************************************************************************************************


 PROGRAM * RHF-SCF (CLOSED SHELL)       Authors: W. Meyer, H.-J. Werner


 NUMBER OF ELECTRONS:       8+    8-    SPACE SYMMETRY=1    SPIN SYMMETRY: Singlet 
 CONVERGENCE THRESHOLDS:    1.00E-06 (Density)    1.00E-07 (Energy)
 MAX. NUMBER OF ITERATIONS:     1000
 INTERPOLATION TYPE:            DIIS
 INTERPOLATION STEPS:              2 (START)      1 (STEP)
 LEVEL SHIFTS:                  0.00 (CLOSED)  0.00 (OPEN) 



 Orbital guess generated from atomic densities. Full valence occupancy:   12

 Molecular orbital dump at record        2100.2

 Initial occupancy:   8

 ITERATION    DDIFF          GRAD             ENERGY        2-EL.EN.            DIPOLE MOMENTS         DIIS   ORB.
    1      0.000D+00      0.000D+00      -113.86007177    144.988971    1.70684    0.00000    0.00000    0    start
    2      0.000D+00      0.758D-02      -113.88362571    142.895241    0.73555    0.00000    0.00000    1    diag
    3      0.870D-02      0.643D-02      -113.91268381    144.244358    1.15311    0.00000    0.00000    2    diag
    4      0.384D-02      0.518D-03      -113.91313235    144.070540    1.14182    0.00000    0.00000    3    diag
    5      0.624D-03      0.178D-03      -113.91319198    144.125172    1.14013    0.00000    0.00000    4    diag
    6      0.210D-03      0.609D-04      -113.91320508    144.114984    1.13691    0.00000    0.00000    5    diag
    7      0.981D-04      0.282D-04      -113.91320729    144.117080    1.13530    0.00000    0.00000    6    diag
    8      0.502D-04      0.553D-05      -113.91320737    144.116962    1.13480    0.00000    0.00000    7    diag
    9      0.111D-04      0.669D-06      -113.91320737    144.116919    1.13472    0.00000    0.00000    8    diag
   10      0.110D-05      0.142D-06      -113.91320737    144.116921    1.13472    0.00000    0.00000    9    orth
   11      0.248D-06      0.253D-07      -113.91320737    144.116921    1.13472    0.00000    0.00000    0    orth

 Final occupancy:   8

 !RHF STATE 1.1 Energy               -113.913207371751
 Nuclear energy                        31.19049878
 One-electron energy                 -217.16216680
 Two-electron energy                   72.05846065
 Virial quotient                       -1.00207672
 !RHF STATE 1.1 Dipole moment           1.13471832     0.00000000     0.00000000
 Dipole moment /Debye                   2.88397739     0.00000000     0.00000001

 Orbital energies:

         1.1          2.1          3.1          4.1          5.1          6.1          7.1          8.1          9.1         10.1
    -20.579335   -11.343919    -1.403234    -0.871772    -0.693989    -0.650951    -0.534975    -0.444447     0.026169     0.041618

 HOMO      8.1    -0.444447 =     -12.0940eV
 LUMO      9.1     0.026169 =       0.7121eV
 LUMO-HOMO         0.470616 =      12.8061eV


 **********************************************************************************************************************************
 DATASETS  * FILE   NREC   LENGTH (MB)   RECORD NAMES
              1      18       20.64       500      610      700      900      950      970     1000      129      960     1100   
                                          VAR    BASINP    GEOM    SYMINP    ZMAT    AOBASIS   BASIS     P2S    ABASIS      S 
                                         1400     1410     1200     1210     1080     1600     1650     1700   
                                           T        V       H0       H01     AOSYM     SMH    MOLCAS    OPER   

              2       4        3.20       700     1000      520     2100   
                                         GEOM     BASIS   MCVARS     RHF  

 PROGRAMS   *        TOTAL        HF       INT
 CPU TIMES  *         6.39      2.06      4.05
 REAL TIME  *        30.10 SEC
 DISK USED  *       875.32 MB      
 SF USED    *         0.08 MB      
 GA USED    *         0.00 MB       (max)       0.00 MB       (current)
 **********************************************************************************************************************************


 PROGRAM * CCSD (Closed-shell coupled cluster)     Authors: C. Hampel, H.-J. Werner, 1991, M. Deegan, P.J. Knowles, 1992


 Convergence thresholds:  THRVAR = 1.00D-12  THRDEN = 1.00D-08

 CCSD(T)     terms to be evaluated (factor= 1.000)


 Number of core orbitals:           2 (   2 )
 Number of closed-shell orbitals:   6 (   6 )
 Number of external orbitals:     130 ( 130 )

 Molecular orbitals read from record     2100.2  Type=RHF/CANONICAL (state 1.1)

 Number of N-1 electron functions:               6
 Number of N-2 electron functions:              21
 Number of singly external CSFs:               780
 Number of doubly external CSFs:            304590
 Total number of CSFs:                      305371

 Length of J-op  integral file:               0.00 MB
 Length of K-op  integral file:               1.32 MB
 Length of 3-ext integral record:             0.00 MB

 Memory could be reduced to 19.95 Mwords without degradation in triples

 Integral transformation finished. Total CPU:   3.62 sec, npass=  1  Memory used:  10.35 MW

 Reference energy:                   -113.91320737

 MP2 singlet pair energy:              -0.25880721
 MP2 triplet pair energy:              -0.14438453
 MP2 correlation energy:               -0.40319174
 MP2 total energy:                   -114.31639911

 SCS-MP2 correlation energy:           -0.40040791   (PS=  1.200000  PT=  0.333333)
 SCS-MP2 total energy:               -114.31361528

 ITER.      SQ.NORM     CORR.ENERGY   TOTAL ENERGY   ENERGY CHANGE        DEN1      VAR(S)    VAR(P)  DIIS     TIME  TIME/IT
   1      1.11354024    -0.41167418  -114.32488155    -0.00848244     0.00488996  0.31D-02  0.25D-02  1  1     4.43     0.83
   2      1.12332906    -0.41198484  -114.32519221    -0.00031066    -0.01059315  0.59D-04  0.42D-03  2  2     5.34     0.89
   3      1.12836915    -0.41226481  -114.32547218    -0.00027997    -0.00236452  0.63D-04  0.30D-04  3  3     6.23     0.91
   4      1.13037862    -0.41218383  -114.32539120     0.00008098    -0.00071242  0.54D-05  0.52D-05  4  4     7.09     0.91
   5      1.13121021    -0.41218811  -114.32539548    -0.00000428    -0.00017520  0.98D-06  0.50D-06  5  5     7.98     0.92
   6      1.13142391    -0.41217293  -114.32538030     0.00001518    -0.00002354  0.12D-06  0.48D-07  6  6     8.88     0.93
   7      1.13146065    -0.41217078  -114.32537815     0.00000215    -0.00000280  0.18D-07  0.10D-07  6  2     9.96     0.96
   8      1.13146377    -0.41217125  -114.32537863    -0.00000048     0.00000183  0.30D-08  0.13D-08  6  1    10.98     0.97
   9      1.13146655    -0.41217079  -114.32537816     0.00000046     0.00000032  0.21D-09  0.12D-09  6  3    11.92     0.98
  10      1.13146610    -0.41217090  -114.32537827    -0.00000011     0.00000020  0.22D-10  0.16D-10  6  5    12.82     0.97
  11      1.13146621    -0.41217090  -114.32537827     0.00000000     0.00000010  0.30D-11  0.18D-11  6  4    13.84     0.99
  12      1.13146613    -0.41217090  -114.32537827    -0.00000000     0.00000002  0.70D-12  0.22D-12  6  6    15.00     1.01

 Norm of t1 vector:      0.07758484      S-energy:     0.00000003      T1 diagnostic:  0.01583694
                                                                       D1 diagnostic:  0.04537568

 Doubles amplitudes (print threshold =  0.500E-01):

         I         J         SYM. A    SYM. B    A         B      T(IJ, AB)

         5         5         1         1         5         5     -0.06408490


 Total CPU time for triples:      6.40 sec


 RESULTS
 =======

  Reference energy                   -113.913207371751
  CCSD singlet pair energy             -0.285881860289
  CCSD triplet pair energy             -0.126289063194
  CCSD correlation energy              -0.412170897625

  Triples (T) contribution             -0.017555368255
  Total correlation energy             -0.429726265880

  CCSD total energy                  -114.325378269376
  CCSD[T] energy                     -114.344037705203
  CCSD-T energy                      -114.342480653017
 !CCSD(T) total energy               -114.342933637631

 Timing summary (sec):

 STEP                 CPU(USER)    SYS     CPU(TOT)    WALL
 Transformation          3.64      0.31      3.95      3.95
 CCSD iterations        11.37      0.75     12.12     12.14
 Triples                 6.40      0.13      6.53      6.53

 Program statistics:

 Available memory in ccsd:              1499999756
 Min. memory needed in ccsd:               1071949
 Max. memory used in ccsd:                 1315267
 Max. memory used in cckext:                957855 (12 integral passes)



 **********************************************************************************************************************************
 DATASETS  * FILE   NREC   LENGTH (MB)   RECORD NAMES
              1      19       78.92       500      610      700      900      950      970     1000      129      960     1100   
                                          VAR    BASINP    GEOM    SYMINP    ZMAT    AOBASIS   BASIS     P2S    ABASIS      S 
                                         1400     1410     1200     1210     1080     1600     1650     1700     1380   
                                           T        V       H0       H01     AOSYM     SMH    MOLCAS    OPER     JKOP   

              2       4        3.20       700     1000      520     2100   
                                         GEOM     BASIS   MCVARS     RHF  

 PROGRAMS   *        TOTAL   CCSD(T)        HF       INT
 CPU TIMES  *        27.87     21.44      2.06      4.05
 REAL TIME  *        52.94 SEC
 DISK USED  *       966.62 MB      
 SF USED    *        87.27 MB      
 GA USED    *         0.00 MB       (max)       0.00 MB       (current)
 **********************************************************************************************************************************


 PROGRAM * HESSIAN

 *** Long output written to logfile /scratch/alongd/a11754-4280/input.log ***


 Computing numerical hessian using default procedure for command CCSD(T)

 Using no symmetry in wavefunction calculations

 Running default procedure: HF-SCF000  CCSD(T)
 

 Numerically approximating hessian using central energy differences

 Task list generated. Total number of displacements:    156

   15 tasks completed, CPU=12m 12s Elapsed=15m 30s
   30 tasks completed, CPU=19m 5s Elapsed=24m 12s
   45 tasks completed, CPU=26m 8s Elapsed=33m 34s
   60 tasks completed, CPU=33m 3s Elapsed=42m 36s
   75 tasks completed, CPU=40m 5s Elapsed=51m 38s
   90 tasks completed, CPU=47m 10s Elapsed=1h 1m 9s
  105 tasks completed, CPU=53m 54s Elapsed=1h 9m 48s
  120 tasks completed, CPU=1h 0m 53s Elapsed=1h 18m 57s
  135 tasks completed, CPU=1h 7m 56s Elapsed=1h 28m 1s
  150 tasks completed, CPU=1h 14m 48s Elapsed=1h 36m 57s

 Numerical CCSD(T) hessian completed. CPU-time:  4654.92 sec, Elapsed:  6036.99 sec

 CCSD(T) hessian saved to record  5300.2

 PROGRAM * FREQUENCIES (Calculation of harmonuc vibrational spectra for CCSD(T))


 Permanent Dipole Moment [debye]
   1-  3    0.000000    0.000000    0.000000

 Dipole Moment Norm    0.0000000 [debye]

 Dipole Moment Derivatives [debye/ang]
                   1             2             3             4             5             6             7             8
         1     0.0000000     0.0000000     0.0000000     0.0000000     0.0000000     0.0000000     0.0000000     0.0000000
         2     0.0000000     0.0000000     0.0000000     0.0000000     0.0000000     0.0000000     0.0000000     0.0000000
         3     0.0000000     0.0000000     0.0000000     0.0000000     0.0000000     0.0000000     0.0000000     0.0000000
                   9            10            11            12
         1     0.0000000     0.0000000     0.0000000     0.0000000
         2     0.0000000     0.0000000     0.0000000     0.0000000
         3     0.0000000     0.0000000     0.0000000     0.0000000

 Projecting out rotations and translations

 Force Constants (Second Derivatives of the Energy) in [a.u.]
                             OX1         OY1         OZ1         CX2         CY2     
           OX1           0.8254212
           OY1          -0.0000028   0.0179854
           OZ1          -0.0000084   0.0052814   0.0706945
           CX2          -0.7440763  -0.0000013   0.0000007   0.9418041
           CY2           0.0000098  -0.0544262  -0.0048330   0.0000039   0.1708119
           CZ2           0.0000391  -0.0048290  -0.1026016  -0.0000044   0.0417938
           HX3          -0.0406684   0.0035689   0.0359603  -0.0988646   0.0083335
           HY3           0.0014199   0.0182205  -0.0002233   0.0081636  -0.0581929
           HZ3           0.0143391  -0.0002253   0.0159634   0.0823395  -0.0184809
           HX4          -0.0406765  -0.0035648  -0.0359526  -0.0988632  -0.0083473
           HY4          -0.0014270   0.0182203  -0.0002252  -0.0081662  -0.0581928
           HZ4          -0.0143698  -0.0002272   0.0159437  -0.0823359  -0.0184799
                             CZ2         HX3         HY3         HZ3         HX4     
           CZ2           0.5879984
           HX3           0.0841284   0.1303817
           HY3          -0.0184830  -0.0107447   0.0212781
           HZ3          -0.2427049  -0.1083831   0.0223809   0.2447470
           HX4          -0.0841632   0.0091513   0.0011611   0.0117045   0.1303885
           HY4          -0.0184818  -0.0011577   0.0186943  -0.0036747   0.0107509
           HZ4          -0.2426919  -0.0117057  -0.0036746  -0.0180054   0.1084114
                             HY4         HZ4     
           HY4           0.0212782
           HZ4           0.0223816   0.2447536


 Atomic Masses
   1-  4   15.999400   12.011000    1.007940    1.007940

 Mass weighted Second Derivative Matrix
                             OX1         OY1         OZ1         CX2         CY2     
           OX1           0.0515908
           OY1          -0.0000002   0.0011241
           OZ1          -0.0000005   0.0003301   0.0044186
           CX2          -0.0536755  -0.0000001   0.0000001   0.0784118
           CY2           0.0000007  -0.0039261  -0.0003486   0.0000003   0.0142213
           CZ2           0.0000028  -0.0003483  -0.0074014  -0.0000004   0.0034796
           HX3          -0.0101272   0.0008887   0.0089548  -0.0284141   0.0023951
           HY3           0.0003536   0.0045372  -0.0000556   0.0023463  -0.0167249
           HZ3           0.0035707  -0.0000561   0.0039752   0.0236647  -0.0053115
           HX4          -0.0101292  -0.0008877  -0.0089529  -0.0284137  -0.0023990
           HY4          -0.0003553   0.0045372  -0.0000561  -0.0023470  -0.0167249
           HZ4          -0.0035783  -0.0000566   0.0039703  -0.0236637  -0.0053112
                             CZ2         HX3         HY3         HZ3         HX4     
           CZ2           0.0489550
           HX3           0.0241789   0.1293546
           HY3          -0.0053121  -0.0106600   0.0211105
           HZ3          -0.0697544  -0.1075293   0.0222046   0.2428190
           HX4          -0.0241889   0.0090792   0.0011520   0.0116123   0.1293613
           HY4          -0.0053117  -0.0011486   0.0185471  -0.0036457   0.0106663
           HZ4          -0.0697507  -0.0116135  -0.0036456  -0.0178636   0.1075574
                             HY4         HZ4     
           HY4           0.0211106
           HZ4           0.0222053   0.2428256


 Mass Weighted 2nd Derivative Matrix Eigenvalues
   1- 10   -0.000000   -0.000000    0.000000    0.000000    0.000000    0.000000    0.052785    0.060209    0.088502    0.117822
  11- 12    0.325365    0.340620

 Mass Weighted 2nd Derivative Matrix Eigenvectors
                   1             2             3             4             5             6             7             8
         1    -0.0177808     0.0698474     0.0026941    -0.1975935    -0.2260921     0.6614255     0.0000279    -0.0001001
         2     0.0461595    -0.1247880     0.0740160     0.7904224     0.4194296     0.3936189     0.1430747    -0.0269072
         3    -0.1489723     0.7820850     0.3842295     0.2699303    -0.2519841    -0.0936550    -0.0143430    -0.2705135
         4    -0.0154060     0.0605185     0.0023343    -0.1712026    -0.1958949     0.5730845     0.0000031    -0.0000086
         5    -0.2891920     0.2674967     0.0388920    -0.2802615     0.6981284     0.1187325    -0.5101934     0.0435667
         6     0.7423500     0.3492588     0.0269241    -0.0642487     0.1388324     0.0112272     0.0508438     0.4363898
         7     0.1828071    -0.0474658    -0.0681986    -0.1375235     0.0304039     0.1817164    -0.0003815    -0.5658940
         8    -0.0552014    -0.1160703     0.6498440    -0.3395415     0.2874977     0.0049661     0.5955792    -0.0215805
         9     0.3285044     0.0800083    -0.0982936    -0.0475937     0.0858820     0.0159210    -0.0592127    -0.2141810
        10    -0.1917329     0.0825285     0.0695510     0.0383334    -0.1438999     0.1503129     0.0002596     0.5663225
        11    -0.2036257     0.3752024    -0.6343092    -0.0904425     0.2097898     0.0021806     0.5955847    -0.0216100
        12     0.3432227     0.0312918     0.0290481    -0.0722953     0.0935878     0.0161972    -0.0591564    -0.2144784
                   9            10            11            12
         1    -0.3431377    -0.5911013     0.0030226    -0.0000282
         2     0.0000242    -0.0000028    -0.0000001     0.0002247
         3     0.0001008    -0.0000134     0.0000111     0.0022626
         4     0.0595181     0.7474907     0.1941623    -0.0001734
         5    -0.0000652     0.0000078    -0.0000293    -0.0328394
         6    -0.0001461     0.0000274    -0.0003380    -0.3311498
         7     0.5810543    -0.1126802    -0.3414663    -0.3459238
         8     0.0315799    -0.0179982     0.0596493     0.0561761
         9     0.3178646    -0.1814397     0.6015710     0.5664821
        10     0.5805971    -0.1126363    -0.3408265     0.3466349
        11    -0.0314513     0.0179823    -0.0595477     0.0562905
        12    -0.3177618     0.1813987    -0.6004483     0.5676362

   Low Vibration      Wavenumber
        Nr             [1/cm] 
        1                0.00
        2                0.00
        3                0.00
        4                0.00
        5                0.00
        6                0.00

     Vibration        Wavenumber
        Nr             [1/cm] 
        1             1181.01
        2             1261.34
        3             1529.25
        4             1764.47
        5             2932.15
        6             3000.10

 FREQUENCIES * CALCULATION OF NORMAL MODES FOR CCSD(T)


 Atomic Coordinates

  Nr  Atom  Charge       X              Y              Z

   1   O     8.00    2.023400362   -0.149901013    0.069161501
   2   C     6.00    4.312939735   -0.149901013    0.069161501
   3   H     1.00    5.408689227   -0.324883038   -1.695411219
   4   H     1.00    5.408689227    0.025081012    1.833734201

 Frequencies dumped to record   5400.2

 Gradient norm at reference geometry: 0.59076D-04
 
 Molecule is not in standard orientation!
 Symmetry information for normal modes not available!

 Normal Modes

                              1 A         2 A         3 A         4 A         5 A  
 Wavenumbers [cm-1]         1181.01     1261.34     1529.25     1764.47     2932.15
 Intensities [km/mol]          0.00        0.00        0.00        0.00        0.00
 Intensities [relative]        0.00        0.00        0.00        0.00        0.00
           OX1              0.00001    -0.00003    -0.08579    -0.14778     0.00076
           OY1              0.03577    -0.00673     0.00001    -0.00000    -0.00000
           OZ1             -0.00359    -0.06763     0.00003    -0.00000     0.00000
           CX2              0.00000    -0.00000     0.01717     0.21568     0.05602
           CY2             -0.14721     0.01257    -0.00002     0.00000    -0.00001
           CZ2              0.01467     0.12592    -0.00004     0.00001    -0.00010
           HX3             -0.00038    -0.56366     0.57876    -0.11224    -0.34012
           HY3              0.59323    -0.02150     0.03146    -0.01793     0.05941
           HZ3             -0.05898    -0.21334     0.31661    -0.18072     0.59920
           HX4              0.00026     0.56409     0.57831    -0.11219    -0.33948
           HY4              0.59323    -0.02152    -0.03133     0.01791    -0.05931
           HZ4             -0.05892    -0.21363    -0.31651     0.18068    -0.59808

                              6 A  
 Wavenumbers [cm-1]         3000.10
 Intensities [km/mol]          0.00
 Intensities [relative]        0.00
           OX1             -0.00001
           OY1              0.00006
           OZ1              0.00057
           CX2             -0.00005
           CY2             -0.00948
           CZ2             -0.09555
           HX3             -0.34456
           HY3              0.05595
           HZ3              0.56425
           HX4              0.34527
           HY4              0.05607
           HZ4              0.56540


 Normal Modes of low/zero frequencies

                                  1           2           3           4           5
 Wavenumbers [cm-1]            0.00        0.00        0.00        0.00        0.00
 Intensities [km/mol]          0.00        0.00        0.00        0.00        0.00
 Intensities [relative]        0.00        0.00        0.00        0.00        0.00
           OX1             -0.00445     0.01746     0.00067    -0.04940    -0.05652
           OY1              0.01154    -0.03120     0.01850     0.19761     0.10486
           OZ1             -0.03724     0.19552     0.09606     0.06748    -0.06300
           CX2             -0.00445     0.01746     0.00067    -0.04940    -0.05652
           CY2             -0.08344     0.07718     0.01122    -0.08087     0.20144
           CZ2              0.21420     0.10078     0.00777    -0.01854     0.04006
           HX3              0.18209    -0.04728    -0.06793    -0.13698     0.03028
           HY3             -0.05498    -0.11561     0.64728    -0.33820     0.28636
           HZ3              0.32721     0.07969    -0.09791    -0.04741     0.08554
           HX4             -0.19098     0.08220     0.06928     0.03818    -0.14333
           HY4             -0.20282     0.37372    -0.63181    -0.09009     0.20896
           HZ4              0.34187     0.03117     0.02893    -0.07201     0.09322

                                  6
 Wavenumbers [cm-1]            0.00
 Intensities [km/mol]          0.00
 Intensities [relative]        0.00
           OX1              0.16536
           OY1              0.09841
           OZ1             -0.02341
           CX2              0.16536
           CY2              0.03426
           CZ2              0.00324
           HX3              0.18100
           HY3              0.00495
           HZ3              0.01586
           HX4              0.14972
           HY4              0.00217
           HZ4              0.01613


 FREQUENCIES * CALCULATION OF THERMODYNAMICAL PROPERTIES

 Temperature   298.150 [K]  Pressure   1.00000 [atm]
 Atom  1: O         Mass  15.99940
 Atom  2: C         Mass  12.01100
 Atom  3: H         Mass   1.00794
 Atom  4: H         Mass   1.00794

 Molecular Mass:    30.02628 [a.u.]
 Moments of Inertia          53.16565    46.82705     6.33860 [a.u.]
 Point Group C1    Order of principal axis 1
 Rotational Symmetry factor  1.0
 Rotational Temperatures      1.62910     1.84962    13.66423 [K]
 Rotational Constants        33.94511    38.53998   284.71791 [GHz]

 Vibrational Temperatures [K]   1699.20  1814.78  2200.23  2538.67  4218.68
                                4316.45

 Zero-Point vibrational Energy       69.792 [kJ/Mol]
                                     16.681 [kcal/Mol]

 Electronic Energy at 0 [K]:                      -114.342934 [H]
 Electronic Energy + Zero-Point correction:       -114.316351 [H]
 Electronic Energy at     298.150 [K]:            -114.313482 [H]
 Enthalpy H at            298.150 [K]:            -114.312537 [H]
 Free Enthalpy G at       298.150 [K]:            -114.338019 [H]

 Partition Function  Z                 log10(Z)          ln(Z)
 Electronic      0.100000D+01          0.000000          0.000000
 Translation     0.646730D+07          6.810723         15.682269
 Rotation        0.142207D+04          3.152920          7.259867
 Vibration       0.100648D+01          0.002804          0.006455
 Total           0.925649D+10          9.966446         22.942135

                       H(T)-H(0)              Cv                 S
                       [kJ/Mol]          [J/Mol K]          [J/Mol K] 
 Electronic               0.000              0.000              0.000
 Translation              3.718             12.472            151.177
 Rotation                 3.718             12.472             72.834
 Vibration                0.098              2.020              0.381
 Volume (RT)              2.479              0.000              0.000
 Total                   10.013             26.963            224.392

 Thermal energies including ZPE:

 H(T)-E(0)               79.806 kJ/Mol
 U(T)-E(0)               77.327 kJ/Mol

                       H(T)-H(0)              Cv                 S
                       [kcal/Mol]        [cal/Mol K]        [cal/Mol K] 
 Electronic               0.000              0.000              0.000
 Translation              0.889              2.981             36.132
 Rotation                 0.889              2.981             17.408
 Vibration                0.023              0.483              0.091
 Volume (RT)              0.592              0.000              0.000
 Total                    2.393              6.444             53.631

 Thermal energies including ZPE:

 H(T)-E(0)               19.074 kcal/Mol
 U(T)-E(0)               18.481 kcal/Mol
 Frequency information read from record  5400.2

 CCSD(T)/aug-cc-pVTZ energy=   -114.342933637879

        CCSD(T)         HF-SCF  
   -114.34293364   -113.91320737
 **********************************************************************************************************************************
 Molpro calculation terminated
 Variable memory released
