 Entering Gaussian System, Link 0=g03
 Input=input.gjf
 Output=input.log
 Initial command:
 /opt/g03/l1.exe /scratch/alongd/Gau-16790.inp -scrdir=/scratch/alongd/
 Entering Link 1 = /opt/g03/l1.exe PID=     16792.
  
 Copyright (c) 1988,1990,1992,1993,1995,1998,2003,2004, Gaussian, Inc.
                  All Rights Reserved.
  
 This is the Gaussian(R) 03 program.  It is based on the
 the Gaussian(R) 98 system (copyright 1998, Gaussian, Inc.),
 the Gaussian(R) 94 system (copyright 1995, Gaussian, Inc.),
 the Gaussian 92(TM) system (copyright 1992, Gaussian, Inc.),
 the Gaussian 90(TM) system (copyright 1990, Gaussian, Inc.),
 the Gaussian 88(TM) system (copyright 1988, Gaussian, Inc.),
 the Gaussian 86(TM) system (copyright 1986, Carnegie Mellon
 University), and the Gaussian 82(TM) system (copyright 1983,
 Carnegie Mellon University). Gaussian is a federally registered
 trademark of Gaussian, Inc.
  
 This software contains proprietary and confidential information,
 including trade secrets, belonging to Gaussian, Inc.
  
 This software is provided under written license and may be
 used, copied, transmitted, or stored only in accord with that
 written license.
  
 The following legend is applicable only to US Government
 contracts under FAR:
  
                    RESTRICTED RIGHTS LEGEND
  
 Use, reproduction and disclosure by the US Government is
 subject to restrictions as set forth in subparagraphs (a)
 and (c) of the Commercial Computer Software - Restricted
 Rights clause in FAR 52.227-19.
  
 Gaussian, Inc.
 340 Quinnipiac St., Bldg. 40, Wallingford CT 06492
  
  
 ---------------------------------------------------------------
 Warning -- This program may not be used in any manner that
 competes with the business of Gaussian, Inc. or will provide
 assistance to any competitor of Gaussian, Inc.  The licensee
 of this program is prohibited from giving any competitor of
 Gaussian, Inc. access to this program.  By using this program,
 the user acknowledges that Gaussian, Inc. is engaged in the
 business of creating and licensing software in the field of
 computational chemistry and represents and warrants to the
 licensee that it is not a competitor of Gaussian, Inc. and that
 it will not use this program in any manner prohibited above.
 ---------------------------------------------------------------
  

 Cite this work as:
 Gaussian 03, Revision D.01,
 M. J. Frisch, G. W. Trucks, H. B. Schlegel, G. E. Scuseria, 
 M. A. Robb, J. R. Cheeseman, J. A. Montgomery, Jr., T. Vreven, 
 K. N. Kudin, J. C. Burant, J. M. Millam, S. S. Iyengar, J. Tomasi, 
 V. Barone, B. Mennucci, M. Cossi, G. Scalmani, N. Rega, 
 G. A. Petersson, H. Nakatsuji, M. Hada, M. Ehara, K. Toyota, 
 R. Fukuda, J. Hasegawa, M. Ishida, T. Nakajima, Y. Honda, O. Kitao, 
 H. Nakai, M. Klene, X. Li, J. E. Knox, H. P. Hratchian, J. B. Cross, 
 V. Bakken, C. Adamo, J. Jaramillo, R. Gomperts, R. E. Stratmann, 
 O. Yazyev, A. J. Austin, R. Cammi, C. Pomelli, J. W. Ochterski, 
 P. Y. Ayala, K. Morokuma, G. A. Voth, P. Salvador, J. J. Dannenberg, 
 V. G. Zakrzewski, S. Dapprich, A. D. Daniels, M. C. Strain, 
 O. Farkas, D. K. Malick, A. D. Rabuck, K. Raghavachari, 
 J. B. Foresman, J. V. Ortiz, Q. Cui, A. G. Baboul, S. Clifford, 
 J. Cioslowski, B. B. Stefanov, G. Liu, A. Liashenko, P. Piskorz, 
 I. Komaromi, R. L. Martin, D. J. Fox, T. Keith, M. A. Al-Laham, 
 C. Y. Peng, A. Nanayakkara, M. Challacombe, P. M. W. Gill, 
 B. Johnson, W. Chen, M. W. Wong, C. Gonzalez, and J. A. Pople, 
 Gaussian, Inc., Wallingford CT, 2004.
 
 ******************************************
 Gaussian 03:  AM64L-G03RevD.01 13-Oct-2005
                29-Jan-2019 
 ******************************************
 %chk=check.chk
 %mem=1500mb
 %nproc=8
 Will use up to    8 processors via shared memory.
 ---------------------------------------------------------------------
 # opt=(modredundant, calcfc, noeigentest) ub3lyp/6-311+g(d,p) scf=xqc
 ---------------------------------------------------------------------
 1/10=4,11=1,14=-1,18=120,26=3,38=1/1,3;
 2/9=110,17=6,18=5,40=1/2;
 3/5=4,6=6,7=111,11=2,16=1,25=1,30=1,74=-5/1,2,3;
 4/7=2/1;
 5/5=2,8=3,13=1,38=5/2,8;
 8/6=4,10=90,11=11/1;
 11/6=1,8=1,9=11,15=111,16=1/1,2,10;
 10/6=1,7=6/2;
 6/7=2,8=2,9=2,10=2,28=1/1;
 7/10=1,18=20,25=1/1,2,3,16;
 1/10=4,11=1,14=-1,18=20/3(3);
 2/9=110/2;
 6/7=2,8=2,9=2,10=2,19=2,28=1/1;
 99//99;
 2/9=110/2;
 3/5=4,6=6,7=111,11=2,16=1,25=1,30=1,74=-5/1,2,3;
 4/5=5,7=2,16=3/1;
 5/5=2,8=3,13=1,38=5/2,8;
 7//1,2,3,16;
 1/11=1,14=-1,18=20/3(-5);
 2/9=110/2;
 6/7=2,8=2,9=2,10=2,19=2,28=1/1;
 99/9=1/99;
 ----
 name
 ----
 Symbolic Z-matrix:
 Charge =  0 Multiplicity = 2
 O                    -0.80199  -1.03469   0. 
 O                    -0.82044   1.02507   0. 
 C                     1.38746   0.00966   0. 
 C                    -0.10049   0.00309   0. 
 H                     1.74923  -0.51685   0.88541 
 H                     1.74923  -0.51685  -0.88541 
 H                     1.7598    1.03417   0. 
 
 The following ModRedundant input section has been read:
 D    5    3    4    1 S  72 5.0000                                            

 GradGradGradGradGradGradGradGradGradGradGradGradGradGradGradGradGradGrad
 Berny optimization.
 Initialization pass.
                           ----------------------------
                           !    Initial Parameters    !
                           ! (Angstroms and Degrees)  !
 --------------------------                            --------------------------
 ! Name  Definition              Value          Derivative Info.                !
 --------------------------------------------------------------------------------
 ! R1    R(1,4)                  1.2526         calculate D2E/DX2 analytically  !
 ! R2    R(2,4)                  1.2501         calculate D2E/DX2 analytically  !
 ! R3    R(3,4)                  1.488          calculate D2E/DX2 analytically  !
 ! R4    R(3,5)                  1.0918         calculate D2E/DX2 analytically  !
 ! R5    R(3,6)                  1.0918         calculate D2E/DX2 analytically  !
 ! R6    R(3,7)                  1.0901         calculate D2E/DX2 analytically  !
 ! A1    A(4,3,5)              109.2213         calculate D2E/DX2 analytically  !
 ! A2    A(4,3,6)              109.2213         calculate D2E/DX2 analytically  !
 ! A3    A(4,3,7)              110.2253         calculate D2E/DX2 analytically  !
 ! A4    A(5,3,6)              108.3792         calculate D2E/DX2 analytically  !
 ! A5    A(5,3,7)              109.8804         calculate D2E/DX2 analytically  !
 ! A6    A(6,3,7)              109.8804         calculate D2E/DX2 analytically  !
 ! A7    A(1,4,2)              110.7788         calculate D2E/DX2 analytically  !
 ! A8    A(1,4,3)              124.3103         calculate D2E/DX2 analytically  !
 ! A9    A(2,4,3)              124.9109         calculate D2E/DX2 analytically  !
 ! D1    D(5,3,4,1)            -59.186          Scan                            !
 ! D2    D(5,3,4,2)            120.814          calculate D2E/DX2 analytically  !
 ! D3    D(6,3,4,1)             59.186          calculate D2E/DX2 analytically  !
 ! D4    D(6,3,4,2)           -120.814          calculate D2E/DX2 analytically  !
 ! D5    D(7,3,4,1)            180.0            calculate D2E/DX2 analytically  !
 ! D6    D(7,3,4,2)              0.0            calculate D2E/DX2 analytically  !
 --------------------------------------------------------------------------------
 Trust Radius=3.00D-01 FncErr=1.00D-07 GrdErr=1.00D-06
 Number of optimizations in scan=  73
 Number of steps in this run=  31 maximum allowed number of steps= 100.
 GradGradGradGradGradGradGradGradGradGradGradGradGradGradGradGradGradGrad

                          Input orientation:                          
 ---------------------------------------------------------------------
 Center     Atomic     Atomic              Coordinates (Angstroms)
 Number     Number      Type              X           Y           Z
 ---------------------------------------------------------------------
    1          8             0       -0.801993   -1.034691    0.000000
    2          8             0       -0.820443    1.025069    0.000000
    3          6             0        1.387462    0.009660    0.000000
    4          6             0       -0.100485    0.003093    0.000000
    5          1             0        1.749231   -0.516853    0.885409
    6          1             0        1.749231   -0.516853   -0.885409
    7          1             0        1.759797    1.034174    0.000000
 ---------------------------------------------------------------------
                    Distance matrix (angstroms):
                    1          2          3          4          5
     1  O    0.000000
     2  O    2.059843   0.000000
     3  C    2.425775   2.430206   0.000000
     4  C    1.252641   1.250110   1.487962   0.000000
     5  H    2.749700   3.124851   1.091806   2.115595   0.000000
     6  H    2.749700   3.124851   1.091806   2.115595   1.770817
     7  H    3.292868   2.580256   1.090075   2.126918   1.785986
                    6          7
     6  H    0.000000
     7  H    1.785986   0.000000
 Stoichiometry    C2H3O2(2)
 Framework group  CS[SG(C2HO2),X(H2)]
 Deg. of freedom    10
 Full point group                 CS
 Largest Abelian subgroup         CS      NOp   2
 Largest concise Abelian subgroup CS      NOp   2
                         Standard orientation:                         
 ---------------------------------------------------------------------
 Center     Atomic     Atomic              Coordinates (Angstroms)
 Number     Number      Type              X           Y           Z
 ---------------------------------------------------------------------
    1          8             0       -1.058868    0.769812    0.000000
    2          8             0        0.999351    0.851601    0.000000
    3          6             0        0.052326   -1.386488    0.000000
    4          6             0        0.000000    0.100553    0.000000
    5          1             0       -0.462811   -1.764279    0.885409
    6          1             0       -0.462811   -1.764279   -0.885409
    7          1             0        1.087807   -1.727138    0.000000
 ---------------------------------------------------------------------
 Rotational constants (GHZ):     13.6115814      9.2415606      5.7005948
 Standard basis: 6-311+G(d,p) (5D, 7F)
 There are    75 symmetry adapted basis functions of A'  symmetry.
 There are    31 symmetry adapted basis functions of A"  symmetry.
 Integral buffers will be    131072 words long.
 Raffenetti 2 integral format.
 Two-electron integral symmetry is turned on.
   106 basis functions,   168 primitive gaussians,   110 cartesian basis functions
    16 alpha electrons       15 beta electrons
       nuclear repulsion energy       113.5936677401 Hartrees.
 NAtoms=    7 NActive=    7 NUniq=    6 SFac= 1.02D+00 NAtFMM=   80 NAOKFM=F Big=F
 One-electron integrals computed using PRISM.
 NBasis=   106 RedAO= T  NBF=    75    31
 NBsUse=   106 1.00D-06 NBFU=    75    31
 Harris functional with IExCor=  402 diagonalized for initial guess.
 ExpMin= 4.38D-02 ExpMax= 8.59D+03 ExpMxC= 1.30D+03 IAcc=2 IRadAn=         4 AccDes= 0.00D+00
 HarFok:  IExCor= 402 AccDes= 0.00D+00 IRadAn=         4 IDoV=1
 ScaDFX=  1.000000  1.000000  1.000000  1.000000
 Initial guess orbital symmetries:
 Alpha Orbitals:
       Occupied  (A') (A') (A') (A') (A') (A') (A') (A') (A') (A')
                 (A") (A') (A") (A') (A") (A')
       Virtual   (A") (A') (A') (A') (A") (A') (A') (A") (A') (A")
                 (A') (A') (A') (A') (A") (A') (A') (A") (A') (A')
                 (A') (A') (A') (A") (A') (A') (A") (A') (A") (A')
                 (A') (A') (A') (A') (A") (A") (A') (A') (A") (A')
                 (A') (A') (A") (A") (A") (A') (A') (A") (A') (A')
                 (A') (A') (A") (A') (A') (A') (A") (A') (A') (A")
                 (A') (A") (A') (A") (A") (A') (A') (A') (A") (A')
                 (A') (A') (A") (A") (A') (A') (A") (A') (A') (A')
                 (A") (A') (A") (A') (A') (A') (A') (A') (A') (A')
 Beta  Orbitals:
       Occupied  (A') (A') (A') (A') (A') (A') (A') (A') (A') (A')
                 (A") (A') (A") (A') (A")
       Virtual   (A') (A") (A') (A') (A') (A") (A') (A') (A") (A')
                 (A") (A') (A') (A') (A') (A") (A') (A') (A") (A')
                 (A') (A') (A') (A') (A") (A') (A') (A") (A') (A")
                 (A') (A') (A') (A') (A') (A") (A") (A') (A') (A")
                 (A') (A') (A') (A") (A") (A") (A') (A') (A") (A')
                 (A') (A') (A') (A") (A') (A') (A') (A") (A') (A')
                 (A") (A') (A") (A') (A") (A") (A') (A') (A') (A")
                 (A') (A') (A') (A") (A") (A') (A') (A") (A') (A')
                 (A') (A") (A') (A") (A') (A') (A') (A') (A') (A')
                 (A')
 The electronic state of the initial guess is 2-A'.
 <S**2> of initial guess= 0.7500
 Requested convergence on RMS density matrix=1.00D-08 within 128 cycles.
 Requested convergence on MAX density matrix=1.00D-06.
 Requested convergence on             energy=1.00D-06.
 No special actions if energy rises.
 Keep R1 and R2 integrals in memory in canonical form, NReq=    39149226.
 SCF Done:  E(UB+HF-LYP) =  -228.485613718     A.U. after   15 cycles
             Convg  =    0.2125D-08             -V/T =  2.0032
             S**2   =   0.7567
 Annihilation of the first spin contaminant:
 S**2 before annihilation     0.7567,   after     0.7500
 QCSCF skips out because SCF is already converged.
 Range of M.O.s used for correlation:     1   106
 NBasis=   106 NAE=    16 NBE=    15 NFC=     0 NFV=     0
 NROrb=    106 NOA=    16 NOB=    15 NVA=    90 NVB=    91

 **** Warning!!: The largest alpha MO coefficient is  0.30600881D+02


 **** Warning!!: The largest beta MO coefficient is  0.30374527D+02

 Symmetrizing basis deriv contribution to polar:
 IMax=3 JMax=2 DiffMx= 0.00D+00
 G2DrvN: will do    8 centers at a time, making    1 passes doing MaxLOS=2.
 FoFDir/FoFCou used for L=0 through L=2.
 DoAtom=TTTTTTT
          Differentiating once with respect to electric field.
                with respect to dipole field.
          Differentiating once with respect to nuclear coordinates.
          Store integrals in memory, NReq=    38099636.
          There are  21 degrees of freedom in the 1st order CPHF.
    21 vectors were produced by pass  0.
 AX will form  21 AO Fock derivatives at one time.
    21 vectors were produced by pass  1.
    21 vectors were produced by pass  2.
    21 vectors were produced by pass  3.
    18 vectors were produced by pass  4.
    10 vectors were produced by pass  5.
     3 vectors were produced by pass  6.
     1 vectors were produced by pass  7.
 Inv2:  IOpt= 1 Iter= 1 AM= 2.12D-15 Conv= 1.00D-12.
 Inverted reduced A of dimension  116 with in-core refinement.
 Isotropic polarizability for W=    0.000000       34.49 Bohr**3.
 End of Minotr Frequency-dependent properties file   721 does not exist.

 **********************************************************************

            Population analysis using the SCF density.

 **********************************************************************

 Orbital symmetries:
 Alpha Orbitals:
       Occupied  (A') (A') (A') (A') (A') (A') (A') (A') (A') (A')
                 (A") (A') (A") (A') (A') (A")
       Virtual   (A") (A') (A') (A') (A") (A') (A') (A") (A') (A")
                 (A') (A') (A') (A') (A") (A') (A") (A') (A') (A')
                 (A') (A') (A") (A') (A') (A') (A") (A") (A') (A')
                 (A') (A') (A') (A') (A") (A") (A') (A') (A') (A')
                 (A") (A') (A") (A") (A") (A') (A') (A") (A') (A')
                 (A') (A') (A") (A') (A') (A') (A") (A') (A') (A")
                 (A') (A") (A') (A") (A") (A') (A') (A") (A') (A')
                 (A') (A') (A") (A") (A') (A') (A") (A') (A') (A')
                 (A") (A') (A") (A') (A') (A') (A') (A') (A') (A')
 Beta  Orbitals:
       Occupied  (A') (A') (A') (A') (A') (A') (A') (A') (A") (A')
                 (A') (A') (A") (A") (A')
       Virtual   (A') (A") (A') (A') (A") (A') (A') (A') (A") (A')
                 (A") (A') (A') (A') (A') (A") (A') (A") (A') (A')
                 (A') (A') (A') (A") (A') (A') (A') (A") (A") (A')
                 (A') (A') (A') (A') (A') (A") (A") (A') (A') (A")
                 (A') (A') (A') (A") (A") (A") (A') (A') (A") (A')
                 (A') (A') (A') (A") (A') (A') (A') (A") (A') (A')
                 (A") (A') (A") (A') (A") (A") (A') (A') (A") (A')
                 (A') (A') (A') (A") (A") (A') (A') (A") (A') (A')
                 (A') (A") (A") (A') (A') (A') (A') (A') (A') (A')
                 (A')
 The electronic state is 2-A'.
 Alpha  occ. eigenvalues --  -19.19254 -19.19148 -10.33432 -10.21295  -1.15876
 Alpha  occ. eigenvalues --   -1.03737  -0.78892  -0.57840  -0.53254  -0.50959
 Alpha  occ. eigenvalues --   -0.50801  -0.44278  -0.43002  -0.37145  -0.35130
 Alpha  occ. eigenvalues --   -0.34670
 Alpha virt. eigenvalues --   -0.02746  -0.00633   0.03662   0.04086   0.04140
 Alpha virt. eigenvalues --    0.07211   0.07547   0.08484   0.10714   0.12804
 Alpha virt. eigenvalues --    0.13775   0.18737   0.21063   0.21660   0.21788
 Alpha virt. eigenvalues --    0.21946   0.27364   0.27839   0.28172   0.29257
 Alpha virt. eigenvalues --    0.30924   0.37001   0.40332   0.40882   0.44037
 Alpha virt. eigenvalues --    0.51908   0.53545   0.56067   0.57859   0.62869
 Alpha virt. eigenvalues --    0.67588   0.69162   0.78202   0.84519   0.96781
 Alpha virt. eigenvalues --    1.02742   1.05961   1.07241   1.12506   1.13000
 Alpha virt. eigenvalues --    1.13125   1.24020   1.29067   1.40427   1.40932
 Alpha virt. eigenvalues --    1.43885   1.50094   1.51241   1.53072   1.54929
 Alpha virt. eigenvalues --    1.66830   1.73407   1.81211   1.82135   2.00667
 Alpha virt. eigenvalues --    2.02987   2.17192   2.34162   2.40592   2.44316
 Alpha virt. eigenvalues --    2.46459   2.49865   2.54188   2.63275   2.74252
 Alpha virt. eigenvalues --    2.76202   2.78647   2.82980   2.83411   3.01997
 Alpha virt. eigenvalues --    3.07061   3.19972   3.22567   3.30936   3.54816
 Alpha virt. eigenvalues --    3.59283   3.76811   3.80322   4.00226   4.12575
 Alpha virt. eigenvalues --    4.91718   4.94987   4.99188   5.14310   5.48886
 Alpha virt. eigenvalues --    5.74847  23.79489  23.91631  49.78787  49.92408
  Beta  occ. eigenvalues --  -19.17767 -19.17645 -10.33549 -10.21300  -1.13081
  Beta  occ. eigenvalues --   -1.00114  -0.78609  -0.56533  -0.50408  -0.49663
  Beta  occ. eigenvalues --   -0.49423  -0.43601  -0.42529  -0.32933  -0.31462
  Beta virt. eigenvalues --   -0.19255  -0.02417  -0.00583   0.03756   0.04183
  Beta virt. eigenvalues --    0.04195   0.07354   0.07799   0.08496   0.10797
  Beta virt. eigenvalues --    0.12845   0.13892   0.18866   0.21214   0.21926
  Beta virt. eigenvalues --    0.21928   0.22135   0.27533   0.28299   0.28821
  Beta virt. eigenvalues --    0.29626   0.31356   0.37411   0.40342   0.41443
  Beta virt. eigenvalues --    0.44595   0.52847   0.53374   0.56057   0.58128
  Beta virt. eigenvalues --    0.62962   0.67940   0.69313   0.78298   0.84857
  Beta virt. eigenvalues --    0.96854   1.03501   1.07149   1.07988   1.13739
  Beta virt. eigenvalues --    1.15328   1.15924   1.24630   1.28984   1.40464
  Beta virt. eigenvalues --    1.40915   1.45123   1.50437   1.51278   1.53797
  Beta virt. eigenvalues --    1.55499   1.67381   1.73850   1.81283   1.82185
  Beta virt. eigenvalues --    2.01237   2.03222   2.17297   2.35139   2.40675
  Beta virt. eigenvalues --    2.44381   2.46692   2.49906   2.54532   2.63735
  Beta virt. eigenvalues --    2.78982   2.79486   2.81283   2.86057   2.86500
  Beta virt. eigenvalues --    3.02901   3.08466   3.21673   3.23316   3.32154
  Beta virt. eigenvalues --    3.56369   3.62828   3.76829   3.80550   4.01821
  Beta virt. eigenvalues --    4.13026   4.93071   5.00496   5.00901   5.19740
  Beta virt. eigenvalues --    5.50558   5.76320  23.79366  23.91624  49.80287
  Beta virt. eigenvalues --   49.93905
          Condensed to atoms (all electrons):
              1          2          3          4          5          6
     1  O    8.052914  -0.087519  -0.117806   0.299325  -0.002882  -0.002882
     2  O   -0.087519   8.019622  -0.107423   0.326145   0.002053   0.002053
     3  C   -0.117806  -0.107423   5.238413   0.167904   0.398303   0.398303
     4  C    0.299325   0.326145   0.167904   5.149762  -0.030797  -0.030797
     5  H   -0.002882   0.002053   0.398303  -0.030797   0.494872  -0.020805
     6  H   -0.002882   0.002053   0.398303  -0.030797  -0.020805   0.494872
     7  H    0.010894   0.003414   0.417275  -0.055727  -0.020900  -0.020900
              7
     1  O    0.010894
     2  O    0.003414
     3  C    0.417275
     4  C   -0.055727
     5  H   -0.020900
     6  H   -0.020900
     7  H    0.495082
 Mulliken atomic charges:
              1
     1  O   -0.152044
     2  O   -0.158345
     3  C   -0.394971
     4  C    0.174185
     5  H    0.180156
     6  H    0.180156
     7  H    0.170864
 Sum of Mulliken charges=   0.00000
 Atomic charges with hydrogens summed into heavy atoms:
              1
     1  O   -0.152044
     2  O   -0.158345
     3  C    0.136205
     4  C    0.174185
     5  H    0.000000
     6  H    0.000000
     7  H    0.000000
 Sum of Mulliken charges=   0.00000
          Atomic-Atomic Spin Densities.
              1          2          3          4          5          6
     1  O    0.587225  -0.068405   0.019870   0.002732  -0.000872  -0.000872
     2  O   -0.068405   0.590957   0.019808  -0.008245   0.000163   0.000163
     3  C    0.019870   0.019808  -0.041065  -0.004984  -0.001012  -0.001012
     4  C    0.002732  -0.008245  -0.004984  -0.063995   0.000761   0.000761
     5  H   -0.000872   0.000163  -0.001012   0.000761   0.001681   0.001142
     6  H   -0.000872   0.000163  -0.001012   0.000761   0.001142   0.001681
     7  H   -0.000969  -0.004191   0.010061  -0.004069  -0.000964  -0.000964
              7
     1  O   -0.000969
     2  O   -0.004191
     3  C    0.010061
     4  C   -0.004069
     5  H   -0.000964
     6  H   -0.000964
     7  H    0.005713
 Mulliken atomic spin densities:
              1
     1  O    0.538710
     2  O    0.530250
     3  C    0.001666
     4  C   -0.077041
     5  H    0.000898
     6  H    0.000898
     7  H    0.004618
 Sum of Mulliken spin densities=   1.00000
 APT atomic charges:
              1
     1  O   -0.245218
     2  O   -0.247233
     3  C   -0.013371
     4  C    0.347294
     5  H    0.056542
     6  H    0.056543
     7  H    0.045443
 Sum of APT charges=   0.00000
 APT Atomic charges with hydrogens summed into heavy atoms:
              1
     1  O   -0.245218
     2  O   -0.247233
     3  C    0.145157
     4  C    0.347294
     5  H    0.000000
     6  H    0.000000
     7  H    0.000000
 Sum of APT charges=   0.00000
 Electronic spatial extent (au):  <R**2>=   237.0219
 Charge=     0.0000 electrons
 Dipole moment (field-independent basis, Debye):
    X=     0.0990    Y=    -3.4858    Z=     0.0000  Tot=     3.4872
 Quadrupole moment (field-independent basis, Debye-Ang):
   XX=   -25.7717   YY=   -23.3860   ZZ=   -22.2747
   XY=    -0.0143   XZ=     0.0000   YZ=     0.0000
 Traceless Quadrupole moment (field-independent basis, Debye-Ang):
   XX=    -1.9609   YY=     0.4248   ZZ=     1.5361
   XY=    -0.0143   XZ=     0.0000   YZ=     0.0000
 Octapole moment (field-independent basis, Debye-Ang**2):
  XXX=     1.0822  YYY=    -0.8496  ZZZ=     0.0000  XYY=    -0.2655
  XXY=    -2.9367  XXZ=     0.0000  XZZ=    -0.8324  YZZ=     0.0654
  YYZ=     0.0000  XYZ=     0.0000
 Hexadecapole moment (field-independent basis, Debye-Ang**3):
 XXXX=  -100.7632 YYYY=  -165.9627 ZZZZ=   -26.8736 XXXY=    -0.3804
 XXXZ=     0.0000 YYYX=     1.0761 YYYZ=     0.0000 ZZZX=     0.0000
 ZZZY=     0.0000 XXYY=   -44.8535 XXZZ=   -21.4826 YYZZ=   -30.3688
 XXYZ=     0.0000 YYXZ=     0.0000 ZZXY=     1.8950
 N-N= 1.135936677401D+02 E-N=-7.636270824867D+02  KE= 2.277602417683D+02
 Symmetry A'   KE= 2.170967715556D+02
 Symmetry A"   KE= 1.066347021276D+01
  Exact polarizability:  47.988   0.875  33.018   0.000   0.000  22.452
 Approx polarizability:  90.832   2.749  40.804   0.000   0.000  29.636
                          Isotropic Fermi Contact Couplings
        Atom                 a.u.       MegaHertz       Gauss      10(-4) cm-1
     1  O(17)              0.03922     -23.77606      -8.48389      -7.93084
     2  O(17)              0.03826     -23.19340      -8.27598      -7.73649
     3  C(13)             -0.01091     -12.27018      -4.37831      -4.09289
     4  C(13)             -0.03415     -38.39386     -13.69988     -12.80681
     5  H(1)               0.00060       2.66042       0.94930       0.88742
     6  H(1)               0.00060       2.66042       0.94930       0.88742
     7  H(1)               0.00427      19.07109       6.80504       6.36143
 --------------------------------------------------------
       Center         ----  Spin Dipole Couplings  ----
                      3XX-RR        3YY-RR        3ZZ-RR
 --------------------------------------------------------
     1   Atom        0.786470      0.330952     -1.117422
     2   Atom        1.057695      0.044968     -1.102663
     3   Atom        0.012626      0.001812     -0.014438
     4   Atom        0.066304      0.023161     -0.089466
     5   Atom       -0.003457      0.006406     -0.002949
     6   Atom       -0.003457      0.006406     -0.002949
     7   Atom       -0.001849      0.009025     -0.007176
 --------------------------------------------------------
                        XY            XZ            YZ
 --------------------------------------------------------
     1   Atom        1.734818      0.000000      0.000000
     2   Atom       -1.657577      0.000000      0.000000
     3   Atom       -0.001285      0.000000      0.000000
     4   Atom        0.001654      0.000000      0.000000
     5   Atom       -0.000207     -0.000003     -0.004651
     6   Atom       -0.000207      0.000003      0.004651
     7   Atom       -0.002807      0.000000      0.000000
 --------------------------------------------------------


 ---------------------------------------------------------------------------------
              Anisotropic Spin Dipole Couplings in Principal Axis System
 ---------------------------------------------------------------------------------

       Atom             a.u.   MegaHertz   Gauss  10(-4) cm-1        Axes

              Baa    -1.1910    86.179    30.751    28.746 -0.6595  0.7517  0.0000
     1 O(17)  Bbb    -1.1174    80.856    28.851    26.971  0.0000  0.0000  1.0000
              Bcc     2.3084  -167.035   -59.602   -55.717  0.7517  0.6595  0.0000
 
              Baa    -1.1819    85.519    30.515    28.526  0.5949  0.8038  0.0000
     2 O(17)  Bbb    -1.1027    79.788    28.470    26.614  0.0000  0.0000  1.0000
              Bcc     2.2845  -165.307   -58.986   -55.140  0.8038 -0.5949  0.0000
 
              Baa    -0.0144    -1.937    -0.691    -0.646  0.0000  0.0000  1.0000
     3 C(13)  Bbb     0.0017     0.223     0.080     0.074  0.1164  0.9932  0.0000
              Bcc     0.0128     1.715     0.612     0.572  0.9932 -0.1164  0.0000
 
              Baa    -0.0895   -12.005    -4.284    -4.005  0.0000  0.0000  1.0000
     4 C(13)  Bbb     0.0231     3.100     1.106     1.034 -0.0383  0.9993  0.0000
              Bcc     0.0664     8.906     3.178     2.971  0.9993  0.0383  0.0000
 
              Baa    -0.0049    -2.600    -0.928    -0.867  0.0576  0.3815  0.9226
     5 H(1)   Bbb    -0.0035    -1.844    -0.658    -0.615  0.9982 -0.0070 -0.0594
              Bcc     0.0083     4.443     1.585     1.482 -0.0162  0.9243 -0.3812
 
              Baa    -0.0049    -2.600    -0.928    -0.867 -0.0576 -0.3815  0.9226
     6 H(1)   Bbb    -0.0035    -1.844    -0.658    -0.615  0.9982 -0.0070  0.0594
              Bcc     0.0083     4.443     1.585     1.482 -0.0162  0.9243  0.3812
 
              Baa    -0.0072    -3.829    -1.366    -1.277  0.0000  0.0000  1.0000
     7 H(1)   Bbb    -0.0025    -1.350    -0.482    -0.450  0.9717  0.2361  0.0000
              Bcc     0.0097     5.179     1.848     1.728 -0.2361  0.9717  0.0000
 

 ---------------------------------------------------------------------------------

 ***** Axes restored to original set *****
 -------------------------------------------------------------------
 Center     Atomic                   Forces (Hartrees/Bohr)
 Number     Number              X              Y              Z
 -------------------------------------------------------------------
    1          8          -0.003219257   -0.009921632    0.000000000
    2          8          -0.003355936    0.010284502    0.000000000
    3          6           0.001309237    0.000605189    0.000000000
    4          6           0.003875973   -0.000537792    0.000000000
    5          1           0.000523573   -0.000355854    0.000130873
    6          1           0.000523573   -0.000355854   -0.000130873
    7          1           0.000342836    0.000281440    0.000000000
 -------------------------------------------------------------------
 Cartesian Forces:  Max     0.010284502 RMS     0.003410495

 GradGradGradGradGradGradGradGradGradGradGradGradGradGradGradGradGradGrad
 Berny optimization.
 Internal  Forces:  Max     0.010337036 RMS     0.003454582
 Search for a local minimum.
 Step number   1 out of a maximum of  31 on scan point     1 out of    73
 All quantities printed in internal units (Hartrees-Bohrs-Radians)
 Second derivative matrix not updated -- analytic derivatives used.
     Eigenvalues ---    0.01579   0.04670   0.05382   0.11134   0.12584
     Eigenvalues ---    0.13818   0.15363   0.24322   0.32075   0.33953
     Eigenvalues ---    0.34012   0.34868   0.39013   0.781391000.00000
     Eigenvalues --- 1000.000001000.000001000.000001000.000001000.00000
     Eigenvalues --- 1000.00000
 RFO step:  Lambda=-3.79344041D-04.
 Linear search not attempted -- first point.
 Iteration  1 RMS(Cart)=  0.00679827 RMS(Int)=  0.00003234
 Iteration  2 RMS(Cart)=  0.00003385 RMS(Int)=  0.00000101
 Iteration  3 RMS(Cart)=  0.00000000 RMS(Int)=  0.00000101
 Iteration  1 RMS(Cart)=  0.00000005 RMS(Int)=  0.00000007
 Variable       Old X    -DE/DX   Delta X   Delta X   Delta X     New X
                                 (Linear)    (Quad)   (Total)
    R1        2.36715   0.01003   0.00000   0.01091   0.01091   2.37806
    R2        2.36237   0.01034   0.00000   0.01264   0.01264   2.37500
    R3        2.81184   0.00270   0.00000   0.00789   0.00789   2.81973
    R4        2.06321   0.00045   0.00000   0.00144   0.00137   2.06459
    R5        2.06321   0.00045   0.00000   0.00142   0.00137   2.06459
    R6        2.05994   0.00038   0.00000   0.00110   0.00110   2.06105
    A1        1.90627   0.00042   0.00000   0.00247   0.00249   1.90876
    A2        1.90627   0.00042   0.00000   0.00256   0.00249   1.90876
    A3        1.92379   0.00020   0.00000   0.00071   0.00071   1.92450
    A4        1.89157  -0.00057   0.00000  -0.00477  -0.00378   1.88779
    A5        1.91777  -0.00024   0.00000  -0.00057  -0.00097   1.91680
    A6        1.91777  -0.00024   0.00000  -0.00045  -0.00097   1.91680
    A7        1.93346   0.00478   0.00000   0.01518   0.01518   1.94863
    A8        2.16962  -0.00208   0.00000  -0.00497  -0.00497   2.16465
    A9        2.18011  -0.00271   0.00000  -0.01021  -0.01021   2.16990
    D1       -1.03299   0.00009   0.00000   0.00000   0.00083  -1.03216
    D2        2.10860   0.00009   0.00000  -0.00008   0.00083   2.10943
    D3        1.03299  -0.00009   0.00000  -0.00283  -0.00083   1.03216
    D4       -2.10860  -0.00009   0.00000  -0.00291  -0.00083  -2.10943
    D5        3.14159   0.00000   0.00000  -0.00131   0.00000   3.14159
    D6        0.00000   0.00000   0.00000  -0.00139   0.00000   0.00000
         Item               Value     Threshold  Converged?
 Maximum Force            0.010337     0.000450     NO 
 RMS     Force            0.003540     0.000300     NO 
 Maximum Displacement     0.020800     0.001800     NO 
 RMS     Displacement     0.006740     0.001200     NO 
 Predicted change in Energy=-1.897252D-04
 GradGradGradGradGradGradGradGradGradGradGradGradGradGradGradGradGradGrad

                          Input orientation:                          
 ---------------------------------------------------------------------
 Center     Atomic     Atomic              Coordinates (Angstroms)
 Number     Number      Type              X           Y           Z
 ---------------------------------------------------------------------
    1          8             0       -0.803621   -1.044745    0.000000
    2          8             0       -0.819303    1.036076    0.000000
    3          6             0        1.387063    0.009945    0.000000
    4          6             0       -0.105051    0.001967    0.000000
    5          1             0        1.752131   -0.516842    0.884787
    6          1             0        1.752131   -0.516842   -0.884787
    7          1             0        1.759369    1.035092    0.000000
 ---------------------------------------------------------------------
                    Distance matrix (angstroms):
                    1          2          3          4          5
     1  O    0.000000
     2  O    2.080881   0.000000
     3  C    2.431352   2.433310   0.000000
     4  C    1.258414   1.256797   1.492136   0.000000
     5  H    2.755613   3.131561   1.092533   2.121588   0.000000
     6  H    2.755613   3.131561   1.092533   2.121588   1.769575
     7  H    3.300704   2.578672   1.090660   2.131528   1.786449
                    6          7
     6  H    0.000000
     7  H    1.786449   0.000000
 Stoichiometry    C2H3O2(2)
 Framework group  CS[SG(C2HO2),X(H2)]
 Deg. of freedom    10
 Full point group                 CS
 Largest Abelian subgroup         CS      NOp   2
 Largest concise Abelian subgroup CS      NOp   2
                         Standard orientation:                         
 ---------------------------------------------------------------------
 Center     Atomic     Atomic              Coordinates (Angstroms)
 Number     Number      Type              X           Y           Z
 ---------------------------------------------------------------------
    1          8             0       -1.058973    0.784015    0.000000
    2          8             0        1.021240    0.836708    0.000000
    3          6             0        0.034519   -1.387562    0.000000
    4          6             0        0.000000    0.104175    0.000000
    5          1             0       -0.485690   -1.761943    0.884787
    6          1             0       -0.485690   -1.761943   -0.884787
    7          1             0        1.066127   -1.741573    0.000000
 ---------------------------------------------------------------------
 Rotational constants (GHZ):     13.3607956      9.2389162      5.6548603
 Standard basis: 6-311+G(d,p) (5D, 7F)
 There are    75 symmetry adapted basis functions of A'  symmetry.
 There are    31 symmetry adapted basis functions of A"  symmetry.
 Integral buffers will be    131072 words long.
 Raffenetti 2 integral format.
 Two-electron integral symmetry is turned on.
   106 basis functions,   168 primitive gaussians,   110 cartesian basis functions
    16 alpha electrons       15 beta electrons
       nuclear repulsion energy       113.1216181697 Hartrees.
 NAtoms=    7 NActive=    7 NUniq=    6 SFac= 1.02D+00 NAtFMM=   80 NAOKFM=F Big=F
 One-electron integrals computed using PRISM.
 NBasis=   106 RedAO= T  NBF=    75    31
 NBsUse=   106 1.00D-06 NBFU=    75    31
 Initial guess read from the read-write file:
 Initial guess orbital symmetries:
 Alpha Orbitals:
       Occupied  (A') (A') (A') (A') (A') (A') (A') (A') (A') (A')
                 (A") (A') (A") (A') (A') (A")
       Virtual   (A") (A') (A') (A') (A") (A') (A') (A") (A') (A")
                 (A') (A') (A') (A') (A") (A') (A") (A') (A') (A')
                 (A') (A') (A") (A') (A') (A') (A") (A") (A') (A')
                 (A') (A') (A') (A') (A") (A") (A') (A') (A') (A')
                 (A") (A') (A") (A") (A") (A') (A') (A") (A') (A')
                 (A') (A') (A") (A') (A') (A') (A") (A') (A') (A")
                 (A') (A") (A') (A") (A") (A') (A') (A") (A') (A')
                 (A') (A') (A") (A") (A') (A') (A") (A') (A') (A')
                 (A") (A') (A") (A') (A') (A') (A') (A') (A') (A')
 Beta  Orbitals:
       Occupied  (A') (A') (A') (A') (A') (A') (A') (A') (A") (A')
                 (A') (A') (A") (A") (A')
       Virtual   (A') (A") (A') (A') (A") (A') (A') (A') (A") (A')
                 (A") (A') (A') (A') (A') (A") (A') (A") (A') (A')
                 (A') (A') (A') (A") (A') (A') (A') (A") (A") (A')
                 (A') (A') (A') (A') (A') (A") (A") (A') (A') (A")
                 (A') (A') (A') (A") (A") (A") (A') (A') (A") (A')
                 (A') (A') (A') (A") (A') (A') (A') (A") (A') (A')
                 (A") (A') (A") (A') (A") (A") (A') (A') (A") (A')
                 (A') (A') (A') (A") (A") (A') (A') (A") (A') (A')
                 (A') (A") (A") (A') (A') (A') (A') (A') (A') (A')
                 (A')
 <S**2> of initial guess= 0.7568
 Harris functional with IExCor=  402 diagonalized for initial guess.
 ExpMin= 4.38D-02 ExpMax= 8.59D+03 ExpMxC= 1.30D+03 IAcc=2 IRadAn=         4 AccDes= 0.00D+00
 HarFok:  IExCor= 402 AccDes= 0.00D+00 IRadAn=         4 IDoV=1
 ScaDFX=  1.000000  1.000000  1.000000  1.000000
 Requested convergence on RMS density matrix=1.00D-08 within 128 cycles.
 Requested convergence on MAX density matrix=1.00D-06.
 Requested convergence on             energy=1.00D-06.
 No special actions if energy rises.
 Keep R1 and R2 integrals in memory in canonical form, NReq=    39149226.
 SCF Done:  E(UB+HF-LYP) =  -228.485807829     A.U. after   13 cycles
             Convg  =    0.4119D-08             -V/T =  2.0034
             S**2   =   0.7569
 Annihilation of the first spin contaminant:
 S**2 before annihilation     0.7569,   after     0.7500
 QCSCF skips out because SCF is already converged.
 ***** Axes restored to original set *****
 -------------------------------------------------------------------
 Center     Atomic                   Forces (Hartrees/Bohr)
 Number     Number              X              Y              Z
 -------------------------------------------------------------------
    1          8          -0.000036644   -0.000230152    0.000000000
    2          8          -0.000094530    0.000309586    0.000000000
    3          6           0.000016048    0.000110844    0.000000000
    4          6           0.000091984   -0.000064356    0.000000000
    5          1           0.000020145   -0.000072289   -0.000033422
    6          1           0.000020145   -0.000072289    0.000033422
    7          1          -0.000017148    0.000018657    0.000000000
 -------------------------------------------------------------------
 Cartesian Forces:  Max     0.000309586 RMS     0.000097194

 GradGradGradGradGradGradGradGradGradGradGradGradGradGradGradGradGradGrad
 Berny optimization.
 Internal  Forces:  Max     0.000306856 RMS     0.000095210
 Search for a local minimum.
 Step number   2 out of a maximum of  31 on scan point     1 out of    73
 All quantities printed in internal units (Hartrees-Bohrs-Radians)
 Update second derivatives using D2CorX and points  1  2
 Trust test= 1.02D+00 RLast= 2.71D-02 DXMaxT set to 3.00D-01
     Eigenvalues ---    0.01578   0.04669   0.05382   0.11136   0.12585
     Eigenvalues ---    0.13818   0.15362   0.24166   0.32066   0.33953
     Eigenvalues ---    0.34013   0.34874   0.39018   0.766151000.00000
     Eigenvalues --- 1000.000001000.000001000.000001000.000001000.00000
     Eigenvalues --- 1000.00000
 RFO step:  Lambda=-1.85374757D-07.
 Quartic linear search produced a step of  0.02856.
 Iteration  1 RMS(Cart)=  0.00045814 RMS(Int)=  0.00000019
 Iteration  2 RMS(Cart)=  0.00000016 RMS(Int)=  0.00000006
 Iteration  1 RMS(Cart)=  0.00009853 RMS(Int)=  0.00012955
 Iteration  2 RMS(Cart)=  0.00004746 RMS(Int)=  0.00014482
 Iteration  3 RMS(Cart)=  0.00002286 RMS(Int)=  0.00016119
 Iteration  4 RMS(Cart)=  0.00001101 RMS(Int)=  0.00017055
 Iteration  5 RMS(Cart)=  0.00000530 RMS(Int)=  0.00017534
 Iteration  6 RMS(Cart)=  0.00000255 RMS(Int)=  0.00017771
 Iteration  7 RMS(Cart)=  0.00000123 RMS(Int)=  0.00017886
 Iteration  8 RMS(Cart)=  0.00000059 RMS(Int)=  0.00017942
 Variable       Old X    -DE/DX   Delta X   Delta X   Delta X     New X
                                 (Linear)    (Quad)   (Total)
    R1        2.37806   0.00021   0.00031  -0.00014   0.00017   2.37823
    R2        2.37500   0.00031   0.00036   0.00008   0.00045   2.37545
    R3        2.81973   0.00004   0.00023  -0.00011   0.00011   2.81984
    R4        2.06459   0.00001   0.00004   0.00003  -0.00002   2.06456
    R5        2.06459   0.00001   0.00004   0.00003  -0.00002   2.06456
    R6        2.06105   0.00001   0.00003  -0.00004   0.00000   2.06104
    A1        1.90876   0.00002   0.00007  -0.00009   0.00010   1.90886
    A2        1.90876   0.00002   0.00007  -0.00005   0.00010   1.90886
    A3        1.92450  -0.00002   0.00002   0.00005  -0.00007   1.92443
    A4        1.88779  -0.00007  -0.00011  -0.00092  -0.00010   1.88769
    A5        1.91680   0.00003  -0.00003   0.00048  -0.00001   1.91679
    A6        1.91680   0.00003  -0.00003   0.00052  -0.00001   1.91679
    A7        1.94863   0.00015   0.00043   0.00009   0.00052   1.94915
    A8        2.16465  -0.00009  -0.00014  -0.00008  -0.00022   2.16443
    A9        2.16990  -0.00007  -0.00029  -0.00001  -0.00030   2.16960
    D1       -1.03216   0.00003   0.00002   0.00000   0.00000  -1.03215
    D2        2.10943   0.00003   0.00002  -0.00005   0.00000   2.10944
    D3        1.03216  -0.00003  -0.00002  -0.00121   0.00000   1.03215
    D4       -2.10943  -0.00003  -0.00002  -0.00125   0.00000  -2.10944
    D5        3.14159   0.00000   0.00000  -0.00056   0.00000   3.14159
    D6        0.00000   0.00000   0.00000  -0.00061   0.00000   0.00000
         Item               Value     Threshold  Converged?
 Maximum Force            0.000307     0.000450     YES
 RMS     Force            0.000097     0.000300     YES
 Maximum Displacement     0.000724     0.001800     YES
 RMS     Displacement     0.000259     0.001200     YES
 Predicted change in Energy=-1.558421D-07
 Optimization completed.
    -- Stationary point found.
                           ----------------------------
                           !   Optimized Parameters   !
                           ! (Angstroms and Degrees)  !
 --------------------------                            --------------------------
 ! Name  Definition              Value          Derivative Info.                !
 --------------------------------------------------------------------------------
 ! R1    R(1,4)                  1.2584         -DE/DX =    0.0002              !
 ! R2    R(2,4)                  1.2568         -DE/DX =    0.0003              !
 ! R3    R(3,4)                  1.4921         -DE/DX =    0.0                 !
 ! R4    R(3,5)                  1.0925         -DE/DX =    0.0                 !
 ! R5    R(3,6)                  1.0925         -DE/DX =    0.0                 !
 ! R6    R(3,7)                  1.0907         -DE/DX =    0.0                 !
 ! A1    A(4,3,5)              109.3638         -DE/DX =    0.0                 !
 ! A2    A(4,3,6)              109.3638         -DE/DX =    0.0                 !
 ! A3    A(4,3,7)              110.266          -DE/DX =    0.0                 !
 ! A4    A(5,3,6)              108.1625         -DE/DX =   -0.0001              !
 ! A5    A(5,3,7)              109.8247         -DE/DX =    0.0                 !
 ! A6    A(6,3,7)              109.8247         -DE/DX =    0.0                 !
 ! A7    A(1,4,2)              111.6485         -DE/DX =    0.0002              !
 ! A8    A(1,4,3)              124.0253         -DE/DX =   -0.0001              !
 ! A9    A(2,4,3)              124.3262         -DE/DX =   -0.0001              !
 ! D1    D(5,3,4,1)            -59.1383         -DE/DX =    0.0                 !
 ! D2    D(5,3,4,2)            120.8617         -DE/DX =    0.0                 !
 ! D3    D(6,3,4,1)             59.1383         -DE/DX =    0.0                 !
 ! D4    D(6,3,4,2)           -120.8617         -DE/DX =    0.0                 !
 ! D5    D(7,3,4,1)            180.0            -DE/DX =    0.0                 !
 ! D6    D(7,3,4,2)              0.0            -DE/DX =    0.0                 !
 --------------------------------------------------------------------------------
 Iteration  1 RMS(Cart)=  0.00995594 RMS(Int)=  0.01308951
 Iteration  2 RMS(Cart)=  0.00018918 RMS(Int)=  0.01308843
 Iteration  3 RMS(Cart)=  0.00000351 RMS(Int)=  0.01308843
 Iteration  4 RMS(Cart)=  0.00000006 RMS(Int)=  0.01308843
 Iteration  1 RMS(Cart)=  0.00477166 RMS(Int)=  0.00629992
 Iteration  2 RMS(Cart)=  0.00229317 RMS(Int)=  0.00704159
 Iteration  3 RMS(Cart)=  0.00110276 RMS(Int)=  0.00783690
 Iteration  4 RMS(Cart)=  0.00053045 RMS(Int)=  0.00829153
 Iteration  5 RMS(Cart)=  0.00025519 RMS(Int)=  0.00852392
 Iteration  6 RMS(Cart)=  0.00012278 RMS(Int)=  0.00863860
 Iteration  7 RMS(Cart)=  0.00005907 RMS(Int)=  0.00869440
 Iteration  8 RMS(Cart)=  0.00002842 RMS(Int)=  0.00872140
 Iteration  9 RMS(Cart)=  0.00001367 RMS(Int)=  0.00873442
 Iteration 10 RMS(Cart)=  0.00000658 RMS(Int)=  0.00874069
 Iteration 11 RMS(Cart)=  0.00000317 RMS(Int)=  0.00874371
 Iteration 12 RMS(Cart)=  0.00000152 RMS(Int)=  0.00874516
 Iteration 13 RMS(Cart)=  0.00000073 RMS(Int)=  0.00874586
 GradGradGradGradGradGradGradGradGradGradGradGradGradGradGradGradGradGrad

                          Input orientation:                          
 ---------------------------------------------------------------------
 Center     Atomic     Atomic              Coordinates (Angstroms)
 Number     Number      Type              X           Y           Z
 ---------------------------------------------------------------------
    1          8             0       -0.797564   -1.046407    0.023086
    2          8             0       -0.825283    1.034418   -0.011528
    3          6             0        1.386680    0.020896    0.004827
    4          6             0       -0.105311    0.003996   -0.014176
    5          1             0        1.745353   -0.540420    0.870857
    6          1             0        1.750717   -0.509741   -0.878068
    7          1             0        1.768150    1.042670    0.005003
 ---------------------------------------------------------------------
                    Distance matrix (angstroms):
                    1          2          3          4          5
     1  O    0.000000
     2  O    2.081298   0.000000
     3  C    2.431130   2.433161   0.000000
     4  C    1.258551   1.257034   1.492208   0.000000
     5  H    2.727850   3.141160   1.092580   2.122412   0.000000
     6  H    2.755690   3.125875   1.092521   2.110705   1.749202
     7  H    3.308695   2.593498   1.090661   2.142211   1.804549
                    6          7
     6  H    0.000000
     7  H    1.786085   0.000000
 Stoichiometry    C2H3O2(2)
 Framework group  C1[X(C2H3O2)]
 Deg. of freedom    15
 Full point group                 C1
 Omega: Change in point group or standard orientation.

 Old FWG=CS   [SG(C2H1O2),X(H2)]
 New FWG=C01  [X(C2H3O2)]
 Largest Abelian subgroup         C1      NOp   1
 Largest concise Abelian subgroup C1      NOp   1
                         Standard orientation:                         
 ---------------------------------------------------------------------
 Center     Atomic     Atomic              Coordinates (Angstroms)
 Number     Number      Type              X           Y           Z
 ---------------------------------------------------------------------
    1          8             0        0.798866   -1.046379   -0.002772
    2          8             0        0.822060    1.034788   -0.004688
    3          6             0       -1.387693    0.016328   -0.005461
    4          6             0        0.104311    0.003009    0.015337
    5          1             0       -1.744251   -0.560891   -0.861857
    6          1             0       -1.751506   -0.499511    0.886252
    7          1             0       -1.771365    1.037109   -0.023969
 ---------------------------------------------------------------------
 Rotational constants (GHZ):     13.3555455      9.2460164      5.6523361
 Standard basis: 6-311+G(d,p) (5D, 7F)
 There are   106 symmetry adapted basis functions of A   symmetry.
 Integral buffers will be    131072 words long.
 Raffenetti 2 integral format.
 Two-electron integral symmetry is turned on.
   106 basis functions,   168 primitive gaussians,   110 cartesian basis functions
    16 alpha electrons       15 beta electrons
       nuclear repulsion energy       113.1149425421 Hartrees.
 NAtoms=    7 NActive=    7 NUniq=    7 SFac= 7.50D-01 NAtFMM=   80 NAOKFM=F Big=F
 One-electron integrals computed using PRISM.
 NBasis=   106 RedAO= T  NBF=   106
 NBsUse=   106 1.00D-06 NBFU=   106
 Initial guess read from the read-write file:
 Initial guess orbital symmetries:
 Alpha Orbitals:
       Occupied  (A) (A) (A) (A) (A) (A) (A) (A) (A) (A) (A) (A)
                 (A) (A) (A) (A)
       Virtual   (A) (A) (A) (A) (A) (A) (A) (A) (A) (A) (A) (A)
                 (A) (A) (A) (A) (A) (A) (A) (A) (A) (A) (A) (A)
                 (A) (A) (A) (A) (A) (A) (A) (A) (A) (A) (A) (A)
                 (A) (A) (A) (A) (A) (A) (A) (A) (A) (A) (A) (A)
                 (A) (A) (A) (A) (A) (A) (A) (A) (A) (A) (A) (A)
                 (A) (A) (A) (A) (A) (A) (A) (A) (A) (A) (A) (A)
                 (A) (A) (A) (A) (A) (A) (A) (A) (A) (A) (A) (A)
                 (A) (A) (A) (A) (A) (A)
 Beta  Orbitals:
       Occupied  (A) (A) (A) (A) (A) (A) (A) (A) (A) (A) (A) (A)
                 (A) (A) (A)
       Virtual   (A) (A) (A) (A) (A) (A) (A) (A) (A) (A) (A) (A)
                 (A) (A) (A) (A) (A) (A) (A) (A) (A) (A) (A) (A)
                 (A) (A) (A) (A) (A) (A) (A) (A) (A) (A) (A) (A)
                 (A) (A) (A) (A) (A) (A) (A) (A) (A) (A) (A) (A)
                 (A) (A) (A) (A) (A) (A) (A) (A) (A) (A) (A) (A)
                 (A) (A) (A) (A) (A) (A) (A) (A) (A) (A) (A) (A)
                 (A) (A) (A) (A) (A) (A) (A) (A) (A) (A) (A) (A)
                 (A) (A) (A) (A) (A) (A) (A)
 <S**2> of initial guess= 0.7679
 Harris functional with IExCor=  402 diagonalized for initial guess.
 ExpMin= 4.38D-02 ExpMax= 8.59D+03 ExpMxC= 1.30D+03 IAcc=2 IRadAn=         4 AccDes= 0.00D+00
 HarFok:  IExCor= 402 AccDes= 0.00D+00 IRadAn=         4 IDoV=1
 ScaDFX=  1.000000  1.000000  1.000000  1.000000
 Requested convergence on RMS density matrix=1.00D-08 within 128 cycles.
 Requested convergence on MAX density matrix=1.00D-06.
 Requested convergence on             energy=1.00D-06.
 No special actions if energy rises.
 Keep R1 and R2 integrals in memory in canonical form, NReq=    39149084.
 EnCoef did     6 forward-backward iterations
 SCF Done:  E(UB+HF-LYP) =  -228.485551767     A.U. after   19 cycles
             Convg  =    0.2249D-08             -V/T =  2.0034
             S**2   =   0.7570
 Annihilation of the first spin contaminant:
 S**2 before annihilation     0.7570,   after     0.7500
 QCSCF skips out because SCF is already converged.
 ***** Axes restored to original set *****
 -------------------------------------------------------------------
 Center     Atomic                   Forces (Hartrees/Bohr)
 Number     Number              X              Y              Z
 -------------------------------------------------------------------
    1          8           0.000114087   -0.000012010   -0.002182602
    2          8          -0.000323587    0.000158583   -0.002158296
    3          6          -0.000065609   -0.004011651   -0.004474919
    4          6           0.000376358    0.001089108    0.007465421
    5          1          -0.000486096    0.002434474    0.001595444
    6          1           0.000755340    0.000957597   -0.001522253
    7          1          -0.000370493   -0.000616102    0.001277206
 -------------------------------------------------------------------
 Cartesian Forces:  Max     0.007465421 RMS     0.002364511

 GradGradGradGradGradGradGradGradGradGradGradGradGradGradGradGradGradGrad
 Berny optimization.
 Internal  Forces:  Max     0.003119496 RMS     0.001207030
 Search for a local minimum.
 Step number   1 out of a maximum of  31 on scan point     2 out of    73
 All quantities printed in internal units (Hartrees-Bohrs-Radians)
 Second derivative matrix not updated -- first step.
     Eigenvalues ---    0.01580   0.04664   0.05381   0.11134   0.12579
     Eigenvalues ---    0.13802   0.15361   0.24165   0.32065   0.33952
     Eigenvalues ---    0.34014   0.34874   0.39018   0.766151000.00000
     Eigenvalues --- 1000.000001000.000001000.000001000.000001000.00000
     Eigenvalues --- 1000.00000
 RFO step:  Lambda=-4.99962368D-04.
 Linear search not attempted -- first point.
 Iteration  1 RMS(Cart)=  0.03017418 RMS(Int)=  0.00077239
 Iteration  2 RMS(Cart)=  0.00074049 RMS(Int)=  0.00019372
 Iteration  3 RMS(Cart)=  0.00000047 RMS(Int)=  0.00019372
 Iteration  1 RMS(Cart)=  0.00000194 RMS(Int)=  0.00000257
 Iteration  2 RMS(Cart)=  0.00000093 RMS(Int)=  0.00000287
 Variable       Old X    -DE/DX   Delta X   Delta X   Delta X     New X
                                 (Linear)    (Quad)   (Total)
    R1        2.37832  -0.00012   0.00000  -0.00003  -0.00003   2.37828
    R2        2.37545   0.00031   0.00000   0.00018   0.00018   2.37563
    R3        2.81986  -0.00022   0.00000   0.00004   0.00004   2.81991
    R4        2.06468  -0.00015   0.00000  -0.00050  -0.00050   2.06418
    R5        2.06457   0.00102   0.00000   0.00078   0.00078   2.06535
    R6        2.06105  -0.00071   0.00000  -0.00002  -0.00002   2.06103
    A1        1.90976  -0.00072   0.00000   0.00235   0.00214   1.91190
    A2        1.89375   0.00157   0.00000   0.01184   0.01174   1.90549
    A3        1.93941  -0.00096   0.00000  -0.01434  -0.01443   1.92498
    A4        1.85630   0.00167   0.00000   0.03002   0.02979   1.88609
    A5        1.94589  -0.00113   0.00000  -0.02422  -0.02442   1.92147
    A6        1.91624  -0.00025   0.00000  -0.00283  -0.00281   1.91342
    A7        1.94879  -0.00011   0.00000   0.00047   0.00003   1.94881
    A8        2.16402  -0.00017   0.00000   0.00098   0.00054   2.16455
    A9        2.16924   0.00039   0.00000   0.00101   0.00056   2.16981
    D1       -0.94573  -0.00312   0.00000   0.00000   0.00000  -0.94573
    D2        2.14032  -0.00027   0.00000   0.06003   0.06002   2.20034
    D3        1.07279  -0.00065   0.00000   0.04354   0.04365   1.11644
    D4       -2.12435   0.00219   0.00000   0.10357   0.10367  -2.02068
    D5       -3.10203  -0.00054   0.00000   0.03883   0.03875  -3.06328
    D6       -0.01598   0.00231   0.00000   0.09886   0.09877   0.08279
         Item               Value     Threshold  Converged?
 Maximum Force            0.001726     0.000450     NO 
 RMS     Force            0.000769     0.000300     NO 
 Maximum Displacement     0.080107     0.001800     NO 
 RMS     Displacement     0.030136     0.001200     NO 
 Predicted change in Energy=-2.572345D-04
 GradGradGradGradGradGradGradGradGradGradGradGradGradGradGradGradGradGrad

                          Input orientation:                          
 ---------------------------------------------------------------------
 Center     Atomic     Atomic              Coordinates (Angstroms)
 Number     Number      Type              X           Y           Z
 ---------------------------------------------------------------------
    1          8             0       -0.803508   -1.043645    0.051427
    2          8             0       -0.819675    1.035007   -0.053919
    3          6             0        1.387053    0.010476    0.002770
    4          6             0       -0.105155    0.002166    0.001538
    5          1             0        1.754866   -0.548740    0.865990
    6          1             0        1.749568   -0.484916   -0.901484
    7          1             0        1.759592    1.035064    0.033677
 ---------------------------------------------------------------------
                    Distance matrix (angstroms):
                    1          2          3          4          5
     1  O    0.000000
     2  O    2.081382   0.000000
     3  C    2.431480   2.433624   0.000000
     4  C    1.258534   1.257130   1.492231   0.000000
     5  H    2.730151   3.159549   1.092317   2.123783   0.000000
     6  H    2.781801   3.103151   1.092935   2.119598   1.768634
     7  H    3.300125   2.580754   1.090652   2.131946   1.789190
                    6          7
     6  H    0.000000
     7  H    1.784647   0.000000
 Stoichiometry    C2H3O2(2)
 Framework group  C1[X(C2H3O2)]
 Deg. of freedom    15
 Full point group                 C1
 Largest Abelian subgroup         C1      NOp   1
 Largest concise Abelian subgroup C1      NOp   1
                         Standard orientation:                         
 ---------------------------------------------------------------------
 Center     Atomic     Atomic              Coordinates (Angstroms)
 Number     Number      Type              X           Y           Z
 ---------------------------------------------------------------------
    1          8             0        0.803801   -1.044197    0.000366
    2          8             0        0.817456    1.037141    0.000260
    3          6             0       -1.388036    0.008391   -0.000934
    4          6             0        0.104181    0.001955   -0.001667
    5          1             0       -1.756455   -0.594276   -0.834131
    6          1             0       -1.748527   -0.440997    0.927830
    7          1             0       -1.761940    1.029648   -0.083104
 ---------------------------------------------------------------------
 Rotational constants (GHZ):     13.3548947      9.2380226      5.6531999
 Standard basis: 6-311+G(d,p) (5D, 7F)
 There are   106 symmetry adapted basis functions of A   symmetry.
 Integral buffers will be    131072 words long.
 Raffenetti 2 integral format.
 Two-electron integral symmetry is turned on.
   106 basis functions,   168 primitive gaussians,   110 cartesian basis functions
    16 alpha electrons       15 beta electrons
       nuclear repulsion energy       113.1059792723 Hartrees.
 NAtoms=    7 NActive=    7 NUniq=    7 SFac= 7.50D-01 NAtFMM=   80 NAOKFM=F Big=F
 One-electron integrals computed using PRISM.
 NBasis=   106 RedAO= T  NBF=   106
 NBsUse=   106 1.00D-06 NBFU=   106
 Initial guess read from the read-write file:
 Initial guess orbital symmetries:
 Alpha Orbitals:
       Occupied  (A) (A) (A) (A) (A) (A) (A) (A) (A) (A) (A) (A)
                 (A) (A) (A) (A)
       Virtual   (A) (A) (A) (A) (A) (A) (A) (A) (A) (A) (A) (A)
                 (A) (A) (A) (A) (A) (A) (A) (A) (A) (A) (A) (A)
                 (A) (A) (A) (A) (A) (A) (A) (A) (A) (A) (A) (A)
                 (A) (A) (A) (A) (A) (A) (A) (A) (A) (A) (A) (A)
                 (A) (A) (A) (A) (A) (A) (A) (A) (A) (A) (A) (A)
                 (A) (A) (A) (A) (A) (A) (A) (A) (A) (A) (A) (A)
                 (A) (A) (A) (A) (A) (A) (A) (A) (A) (A) (A) (A)
                 (A) (A) (A) (A) (A) (A)
 Beta  Orbitals:
       Occupied  (A) (A) (A) (A) (A) (A) (A) (A) (A) (A) (A) (A)
                 (A) (A) (A)
       Virtual   (A) (A) (A) (A) (A) (A) (A) (A) (A) (A) (A) (A)
                 (A) (A) (A) (A) (A) (A) (A) (A) (A) (A) (A) (A)
                 (A) (A) (A) (A) (A) (A) (A) (A) (A) (A) (A) (A)
                 (A) (A) (A) (A) (A) (A) (A) (A) (A) (A) (A) (A)
                 (A) (A) (A) (A) (A) (A) (A) (A) (A) (A) (A) (A)
                 (A) (A) (A) (A) (A) (A) (A) (A) (A) (A) (A) (A)
                 (A) (A) (A) (A) (A) (A) (A) (A) (A) (A) (A) (A)
                 (A) (A) (A) (A) (A) (A) (A)
 <S**2> of initial guess= 0.7569
 Harris functional with IExCor=  402 diagonalized for initial guess.
 ExpMin= 4.38D-02 ExpMax= 8.59D+03 ExpMxC= 1.30D+03 IAcc=2 IRadAn=         4 AccDes= 0.00D+00
 HarFok:  IExCor= 402 AccDes= 0.00D+00 IRadAn=         4 IDoV=1
 ScaDFX=  1.000000  1.000000  1.000000  1.000000
 Requested convergence on RMS density matrix=1.00D-08 within 128 cycles.
 Requested convergence on MAX density matrix=1.00D-06.
 Requested convergence on             energy=1.00D-06.
 No special actions if energy rises.
 Keep R1 and R2 integrals in memory in canonical form, NReq=    39149084.
 SCF Done:  E(UB+HF-LYP) =  -228.485809937     A.U. after   15 cycles
             Convg  =    0.7623D-08             -V/T =  2.0034
             S**2   =   0.7569
 Annihilation of the first spin contaminant:
 S**2 before annihilation     0.7569,   after     0.7500
 QCSCF skips out because SCF is already converged.
 ***** Axes restored to original set *****
 -------------------------------------------------------------------
 Center     Atomic                   Forces (Hartrees/Bohr)
 Number     Number              X              Y              Z
 -------------------------------------------------------------------
    1          8           0.000079884    0.000021629   -0.000042256
    2          8           0.000083268   -0.000033129   -0.000074504
    3          6          -0.000000626   -0.000127229   -0.000222628
    4          6          -0.000101825    0.000029802    0.000218041
    5          1          -0.000030844    0.000083895    0.000035970
    6          1          -0.000022809    0.000034213    0.000002920
    7          1          -0.000007047   -0.000009182    0.000082457
 -------------------------------------------------------------------
 Cartesian Forces:  Max     0.000222628 RMS     0.000088555

 GradGradGradGradGradGradGradGradGradGradGradGradGradGradGradGradGradGrad
 Berny optimization.
 Internal  Forces:  Max     0.000094267 RMS     0.000050621
 Search for a local minimum.
 Step number   2 out of a maximum of  31 on scan point     2 out of    73
 All quantities printed in internal units (Hartrees-Bohrs-Radians)
 Update second derivatives using D2CorX and points  1  2
 Trust test= 1.00D+00 RLast= 1.71D-01 DXMaxT set to 4.24D-01
     Eigenvalues ---    0.01569   0.04659   0.05382   0.11135   0.12585
     Eigenvalues ---    0.13809   0.15363   0.24177   0.32061   0.33957
     Eigenvalues ---    0.34019   0.34873   0.39021   0.766211000.00000
     Eigenvalues --- 1000.000001000.000001000.000001000.000001000.00000
     Eigenvalues --- 1000.00000
 RFO step:  Lambda=-1.50699331D-07.
 Quartic linear search produced a step of  0.03711.
 Iteration  1 RMS(Cart)=  0.00115478 RMS(Int)=  0.00000752
 Iteration  2 RMS(Cart)=  0.00000112 RMS(Int)=  0.00000744
 Iteration  3 RMS(Cart)=  0.00000000 RMS(Int)=  0.00000744
 Iteration  1 RMS(Cart)=  0.00000049 RMS(Int)=  0.00000066
 Variable       Old X    -DE/DX   Delta X   Delta X   Delta X     New X
                                 (Linear)    (Quad)   (Total)
    R1        2.37828  -0.00006   0.00000  -0.00010  -0.00010   2.37818
    R2        2.37563  -0.00007   0.00001  -0.00014  -0.00013   2.37550
    R3        2.81991  -0.00006   0.00000  -0.00010  -0.00010   2.81981
    R4        2.06418  -0.00002  -0.00002  -0.00002  -0.00004   2.06414
    R5        2.06535  -0.00003   0.00003  -0.00021  -0.00018   2.06517
    R6        2.06103  -0.00001   0.00000   0.00004   0.00004   2.06107
    A1        1.91190  -0.00005   0.00008  -0.00026  -0.00019   1.91171
    A2        1.90549   0.00002   0.00044  -0.00012   0.00031   1.90580
    A3        1.92498  -0.00002  -0.00054   0.00013  -0.00041   1.92457
    A4        1.88609   0.00006   0.00111   0.00001   0.00111   1.88720
    A5        1.92147  -0.00004  -0.00091  -0.00031  -0.00122   1.92025
    A6        1.91342   0.00003  -0.00010   0.00054   0.00044   1.91386
    A7        1.94881   0.00008   0.00000   0.00036   0.00035   1.94916
    A8        2.16455  -0.00004   0.00002  -0.00018  -0.00018   2.16438
    A9        2.16981  -0.00004   0.00002  -0.00018  -0.00018   2.16963
    D1       -0.94573  -0.00008   0.00000   0.00000   0.00000  -0.94573
    D2        2.20034   0.00000   0.00223  -0.00004   0.00219   2.20253
    D3        1.11644  -0.00002   0.00162  -0.00020   0.00142   1.11786
    D4       -2.02068   0.00006   0.00385  -0.00024   0.00361  -2.01707
    D5       -3.06328   0.00001   0.00144   0.00047   0.00191  -3.06137
    D6        0.08279   0.00009   0.00367   0.00043   0.00410   0.08688
         Item               Value     Threshold  Converged?
 Maximum Force            0.000083     0.000450     YES
 RMS     Force            0.000045     0.000300     YES
 Maximum Displacement     0.003021     0.001800     NO 
 RMS     Displacement     0.001155     0.001200     YES
 Predicted change in Energy=-4.022182D-07
 GradGradGradGradGradGradGradGradGradGradGradGradGradGradGradGradGradGrad

                          Input orientation:                          
 ---------------------------------------------------------------------
 Center     Atomic     Atomic              Coordinates (Angstroms)
 Number     Number      Type              X           Y           Z
 ---------------------------------------------------------------------
    1          8             0       -0.803434   -1.043640    0.052553
    2          8             0       -0.819280    1.035021   -0.055517
    3          6             0        1.387017    0.010165    0.002530
    4          6             0       -0.105139    0.002118    0.002071
    5          1             0        1.754978   -0.548955    0.865720
    6          1             0        1.749264   -0.484104   -0.902331
    7          1             0        1.759337    1.034808    0.034975
 ---------------------------------------------------------------------
                    Distance matrix (angstroms):
                    1          2          3          4          5
     1  O    0.000000
     2  O    2.081528   0.000000
     3  C    2.431271   2.433402   0.000000
     4  C    1.258481   1.257061   1.492177   0.000000
     5  H    2.729730   3.159820   1.092295   2.123583   0.000000
     6  H    2.782292   3.101976   1.092840   2.119709   1.769250
     7  H    3.299704   2.580204   1.090673   2.131620   1.788424
                    6          7
     6  H    0.000000
     7  H    1.784864   0.000000
 Stoichiometry    C2H3O2(2)
 Framework group  C1[X(C2H3O2)]
 Deg. of freedom    15
 Full point group                 C1
 Largest Abelian subgroup         C1      NOp   1
 Largest concise Abelian subgroup C1      NOp   1
                         Standard orientation:                         
 ---------------------------------------------------------------------
 Center     Atomic     Atomic              Coordinates (Angstroms)
 Number     Number      Type              X           Y           Z
 ---------------------------------------------------------------------
    1          8             0        0.803851   -1.044180    0.000450
    2          8             0        0.817143    1.037305    0.000453
    3          6             0       -1.387897    0.008111   -0.000683
    4          6             0        0.104266    0.001930   -0.002266
    5          1             0       -1.756490   -0.595513   -0.833081
    6          1             0       -1.748064   -0.438967    0.929210
    7          1             0       -1.761612    1.029231   -0.085656
 ---------------------------------------------------------------------
 Rotational constants (GHZ):     13.3531489      9.2401475      5.6538443
 Standard basis: 6-311+G(d,p) (5D, 7F)
 There are   106 symmetry adapted basis functions of A   symmetry.
 Integral buffers will be    131072 words long.
 Raffenetti 2 integral format.
 Two-electron integral symmetry is turned on.
   106 basis functions,   168 primitive gaussians,   110 cartesian basis functions
    16 alpha electrons       15 beta electrons
       nuclear repulsion energy       113.1105200972 Hartrees.
 NAtoms=    7 NActive=    7 NUniq=    7 SFac= 7.50D-01 NAtFMM=   80 NAOKFM=F Big=F
 One-electron integrals computed using PRISM.
 NBasis=   106 RedAO= T  NBF=   106
 NBsUse=   106 1.00D-06 NBFU=   106
 Initial guess read from the read-write file:
 Initial guess orbital symmetries:
 Alpha Orbitals:
       Occupied  (A) (A) (A) (A) (A) (A) (A) (A) (A) (A) (A) (A)
                 (A) (A) (A) (A)
       Virtual   (A) (A) (A) (A) (A) (A) (A) (A) (A) (A) (A) (A)
                 (A) (A) (A) (A) (A) (A) (A) (A) (A) (A) (A) (A)
                 (A) (A) (A) (A) (A) (A) (A) (A) (A) (A) (A) (A)
                 (A) (A) (A) (A) (A) (A) (A) (A) (A) (A) (A) (A)
                 (A) (A) (A) (A) (A) (A) (A) (A) (A) (A) (A) (A)
                 (A) (A) (A) (A) (A) (A) (A) (A) (A) (A) (A) (A)
                 (A) (A) (A) (A) (A) (A) (A) (A) (A) (A) (A) (A)
                 (A) (A) (A) (A) (A) (A)
 Beta  Orbitals:
       Occupied  (A) (A) (A) (A) (A) (A) (A) (A) (A) (A) (A) (A)
                 (A) (A) (A)
       Virtual   (A) (A) (A) (A) (A) (A) (A) (A) (A) (A) (A) (A)
                 (A) (A) (A) (A) (A) (A) (A) (A) (A) (A) (A) (A)
                 (A) (A) (A) (A) (A) (A) (A) (A) (A) (A) (A) (A)
                 (A) (A) (A) (A) (A) (A) (A) (A) (A) (A) (A) (A)
                 (A) (A) (A) (A) (A) (A) (A) (A) (A) (A) (A) (A)
                 (A) (A) (A) (A) (A) (A) (A) (A) (A) (A) (A) (A)
                 (A) (A) (A) (A) (A) (A) (A) (A) (A) (A) (A) (A)
                 (A) (A) (A) (A) (A) (A) (A)
 <S**2> of initial guess= 0.7569
 Requested convergence on RMS density matrix=1.00D-08 within 128 cycles.
 Requested convergence on MAX density matrix=1.00D-06.
 Requested convergence on             energy=1.00D-06.
 No special actions if energy rises.
 Keep R1 and R2 integrals in memory in canonical form, NReq=    39149084.
 SCF Done:  E(UB+HF-LYP) =  -228.485810304     A.U. after   11 cycles
             Convg  =    0.2385D-08             -V/T =  2.0034
             S**2   =   0.7569
 Annihilation of the first spin contaminant:
 S**2 before annihilation     0.7569,   after     0.7500
 QCSCF skips out because SCF is already converged.
 ***** Axes restored to original set *****
 -------------------------------------------------------------------
 Center     Atomic                   Forces (Hartrees/Bohr)
 Number     Number              X              Y              Z
 -------------------------------------------------------------------
    1          8           0.000000323    0.000001138    0.000035456
    2          8           0.000000398    0.000001066    0.000000536
    3          6          -0.000000313    0.000031863    0.000036241
    4          6          -0.000001962   -0.000009422   -0.000049375
    5          1           0.000001412   -0.000023237   -0.000016122
    6          1          -0.000002004   -0.000001829   -0.000000607
    7          1           0.000002145    0.000000420   -0.000006128
 -------------------------------------------------------------------
 Cartesian Forces:  Max     0.000049375 RMS     0.000018220

 GradGradGradGradGradGradGradGradGradGradGradGradGradGradGradGradGradGrad
 Berny optimization.
 Internal  Forces:  Max     0.000031155 RMS     0.000009486
 Search for a local minimum.
 Step number   3 out of a maximum of  31 on scan point     2 out of    73
 All quantities printed in internal units (Hartrees-Bohrs-Radians)
 Update second derivatives using D2CorX and points  1  2  3
 Trust test= 9.11D-01 RLast= 6.61D-03 DXMaxT set to 4.24D-01
     Eigenvalues ---    0.01574   0.04663   0.05396   0.11126   0.12589
     Eigenvalues ---    0.13812   0.15357   0.24141   0.32066   0.33957
     Eigenvalues ---    0.34017   0.34883   0.39020   0.766351000.00000
     Eigenvalues --- 1000.000001000.000001000.000001000.000001000.00000
     Eigenvalues --- 1000.00000
 RFO step:  Lambda= 0.00000000D+00.
 Quartic linear search produced a step of -0.01405.
 Iteration  1 RMS(Cart)=  0.00002002 RMS(Int)=  0.00000000
 Iteration  2 RMS(Cart)=  0.00000000 RMS(Int)=  0.00000000
 Iteration  1 RMS(Cart)=  0.00000024 RMS(Int)=  0.00000032
 Variable       Old X    -DE/DX   Delta X   Delta X   Delta X     New X
                                 (Linear)    (Quad)   (Total)
    R1        2.37818   0.00000   0.00000   0.00000   0.00000   2.37818
    R2        2.37550   0.00000   0.00000   0.00000   0.00000   2.37550
    R3        2.81981   0.00000   0.00000   0.00000   0.00000   2.81981
    R4        2.06414   0.00000   0.00000   0.00000   0.00000   2.06414
    R5        2.06517   0.00000   0.00000   0.00000   0.00000   2.06517
    R6        2.06107   0.00000   0.00000   0.00000   0.00000   2.06108
    A1        1.91171   0.00000   0.00000   0.00000   0.00000   1.91171
    A2        1.90580  -0.00001   0.00000  -0.00001  -0.00001   1.90579
    A3        1.92457   0.00001   0.00001   0.00002   0.00002   1.92459
    A4        1.88720  -0.00001  -0.00002   0.00001   0.00000   1.88719
    A5        1.92025   0.00001   0.00002   0.00000   0.00002   1.92026
    A6        1.91386   0.00000  -0.00001  -0.00001  -0.00002   1.91384
    A7        1.94916   0.00000   0.00000   0.00001   0.00000   1.94917
    A8        2.16438   0.00000   0.00000  -0.00001  -0.00001   2.16437
    A9        2.16963   0.00000   0.00000   0.00000   0.00000   2.16963
    D1       -0.94573   0.00003   0.00000   0.00000   0.00000  -0.94572
    D2        2.20253   0.00001  -0.00003  -0.00001  -0.00004   2.20249
    D3        1.11786   0.00001  -0.00002   0.00001  -0.00001   1.11785
    D4       -2.01707  -0.00001  -0.00005   0.00000  -0.00005  -2.01712
    D5       -3.06137   0.00001  -0.00003   0.00000  -0.00003  -3.06140
    D6        0.08688  -0.00001  -0.00006  -0.00001  -0.00007   0.08681
         Item               Value     Threshold  Converged?
 Maximum Force            0.000002     0.000450     YES
 RMS     Force            0.000001     0.000300     YES
 Maximum Displacement     0.000046     0.001800     YES
 RMS     Displacement     0.000020     0.001200     YES
 Predicted change in Energy=-1.666080D-10
 Optimization completed.
    -- Stationary point found.
                           ----------------------------
                           !   Optimized Parameters   !
                           ! (Angstroms and Degrees)  !
 --------------------------                            --------------------------
 ! Name  Definition              Value          Derivative Info.                !
 --------------------------------------------------------------------------------
 ! R1    R(1,4)                  1.2585         -DE/DX =    0.0                 !
 ! R2    R(2,4)                  1.2571         -DE/DX =    0.0                 !
 ! R3    R(3,4)                  1.4922         -DE/DX =    0.0                 !
 ! R4    R(3,5)                  1.0923         -DE/DX =    0.0                 !
 ! R5    R(3,6)                  1.0928         -DE/DX =    0.0                 !
 ! R6    R(3,7)                  1.0907         -DE/DX =    0.0                 !
 ! A1    A(4,3,5)              109.5329         -DE/DX =    0.0                 !
 ! A2    A(4,3,6)              109.1944         -DE/DX =    0.0                 !
 ! A3    A(4,3,7)              110.2696         -DE/DX =    0.0                 !
 ! A4    A(5,3,6)              108.1284         -DE/DX =    0.0                 !
 ! A5    A(5,3,7)              110.0221         -DE/DX =    0.0                 !
 ! A6    A(6,3,7)              109.6562         -DE/DX =    0.0                 !
 ! A7    A(1,4,2)              111.6789         -DE/DX =    0.0                 !
 ! A8    A(1,4,3)              124.0096         -DE/DX =    0.0                 !
 ! A9    A(2,4,3)              124.3106         -DE/DX =    0.0                 !
 ! D1    D(5,3,4,1)            -54.1861         -DE/DX =    0.0                 !
 ! D2    D(5,3,4,2)            126.1957         -DE/DX =    0.0                 !
 ! D3    D(6,3,4,1)             64.0487         -DE/DX =    0.0                 !
 ! D4    D(6,3,4,2)           -115.5696         -DE/DX =    0.0                 !
 ! D5    D(7,3,4,1)           -175.4037         -DE/DX =    0.0                 !
 ! D6    D(7,3,4,2)              4.9781         -DE/DX =    0.0                 !
 --------------------------------------------------------------------------------
 Iteration  1 RMS(Cart)=  0.00994092 RMS(Int)=  0.01320913
 Iteration  2 RMS(Cart)=  0.00019695 RMS(Int)=  0.01320801
 Iteration  3 RMS(Cart)=  0.00000365 RMS(Int)=  0.01320801
 Iteration  4 RMS(Cart)=  0.00000007 RMS(Int)=  0.01320801
 Iteration  1 RMS(Cart)=  0.00475969 RMS(Int)=  0.00635111
 Iteration  2 RMS(Cart)=  0.00228500 RMS(Int)=  0.00709874
 Iteration  3 RMS(Cart)=  0.00109764 RMS(Int)=  0.00789946
 Iteration  4 RMS(Cart)=  0.00052741 RMS(Int)=  0.00835663
 Iteration  5 RMS(Cart)=  0.00025345 RMS(Int)=  0.00859003
 Iteration  6 RMS(Cart)=  0.00012180 RMS(Int)=  0.00870507
 Iteration  7 RMS(Cart)=  0.00005854 RMS(Int)=  0.00876099
 Iteration  8 RMS(Cart)=  0.00002813 RMS(Int)=  0.00878801
 Iteration  9 RMS(Cart)=  0.00001352 RMS(Int)=  0.00880103
 Iteration 10 RMS(Cart)=  0.00000650 RMS(Int)=  0.00880729
 Iteration 11 RMS(Cart)=  0.00000312 RMS(Int)=  0.00881030
 Iteration 12 RMS(Cart)=  0.00000150 RMS(Int)=  0.00881175
 Iteration 13 RMS(Cart)=  0.00000072 RMS(Int)=  0.00881245
 GradGradGradGradGradGradGradGradGradGradGradGradGradGradGradGradGradGrad

                          Input orientation:                          
 ---------------------------------------------------------------------
 Center     Atomic     Atomic              Coordinates (Angstroms)
 Number     Number      Type              X           Y           Z
 ---------------------------------------------------------------------
    1          8             0       -0.797928   -1.043832    0.075506
    2          8             0       -0.825013    1.032455   -0.067344
    3          6             0        1.386652    0.020747    0.007921
    4          6             0       -0.105302    0.003289   -0.012215
    5          1             0        1.748511   -0.572206    0.850952
    6          1             0        1.748152   -0.477232   -0.895205
    7          1             0        1.767669    1.042192    0.040385
 ---------------------------------------------------------------------
                    Distance matrix (angstroms):
                    1          2          3          4          5
     1  O    0.000000
     2  O    2.081372   0.000000
     3  C    2.431108   2.433246   0.000000
     4  C    1.258526   1.257063   1.492192   0.000000
     5  H    2.703350   3.168791   1.092354   2.124353   0.000000
     6  H    2.783135   3.096077   1.092841   2.108522   1.748739
     7  H    3.306814   2.594938   1.090677   2.142454   1.806562
                    6          7
     6  H    0.000000
     7  H    1.784477   0.000000
 Stoichiometry    C2H3O2(2)
 Framework group  C1[X(C2H3O2)]
 Deg. of freedom    15
 Full point group                 C1
 Largest Abelian subgroup         C1      NOp   1
 Largest concise Abelian subgroup C1      NOp   1
                         Standard orientation:                         
 ---------------------------------------------------------------------
 Center     Atomic     Atomic              Coordinates (Angstroms)
 Number     Number      Type              X           Y           Z
 ---------------------------------------------------------------------
[...]
           A9         124.29671 124.30336 124.34777
           D1         -69.18606 -64.18603 -59.18606
           D2         110.07432 115.42156 120.79924
           D3          49.06666  54.01640  58.99969
           D4        -131.67295-126.37600-121.01501
           D5         170.61381 175.26122 179.92091
           D6         -10.12580  -5.13119  -0.09378
                          Input orientation:                          
 ---------------------------------------------------------------------
 Center     Atomic     Atomic              Coordinates (Angstroms)
 Number     Number      Type              X           Y           Z
 ---------------------------------------------------------------------
    1          8             0       -0.810515    0.854737   -0.583957
    2          8             0       -0.812154   -0.874865    0.574141
    3          6             0        1.387063   -0.000413    0.006423
    4          6             0       -0.105081   -0.008536   -0.000105
    5          1             0        1.753316   -0.052381   -1.021611
    6          1             0        1.742374    0.934285    0.446638
    7          1             0        1.767738   -0.847415    0.578470
 ---------------------------------------------------------------------
                    Distance matrix (angstroms):
                    1          2          3          4          5
     1  O    0.000000
     2  O    2.081518   0.000000
     3  C    2.430880   2.433829   0.000000
     4  C    1.258476   1.257074   1.492180   0.000000
     5  H    2.754566   3.131220   1.092564   2.121093   0.000000
     6  H    2.754214   3.132873   1.092564   2.121693   1.769007
     7  H    3.300900   2.580041   1.090671   2.132115   1.786770
                    6          7
     6  H    0.000000
     7  H    1.786750   0.000000
 Stoichiometry    C2H3O2(2)
 Framework group  C1[X(C2H3O2)]
 Deg. of freedom    15
 Full point group                 C1
 Largest Abelian subgroup         C1      NOp   1
 Largest concise Abelian subgroup C1      NOp   1
                         Standard orientation:                         
 ---------------------------------------------------------------------
 Center     Atomic     Atomic              Coordinates (Angstroms)
 Number     Number      Type              X           Y           Z
 ---------------------------------------------------------------------
    1          8             0       -0.802595   -1.044783    0.000000
    2          8             0       -0.818413    1.036675    0.000010
    3          6             0        1.387903    0.009207   -0.000017
    4          6             0       -0.104260    0.002160   -0.000093
    5          1             0        1.751812   -0.517123    0.885558
    6          1             0        1.752768   -0.520059   -0.883446
    7          1             0        1.761626    1.033849   -0.001535
 ---------------------------------------------------------------------
 Rotational constants (GHZ):     13.3533730      9.2399672      5.6537956

 **********************************************************************

            Population analysis using the SCF density.

 **********************************************************************

 Orbital symmetries:
 Alpha Orbitals:
       Occupied  (A) (A) (A) (A) (A) (A) (A) (A) (A) (A) (A) (A)
                 (A) (A) (A) (A)
       Virtual   (A) (A) (A) (A) (A) (A) (A) (A) (A) (A) (A) (A)
                 (A) (A) (A) (A) (A) (A) (A) (A) (A) (A) (A) (A)
                 (A) (A) (A) (A) (A) (A) (A) (A) (A) (A) (A) (A)
                 (A) (A) (A) (A) (A) (A) (A) (A) (A) (A) (A) (A)
                 (A) (A) (A) (A) (A) (A) (A) (A) (A) (A) (A) (A)
                 (A) (A) (A) (A) (A) (A) (A) (A) (A) (A) (A) (A)
                 (A) (A) (A) (A) (A) (A) (A) (A) (A) (A) (A) (A)
                 (A) (A) (A) (A) (A) (A)
 Beta  Orbitals:
       Occupied  (A) (A) (A) (A) (A) (A) (A) (A) (A) (A) (A) (A)
                 (A) (A) (A)
       Virtual   (A) (A) (A) (A) (A) (A) (A) (A) (A) (A) (A) (A)
                 (A) (A) (A) (A) (A) (A) (A) (A) (A) (A) (A) (A)
                 (A) (A) (A) (A) (A) (A) (A) (A) (A) (A) (A) (A)
                 (A) (A) (A) (A) (A) (A) (A) (A) (A) (A) (A) (A)
                 (A) (A) (A) (A) (A) (A) (A) (A) (A) (A) (A) (A)
                 (A) (A) (A) (A) (A) (A) (A) (A) (A) (A) (A) (A)
                 (A) (A) (A) (A) (A) (A) (A) (A) (A) (A) (A) (A)
                 (A) (A) (A) (A) (A) (A) (A)
 The electronic state is 2-A.
 Alpha  occ. eigenvalues --  -19.19436 -19.19297 -10.33644 -10.21341  -1.15428
 Alpha  occ. eigenvalues --   -1.03735  -0.78769  -0.57923  -0.53124  -0.50953
 Alpha  occ. eigenvalues --   -0.50606  -0.44293  -0.42898  -0.37055  -0.35390
 Alpha  occ. eigenvalues --   -0.34763
 Alpha virt. eigenvalues --   -0.02988  -0.00641   0.03647   0.04087   0.04147
 Alpha virt. eigenvalues --    0.07203   0.07527   0.08491   0.10713   0.12759
 Alpha virt. eigenvalues --    0.13769   0.18701   0.20953   0.21618   0.21743
 Alpha virt. eigenvalues --    0.21804   0.27343   0.27771   0.28097   0.29174
 Alpha virt. eigenvalues --    0.30843   0.36872   0.40305   0.40456   0.43831
 Alpha virt. eigenvalues --    0.51347   0.53585   0.56030   0.57703   0.62775
 Alpha virt. eigenvalues --    0.67464   0.69136   0.78047   0.84296   0.96643
 Alpha virt. eigenvalues --    1.02593   1.05901   1.07302   1.12556   1.12947
 Alpha virt. eigenvalues --    1.13126   1.23883   1.28992   1.40367   1.40722
 Alpha virt. eigenvalues --    1.43971   1.50118   1.51330   1.52958   1.54832
 Alpha virt. eigenvalues --    1.66562   1.73416   1.81024   1.81809   1.99939
 Alpha virt. eigenvalues --    2.03054   2.17001   2.33356   2.40388   2.44326
 Alpha virt. eigenvalues --    2.46373   2.49767   2.53912   2.62998   2.74133
 Alpha virt. eigenvalues --    2.75738   2.78133   2.82770   2.83147   3.01256
 Alpha virt. eigenvalues --    3.06595   3.18686   3.22154   3.29595   3.53898
 Alpha virt. eigenvalues --    3.57850   3.76222   3.80205   4.00419   4.12283
 Alpha virt. eigenvalues --    4.91658   4.95108   4.98854   5.12948   5.47254
 Alpha virt. eigenvalues --    5.74859  23.77433  23.91199  49.78499  49.91504
  Beta  occ. eigenvalues --  -19.17946 -19.17803 -10.33762 -10.21346  -1.12637
  Beta  occ. eigenvalues --   -1.00106  -0.78484  -0.56605  -0.50220  -0.49657
  Beta  occ. eigenvalues --   -0.49324  -0.43609  -0.42418  -0.33024  -0.31341
  Beta virt. eigenvalues --   -0.19563  -0.02660  -0.00590   0.03744   0.04188
  Beta virt. eigenvalues --    0.04196   0.07351   0.07776   0.08504   0.10796
  Beta virt. eigenvalues --    0.12800   0.13888   0.18832   0.21121   0.21800
  Beta virt. eigenvalues --    0.21884   0.22065   0.27512   0.28221   0.28749
  Beta virt. eigenvalues --    0.29555   0.31273   0.37296   0.40315   0.41168
  Beta virt. eigenvalues --    0.44339   0.52220   0.53410   0.56021   0.57970
  Beta virt. eigenvalues --    0.62876   0.67807   0.69291   0.78117   0.84610
  Beta virt. eigenvalues --    0.96711   1.03352   1.07047   1.08063   1.13745
  Beta virt. eigenvalues --    1.15373   1.15899   1.24490   1.28905   1.40372
  Beta virt. eigenvalues --    1.40733   1.45188   1.50463   1.51367   1.53692
  Beta virt. eigenvalues --    1.55394   1.67140   1.73850   1.81091   1.81852
  Beta virt. eigenvalues --    2.00523   2.03281   2.17104   2.34311   2.40471
  Beta virt. eigenvalues --    2.44390   2.46602   2.49807   2.54253   2.63437
  Beta virt. eigenvalues --    2.78866   2.79044   2.80849   2.85894   2.86179
  Beta virt. eigenvalues --    3.02128   3.07959   3.20484   3.22903   3.30801
  Beta virt. eigenvalues --    3.55422   3.61398   3.76238   3.80423   4.02018
  Beta virt. eigenvalues --    4.12732   4.93012   5.00164   5.00995   5.18472
  Beta virt. eigenvalues --    5.48846   5.76343  23.77308  23.91193  49.79995
  Beta virt. eigenvalues --   49.92999
          Condensed to atoms (all electrons):
              1          2          3          4          5          6
     1  O    8.047070  -0.082670  -0.118978   0.300978  -0.002844  -0.002825
     2  O   -0.082670   8.014038  -0.109778   0.327483   0.001995   0.002048
     3  C   -0.118978  -0.109778   5.242123   0.171444   0.397880   0.398019
     4  C    0.300978   0.327483   0.171444   5.142998  -0.030547  -0.030664
     5  H   -0.002844   0.001995   0.397880  -0.030547   0.495024  -0.021088
     6  H   -0.002825   0.002048   0.398019  -0.030664  -0.021088   0.494998
     7  H    0.010725   0.003597   0.416034  -0.054734  -0.020842  -0.020881
              7
     1  O    0.010725
     2  O    0.003597
     3  C    0.416034
     4  C   -0.054734
     5  H   -0.020842
     6  H   -0.020881
     7  H    0.495043
 Mulliken atomic charges:
              1
     1  O   -0.151456
     2  O   -0.156713
     3  C   -0.396745
     4  C    0.173042
     5  H    0.180423
     6  H    0.180392
     7  H    0.171057
 Sum of Mulliken charges=   0.00000
 Atomic charges with hydrogens summed into heavy atoms:
              1
     1  O   -0.151456
     2  O   -0.156713
     3  C    0.135127
     4  C    0.173042
     5  H    0.000000
     6  H    0.000000
     7  H    0.000000
 Sum of Mulliken charges=   0.00000
          Atomic-Atomic Spin Densities.
              1          2          3          4          5          6
     1  O    0.581536  -0.065176   0.020190   0.003360  -0.000872  -0.000886
     2  O   -0.065176   0.590363   0.020057  -0.007823   0.000185   0.000181
     3  C    0.020190   0.020057  -0.041814  -0.004786  -0.001012  -0.000992
     4  C    0.003360  -0.007823  -0.004786  -0.067404   0.000753   0.000744
     5  H   -0.000872   0.000185  -0.001012   0.000753   0.001698   0.001155
     6  H   -0.000886   0.000181  -0.000992   0.000744   0.001155   0.001733
     7  H   -0.000956  -0.004266   0.010126  -0.004024  -0.000972  -0.000979
              7
     1  O   -0.000956
     2  O   -0.004266
     3  C    0.010126
     4  C   -0.004024
     5  H   -0.000972
     6  H   -0.000979
     7  H    0.005876
 Mulliken atomic spin densities:
              1
     1  O    0.537195
     2  O    0.533522
     3  C    0.001770
     4  C   -0.079180
     5  H    0.000934
     6  H    0.000955
     7  H    0.004804
 Sum of Mulliken spin densities=   1.00000
 Electronic spatial extent (au):  <R**2>=   238.4488
 Charge=     0.0000 electrons
 Dipole moment (field-independent basis, Debye):
    X=     3.4768    Y=    -0.0091    Z=     0.0001  Tot=     3.4768
 Quadrupole moment (field-independent basis, Debye-Ang):
   XX=   -23.3811   YY=   -25.8246   ZZ=   -22.3211
   XY=    -0.0652   XZ=    -0.0001   YZ=    -0.0002
 Traceless Quadrupole moment (field-independent basis, Debye-Ang):
   XX=     0.4611   YY=    -1.9823   ZZ=     1.5212
   XY=    -0.0652   XZ=    -0.0001   YZ=    -0.0002
 Octapole moment (field-independent basis, Debye-Ang**2):
  XXX=     0.9142  YYY=     0.8142  ZZZ=     0.0048  XYY=     3.0239
  XXY=    -0.1114  XXZ=    -0.0020  XZZ=    -0.0894  YZZ=    -0.8310
  YYZ=    -0.0040  XYZ=     0.0003
 Hexadecapole moment (field-independent basis, Debye-Ang**3):
 XXXX=  -166.1336 YYYY=  -102.4212 ZZZZ=   -26.9642 XXXY=    -0.1273
 XXXZ=    -0.0065 YYYX=     1.4214 YYYZ=     0.0000 ZZZX=     0.0082
 ZZZY=    -0.0010 XXYY=   -45.0722 XXZZ=   -30.5425 YYZZ=   -21.6476
 XXYZ=     0.0013 YYXZ=    -0.0078 ZZXY=    -1.6166
 N-N= 1.131102730826D+02 E-N=-7.626155700627D+02  KE= 2.277039958743D+02
                          Isotropic Fermi Contact Couplings
        Atom                 a.u.       MegaHertz       Gauss      10(-4) cm-1
     1  O(17)              0.03663     -22.20316      -7.92264      -7.40618
     2  O(17)              0.03577     -21.68339      -7.73717      -7.23280
     3  C(13)             -0.01099     -12.35311      -4.40790      -4.12055
     4  C(13)             -0.03482     -39.13873     -13.96567     -13.05528
     5  H(1)               0.00061       2.72020       0.97064       0.90736
     6  H(1)               0.00062       2.79282       0.99655       0.93158
     7  H(1)               0.00438      19.56509       6.98131       6.52621
 --------------------------------------------------------
       Center         ----  Spin Dipole Couplings  ----
                      3XX-RR        3YY-RR        3ZZ-RR
 --------------------------------------------------------
     1   Atom        0.253339      0.856332     -1.109672
     2   Atom        0.192292      0.910965     -1.103258
     3   Atom        0.001598      0.013010     -0.014608
     4   Atom        0.021346      0.067400     -0.088746
     5   Atom        0.006302     -0.003409     -0.002893
     6   Atom        0.006311     -0.003414     -0.002897
     7   Atom        0.009180     -0.001971     -0.007209
 --------------------------------------------------------
                        XY            XZ            YZ
 --------------------------------------------------------
     1   Atom       -1.713895     -0.000295      0.000361
     2   Atom        1.699834     -0.000309     -0.000395
     3   Atom        0.001523     -0.000009     -0.000001
     4   Atom       -0.000332     -0.000015      0.000000
     5   Atom       -0.000098      0.004618     -0.000156
     6   Atom       -0.000103     -0.004614      0.000165
     7   Atom        0.002412     -0.000012     -0.000007
 --------------------------------------------------------


 ---------------------------------------------------------------------------------
              Anisotropic Spin Dipole Couplings in Principal Axis System
 ---------------------------------------------------------------------------------

       Atom             a.u.   MegaHertz   Gauss  10(-4) cm-1        Axes

              Baa    -1.1854    85.773    30.606    28.611  0.7659  0.6429 -0.0001
     1 O(17)  Bbb    -1.1097    80.295    28.651    26.784  0.0002 -0.0001  1.0000
              Bcc     2.2950  -166.068   -59.257   -55.394 -0.6429  0.7659  0.0001
 
              Baa    -1.1858    85.802    30.616    28.620  0.7768 -0.6298 -0.0001
     2 O(17)  Bbb    -1.1033    79.831    28.486    26.629  0.0002  0.0000  1.0000
              Bcc     2.2890  -165.633   -59.102   -55.249  0.6298  0.7768 -0.0001
 
              Baa    -0.0146    -1.960    -0.699    -0.654  0.0006  0.0000  1.0000
     3 C(13)  Bbb     0.0014     0.188     0.067     0.063  0.9915 -0.1300 -0.0006
              Bcc     0.0132     1.773     0.633     0.591  0.1300  0.9915 -0.0001
 
              Baa    -0.0887   -11.909    -4.249    -3.972  0.0001  0.0000  1.0000
     4 C(13)  Bbb     0.0213     2.864     1.022     0.955  1.0000  0.0072 -0.0001
              Bcc     0.0674     9.045     3.227     3.017 -0.0072  1.0000  0.0000
 
              Baa    -0.0048    -2.572    -0.918    -0.858 -0.3818  0.0753  0.9212
     5 H(1)   Bbb    -0.0034    -1.815    -0.648    -0.606  0.0408  0.9971 -0.0646
              Bcc     0.0082     4.387     1.565     1.463  0.9233 -0.0129  0.3838
 
              Baa    -0.0048    -2.572    -0.918    -0.858  0.3811 -0.0800  0.9211
     6 H(1)   Bbb    -0.0034    -1.818    -0.649    -0.606  0.0432  0.9967  0.0687
              Bcc     0.0082     4.390     1.566     1.464  0.9235 -0.0136 -0.3833
 
              Baa    -0.0072    -3.846    -1.373    -1.283  0.0006  0.0011  1.0000
     7 H(1)   Bbb    -0.0025    -1.318    -0.470    -0.440 -0.2027  0.9792 -0.0010
              Bcc     0.0097     5.164     1.843     1.723  0.9792  0.2027 -0.0008
 

 ---------------------------------------------------------------------------------

 1\1\GINC-NODE63\Scan\UB3LYP\6-311+G(d,p)\C2H3O2(2)\ALONGD\29-Jan-2019\
 0\\# opt=(modredundant, calcfc, noeigentest) ub3lyp/6-311+g(d,p) scf=x
 qc\\name\\0,2\O,-0.8105145275,0.8547374164,-0.5839567\O,-0.8121537956,
 -0.8748645737,0.574141186\C,1.3870628495,-0.0004129299,0.0064229145\C,
 -0.1050807667,-0.0085362945,-0.0001053489\H,1.7533161993,-0.0523808034
 ,-1.0216107371\H,1.7423737421,0.9342850121,0.44663845\H,1.7677376675,-
 0.8474148212,0.5784702355\\Version=AM64L-G03RevD.01\State=2-A\HF=-228.
 4858078,-228.4858103,-228.4858159,-228.4858257,-228.4858353,-228.48584
 3,-228.4858457,-228.4858419,-228.4858338,-228.485824,-228.4858147,-228
 .4858098,-228.4858085,-228.485811,-228.4858174,-228.4858273,-228.48583
 67,-228.4858438,-228.4858455,-228.4858409,-228.4858323,-228.4858223,-2
 28.4858136,-228.4858093,-228.4858087,-228.4858118,-228.4858189,-228.48
 58289,-228.4858378,-228.4858442,-228.4858453,-228.4858408,-228.4858328
 ,-228.4858236,-228.4858151,-228.4858102,-228.4858084,-228.48581,-228.4
 858149,-228.4858238,-228.4858332,-228.4858413,-228.4858456,-228.485843
 5,-228.4858359,-228.485826,-228.4858158,-228.48581,-228.4858085,-228.4
 858109,-228.4858188,-228.4858295,-228.4858384,-228.4858449,-228.485844
 8,-228.4858389,-228.4858302,-228.4858206,-228.4858129,-228.4858092,-22
 8.4858086,-228.4858113,-228.4858175,-228.4858268,-228.4858357,-228.485
 8429,-228.4858456,-228.4858426,-228.485835,-228.4858257,-228.4858161,-
 228.4858104,-228.4858084\S2=0.756939,0.756945,0.756946,0.756946,0.7569
 47,0.756948,0.756948,0.756947,0.756947,0.756946,0.756945,0.756945,0.75
 6945,0.756945,0.756946,0.756946,0.756947,0.756948,0.756948,0.756947,0.
 756947,0.756946,0.756945,0.756945,0.756945,0.756945,0.756946,0.756946,
 0.756947,0.756947,0.756947,0.756947,0.756947,0.756946,0.756945,0.75694
 5,0.756945,0.756945,0.756946,0.756946,0.756947,0.756947,0.756948,0.756
 948,0.756947,0.756946,0.756946,0.756945,0.756945,0.756945,0.756946,0.7
 56947,0.756947,0.756948,0.756948,0.756947,0.756947,0.756946,0.756946,0
 .756945,0.756945,0.756945,0.756946,0.756946,0.756947,0.756947,0.756948
 ,0.756947,0.756947,0.756946,0.756946,0.756945,0.756945\S2-1=0.,0.,0.,0
 .,0.,0.,0.,0.,0.,0.,0.,0.,0.,0.,0.,0.,0.,0.,0.,0.,0.,0.,0.,0.,0.,0.,0.
 ,0.,0.,0.,0.,0.,0.,0.,0.,0.,0.,0.,0.,0.,0.,0.,0.,0.,0.,0.,0.,0.,0.,0.,
 0.,0.,0.,0.,0.,0.,0.,0.,0.,0.,0.,0.,0.,0.,0.,0.,0.,0.,0.,0.,0.,0.,0.\S
 2A=0.750024,0.750024,0.750024,0.750024,0.750024,0.750024,0.750024,0.75
 0024,0.750024,0.750024,0.750024,0.750024,0.750024,0.750024,0.750024,0.
 750024,0.750024,0.750024,0.750024,0.750024,0.750024,0.750024,0.750024,
 0.750024,0.750024,0.750024,0.750024,0.750024,0.750024,0.750024,0.75002
 4,0.750024,0.750024,0.750024,0.750024,0.750024,0.750024,0.750024,0.750
 024,0.750024,0.750024,0.750024,0.750024,0.750024,0.750024,0.750024,0.7
 50024,0.750024,0.750024,0.750024,0.750024,0.750024,0.750024,0.750024,0
 .750024,0.750024,0.750024,0.750024,0.750024,0.750024,0.750024,0.750024
 ,0.750024,0.750024,0.750024,0.750024,0.750024,0.750024,0.750024,0.7500
 24,0.750024,0.750024,0.750024\RMSD=4.119e-09,2.385e-09,3.629e-09,4.931
 e-09,9.494e-09,2.263e-09,9.210e-09,2.849e-09,9.670e-09,6.040e-09,2.046
 e-09,6.112e-09,9.309e-09,9.389e-09,4.419e-09,7.414e-09,5.623e-09,1.707
 e-09,4.260e-09,4.158e-09,7.930e-09,2.623e-09,3.266e-09,6.482e-09,2.806
 e-09,2.409e-09,3.804e-09,8.411e-09,4.627e-09,8.155e-09,5.928e-09,1.559
 e-09,6.802e-09,6.591e-09,9.767e-09,9.969e-09,3.365e-09,3.446e-09,2.230
 e-09,3.001e-09,1.749e-09,1.232e-09,4.044e-09,6.024e-09,4.409e-09,9.932
 e-09,2.719e-09,8.522e-09,9.486e-09,8.910e-09,4.965e-09,2.921e-09,7.712
 e-09,1.710e-09,4.825e-09,9.891e-09,8.154e-09,7.812e-09,9.343e-09,6.471
 e-09,9.413e-09,6.159e-09,4.299e-09,5.176e-09,3.708e-09,9.263e-09,5.138
 e-09,8.754e-09,7.380e-09,4.210e-09,5.299e-09,5.396e-09,2.537e-09\Therm
 al=0.,0.,0.,0.,0.,0.,0.,0.,0.,0.,0.,0.,0.,0.,0.,0.,0.,0.,0.,0.,0.,0.,0
 .,0.,0.,0.,0.,0.,0.,0.,0.,0.,0.,0.,0.,0.,0.,0.,0.,0.,0.,0.,0.,0.,0.,0.
 ,0.,0.,0.,0.,0.,0.,0.,0.,0.,0.,0.,0.,0.,0.,0.,0.,0.,0.,0.,0.,0.,0.,0.,
 0.,0.,0.,0.\PG=C01 [X(C2H3O2)]\\@


 I KNOW YOU BELIEVE YOU UNDERSTAND WHAT YOU THINK I SAID,
 BUT I AM NOT SURE YOU REALIZE THAT WHAT YOU HEARD IS NOT WHAT I MEANT.
 Job cpu time:  0 days  5 hours 27 minutes 20.2 seconds.
 File lengths (MBytes):  RWF=     27 Int=      0 D2E=      0 Chk=     10 Scr=      1
 Normal termination of Gaussian 03 at Tue Jan 29 18:33:14 2019.
