 Entering Gaussian System, Link 0=g16
 Initial command:
 /opt/g16/l1.exe "/scratch/alongd/g16/a31183-29427/Gau-10235.inp" -scrdir="/scratch/alongd/g16/a31183-29427/"
 Entering Link 1 = /opt/g16/l1.exe PID=     10237.
  
 Copyright (c) 1988-2017, Gaussian, Inc.  All Rights Reserved.
  
 This is part of the Gaussian(R) 16 program.  It is based on
 the Gaussian(R) 09 system (copyright 2009, Gaussian, Inc.),
 the Gaussian(R) 03 system (copyright 2003, Gaussian, Inc.),
 the Gaussian(R) 98 system (copyright 1998, Gaussian, Inc.),
 the Gaussian(R) 94 system (copyright 1995, Gaussian, Inc.),
 the Gaussian 92(TM) system (copyright 1992, Gaussian, Inc.),
 the Gaussian 90(TM) system (copyright 1990, Gaussian, Inc.),
 the Gaussian 88(TM) system (copyright 1988, Gaussian, Inc.),
 the Gaussian 86(TM) system (copyright 1986, Carnegie Mellon
 University), and the Gaussian 82(TM) system (copyright 1983,
 Carnegie Mellon University). Gaussian is a federally registered
 trademark of Gaussian, Inc.
  
 This software contains proprietary and confidential information,
 including trade secrets, belonging to Gaussian, Inc.
  
 This software is provided under written license and may be
 used, copied, transmitted, or stored only in accord with that
 written license.
  
 The following legend is applicable only to US Government
 contracts under FAR:
  
                    RESTRICTED RIGHTS LEGEND
  
 Use, reproduction and disclosure by the US Government is
 subject to restrictions as set forth in subparagraphs (a)
 and (c) of the Commercial Computer Software - Restricted
 Rights clause in FAR 52.227-19.
  
 Gaussian, Inc.
 340 Quinnipiac St., Bldg. 40, Wallingford CT 06492
  
  
 ---------------------------------------------------------------
 Warning -- This program may not be used in any manner that
 competes with the business of Gaussian, Inc. or will provide
 assistance to any competitor of Gaussian, Inc.  The licensee
 of this program is prohibited from giving any competitor of
 Gaussian, Inc. access to this program.  By using this program,
 the user acknowledges that Gaussian, Inc. is engaged in the
 business of creating and licensing software in the field of
 computational chemistry and represents and warrants to the
 licensee that it is not a competitor of Gaussian, Inc. and that
 it will not use this program in any manner prohibited above.
 ---------------------------------------------------------------
  

 Cite this work as:
 Gaussian 16, Revision B.01,
 M. J. Frisch, G. W. Trucks, H. B. Schlegel, G. E. Scuseria, 
 M. A. Robb, J. R. Cheeseman, G. Scalmani, V. Barone, 
 G. A. Petersson, H. Nakatsuji, X. Li, M. Caricato, A. V. Marenich, 
 J. Bloino, B. G. Janesko, R. Gomperts, B. Mennucci, H. P. Hratchian, 
 J. V. Ortiz, A. F. Izmaylov, J. L. Sonnenberg, D. Williams-Young, 
 F. Ding, F. Lipparini, F. Egidi, J. Goings, B. Peng, A. Petrone, 
 T. Henderson, D. Ranasinghe, V. G. Zakrzewski, J. Gao, N. Rega, 
 G. Zheng, W. Liang, M. Hada, M. Ehara, K. Toyota, R. Fukuda, 
 J. Hasegawa, M. Ishida, T. Nakajima, Y. Honda, O. Kitao, H. Nakai, 
 T. Vreven, K. Throssell, J. A. Montgomery, Jr., J. E. Peralta, 
 F. Ogliaro, M. J. Bearpark, J. J. Heyd, E. N. Brothers, K. N. Kudin, 
 V. N. Staroverov, T. A. Keith, R. Kobayashi, J. Normand, 
 K. Raghavachari, A. P. Rendell, J. C. Burant, S. S. Iyengar, 
 J. Tomasi, M. Cossi, J. M. Millam, M. Klene, C. Adamo, R. Cammi, 
 J. W. Ochterski, R. L. Martin, K. Morokuma, O. Farkas, 
 J. B. Foresman, and D. J. Fox, Gaussian, Inc., Wallingford CT, 2016.
 
 ******************************************
 Gaussian 16:  ES64L-G16RevB.01 20-Dec-2017
                26-Dec-2019 
 ******************************************
 %chk=check.chk
 %mem=14336mb
 %NProcShared=8
 Will use up to    8 processors via shared memory.
 ----------------------------------------------------------------------
 #P guess=read ub3lyp/6-31g(d,p) freq iop(7/33=1) scf=(tight, direct) i
 ntegral=(grid=ultrafine, Acc2E=12) scf=xqc iop(2/9=2000)
 ----------------------------------------------------------------------
 1/10=4,30=1,38=1/1,3;
 2/9=2000,12=2,17=6,18=5,40=1/2;
 3/5=1,6=6,7=101,11=2,25=1,27=12,30=1,71=2,74=-5,75=-5,116=2,140=1/1,2,3;
 4/5=1/1;
 5/5=2,8=3,13=1,32=2,38=6,87=12,98=1/2,8;
 8/6=4,10=90,11=11,87=12/1;
 11/6=1,8=1,9=11,15=111,16=1,87=12/1,2,10;
 10/6=1,87=12/2;
 6/7=2,8=2,9=2,10=2,28=1,87=12/1;
 7/8=1,10=1,25=1,33=1,87=12/1,2,3,16;
 1/10=4,30=1/3;
 99//99;
 Leave Link    1 at Thu Dec 26 15:13:19 2019, MaxMem=  1879048192 cpu:               0.8 elap:               0.1
 (Enter /opt/g16/l101.exe)
 ----
 name
 ----
 Symbolic Z-matrix:
 Charge =  0 Multiplicity = 2
 O                     1.14417  -0.13103   0. 
 C                    -0.04268   0.00489   0. 
 H                    -1.10149   0.12614   0. 
 
 ITRead=  0  0  0
 MicOpt= -1 -1 -1
 NAtoms=      3 NQM=        3 NQMF=       0 NMMI=      0 NMMIF=      0
                NMic=       0 NMicF=      0.
                    Isotopes and Nuclear Properties:
 (Nuclear quadrupole moments (NQMom) in fm**2, nuclear magnetic moments (NMagM)
  in nuclear magnetons)

  Atom         1           2           3
 IAtWgt=          16          12           1
 AtmWgt=  15.9949146  12.0000000   1.0078250
 NucSpn=           0           0           1
 AtZEff=  -0.0000000  -0.0000000  -0.0000000
 NQMom=    0.0000000   0.0000000   0.0000000
 NMagM=    0.0000000   0.0000000   2.7928460
 AtZNuc=   8.0000000   6.0000000   1.0000000
 Leave Link  101 at Thu Dec 26 15:13:20 2019, MaxMem=  1879048192 cpu:               2.3 elap:               0.3
 (Enter /opt/g16/l103.exe)

 GradGradGradGradGradGradGradGradGradGradGradGradGradGradGradGradGradGrad
 Berny optimization.
 Initialization pass.
 Trust Radius=3.00D-01 FncErr=1.00D-07 GrdErr=1.00D-07 EigMax=2.50D+02 EigMin=1.00D-04
 Number of steps in this run=      2 maximum allowed number of steps=      2.
 GradGradGradGradGradGradGradGradGradGradGradGradGradGradGradGradGradGrad

 Leave Link  103 at Thu Dec 26 15:13:20 2019, MaxMem=  1879048192 cpu:               0.4 elap:               0.1
 (Enter /opt/g16/l202.exe)
                          Input orientation:                          
 ---------------------------------------------------------------------
 Center     Atomic      Atomic             Coordinates (Angstroms)
 Number     Number       Type             X           Y           Z
 ---------------------------------------------------------------------
      1          8           0        1.144165   -0.131030    0.000000
      2          6           0       -0.042677    0.004887    0.000000
      3          1           0       -1.101488    0.126143    0.000000
 ---------------------------------------------------------------------
                    Distance matrix (angstroms):
                    1          2          3
     1  O    0.000000
     2  C    1.194599   0.000000
     3  H    2.260331   1.065732   0.000000
 Stoichiometry    CHO(2)
 Framework group  C*V[C*(HCO)]
 Deg. of freedom     2
 Full point group                 C*V     NOp   4
 Largest Abelian subgroup         C2V     NOp   4
 Largest concise Abelian subgroup C1      NOp   1
                         Standard orientation:                         
 ---------------------------------------------------------------------
 Center     Atomic      Atomic             Coordinates (Angstroms)
 Number     Number       Type             X           Y           Z
 ---------------------------------------------------------------------
      1          8           0       -0.000000   -0.000000    0.628528
      2          6           0        0.000000    0.000000   -0.566071
      3          1           0       -0.000000   -0.000000   -1.631802
 ---------------------------------------------------------------------
 Rotational constants (GHZ):           0.0000000          39.6140040          39.6140040
 Leave Link  202 at Thu Dec 26 15:13:20 2019, MaxMem=  1879048192 cpu:               0.1 elap:               0.0
 (Enter /opt/g16/l301.exe)
 Standard basis: 6-31G(d,p) (6D, 7F)
 Ernie: Thresh=  0.10000D-02 Tol=  0.10000D-05 Strict=F.
 There are    19 symmetry adapted cartesian basis functions of A1  symmetry.
 There are     2 symmetry adapted cartesian basis functions of A2  symmetry.
 There are     7 symmetry adapted cartesian basis functions of B1  symmetry.
 There are     7 symmetry adapted cartesian basis functions of B2  symmetry.
 There are    19 symmetry adapted basis functions of A1  symmetry.
 There are     2 symmetry adapted basis functions of A2  symmetry.
 There are     7 symmetry adapted basis functions of B1  symmetry.
 There are     7 symmetry adapted basis functions of B2  symmetry.
    35 basis functions,    63 primitive gaussians,    35 cartesian basis functions
     8 alpha electrons        7 beta electrons
       nuclear repulsion energy        26.1149374098 Hartrees.
 IExCor=  402 DFT=T Ex+Corr=B3LYP ExCW=0 ScaHFX=  0.200000
 ScaDFX=  0.800000  0.720000  1.000000  0.810000 ScalE2=  1.000000  1.000000
 IRadAn=      5 IRanWt=     -1 IRanGd=            0 ICorTp=0 IEmpDi=  4
 NAtoms=    3 NActive=    3 NUniq=    3 SFac= 1.00D+00 NAtFMM=   60 NAOKFM=F Big=F
 Integral buffers will be    131072 words long.
 Raffenetti 2 integral format.
 Two-electron integral symmetry is turned on.
 Leave Link  301 at Thu Dec 26 15:13:20 2019, MaxMem=  1879048192 cpu:               0.6 elap:               0.1
 (Enter /opt/g16/l302.exe)
 NPDir=0 NMtPBC=     1 NCelOv=     1 NCel=       1 NClECP=     1 NCelD=      1
         NCelK=      1 NCelE2=     1 NClLst=     1 CellRange=     0.0.
 One-electron integrals computed using PRISM.
 One-electron integral symmetry used in STVInt
 NBasis=    35 RedAO= T EigKep=  5.05D-03  NBF=    19     2     7     7
 NBsUse=    35 1.00D-06 EigRej= -1.00D+00 NBFU=    19     2     7     7
 Precomputing XC quadrature grid using
 IXCGrd= 4 IRadAn=           5 IRanWt=          -1 IRanGd=           0 AccXCQ= 1.00D-12.
 Generated NRdTot=       0 NPtTot=           0 NUsed=           0 NTot=          32
 NSgBfM=    35    35    35    35    35 MxSgAt=     3 MxSgA2=     3.
 Leave Link  302 at Thu Dec 26 15:13:20 2019, MaxMem=  1879048192 cpu:               1.4 elap:               0.2
 (Enter /opt/g16/l303.exe)
 DipDrv:  MaxL=1.
 Leave Link  303 at Thu Dec 26 15:13:20 2019, MaxMem=  1879048192 cpu:               0.6 elap:               0.1
 (Enter /opt/g16/l401.exe)
 Initial guess from the checkpoint file:  "check.chk"
 B after Tr=    -0.000000   -0.000000   -0.000000
         Rot=    1.000000   -0.000000    0.000000    0.000000 Ang=   0.00 deg.
 Guess basis will be translated and rotated to current coordinates.
 JPrj=2 DoOrth=T DoCkMO=T.
 Initial guess orbital symmetries:
 Alpha Orbitals:
       Occupied  (SG) (SG) (SG) (SG) (SG) (PI) (PI) (PI)
       Virtual   (PI) (SG) (SG) (PI) (PI) (SG) (SG) (SG) (PI) (PI)
                 (SG) (PI) (PI) (?A) (?A) (?A) (DLTA) (DLTA) (PI)
                 (PI) (SG) (PI) (PI) (SG) (SG) (SG) (SG)
 Beta  Orbitals:
       Occupied  (SG) (SG) (SG) (SG) (SG) (PI) (PI)
       Virtual   (PI) (PI) (SG) (SG) (PI) (PI) (SG) (SG) (SG) (PI)
                 (PI) (SG) (PI) (PI) (?A) (?A) (?A) (DLTA) (DLTA)
                 (PI) (PI) (SG) (PI) (PI) (SG) (SG) (SG) (SG)
 Initial guess <Sx>= 0.0000 <Sy>= 0.0000 <Sz>= 0.5000 <S**2>= 0.7534 S= 0.5017
 Leave Link  401 at Thu Dec 26 15:13:20 2019, MaxMem=  1879048192 cpu:               1.0 elap:               0.1
 (Enter /opt/g16/l502.exe)
 Keep R1 and R2 ints in memory in symmetry-blocked form, NReq=7113134.
 FoFCou: FMM=F IPFlag=           0 FMFlag=           0 FMFlg1=           0
         NFxFlg=           0 DoJE=F BraDBF=F KetDBF=F FulRan=T
         wScrn=  0.000000 ICntrl=       600 IOpCl=  0 I1Cent=           0 NGrid=           0
         NMat0=    1 NMatS0=    630 NMatT0=    0 NMatD0=    1 NMtDS0=    0 NMtDT0=    0
 Petite list used in FoFCou.
 UHF open shell SCF:
 Using DIIS extrapolation, IDIIS=  1040.
 NGot=  1879048192 LenX=  1878928801 LenY=  1878927135
 Requested convergence on RMS density matrix=1.00D-08 within  32 cycles.
 Requested convergence on MAX density matrix=1.00D-06.
 Requested convergence on             energy=1.00D-06.
 No special actions if energy rises.
 An orbital has undefined symmetry, so N**3 symmetry is turned off.

 Cycle   1  Pass 1  IDiag  1:
 Density matrix breaks symmetry, PCut= 1.00D-04
 Density matrix has no symmetry -- integrals replicated.
 E= -113.809104675860    
 DIIS: error= 7.74D-08 at cycle   1 NSaved=   1.
 NSaved= 1 IEnMin= 1 EnMin= -113.809104675860     IErMin= 1 ErrMin= 7.74D-08
 ErrMax= 7.74D-08  0.00D+00 EMaxC= 1.00D-01 BMatC= 1.10D-12 BMatP= 1.10D-12
 IDIUse=1 WtCom= 1.00D+00 WtEn= 0.00D+00
 Coeff-Com:  0.100D+01
 Coeff:      0.100D+01
 Gap=     0.097 Goal=   None    Shift=    0.000
 Gap=     0.346 Goal=   None    Shift=    0.000
 RMSDP=2.26D-08 MaxDP=2.16D-07              OVMax= 2.81D-07

 Cycle   2  Pass 1  IDiag  1:
 Density matrix breaks symmetry, PCut= 1.00D-04
 Density matrix has no symmetry -- integrals replicated.
 E= -113.809104675860     Delta-E=       -0.000000000000 Rises=F Damp=F
 DIIS: error= 5.79D-08 at cycle   2 NSaved=   2.
 NSaved= 2 IEnMin= 2 EnMin= -113.809104675860     IErMin= 2 ErrMin= 5.79D-08
 ErrMax= 5.79D-08  0.00D+00 EMaxC= 1.00D-01 BMatC= 6.51D-13 BMatP= 1.10D-12
 IDIUse=1 WtCom= 1.00D+00 WtEn= 0.00D+00
 Coeff-Com:  0.409D+00 0.591D+00
 Coeff:      0.409D+00 0.591D+00
 Gap=     0.097 Goal=   None    Shift=    0.000
 Gap=     0.346 Goal=   None    Shift=    0.000
 RMSDP=1.22D-08 MaxDP=1.73D-07 DE=-2.27D-13 OVMax= 2.70D-07

 Cycle   3  Pass 1  IDiag  1:
 Density matrix breaks symmetry, PCut= 1.00D-04
 Density matrix has no symmetry -- integrals replicated.
 E= -113.809104675860     Delta-E=        0.000000000000 Rises=F Damp=F
 DIIS: error= 6.67D-08 at cycle   3 NSaved=   3.
 NSaved= 3 IEnMin= 2 EnMin= -113.809104675860     IErMin= 2 ErrMin= 5.79D-08
 ErrMax= 6.67D-08  0.00D+00 EMaxC= 1.00D-01 BMatC= 5.61D-13 BMatP= 6.51D-13
 IDIUse=1 WtCom= 1.00D+00 WtEn= 0.00D+00
 Coeff-Com:  0.541D-01 0.469D+00 0.477D+00
 Coeff:      0.541D-01 0.469D+00 0.477D+00
 Gap=     0.097 Goal=   None    Shift=    0.000
 Gap=     0.346 Goal=   None    Shift=    0.000
 RMSDP=6.64D-09 MaxDP=8.24D-08 DE= 5.68D-14 OVMax= 1.55D-07

 Density matrix breaks symmetry, PCut= 1.00D-04
 Density matrix has no symmetry -- integrals replicated.
 SCF Done:  E(UB3LYP) =  -113.809104676     A.U. after    3 cycles
            NFock=  3  Conv=0.66D-08     -V/T= 2.0087
 <Sx>= 0.0000 <Sy>= 0.0000 <Sz>= 0.5000 <S**2>= 0.7534 S= 0.5017
 <L.S>= 0.000000000000E+00
 KE= 1.128264792508D+02 PE=-3.193275831272D+02 EE= 6.657706179062D+01
 Annihilation of the first spin contaminant:
 S**2 before annihilation     0.7534,   after     0.7500
 Leave Link  502 at Thu Dec 26 15:13:21 2019, MaxMem=  1879048192 cpu:               2.9 elap:               0.4
 (Enter /opt/g16/l508.exe)
 QCSCF skips out because SCF is already converged.
 Leave Link  508 at Thu Dec 26 15:13:21 2019, MaxMem=  1879048192 cpu:               0.0 elap:               0.0
 (Enter /opt/g16/l801.exe)
 DoSCS=F DFT=T ScalE2(SS,OS)=  1.000000  1.000000
 Range of M.O.s used for correlation:     1    35
 NBasis=    35 NAE=     8 NBE=     7 NFC=     0 NFV=     0
 NROrb=     35 NOA=     8 NOB=     7 NVA=    27 NVB=    28

 **** Warning!!: The smallest alpha delta epsilon is  0.96548766D-01

 Leave Link  801 at Thu Dec 26 15:13:21 2019, MaxMem=  1879048192 cpu:               0.5 elap:               0.1
 (Enter /opt/g16/l1101.exe)
 Using compressed storage, NAtomX=     3.
 Will process      4 centers per pass.
 Leave Link 1101 at Thu Dec 26 15:13:21 2019, MaxMem=  1879048192 cpu:               1.8 elap:               0.2
 (Enter /opt/g16/l1102.exe)
 Symmetrizing basis deriv contribution to polar:
 IMax=3 JMax=2 DiffMx= 0.00D+00
 Leave Link 1102 at Thu Dec 26 15:13:21 2019, MaxMem=  1879048192 cpu:               0.5 elap:               0.1
 (Enter /opt/g16/l1110.exe)
 Forming Gx(P) for the SCF density, NAtomX=     3.
 Integral derivatives from FoFJK, PRISM(SPDF).
 Do as many integral derivatives as possible in FoFJK.
 G2DrvN: MDV=    1879047828.
 Density matrix has lower than full symmetry, NOpUse=  1 NOpAll=  4.
 G2DrvN: will do     4 centers at a time, making    1 passes.
 Calling FoFCou, ICntrl=  3107 FMM=F I1Cent=   0 AccDes= 1.00D-12.
 FoFJK:  IHMeth= 1 ICntrl=    3107 DoSepK=F KAlg= 0 I1Cent=           0 FoldK=F
 IRaf=         0 NMat=       1 IRICut=       1 DoRegI=T DoRafI=F ISym2E= 0 IDoP0=0 IntGTp=1.
 FoFCou: FMM=F IPFlag=           0 FMFlag=      100000 FMFlg1=           0
         NFxFlg=           0 DoJE=F BraDBF=F KetDBF=F FulRan=T
         wScrn=  0.000000 ICntrl=      3107 IOpCl=  1 I1Cent=           0 NGrid=           0
         NMat0=    1 NMatS0=      1 NMatT0=    0 NMatD0=    1 NMtDS0=    0 NMtDT0=    0
 Symmetry not used in FoFCou.
 End of G2Drv F.D. properties file   721 does not exist.
 End of G2Drv F.D. properties file   722 does not exist.
 End of G2Drv F.D. properties file   788 does not exist.
 Leave Link 1110 at Thu Dec 26 15:13:22 2019, MaxMem=  1879048192 cpu:               5.6 elap:               0.7
 (Enter /opt/g16/l1002.exe)
 Minotr:  UHF open shell wavefunction.
          IDoAtm=111
          Direct CPHF calculation.
          Differentiating once with respect to electric field.
                with respect to dipole field.
          Differentiating once with respect to nuclear coordinates.
 Density matrix has lower than full symmetry, NOpUse=  1 NOpAll=  4.
          Requested convergence is 1.0D-08 RMS, and 1.0D-07 maximum.
          Secondary convergence is 1.0D-12 RMS, and 1.0D-12 maximum.
          NewPWx=T KeepS1=F KeepF1=F KeepIn=T MapXYZ=F SortEE=F KeepMc=T.
          874 words used for storage of precomputed grid.
 Keep R1 and R2 ints in memory in symmetry-blocked form, NReq=7088005.
 FoFCou: FMM=F IPFlag=           0 FMFlag=           0 FMFlg1=           0
         NFxFlg=           0 DoJE=F BraDBF=F KetDBF=F FulRan=T
         wScrn=  0.000000 ICntrl=       600 IOpCl=  0 I1Cent=           0 NGrid=           0
         NMat0=    1 NMatS0=    630 NMatT0=    0 NMatD0=    1 NMtDS0=    0 NMtDT0=    0
 Petite list used in FoFCou.
          MDV=    1879048192 using IRadAn=       1.
          Solving linear equations simultaneously, MaxMat=       0.
          There are    12 degrees of freedom in the 1st order CPHF.  IDoFFX=6 NUNeed=     3.
      9 vectors produced by pass  0 Test12= 3.43D-15 8.33D-09 XBig12= 3.16D+01 2.92D+00.
 AX will form     9 AO Fock derivatives at one time.
      9 vectors produced by pass  1 Test12= 3.43D-15 8.33D-09 XBig12= 1.53D+01 1.27D+00.
      9 vectors produced by pass  2 Test12= 3.43D-15 8.33D-09 XBig12= 4.95D-01 3.06D-01.
      9 vectors produced by pass  3 Test12= 3.43D-15 8.33D-09 XBig12= 8.55D-03 2.81D-02.
      9 vectors produced by pass  4 Test12= 3.43D-15 8.33D-09 XBig12= 1.15D-04 3.15D-03.
      9 vectors produced by pass  5 Test12= 3.43D-15 8.33D-09 XBig12= 6.63D-07 2.94D-04.
      6 vectors produced by pass  6 Test12= 3.43D-15 8.33D-09 XBig12= 6.49D-09 6.54D-05.
      2 vectors produced by pass  7 Test12= 3.43D-15 8.33D-09 XBig12= 2.85D-10 4.94D-06.
      1 vectors produced by pass  8 Test12= 3.43D-15 8.33D-09 XBig12= 9.82D-13 2.94D-07.
      1 vectors produced by pass  9 Test12= 3.43D-15 8.33D-09 XBig12= 4.66D-15 1.50D-08.
 InvSVY:  IOpt=1 It=  1 EMax= 8.88D-16
 Solved reduced A of dimension    64 with     9 vectors.
 FullF1:  Do perturbations      1 to       3.
 Isotropic polarizability for W=    0.000000       10.39 Bohr**3.
 End of Minotr F.D. properties file   721 does not exist.
 End of Minotr F.D. properties file   722 does not exist.
 End of Minotr F.D. properties file   788 does not exist.
 Leave Link 1002 at Thu Dec 26 15:13:23 2019, MaxMem=  1879048192 cpu:               7.8 elap:               1.0
 (Enter /opt/g16/l601.exe)
 Copying SCF densities to generalized density rwf, IOpCl= 1 IROHF=0.
 SCF density gives NOpUse=  1 NOpAll=  4.
 Marking SCF density as not fully symmetric.

 **********************************************************************

            Population analysis using the SCF Density.

 **********************************************************************

 Orbital symmetries:
 Alpha Orbitals:
       Occupied  (SG) (SG) (SG) (SG) (SG) (PI) (PI) (PI)
       Virtual   (PI) (SG) (SG) (PI) (PI) (SG) (SG) (SG) (PI) (PI)
                 (SG) (PI) (PI) (?A) (?A) (?A) (DLTA) (DLTA) (PI)
                 (PI) (SG) (PI) (PI) (SG) (SG) (SG) (SG)
 Beta  Orbitals:
       Occupied  (SG) (SG) (SG) (SG) (SG) (PI) (PI)
       Virtual   (PI) (PI) (SG) (SG) (PI) (PI) (SG) (SG) (SG) (PI)
                 (PI) (SG) (PI) (PI) (?A) (?A) (?A) (DLTA) (DLTA)
                 (PI) (PI) (SG) (PI) (PI) (SG) (SG) (SG) (SG)
 Unable to determine electronic state:  partially filled degenerate orbitals.
 Alpha  occ. eigenvalues --  -19.20449 -10.27470  -1.08104  -0.63682  -0.48494
 Alpha  occ. eigenvalues --   -0.43279  -0.41141  -0.13831
 Alpha virt. eigenvalues --   -0.04176   0.06001   0.24726   0.49982   0.51421
 Alpha virt. eigenvalues --    0.61919   0.74846   0.81979   0.93741   0.94470
 Alpha virt. eigenvalues --    1.01119   1.42057   1.42331   1.51493   1.51805
 Alpha virt. eigenvalues --    1.58707   1.93331   1.93590   2.10123   2.10201
 Alpha virt. eigenvalues --    2.36166   2.82566   2.82779   2.93034   3.47371
 Alpha virt. eigenvalues --    3.97697   4.56347
  Beta  occ. eigenvalues --  -19.19591 -10.26347  -1.06385  -0.60832  -0.47277
  Beta  occ. eigenvalues --   -0.40321  -0.37178
  Beta virt. eigenvalues --   -0.02610   0.00920   0.07461   0.25467   0.52403
  Beta virt. eigenvalues --    0.55065   0.62860   0.76873   0.82981   0.94828
  Beta virt. eigenvalues --    0.96933   1.01493   1.42640   1.45177   1.55218
  Beta virt. eigenvalues --    1.55319   1.59392   1.97044   1.97045   2.09909
  Beta virt. eigenvalues --    2.11575   2.37616   2.83209   2.85799   2.93931
  Beta virt. eigenvalues --    3.48728   3.98834   4.58549
          Condensed to atoms (all electrons):
               1          2          3
     1  O    7.893863   0.457207  -0.021229
     2  C    0.457207   5.083585   0.357499
     3  H   -0.021229   0.357499   0.435600
          Atomic-Atomic Spin Densities.
               1          2          3
     1  O    0.509214  -0.258499  -0.000497
     2  C   -0.258499   1.060673  -0.003651
     3  H   -0.000497  -0.003651  -0.044592
 Mulliken charges and spin densities:
               1          2
     1  O   -0.329840   0.250218
     2  C    0.101709   0.798522
     3  H    0.228131  -0.048740
 Sum of Mulliken charges =  -0.00000   1.00000
 Mulliken charges and spin densities with hydrogens summed into heavy atoms:
               1          2
     1  O   -0.329840   0.250218
     2  C    0.329840   0.749782
 APT charges:
               1
     1  O   -0.250034
     2  C   -0.079825
     3  H    0.329860
 Sum of APT charges =  -0.00000
 APT charges with hydrogens summed into heavy atoms:
               1
     1  O   -0.250034
     2  C    0.250034
 Electronic spatial extent (au):  <R**2>=             50.9966
 Charge=             -0.0000 electrons
 Dipole moment (field-independent basis, Debye):
    X=              0.0000    Y=             -0.0000    Z=             -2.4128  Tot=              2.4128
 Quadrupole moment (field-independent basis, Debye-Ang):
   XX=            -11.5370   YY=            -11.0278   ZZ=             -8.8228
   XY=             -0.7489   XZ=             -0.0000   YZ=              0.0000
 Traceless Quadrupole moment (field-independent basis, Debye-Ang):
   XX=             -1.0745   YY=             -0.5652   ZZ=              1.6397
   XY=             -0.7489   XZ=             -0.0000   YZ=              0.0000
 Octapole moment (field-independent basis, Debye-Ang**2):
  XXX=             -0.0000  YYY=             -0.0000  ZZZ=             -3.6390  XYY=             -0.0000
  XXY=             -0.0000  XXZ=              1.1371  XZZ=              0.0000  YZZ=             -0.0000
  YYZ=              0.8660  XYZ=              0.3987
 Hexadecapole moment (field-independent basis, Debye-Ang**3):
 XXXX=            -10.0913 YYYY=             -9.2233 ZZZZ=            -30.9505 XXXY=             -0.6383
 XXXZ=              0.0000 YYYX=             -0.6383 YYYZ=             -0.0000 ZZZX=             -0.0000
 ZZZY=              0.0000 XXYY=             -3.2191 XXZZ=             -8.9854 YYZZ=             -8.5502
 XXYZ=             -0.0000 YYXZ=              0.0000 ZZXY=             -0.6401
 N-N= 2.611493740984D+01 E-N=-3.193275819500D+02  KE= 1.128264792508D+02
 Symmetry A1   KE= 1.031968480115D+02
 Symmetry A2   KE= 3.808689042423D-04
 Symmetry B1   KE= 5.133540756607D+00
 Symmetry B2   KE= 4.495709613868D+00
 Symmetry A1   SP= 8.860023970649D-05
 Symmetry A2   SP=-8.860023970795D-05
 Symmetry B1   SP= 6.609347479446D-01
 Symmetry B2   SP= 3.390652520554D-01
  Exact polarizability:   7.395   0.459   7.083   0.000  -0.000  16.696
 Approx polarizability:   9.325   0.343   9.091   0.000  -0.000  28.865
                          Isotropic Fermi Contact Couplings
        Atom                 a.u.       MegaHertz       Gauss      10(-4) cm-1
     1  O(17)              0.05269     -31.93994     -11.39696     -10.65402
     2  C(13)              0.07170      80.60960      28.76351      26.88847
     3  H(1)              -0.01942     -86.81997     -30.97952     -28.96003
 --------------------------------------------------------
       Center         ----  Spin Dipole Couplings  ----
                      3XX-RR        3YY-RR        3ZZ-RR
 --------------------------------------------------------
     1   Atom        0.715678     -0.017325     -0.698353
     2   Atom        0.450655      0.005023     -0.455678
     3   Atom       -0.019119     -0.045165      0.064283
 --------------------------------------------------------
                        XY            XZ            YZ
 --------------------------------------------------------
     1   Atom        1.078070     -0.000000     -0.000000
     2   Atom        0.655416     -0.000000     -0.000000
     3   Atom        0.038307     -0.000000     -0.000000
 --------------------------------------------------------


 ---------------------------------------------------------------------------------
              Anisotropic Spin Dipole Couplings in Principal Axis System
 ---------------------------------------------------------------------------------

       Atom             a.u.   MegaHertz   Gauss  10(-4) cm-1        Axes

              Baa    -0.7895    57.127    20.384    19.055 -0.5823  0.8130 -0.0000
     1 O(17)  Bbb    -0.6984    50.532    18.031    16.856  0.0000  0.0000  1.0000
              Bcc     1.4878  -107.659   -38.415   -35.911  0.8130  0.5823 -0.0000
 
              Baa    -0.4644   -62.320   -22.237   -20.788 -0.5823  0.8130  0.0000
     2 C(13)  Bbb    -0.4557   -61.148   -21.819   -20.397  0.0000  0.0000  1.0000
              Bcc     0.9201   123.468    44.056    41.184  0.8130  0.5823 -0.0000
 
              Baa    -0.0726   -38.737   -13.822   -12.921 -0.5823  0.8130  0.0000
     3 H(1)   Bbb     0.0083     4.438     1.584     1.480  0.8130  0.5823 -0.0000
              Bcc     0.0643    34.299    12.239    11.441  0.0000  0.0000  1.0000
 

 ---------------------------------------------------------------------------------

 No NMR shielding tensors so no spin-rotation constants.
 Leave Link  601 at Thu Dec 26 15:13:23 2019, MaxMem=  1879048192 cpu:               1.7 elap:               0.2
 (Enter /opt/g16/l701.exe)
 SCFChk:  SCF convergence  6.64D-09 required  1.00D-08
 ... and contract with generalized density number  0.
 Compute integral second derivatives.
 Density matrix is not symmetric, so symmetry will not be used here.
 Entering OneElI...
 Calculate overlap and kinetic energy integrals
    NBasis =  35  MinDer = 2  MaxDer = 2
 Requested accuracy = 0.1000D-14
 PrmmSu-InSpLW:  IPartL=    0 NPrtUS=    8 NPrtUL=    1 DoSpLW=F IThBeg=    0 IThEnd=    7 NThAct=    8.
 PrSmSu:  IncTry=   512 NBBP=             66 NTPThr=   100 NPartT=    8 Incr=           1 LDynOK=F GPUOK=F.
 PrsmSu:  NPrtUS=   8 ThrOK=T IAlg=2 LenDen=           0 ISkipM=0 DoSpLW=F IThBeg=    0 IThEnd=    7.
 Prism:   IPart=     0 DynPar=F LinDyn=F Incr=           1.
 PRISM was handed   234875252 working-precision words and    66 shell-pairs
 PRISM was handed   234875252 working-precision words and    66 shell-pairs
 PRISM was handed   234875252 working-precision words and    66 shell-pairs
 PRISM was handed   234875252 working-precision words and    66 shell-pairs
 PRISM was handed   234875252 working-precision words and    66 shell-pairs
 PRISM was handed   234875252 working-precision words and    66 shell-pairs
 PRISM was handed   234875252 working-precision words and    66 shell-pairs
 PRISM was handed   234875252 working-precision words and    66 shell-pairs
 IPart=  5 NShTot=           0 NBatch=           0 AvBLen=         0.0
 IPart=  7 NShTot=           0 NBatch=           0 AvBLen=         0.0
 IPart=  3 NShTot=           7 NBatch=           7 AvBLen=         1.0
 IPart=  2 NShTot=          10 NBatch=          10 AvBLen=         1.0
 IPart=  4 NShTot=           0 NBatch=           0 AvBLen=         0.0
 IPart=  6 NShTot=           0 NBatch=           0 AvBLen=         0.0
 IPart=  1 NShTot=          19 NBatch=          19 AvBLen=         1.0
 IPart=  0 NShTot=          30 NBatch=          30 AvBLen=         1.0
 PrSmSu:  NxtVal=              9.
 Entering OneElI...
 Calculate potential energy integrals
    NBasis =  35  MinDer = 2  MaxDer = 2
 Requested accuracy = 0.1000D-14
 PrmmSu-InSpLW:  IPartL=    0 NPrtUS=    8 NPrtUL=    1 DoSpLW=F IThBeg=    0 IThEnd=    7 NThAct=    8.
 PrSmSu:  IncTry=   512 NBBP=            198 NTPThr=   100 NPartT=    8 Incr=           1 LDynOK=F GPUOK=F.
 PrsmSu:  NPrtUS=   8 ThrOK=T IAlg=2 LenDen=           0 ISkipM=0 DoSpLW=F IThBeg=    0 IThEnd=    7.
 Prism:   IPart=     0 DynPar=F LinDyn=F Incr=           1.
 PRISM was handed   234875573 working-precision words and    66 shell-pairs
 PRISM was handed   234875573 working-precision words and    66 shell-pairs
 PRISM was handed   234875573 working-precision words and    66 shell-pairs
 PRISM was handed   234875573 working-precision words and    66 shell-pairs
 PRISM was handed   234875573 working-precision words and    66 shell-pairs
 PRISM was handed   234875573 working-precision words and    66 shell-pairs
 PRISM was handed   234875573 working-precision words and    66 shell-pairs
 PRISM was handed   234875573 working-precision words and    66 shell-pairs
 IPart=  6 NShTot=           0 NBatch=           0 AvBLen=         0.0
 IPart=  4 NShTot=           3 NBatch=           1 AvBLen=         3.0
 IPart=  2 NShTot=          30 NBatch=          10 AvBLen=         3.0
 IPart=  1 NShTot=          57 NBatch=          19 AvBLen=         3.0
 IPart=  3 NShTot=          18 NBatch=           6 AvBLen=         3.0
 IPart=  5 NShTot=           0 NBatch=           0 AvBLen=         0.0
 IPart=  7 NShTot=           0 NBatch=           0 AvBLen=         0.0
 IPart=  0 NShTot=          90 NBatch=          30 AvBLen=         3.0
 PrSmSu:  NxtVal=              9.
 Polarizability after L701:
                1             2             3 
      1  0.739515D+01
      2  0.459057D+00  0.708303D+01
      3  0.000000D+00  0.000000D+00  0.166965D+02
 Dipole Derivatives after L701:
                 1             2             3             4             5 
      1  -0.620438D-01  0.140869D+00  0.000000D+00 -0.339744D+00 -0.298768D+00
      2   0.140868D+00 -0.157823D+00  0.000000D+00 -0.298767D+00 -0.136605D+00
      3   0.000000D+00  0.000000D+00 -0.530236D+00  0.000000D+00  0.000000D+00
                 6             7             8             9 
      1   0.000000D+00  0.401787D+00  0.157899D+00  0.000000D+00
      2   0.000000D+00  0.157899D+00  0.294429D+00  0.000000D+00
      3   0.236874D+00  0.000000D+00  0.000000D+00  0.293362D+00
 Hessian after L701:
                1             2             3             4             5 
      1  0.938979D+01
      2 -0.132397D+01  0.102900D+02
      3  0.000000D+00  0.000000D+00 -0.428264D+01
      4 -0.932428D+01  0.136430D+01  0.000000D+00  0.112719D+02
      5  0.136430D+01 -0.102519D+02  0.000000D+00 -0.141986D+01  0.122373D+02
      6  0.000000D+00  0.000000D+00  0.398249D+01  0.000000D+00  0.000000D+00
      7 -0.655114D-01 -0.403334D-01  0.000000D+00 -0.194765D+01  0.555586D-01
      8 -0.403333D-01 -0.380880D-01  0.000000D+00  0.555584D-01 -0.198543D+01
      9  0.000000D+00  0.000000D+00  0.300146D+00  0.000000D+00  0.000000D+00
                6             7             8             9 
      6 -0.385260D+01
      7  0.000000D+00  0.201316D+01
      8  0.000000D+00 -0.152251D-01  0.202352D+01
      9 -0.129892D+00  0.000000D+00  0.000000D+00 -0.170254D+00
 Leave Link  701 at Thu Dec 26 15:13:23 2019, MaxMem=  1879048192 cpu:               2.5 elap:               0.3
 (Enter /opt/g16/l702.exe)
 L702 exits ... SP integral derivatives will be done elsewhere.
 Leave Link  702 at Thu Dec 26 15:13:23 2019, MaxMem=  1879048192 cpu:               0.4 elap:               0.0
 (Enter /opt/g16/l703.exe)
 Integral derivatives from FoFJK, PRISM(SPDF).
 Compute integral second derivatives, UseDBF=F ICtDFT=           0.
 Density matrix is not symmetric, so symmetry will not be used here.
 ICntrl=    100127.
 Calling FoFJK, ICntrl=    100127 FMM=F ISym2X=0 I1Cent= 0 IOpClX= 1 NMat=1 NMatS=1 NMatT=0.
 FoFJK:  IHMeth= 1 ICntrl=  100127 DoSepK=F KAlg= 0 I1Cent=           0 FoldK=F
 IRaf=         0 NMat=       1 IRICut=       1 DoRegI=T DoRafI=F ISym2E= 0 IDoP0=0 IntGTp=1.
 FoFCou: FMM=F IPFlag=           0 FMFlag=      100000 FMFlg1=         800
         NFxFlg=           0 DoJE=F BraDBF=F KetDBF=F FulRan=T
         wScrn=  0.000000 ICntrl=    100127 IOpCl=  1 I1Cent=           0 NGrid=           0
         NMat0=    1 NMatS0=      1 NMatT0=    0 NMatD0=    1 NMtDS0=    0 NMtDT0=    0
 Symmetry not used in FoFCou.
 FoFCou:  KetSym=F NOpSet=  1 NOpAb=4 NOp=  1.
 FoFCou:  CnvScl= 1.00D+00 Thresh= 1.00D-12 IAcrcy=      10.
 PrismS was handed  1879033037 working-precision words and    66 shell-pairs
 FoFCou: LinMIO=F DoNuc=F BraDBF=F KetDBF=F HaveP=T PDBF=F HaveZ=T HaveW=F
         NIJTC =      10 NIJTAt=       0 NIJTCD=       0 NIJTT =      10
         IJTBeg=       1 IJTEnd=      10 KLTBeg=       1 KLTEnd=      10
         IPTBeg=       1 IPTEnd=      10 IPTBCv=       1 IPTECv=      10
         IZTBeg=       1 IZTEnd=      10 IZTBCv=       1 IZTECv=      10
         IWTBeg=      11 IWTEnd=      10 IWTBCv=      11 IWTECv=      10
         INTBeg=       1 INTEnd=       0 IFTBCv=       1 IFTECv=      10
 NCel replicated for PrismC:     1
 CoulSu-InSpLW:  IPartL=    0 NPrtUS=    8 NPrtUL=    1 DoSpLW=F IThBeg=    0 IThEnd=    7 NThAct=    8.
 CoulSu:  IncTry=  1024 NBBP=           2211 NTPThr=   100 NPartT=    8 Incr=           2 LDynOK=F GPUOK=F.
 CoulSu:  NPrtUS=   8 ThrOK=T IAlg=2 LenDen=           0 LWGrdD=           0 DoCopy=F ISkipM=0
          DoSpLW=F IThBeg=    0 IThEnd=    7.
 Enter PrismC:  IPart=  0 JobTyp=22 DoJE=F Cont=F.
 PrismC:  IPart=     0 DynPar=F LinDyn=F Incr=           2 UseFst=F UseS4=T ISplat=2.
 PrismC was handed   234875620 working-precision words and    66 shell-pairs
 Enter PrismC:  IPart=  7 JobTyp=22 DoJE=F Cont=F.
 Enter PrismC:  IPart=  3 JobTyp=22 DoJE=F Cont=F.
 PrismC:  IPart=     7 DynPar=F LinDyn=F Incr=           2 UseFst=F UseS4=T ISplat=2.
 PrismC was handed   234875620 working-precision words and    66 shell-pairs
 PrismC:  IPart=     3 DynPar=F LinDyn=F Incr=           2 UseFst=F UseS4=T ISplat=2.
 PrismC was handed   234875620 working-precision words and    66 shell-pairs
 Enter PrismC:  IPart=  6 JobTyp=22 DoJE=F Cont=F.
 Enter PrismC:  IPart=  2 JobTyp=22 DoJE=F Cont=F.
 PrismC:  IPart=     6 DynPar=F LinDyn=F Incr=           2 UseFst=F UseS4=T ISplat=2.
 PrismC:  IPart=     2 DynPar=F LinDyn=F Incr=           2 UseFst=F UseS4=T ISplat=2.
 Enter PrismC:  IPart=  5 JobTyp=22 DoJE=F Cont=F.
 PrismC was handed   234875620 working-precision words and    66 shell-pairs
 PrismC was handed   234875620 working-precision words and    66 shell-pairs
 Enter PrismC:  IPart=  1 JobTyp=22 DoJE=F Cont=F.
 PrismC:  IPart=     5 DynPar=F LinDyn=F Incr=           2 UseFst=F UseS4=T ISplat=2.
 PrismC was handed   234875620 working-precision words and    66 shell-pairs
 PrismC:  IPart=     1 DynPar=F LinDyn=F Incr=           2 UseFst=F UseS4=T ISplat=2.
 PrismC was handed   234875620 working-precision words and    66 shell-pairs
 Enter PrismC:  IPart=  4 JobTyp=22 DoJE=F Cont=F.
 PrismC:  IPart=     4 DynPar=F LinDyn=F Incr=           2 UseFst=F UseS4=T ISplat=2.
 PrismC was handed   234875620 working-precision words and    66 shell-pairs
 IPart=  7 NShTot=         124 NShNF=         124 NShFF=           0 MinMC=       7
           NShCPU=         124 NBCPU=         109 AvBCPU=         1.1
           NShGPU=           0 NBGPU=           0 AvBGPU=         0.0
 IPart=  6 NShTot=         124 NShNF=         124 NShFF=           0 MinMC=       7
           NShCPU=         124 NBCPU=         109 AvBCPU=         1.1
           NShGPU=           0 NBGPU=           0 AvBGPU=         0.0
 IPart=  5 NShTot=         162 NShNF=         162 NShFF=           0 MinMC=       7
           NShCPU=         162 NBCPU=         141 AvBCPU=         1.1
           NShGPU=           0 NBGPU=           0 AvBGPU=         0.0
 IPart=  4 NShTot=         166 NShNF=         166 NShFF=           0 MinMC=       7
           NShCPU=         166 NBCPU=         145 AvBCPU=         1.1
           NShGPU=           0 NBGPU=           0 AvBGPU=         0.0
 IPart=  3 NShTot=         295 NShNF=         295 NShFF=           0 MinMC=       7
           NShCPU=         295 NBCPU=         256 AvBCPU=         1.2
           NShGPU=           0 NBGPU=           0 AvBGPU=         0.0
 IPart=  2 NShTot=         345 NShNF=         345 NShFF=           0 MinMC=       7
           NShCPU=         345 NBCPU=         306 AvBCPU=         1.1
           NShGPU=           0 NBGPU=           0 AvBGPU=         0.0
 IPart=  1 NShTot=         444 NShNF=         444 NShFF=           0 MinMC=       7
           NShCPU=         444 NBCPU=         405 AvBCPU=         1.1
           NShGPU=           0 NBGPU=           0 AvBGPU=         0.0
 IPart=  0 NShTot=         548 NShNF=         548 NShFF=           0 MinMC=       7
           NShCPU=         548 NBCPU=         493 AvBCPU=         1.1
           NShGPU=           0 NBGPU=           0 AvBGPU=         0.0
 CoulSu:  NxtVal=             17 LenVP=      234875621 MinMC=       7.
 ReadGW:  IGet=0 IStart=           1 Next=           1 LGW=           0.
 Remaining memory in FofDFT     1792.00 Mw
 CkSvGd:  ISavGI=        -1 IRadAn=       5 IRASav=       5 ISavGd=        -1.
 CalDSu-InSpLW:  IPartL=    0 NPrtUS=    8 NPrtUL=    1 DoSpLW=F IThBeg=    0 IThEnd=    7 NThAct=    8.
 CalDSu:  NPrtUS=   8 ThrOK=T IAlg=1 DoDPD=T LenP=         630 LenD1P=             0 GPUOK=F
          ISkipM=0 DoSpLW=F IThBeg=    0 IThEnd=    7.
 IPart=  0 IRanGd=          0 ScrnBf=T ScrnGd=T RCrit=4.00D+00 DoMicB=T.
 IPart=  7         8226 of         8450 points in       7 batches and       54 microbatches, Max-NSigAt=       3 Max-NSgAt2=       3
 IPart=  3         8019 of         8148 points in       7 batches and       29 microbatches, Max-NSigAt=       3 Max-NSgAt2=       3
 IPart=  1         7794 of         8070 points in       8 batches and       59 microbatches, Max-NSigAt=       3 Max-NSgAt2=       3
 IPart=  5         7449 of         7698 points in       8 batches and       55 microbatches, Max-NSigAt=       3 Max-NSgAt2=       3
 IPart=  0         7464 of         7788 points in       8 batches and       73 microbatches, Max-NSigAt=       3 Max-NSgAt2=       3
 IPart=  4         8100 of         8210 points in       5 batches and       34 microbatches, Max-NSigAt=       3 Max-NSgAt2=       3
 IPart=  6         8329 of         8702 points in      10 batches and       81 microbatches, Max-NSigAt=       3 Max-NSgAt2=       3
 IPart=  2         7906 of         8098 points in       6 batches and       53 microbatches, Max-NSigAt=       3 Max-NSgAt2=       3
 Polarizability after L703:
                1             2             3 
      1  0.739515D+01
      2  0.459057D+00  0.708303D+01
      3  0.000000D+00  0.000000D+00  0.166965D+02
 Dipole Derivatives after L703:
                 1             2             3             4             5 
      1  -0.620438D-01  0.140869D+00  0.000000D+00 -0.339744D+00 -0.298768D+00
      2   0.140868D+00 -0.157823D+00  0.000000D+00 -0.298767D+00 -0.136605D+00
      3   0.000000D+00  0.000000D+00 -0.530236D+00  0.000000D+00  0.000000D+00
                 6             7             8             9 
      1   0.000000D+00  0.401787D+00  0.157899D+00  0.000000D+00
      2   0.000000D+00  0.157899D+00  0.294429D+00  0.000000D+00
      3   0.236874D+00  0.000000D+00  0.000000D+00  0.293362D+00
 Hessian after L703:
                1             2             3             4             5 
      1 -0.332656D-01
      2 -0.351930D-01 -0.933724D-02
      3  0.000000D+00  0.000000D+00  0.991752D+00
      4  0.705504D-01  0.746413D-01  0.000000D+00 -0.149601D+00
      5  0.746412D-01  0.198004D-01  0.000000D+00 -0.158307D+00 -0.419632D-01
      6  0.000000D+00  0.000000D+00 -0.100797D+01  0.000000D+00  0.000000D+00
      7 -0.372848D-01 -0.394483D-01  0.000000D+00  0.790506D-01  0.836659D-01
      8 -0.394482D-01 -0.104632D-01  0.000000D+00  0.836658D-01  0.221627D-01
      9  0.000000D+00  0.000000D+00  0.162166D-01  0.000000D+00  0.000000D+00
                6             7             8             9 
      6  0.144254D+01
      7  0.000000D+00 -0.417658D-01
      8  0.000000D+00 -0.442176D-01 -0.116995D-01
      9 -0.434576D+00  0.000000D+00  0.000000D+00  0.418359D+00
 Leave Link  703 at Thu Dec 26 15:13:25 2019, MaxMem=  1879048192 cpu:               9.1 elap:               1.1
 (Enter /opt/g16/l716.exe)
 FrcOut:
 IF    =        38 IFX   =        47 IFXYZ =        56
 IFFX  =        65 IFFFX =       110 IFLen =         9
 IFFLen=        45 IFFFLn=         0 IEDerv=       110
 LEDerv=       485 IFroze=       731 ICStrt=      3293
 Dipole        = 2.01123676D-17-2.26082077D-16-9.49252698D-01
 DipoleDeriv   =-6.20438050D-02 1.40868408D-01 3.96813963D-16
                 1.40868677D-01-1.57823443D-01-1.42934645D-16
                -3.44183102D-17-1.56371655D-16-5.30236018D-01
                -3.39743648D-01-2.98767115D-01-6.07336026D-16
                -2.98767890D-01-1.36605224D-01-4.04918302D-16
                 1.02811607D-16 3.29178077D-16 2.36873535D-01
                 4.01787453D-01 1.57898707D-01 2.10522063D-16
                 1.57899212D-01 2.94428666D-01 5.47852947D-16
                -6.83932964D-17-1.72806423D-16 2.93362483D-01
 Polarizability= 7.39515022D+00 4.59057082D-01 7.08302688D+00
                 3.61015430D-16-1.10062708D-15 1.66964927D+01
 Quadrupole    =-7.98837727D-01-4.20248339D-01 1.21908607D+00
                -5.56813236D-01-4.14037598D-16 2.60435840D-16
 VibFq2-Diag1:  N=      9 IV=           4 MDV=  1879044339 NE2=   208782704
 Full mass-weighted force constant matrix:
 Low frequencies ----1612.8294   -0.0022   -0.0012   -0.0011    7.4759    7.7440
 Low frequencies ---  840.8656 1883.4822 3498.0910
 OrtVCM:  Ph=1 IPass= 1 DotMx1= 0.00D+00
 OrtVCM:  IS=    1 I=    1 IndO=    1 Dot= 1.00D+00 DotN= 1.00D+00 ElMax1= 7.43D-01 ElMax1N= 7.43D-01
 OrtVCM:  Ph=2 NNew=    0 IAdd=    2 IPass= 1 DotMx2= 0.00D+00
 OrtVCM:  IS=    1 I=    2 IndO=    2 Dot= 1.00D+00 DotN= 1.00D+00 ElMax1= 7.43D-01 ElMax1N= 7.43D-01
 OrtVCM:  Ph=2 NNew=    0 IAdd=    3 IPass= 1 DotMx2= 0.00D+00
 OrtVCM:  IS=    1 I=    3 IndO=    3 Dot= 1.00D+00 DotN= 1.00D+00 ElMax1= 7.43D-01 ElMax1N= 7.43D-01
 OrtVCM:  Ph=2 NNew=    0 IAdd=    4 IPass= 1 DotMx2= 6.94D-17
 OrtVCM:  IS=    1 I=    4 IndO=    4 Dot= 1.00D+00 DotN= 1.00D+00 ElMax1= 5.98D-01 ElMax1N= 5.98D-01
 OrtVCM:  Ph=2 NNew=    0 IAdd=    5 IPass= 1 DotMx2= 4.16D-17
 OrtVCM:  IS=    1 I=    5 IndO=    5 Dot= 1.00D+00 DotN= 1.00D+00 ElMax1= 5.98D-01 ElMax1N= 5.98D-01
 OrtVCM:  Ph=1 IPass= 1 DotMx1= 7.43D-01
 OrtVCM:  Ph=1 IPass= 2 DotMx1= 1.39D-16
 OrtVCM:  IS=    1 I=    1 IndO=    6 Dot= 3.71D-02 DotN= 3.71D-02 ElMax1= 1.66D-01 ElMax1N= 1.66D-01
 OrtVCM:  Ph=2 NNew=    0 IAdd=    2 IPass= 1 DotMx2= 1.06D-18
 OrtVCM:  IS=    1 I=    2 IndO=    7 Dot= 3.71D-02 DotN= 3.71D-02 ElMax1= 1.66D-01 ElMax1N= 1.66D-01
 OrtVCM:  Ph=2 NNew=    0 IAdd=    3 IPass= 1 DotMx2= 4.77D-23
 OrtVCM:  IS=    1 I=    3 IndO=    8 Dot= 4.49D-01 DotN= 4.49D-01 ElMax1= 4.78D-01 ElMax1N= 4.78D-01
 OrtVCM:  Ph=2 NNew=    0 IAdd=    4 IPass= 1 DotMx2= 4.72D-01
 OrtVCM:  Ph=2 NNew=    0 IAdd=    4 IPass= 2 DotMx2= 3.96D-17
 OrtVCM:  IS=    1 I=    4 IndO=    0 Dot= 6.82D-33 DotN= 6.82D-33 ElMax1= 6.18D-17 ElMax1N= 6.18D-17
 SchOr2:  IPass= 1 Test2A= 1.00D-01 IOff=     0 NDo=     4 NNew=     3
 OrtVCM:  Ph=1 IPass= 1 DotMx1= 6.43D-01
 OrtVCM:  Ph=1 IPass= 2 DotMx1= 1.20D-16
 OrtVCM:  IS=    1 I=    1 IndO=    0 Dot= 4.82D-46 DotN= 4.82D-46 ElMax1= 2.11D-23 ElMax1N= 2.11D-23
 SchOr2:  IPass= 1 Test2A= 1.00D-01 IOff=     4 NDo=     1 NNew=     0
 OrtVCM:  Ph=1 IPass= 1 DotMx1= 7.13D-01
 OrtVCM:  Ph=1 IPass= 2 DotMx1= 4.16D-17
 OrtVCM:  IS=    1 I=    1 IndO=    9 Dot= 7.75D-02 DotN= 7.75D-02 ElMax1= 2.67D-01 ElMax1N= 2.67D-01
 SchOr2:  IPass= 1 Test2A= 1.00D-01 IOff=     5 NDo=     1 NNew=     1
 VibFq2-Diag2:  N=      4 IV=           4 MDV=  1879044339 NE2=   469761084
 ******    1 imaginary frequencies (negative Signs) ****** 
 Dipole derivative wrt mode   1:  1.31632D+01  9.42806D+00  1.64924D-14
 Vibrational polarizability contributions from mode   1       1.7925861       0.9196042       0.0000000
 Dipole derivative wrt mode   2: -2.40723D+00  3.36110D+00  1.21336D-14
 Vibrational polarizability contributions from mode   2       0.2205547       0.4299741       0.0000000
 Dipole derivative wrt mode   3:  4.64202D-16 -8.35717D-16  7.04414D+00
 Vibrational polarizability contributions from mode   3       0.0000000       0.0000000       0.3764147
 Dipole derivative wrt mode   4: -1.14635D-15 -6.02321D-15  7.43791D+00
 Vibrational polarizability contributions from mode   4       0.0000000       0.0000000       0.1216671
 Diagonal vibrational polarizability:
        2.0131408       1.3495783       0.4980818
 NorSel:  MapVib=      1      2      3      4
 Harmonic frequencies (cm**-1), IR intensities (KM/Mole), Raman scattering
 activities (A**4/AMU), depolarization ratios for plane and unpolarized
 incident light, reduced masses (AMU), force constants (mDyne/A),
 and normal coordinates:
                      1                      2                      3
                     PI                     PI                     SG
 Frequencies --  -1612.8294               840.8655              1883.4822
 Red. masses --      1.3238                 1.3238                 6.1646
 Frc consts  --      2.0288                 0.5515                12.8849
 IR Inten    --    262.1585                17.0917                49.6200
  Atom  AN      X      Y      Z        X      Y      Z        X      Y      Z
     1   8     0.05   0.03  -0.00    -0.03   0.05  -0.00     0.00  -0.00  -0.41
     2   6    -0.13  -0.09   0.00     0.09  -0.13   0.00    -0.00   0.00   0.49
     3   1     0.80   0.57  -0.00    -0.57   0.80   0.00     0.00  -0.00   0.77
                      4
                     SG
 Frequencies --   3498.0910
 Red. masses --      1.1462
 Frc consts  --      8.2638
 IR Inten    --     55.3225
  Atom  AN      X      Y      Z
     1   8     0.00  -0.00   0.02
     2   6    -0.00   0.00  -0.11
     3   1     0.00  -0.00   0.99

 -------------------
 - Thermochemistry -
 -------------------
 Temperature   298.150 Kelvin.  Pressure   1.00000 Atm.
 Atom     1 has atomic number  8 and mass  15.99491
 Atom     2 has atomic number  6 and mass  12.00000
 Atom     3 has atomic number  1 and mass   1.00783
 Molecular mass:    29.00274 amu.
 Principal axes and moments of inertia in atomic units:
                           1         2         3
     Eigenvalues --     0.00000  45.55816  45.55816
           X           -0.00000   0.36346   0.93161
           Y           -0.00000   0.93161  -0.36346
           Z            1.00000   0.00000   0.00000
 This molecule is a prolate symmetric top.
 Rotational symmetry number  1.
 Rotational temperature (Kelvin)      1.90117
 Rotational constant (GHZ):          39.614004
    1 imaginary frequencies ignored.
 Zero-point vibrational energy      37218.4 (Joules/Mol)
                                    8.89542 (Kcal/Mol)
 Vibrational temperatures:   1209.82  2709.91  5032.97
          (Kelvin)
 
 Zero-point correction=                           0.014176 (Hartree/Particle)
 Thermal correction to Energy=                    0.016605
 Thermal correction to Enthalpy=                  0.017549
 Thermal correction to Gibbs Free Energy=        -0.006026
 Sum of electronic and zero-point Energies=           -113.794929
 Sum of electronic and thermal Energies=              -113.792500
 Sum of electronic and thermal Enthalpies=            -113.791556
 Sum of electronic and thermal Free Energies=         -113.815131
 
                     E (Thermal)             CV                S
                      KCal/Mol        Cal/Mol-Kelvin    Cal/Mol-Kelvin
 Total                   10.420              5.572             49.617
 Electronic               0.000              0.000              1.377
 Translational            0.889              2.981             36.028
 Rotational               0.592              1.987             12.033
 Vibrational              8.938              0.604              0.179
                       Q            Log10(Q)             Ln(Q)
 Total Bot       0.591273D+03          2.771788          6.382278
 Total V=0       0.195965D+10          9.292178         21.396032
 Vib (Bot)       0.307066D-06         -6.512768        -14.996202
 Vib (V=0)       0.101771D+01          0.007623          0.017552
 Electronic      0.200000D+01          0.301030          0.693147
 Translational   0.613921D+07          6.788112         15.630206
 Rotational      0.156824D+03          2.195413          5.055126
 Write normal modes, IRwNMS=   765 IRotNM=-1 NVibU=     4.
 
                                                                 name
                                                             IR Spectrum
 
     3                                                          1                                                                    
     4                                                          8                                     8                              
     9                                                          8                                     4                              
     8                                                          3                                     1                              
 
     X                                                          X                                     X                              
     X                                                          X                                     X                              
     X                                                          X                                     X                              
     X                                                          X                                     X                              
     X                                                          X                                     X                              
     X                                                          X                                     X                              
     X                                                          X                                                                    
     X                                                          X                                                                    
     X                                                          X                                                                    
     X                                                          X                                                                    
     X                                                          X                                                                    
     X                                                          X                                                                    
     X                                                          X                                                                    
     X                                                          X                                                                    
     X                                                          X                                                                    
     X                                                          X                                                                    
     X                                                          X                                                                    
     X                                                          X                                                                    
     X                                                                                                                               
     X                                                                                                                               
 
 Forces in standard orientation:
 -------------------------------------------------------------------
 Center     Atomic                   Forces (Hartrees/Bohr)
 Number     Number              X              Y              Z
 -------------------------------------------------------------------
      1        8           0.000000000    0.000000000    0.000001454
      2        6           0.000000000   -0.000000000    0.000058541
      3        1          -0.000000000   -0.000000000   -0.000059995
 -------------------------------------------------------------------
 Cartesian Forces:  Max     0.000059995 RMS     0.000027946
 ***** Axes restored to original set *****
 Rotating derivatives, DoTrsp=F IDiff=-2 LEDeriv=    484 LFDPrp=       0 LDFDPr=       0.
 -------------------------------------------------------------------
 Center     Atomic                   Forces (Hartrees/Bohr)
 Number     Number              X              Y              Z
 -------------------------------------------------------------------
      1        8          -0.000001444    0.000000165   -0.000000000
      2        6          -0.000058161    0.000006661    0.000000000
      3        1           0.000059605   -0.000006826   -0.000000000
 -------------------------------------------------------------------
 Cartesian Forces:  Max     0.000059605 RMS     0.000027946
 Z-matrix is all fixed cartesians, so copy forces.
 Force constants in Cartesian coordinates: 
                1             2             3             4             5 
      1  0.978686D+00
      2 -0.114095D+00 -0.453707D-02
      3  0.420821D-02  0.367465D-01 -0.249996D-01
      4 -0.994437D+00  0.118158D+00 -0.892523D-02  0.142285D+01
      5  0.118158D+00  0.238004D-01 -0.779360D-01 -0.172008D+00 -0.594475D-01
      6 -0.892525D-02 -0.779361D-01  0.530189D-01  0.189296D-01  0.165295D+00
      7  0.157513D-01 -0.406318D-02  0.471702D-02 -0.428409D+00  0.538500D-01
      8 -0.406318D-02 -0.192634D-01  0.411895D-01  0.538500D-01  0.356470D-01
      9  0.471704D-02  0.411896D-01 -0.280193D-01 -0.100044D-01 -0.873593D-01
                6             7             8             9 
      6 -0.112418D+00
      7 -0.100044D-01  0.412658D+00
      8 -0.873592D-01 -0.497868D-01 -0.163837D-01
      9  0.593994D-01  0.528736D-02  0.461697D-01 -0.313801D-01
 Final forces over variables, Energy=-1.13809105D+02:
 -1.44412284D-06-5.81612240D-05 5.96053469D-05 1.65381088D-07
  6.66062974D-06-6.82601083D-06-1.20216209D-15 2.23117726D-15
 -1.02901517D-15
 Leave Link  716 at Thu Dec 26 15:13:25 2019, MaxMem=  1879048192 cpu:               0.5 elap:               0.1
 (Enter /opt/g16/l103.exe)

 GradGradGradGradGradGradGradGradGradGradGradGradGradGradGradGradGradGrad
 Berny optimization.
 Search for a local minimum.
 Step number   1 out of a maximum of    2
 All quantities printed in internal units (Hartrees-Bohrs-Radians)
 Second derivative matrix not updated -- analytic derivatives used.
 The second derivative matrix:
                          X1        Y1        Z1        X2        Y2
           X1           0.97869
           Y1          -0.11410  -0.00454
           Z1           0.00421   0.03675  -0.02500
           X2          -0.99444   0.11816  -0.00893   1.42285
           Y2           0.11816   0.02380  -0.07794  -0.17201  -0.05945
           Z2          -0.00893  -0.07794   0.05302   0.01893   0.16530
           X3           0.01575  -0.00406   0.00472  -0.42841   0.05385
           Y3          -0.00406  -0.01926   0.04119   0.05385   0.03565
           Z3           0.00472   0.04119  -0.02802  -0.01000  -0.08736
                          Z2        X3        Y3        Z3
           Z2          -0.11242
           X3          -0.01000   0.41266
           Y3          -0.08736  -0.04979  -0.01638
           Z3           0.05940   0.00529   0.04617  -0.03138
 ITU=  0
     Eigenvalues ---   -0.32582   0.08851   0.47058   2.31517
 Eigenvalue     1 is  -3.26D-01 should be greater than     0.000000 Eigenvector:
                          Z3        Y3        Z2        Y2        Z1
   1                    0.56931  -0.51187  -0.43977   0.39540   0.17957
                          Y1        X3        X2        X1
   1                   -0.16145  -0.05862   0.04528  -0.01849
 Angle between quadratic step and forces=  35.78 degrees.
 Linear search not attempted -- first point.
 B after Tr=    -0.000025    0.000003   -0.000000
         Rot=    0.871108    0.487902   -0.055875    0.000000 Ang=  58.82 deg.
 Variable       Old X    -DE/DX   Delta X   Delta X   Delta X     New X
                                 (Linear)    (Quad)   (Total)
    X1        2.16216  -0.00000   0.00000  -0.00002  -0.00005   2.16211
    Y1       -0.24761   0.00000   0.00000   0.00000   0.00001  -0.24761
    Z1        0.00000  -0.00000   0.00000  -0.00000   0.00000   0.00000
    X2       -0.08065  -0.00006   0.00000  -0.00002  -0.00005  -0.08069
    Y2        0.00924   0.00001   0.00000   0.00000   0.00001   0.00924
    Z2       -0.00000   0.00000   0.00000   0.00000  -0.00000  -0.00000
    X3       -2.08151   0.00006   0.00000   0.00012   0.00010  -2.08141
    Y3        0.23837  -0.00001   0.00000  -0.00001  -0.00001   0.23836
    Z3        0.00000  -0.00000   0.00000  -0.00000   0.00000   0.00000
         Item               Value     Threshold  Converged?
 Maximum Force            0.000060     0.000450     YES
 RMS     Force            0.000028     0.000300     YES
 Maximum Displacement     0.000096     0.001800     YES
 RMS     Displacement     0.000040     0.001200     YES
 Predicted change in Energy=-4.308998D-09
 Optimization completed.
    -- Stationary point found.
 GradGradGradGradGradGradGradGradGradGradGradGradGradGradGradGradGradGrad

 Leave Link  103 at Thu Dec 26 15:13:25 2019, MaxMem=  1879048192 cpu:               0.3 elap:               0.0
 (Enter /opt/g16/l9999.exe)

 ----------------------------------------------------------------------

 Electric dipole moment (input orientation):
 (Debye = 10**-18 statcoulomb cm , SI units = C m)
                  (au)            (Debye)         (10**-30 SI)
   Tot        0.949253D+00      0.241276D+01      0.804810D+01
   x         -0.943089D+00     -0.239709D+01     -0.799584D+01
   y          0.108003D+00      0.274515D+00      0.915684D+00
   z          0.000000D+00      0.000000D+00      0.000000D+00

 Dipole polarizability, Alpha (input orientation).
 (esu units = cm**3 , SI units = C**2 m**2 J**-1)
 Alpha(0;0):
               (au)            (10**-24 esu)      (10**-40 SI)
   iso        0.103916D+02      0.153987D+01      0.171334D+01
   aniso      0.949462D+01      0.140696D+01      0.156545D+01
   xx         0.165734D+02      0.245593D+01      0.273259D+01
   yx        -0.107450D+01     -0.159224D+00     -0.177160D+00
   yy         0.731390D+01      0.108381D+01      0.120590D+01
   zx        -0.548919D-01     -0.813414D-02     -0.905045D-02
   zy        -0.479321D+00     -0.710280D-01     -0.790293D-01
   zz         0.728733D+01      0.107987D+01      0.120152D+01

 ----------------------------------------------------------------------

 Dipole orientation:
     8         -0.00000004         -0.00000032         -2.17629053
     6         -0.00000004         -0.00000032          0.08117488
     1         -0.00000004         -0.00000032          2.09511565

 Electric dipole moment (dipole orientation):
 (Debye = 10**-18 statcoulomb cm , SI units = C m)
                  (au)            (Debye)         (10**-30 SI)
   Tot        0.949253D+00      0.241276D+01      0.804810D+01
   x          0.000000D+00      0.000000D+00      0.000000D+00
   y          0.000000D+00      0.000000D+00      0.000000D+00
   z          0.949253D+00      0.241276D+01      0.804810D+01

 Dipole polarizability, Alpha (dipole orientation).
 (esu units = cm**3 , SI units = C**2 m**2 J**-1)
 Alpha(0;0):
               (au)            (10**-24 esu)      (10**-40 SI)
   iso        0.103916D+02      0.153987D+01      0.171334D+01
   aniso      0.949462D+01      0.140696D+01      0.156545D+01
   xx         0.717701D+01      0.106352D+01      0.118333D+01
   yx        -0.480869D+00     -0.712574D-01     -0.792845D-01
   yy         0.730117D+01      0.108192D+01      0.120380D+01
   zx         0.000000D+00      0.000000D+00      0.000000D+00
   zy         0.000000D+00      0.000000D+00      0.000000D+00
   zz         0.166965D+02      0.247416D+01      0.275288D+01

 ----------------------------------------------------------------------

 Test job not archived.
 1\1\GINC-NODE06\Freq\UB3LYP\6-31G(d,p)\C1H1O1(2)\ALONGD\26-Dec-2019\0\
 \#P guess=read ub3lyp/6-31g(d,p) freq iop(7/33=1) scf=(tight, direct) 
 integral=(grid=ultrafine, Acc2E=12) scf=xqc iop(2/9=2000)\\name\\0,2\O
 ,1.1441649919,-0.131030071,0.\C,-0.042676977,0.0048872008,0.\H,-1.1014
 880729,0.1261423631,0.\\Version=ES64L-G16RevB.01\HF=-113.8091047\S2=0.
 75339\S2-1=0.\S2A=0.750008\RMSD=6.642e-09\RMSF=2.795e-05\ZeroPoint=0.0
 141758\Thermal=0.0166046\Dipole=-0.9430886,0.1080026,0.\DipoleDeriv=-0
 .5249868,0.0458367,-0.0168444,0.0458367,-0.1299859,-0.1470869,-0.01684
 44,-0.1470866,-0.0951306,0.2311304,-0.0501494,0.0357252,-0.0501494,-0.
 2010357,0.3119561,0.0357252,0.3119553,-0.2695701,0.2938564,0.0043127,-
 0.0188808,0.0043127,0.3310216,-0.1648692,-0.0188808,-0.1648687,0.36470
 06\Polar=16.5734414,-1.0744955,7.3139001,-0.0548919,-0.4793208,7.28732
 83\Quadrupole=1.1961718,-0.5281166,-0.6680552,-0.2000898,0.0665811,0.5
 813921\PG=C*V [C*(H1C1O1)]\NImag=1\\0.97868594,-0.11409515,-0.00453707
 ,0.00420821,0.03674648,-0.02499956,-0.99443727,0.11815832,-0.00892523,
 1.42284650,0.11815832,0.02380044,-0.07793595,-0.17200833,-0.05944747,-
 0.00892525,-0.07793609,0.05301889,0.01892963,0.16529524,-0.11241831,0.
 01575133,-0.00406318,0.00471702,-0.42840922,0.05385001,-0.01000438,0.4
 1265789,-0.00406318,-0.01926337,0.04118947,0.05385001,0.03564703,-0.08
 735915,-0.04978683,-0.01638366,0.00471704,0.04118961,-0.02801933,-0.01
 000439,-0.08735929,0.05939942,0.00528736,0.04616968,-0.03138009\\0.000
 00144,-0.00000017,0.,0.00005816,-0.00000666,0.,-0.00005961,0.00000683,
 0.\\\@


      HUMANKIND PERIODICALLY GOES THROUGH A SPEEDUP OF ITS AFFAIRS, 
      THEREBY EXPERIENCING THE RACE BETWEEN THE RENEWABLE VITALITY
      OF THE LIVING, AND THE BECKONING VITIATION OF DECADENCE.
      IN THIS PERIODIC RACE, ANY PAUSE BECOMES A LUXURY.
      ONLY THEN CAN ONE REFLECT THAT ALL IS PERMITTED;
      ALL IS POSSIBLE.

                              -- THE APOCRYPHA OF MUAD'DIB
                                 CHILDREN OF DUNE, BY FRANK HERBERT
 Job cpu time:       0 days  0 hours  0 minutes 41.5 seconds.
 Elapsed time:       0 days  0 hours  0 minutes  5.3 seconds.
 File lengths (MBytes):  RWF=      6 Int=      0 D2E=      0 Chk=      1 Scr=      1
 Normal termination of Gaussian 16 at Thu Dec 26 15:13:25 2019.
