 Entering Gaussian System, Link 0=g16
 Initial command:
 /opt/g16/l1.exe "/scratch/alongd/g16/a2244-25940/Gau-29390.inp" -scrdir="/scratch/alongd/g16/a2244-25940/"
 Entering Link 1 = /opt/g16/l1.exe PID=     29392.
  
 Copyright (c) 1988-2017, Gaussian, Inc.  All Rights Reserved.
  
 This is part of the Gaussian(R) 16 program.  It is based on
 the Gaussian(R) 09 system (copyright 2009, Gaussian, Inc.),
 the Gaussian(R) 03 system (copyright 2003, Gaussian, Inc.),
 the Gaussian(R) 98 system (copyright 1998, Gaussian, Inc.),
 the Gaussian(R) 94 system (copyright 1995, Gaussian, Inc.),
 the Gaussian 92(TM) system (copyright 1992, Gaussian, Inc.),
 the Gaussian 90(TM) system (copyright 1990, Gaussian, Inc.),
 the Gaussian 88(TM) system (copyright 1988, Gaussian, Inc.),
 the Gaussian 86(TM) system (copyright 1986, Carnegie Mellon
 University), and the Gaussian 82(TM) system (copyright 1983,
 Carnegie Mellon University). Gaussian is a federally registered
 trademark of Gaussian, Inc.
  
 This software contains proprietary and confidential information,
 including trade secrets, belonging to Gaussian, Inc.
  
 This software is provided under written license and may be
 used, copied, transmitted, or stored only in accord with that
 written license.
  
 The following legend is applicable only to US Government
 contracts under FAR:
  
                    RESTRICTED RIGHTS LEGEND
  
 Use, reproduction and disclosure by the US Government is
 subject to restrictions as set forth in subparagraphs (a)
 and (c) of the Commercial Computer Software - Restricted
 Rights clause in FAR 52.227-19.
  
 Gaussian, Inc.
 340 Quinnipiac St., Bldg. 40, Wallingford CT 06492
  
  
 ---------------------------------------------------------------
 Warning -- This program may not be used in any manner that
 competes with the business of Gaussian, Inc. or will provide
 assistance to any competitor of Gaussian, Inc.  The licensee
 of this program is prohibited from giving any competitor of
 Gaussian, Inc. access to this program.  By using this program,
 the user acknowledges that Gaussian, Inc. is engaged in the
 business of creating and licensing software in the field of
 computational chemistry and represents and warrants to the
 licensee that it is not a competitor of Gaussian, Inc. and that
 it will not use this program in any manner prohibited above.
 ---------------------------------------------------------------
  

 Cite this work as:
 Gaussian 16, Revision B.01,
 M. J. Frisch, G. W. Trucks, H. B. Schlegel, G. E. Scuseria, 
 M. A. Robb, J. R. Cheeseman, G. Scalmani, V. Barone, 
 G. A. Petersson, H. Nakatsuji, X. Li, M. Caricato, A. V. Marenich, 
 J. Bloino, B. G. Janesko, R. Gomperts, B. Mennucci, H. P. Hratchian, 
 J. V. Ortiz, A. F. Izmaylov, J. L. Sonnenberg, D. Williams-Young, 
 F. Ding, F. Lipparini, F. Egidi, J. Goings, B. Peng, A. Petrone, 
 T. Henderson, D. Ranasinghe, V. G. Zakrzewski, J. Gao, N. Rega, 
 G. Zheng, W. Liang, M. Hada, M. Ehara, K. Toyota, R. Fukuda, 
 J. Hasegawa, M. Ishida, T. Nakajima, Y. Honda, O. Kitao, H. Nakai, 
 T. Vreven, K. Throssell, J. A. Montgomery, Jr., J. E. Peralta, 
 F. Ogliaro, M. J. Bearpark, J. J. Heyd, E. N. Brothers, K. N. Kudin, 
 V. N. Staroverov, T. A. Keith, R. Kobayashi, J. Normand, 
 K. Raghavachari, A. P. Rendell, J. C. Burant, S. S. Iyengar, 
 J. Tomasi, M. Cossi, J. M. Millam, M. Klene, C. Adamo, R. Cammi, 
 J. W. Ochterski, R. L. Martin, K. Morokuma, O. Farkas, 
 J. B. Foresman, and D. J. Fox, Gaussian, Inc., Wallingford CT, 2016.
 
 ******************************************
 Gaussian 16:  ES64L-G16RevB.01 20-Dec-2017
                 6-Dec-2019 
 ******************************************
 %chk=check.chk
 %mem=14336mb
 %NProcShared=8
 Will use up to    8 processors via shared memory.
 ----------------------------------------------------------------------
 #P guess=read uwb97xd/def2tzvp freq iop(7/33=1) scf=(tight, direct) in
 tegral=(grid=ultrafine, Acc2E=12) scf=xqc iop(2/9=2000)
 ----------------------------------------------------------------------
 1/10=4,30=1,38=1/1,3;
 2/9=2000,12=2,17=6,18=5,40=1/2;
 3/5=44,7=101,11=2,25=1,27=12,30=1,71=2,74=-58,75=-5,116=2,140=1/1,2,3;
 4/5=1/1;
 5/5=2,8=3,13=1,32=2,38=6,87=12,98=1/2,8;
 8/6=4,10=90,11=11,87=12/1;
 11/6=1,8=1,9=11,15=111,16=1,87=12/1,2,10;
 10/6=1,87=12/2;
 6/7=2,8=2,9=2,10=2,28=1,87=12/1;
 7/8=1,10=1,25=1,33=1,87=12/1,2,3,16;
 1/10=4,30=1/3;
 99//99;
 Leave Link    1 at Fri Dec  6 20:01:23 2019, MaxMem=  1879048192 cpu:               0.7 elap:               0.1
 (Enter /opt/g16/l101.exe)
 ----
 name
 ----
 Symbolic Z-matrix:
 Charge =  0 Multiplicity = 2
 C                     0.40078   2.98676  -1.11367 
 N                     1.11819   1.94599  -0.43126 
 C                     1.26169   2.02948   0.88819 
 C                     1.97904   0.99189   1.58478 
 O                     2.54275  -0.09216   1.04164 
 C                     2.53621  -0.41693  -0.34007 
 C                     2.13563   1.06818   2.96823 
 C                     1.619     2.11791   3.69532 
 C                     0.9171    3.142     3.04804 
 C                     0.74693   3.09537   1.69265 
 H                     0.8724    3.96929  -0.98362 
 H                    -0.63559   3.07443  -0.76303 
 H                     0.37765   2.76298  -2.1796 
 H                     3.02951   0.35178  -0.93189 
 H                     3.08513  -1.35551  -0.4007 
 H                     1.52212  -0.54378  -0.71426 
 H                     2.68061   0.26868   3.45257 
 H                     1.75846   2.14678   4.76823 
 H                     0.51086   3.96721   3.61847 
 H                     0.20375   3.89012   1.20132 
 
 ITRead=  0  0  0  0  0  0  0  0  0  0  0  0  0  0  0  0  0  0  0  0
 MicOpt= -1 -1 -1 -1 -1 -1 -1 -1 -1 -1 -1 -1 -1 -1 -1 -1 -1 -1 -1 -1
 NAtoms=     20 NQM=       20 NQMF=       0 NMMI=      0 NMMIF=      0
                NMic=       0 NMicF=      0.
                    Isotopes and Nuclear Properties:
 (Nuclear quadrupole moments (NQMom) in fm**2, nuclear magnetic moments (NMagM)
  in nuclear magnetons)

  Atom         1           2           3           4           5           6           7           8           9          10
 IAtWgt=          12          14          12          12          16          12          12          12          12          12
 AtmWgt=  12.0000000  14.0030740  12.0000000  12.0000000  15.9949146  12.0000000  12.0000000  12.0000000  12.0000000  12.0000000
 NucSpn=           0           2           0           0           0           0           0           0           0           0
 AtZEff=  -0.0000000  -0.0000000  -0.0000000  -0.0000000  -0.0000000  -0.0000000  -0.0000000  -0.0000000  -0.0000000  -0.0000000
 NQMom=    0.0000000   2.0440000   0.0000000   0.0000000   0.0000000   0.0000000   0.0000000   0.0000000   0.0000000   0.0000000
 NMagM=    0.0000000   0.4037610   0.0000000   0.0000000   0.0000000   0.0000000   0.0000000   0.0000000   0.0000000   0.0000000
 AtZNuc=   6.0000000   7.0000000   6.0000000   6.0000000   8.0000000   6.0000000   6.0000000   6.0000000   6.0000000   6.0000000

  Atom        11          12          13          14          15          16          17          18          19          20
 IAtWgt=           1           1           1           1           1           1           1           1           1           1
 AtmWgt=   1.0078250   1.0078250   1.0078250   1.0078250   1.0078250   1.0078250   1.0078250   1.0078250   1.0078250   1.0078250
 NucSpn=           1           1           1           1           1           1           1           1           1           1
 AtZEff=  -0.0000000  -0.0000000  -0.0000000  -0.0000000  -0.0000000  -0.0000000  -0.0000000  -0.0000000  -0.0000000  -0.0000000
 NQMom=    0.0000000   0.0000000   0.0000000   0.0000000   0.0000000   0.0000000   0.0000000   0.0000000   0.0000000   0.0000000
 NMagM=    2.7928460   2.7928460   2.7928460   2.7928460   2.7928460   2.7928460   2.7928460   2.7928460   2.7928460   2.7928460
 AtZNuc=   1.0000000   1.0000000   1.0000000   1.0000000   1.0000000   1.0000000   1.0000000   1.0000000   1.0000000   1.0000000
 Leave Link  101 at Fri Dec  6 20:01:23 2019, MaxMem=  1879048192 cpu:               1.7 elap:               0.2
 (Enter /opt/g16/l103.exe)

 GradGradGradGradGradGradGradGradGradGradGradGradGradGradGradGradGradGrad
 Berny optimization.
 Initialization pass.
 Trust Radius=3.00D-01 FncErr=1.00D-07 GrdErr=1.00D-07 EigMax=2.50D+02 EigMin=1.00D-04
 Number of steps in this run=      2 maximum allowed number of steps=      2.
 GradGradGradGradGradGradGradGradGradGradGradGradGradGradGradGradGradGrad

 Leave Link  103 at Fri Dec  6 20:01:23 2019, MaxMem=  1879048192 cpu:               0.1 elap:               0.0
 (Enter /opt/g16/l202.exe)
                          Input orientation:                          
 ---------------------------------------------------------------------
 Center     Atomic      Atomic             Coordinates (Angstroms)
 Number     Number       Type             X           Y           Z
 ---------------------------------------------------------------------
      1          6           0        0.400778    2.986759   -1.113666
      2          7           0        1.118190    1.945985   -0.431264
      3          6           0        1.261692    2.029477    0.888185
      4          6           0        1.979036    0.991891    1.584776
      5          8           0        2.542752   -0.092156    1.041642
      6          6           0        2.536206   -0.416927   -0.340074
      7          6           0        2.135627    1.068178    2.968226
      8          6           0        1.619002    2.117912    3.695318
      9          6           0        0.917097    3.141999    3.048036
     10          6           0        0.746925    3.095369    1.692651
     11          1           0        0.872395    3.969288   -0.983618
     12          1           0       -0.635593    3.074434   -0.763030
     13          1           0        0.377648    2.762980   -2.179599
     14          1           0        3.029509    0.351782   -0.931887
     15          1           0        3.085125   -1.355514   -0.400703
     16          1           0        1.522124   -0.543783   -0.714260
     17          1           0        2.680608    0.268680    3.452566
     18          1           0        1.758456    2.146776    4.768234
     19          1           0        0.510864    3.967211    3.618473
     20          1           0        0.203748    3.890122    1.201319
 ---------------------------------------------------------------------
                    Distance matrix (angstroms):
                    1          2          3          4          5
     1  C    0.000000
     2  N    1.436511   0.000000
     3  C    2.380120   1.329853   0.000000
     4  C    3.708367   2.390767   1.440974   0.000000
     5  O    4.325867   2.890129   2.483141   1.337134   0.000000
     6  C    4.091891   2.757252   3.019586   2.449542   1.419387
     7  C    4.832442   3.655442   2.452433   1.394372   2.285575
     8  C    5.036397   4.160415   2.831164   2.419077   3.574872
     9  C    4.196480   3.684619   2.453856   2.809236   4.138614
    10  C    2.829669   2.443345   1.431180   2.440155   3.716063
    11  H    1.097587   2.111697   2.723613   4.084874   4.836021
    12  H    1.097587   2.111687   2.723626   4.084784   4.835908
    13  H    1.089415   2.067017   3.275799   4.457771   4.818285
    14  H    3.726443   2.538749   3.041792   2.801219   2.080584
    15  H    5.154548   3.843132   4.055158   3.267395   1.992637
    16  H    3.725811   2.538148   3.042585   2.802254   2.080587
    17  H    5.782392   4.509838   3.419032   2.122234   2.441672
    18  H    6.094720   5.242617   3.913478   3.393644   4.417627
    19  H    4.833895   4.566680   3.431185   3.891527   5.219874
    20  H    2.492798   2.698370   2.163169   3.420297   4.621144
                    6          7          8          9         10
     6  C    0.000000
     7  C    3.648404   0.000000
     8  C    4.852943   1.377500   0.000000
     9  C    5.173660   2.406641   1.400142   0.000000
    10  C    4.435056   2.768590   2.393035   1.366822   0.000000
    11  H    4.735113   5.062535   5.086989   4.115901   2.818136
    12  H    4.735906   5.062311   5.086747   4.115779   2.818184
    13  H    4.260872   5.697626   6.039182   5.269044   3.903994
    14  H    1.088349   4.064865   5.149735   5.299753   4.430086
    15  H    1.089006   4.257407   5.567009   6.068094   5.446069
    16  H    1.088334   4.066388   5.151542   5.301501   4.431431
    17  H    3.856816   1.082029   2.146065   3.395523   3.850533
    18  H    5.768213   2.132055   1.082326   2.158109   3.373757
    19  H    6.244419   3.386306   2.157263   1.082312   2.127116
    20  H    5.134873   3.849349   3.371009   2.116346   1.080778
                   11         12         13         14         15
    11  H    0.000000
    12  H    1.767329   0.000000
    13  H    1.769272   1.769273   0.000000
    14  H    4.212145   4.568842   3.795132   0.000000
    15  H    5.795643   5.796504   5.239933   1.788885   0.000000
    16  H    4.567550   4.213029   3.793643   1.766807   1.788910
    17  H    6.053417   6.053156   6.576203   4.399098   4.201110
    18  H    6.098398   6.098106   7.110466   6.109743   6.383102
    19  H    4.616270   4.616165   5.923306   6.334088   7.149265
    20  H    2.286330   2.286593   3.568094   5.005531   6.195604
                   16         17         18         19         20
    16  H    0.000000
    17  H    4.400525   0.000000
    18  H    6.111686   2.471556   0.000000
    19  H    6.335952   4.291206   2.488457   0.000000
    20  H    5.006703   4.931307   4.263714   2.437806   0.000000
 Stoichiometry    C8H10NO(2)
 Framework group  C1[X(C8H10NO)]
 Deg. of freedom    54
 Full point group                 C1      NOp   1
 Largest Abelian subgroup         C1      NOp   1
 Largest concise Abelian subgroup C1      NOp   1
                         Standard orientation:                         
 ---------------------------------------------------------------------
 Center     Atomic      Atomic             Coordinates (Angstroms)
 Number     Number       Type             X           Y           Z
 ---------------------------------------------------------------------
      1          6           0        1.594007    2.403416   -0.000367
      2          7           0        1.381260    0.982746   -0.000463
      3          6           0        0.132808    0.524622   -0.000053
      4          6           0       -0.094298   -0.898343   -0.000359
      5          8           0        0.838851   -1.856028   -0.000886
      6          6           0        2.241230   -1.636965    0.001087
      7          6           0       -1.398852   -1.390697   -0.000401
      8          6           0       -2.487721   -0.546972    0.000013
      9          6           0       -2.300616    0.840612    0.000513
     10          6           0       -1.033759    1.353715    0.000496
     11          1           0        1.159252    2.887631    0.883501
     12          1           0        1.158645    2.887827   -0.883828
     13          1           0        2.665025    2.602779   -0.000711
     14          1           0        2.556681   -1.085951    0.885043
     15          1           0        2.672003   -2.637149    0.001530
     16          1           0        2.559132   -1.085616   -0.881762
     17          1           0       -1.525589   -2.465278   -0.000731
     18          1           0       -3.487346   -0.961916   -0.000000
     19          1           0       -3.155537    1.504321    0.000890
     20          1           0       -0.898688    2.426019    0.000831
 ---------------------------------------------------------------------
 Rotational constants (GHZ):           1.7328445           1.3964049           0.7807886
 Leave Link  202 at Fri Dec  6 20:01:23 2019, MaxMem=  1879048192 cpu:               0.0 elap:               0.0
 (Enter /opt/g16/l301.exe)
 Standard basis: def2TZVP (5D, 7F)
 Ernie: Thresh=  0.10000D-02 Tol=  0.10000D-05 Strict=F.
 There are   420 symmetry adapted cartesian basis functions of A   symmetry.
 There are   370 symmetry adapted basis functions of A   symmetry.
   370 basis functions,   590 primitive gaussians,   420 cartesian basis functions
    37 alpha electrons       36 beta electrons
       nuclear repulsion energy       510.1834152296 Hartrees.
 IExCor= 4639 DFT=T Ex+Corr=wB97XD ExCW=0 ScaHFX=  1.000000
 ScaDFX=  1.000000  1.000000  1.000000  1.000000 ScalE2=  1.000000  1.000000
 IRadAn=      5 IRanWt=     -1 IRanGd=            0 ICorTp=0 IEmpDi=121
 HFx  wShort=  0.000000 wLong=  0.200000 cFull=  0.222036 cShort=  0.000000 cLong=  0.777964
 DFx  wShort=  0.000000 wLong=  0.200000 cFull=  0.000000 cShort=  0.000000 cLong=  1.000000
 NAtoms=   20 NActive=   20 NUniq=   20 SFac= 1.00D+00 NAtFMM=   60 NAOKFM=F Big=F
 Integral buffers will be    131072 words long.
 Raffenetti 2 integral format.
 Two-electron integral symmetry is turned on.
 R6Disp:  Grimme-D2 Dispersion energy=       -0.0102186881 Hartrees.
 Nuclear repulsion after empirical dispersion term =      510.1731965415 Hartrees.
 Leave Link  301 at Fri Dec  6 20:01:23 2019, MaxMem=  1879048192 cpu:               0.5 elap:               0.1
 (Enter /opt/g16/l302.exe)
 NPDir=0 NMtPBC=     1 NCelOv=     1 NCel=       1 NClECP=     1 NCelD=      1
         NCelK=      1 NCelE2=     1 NClLst=     1 CellRange=     0.0.
 One-electron integrals computed using PRISM.
 One-electron integral symmetry used in STVInt
   1 Symmetry operations used in ECPInt.
 ECPInt:  NShTT=   11325 NPrTT=   34180 LenC2=   10953 LenP2D=   25816.
 LDataN:  DoStor=T MaxTD1= 6 Len=  172
 NBasis=   370 RedAO= T EigKep=  8.53D-06  NBF=   370
 NBsUse=   370 1.00D-06 EigRej= -1.00D+00 NBFU=   370
 Precomputing XC quadrature grid using
 IXCGrd= 4 IRadAn=           5 IRanWt=          -1 IRanGd=           0 AccXCQ= 1.00D-12.
 Generated NRdTot=       0 NPtTot=           0 NUsed=           0 NTot=          32
 NSgBfM=   418   418   418   418   418 MxSgAt=    20 MxSgA2=    20.
 Leave Link  302 at Fri Dec  6 20:01:24 2019, MaxMem=  1879048192 cpu:               8.1 elap:               1.0
 (Enter /opt/g16/l303.exe)
 DipDrv:  MaxL=1.
 Leave Link  303 at Fri Dec  6 20:01:24 2019, MaxMem=  1879048192 cpu:               0.7 elap:               0.1
 (Enter /opt/g16/l401.exe)
 Initial guess from the checkpoint file:  "check.chk"
 B after Tr=     0.000000   -0.000000    0.000000
         Rot=    1.000000   -0.000000    0.000000   -0.000000 Ang=  -0.00 deg.
 Guess basis will be translated and rotated to current coordinates.
 JPrj=2 DoOrth=T DoCkMO=T.
 Initial guess <Sx>= 0.0000 <Sy>= 0.0000 <Sz>= 0.5000 <S**2>= 0.7918 S= 0.5207
 Leave Link  401 at Fri Dec  6 20:01:26 2019, MaxMem=  1879048192 cpu:              14.3 elap:               1.8
 (Enter /opt/g16/l502.exe)
 Integral symmetry usage will be decided dynamically.
 UHF open shell SCF:
 Using DIIS extrapolation, IDIIS=  1040.
 NGot=  1879048192 LenX=  1878688206 LenY=  1878511365
 Requested convergence on RMS density matrix=1.00D-08 within  32 cycles.
 Requested convergence on MAX density matrix=1.00D-06.
 Requested convergence on             energy=1.00D-06.
 No special actions if energy rises.
 Fock matrices will be formed incrementally for  20 cycles.

 Cycle   1  Pass 1  IDiag  1:
 FoFJK:  IHMeth= 1 ICntrl=       0 DoSepK=T KAlg= 0 I1Cent=           0 FoldK=F
 IRaf=         1 NMat=       1 IRICut=       1 DoRegI=T DoRafI=F ISym2E= 0 IDoP0=0 IntGTp=1.
 FoFCou: FMM=F IPFlag=           0 FMFlag=      100000 FMFlg1=           0
         NFxFlg=           0 DoJE=T BraDBF=F KetDBF=F FulRan=T
         wScrn=  0.000000 ICntrl=       500 IOpCl=  0 I1Cent=           0 NGrid=           0
         NMat0=    1 NMatS0=      1 NMatT0=    0 NMatD0=    1 NMtDS0=    0 NMtDT0=    0
 Symmetry not used in FoFCou.
 E= -440.794924042634    
 DIIS: error= 4.66D-08 at cycle   1 NSaved=   1.
 NSaved= 1 IEnMin= 1 EnMin= -440.794924042634     IErMin= 1 ErrMin= 4.66D-08
 ErrMax= 4.66D-08  0.00D+00 EMaxC= 1.00D-01 BMatC= 8.83D-12 BMatP= 8.83D-12
 IDIUse=1 WtCom= 1.00D+00 WtEn= 0.00D+00
 Coeff-Com:  0.100D+01
 Coeff:      0.100D+01
 Gap=     0.322 Goal=   None    Shift=    0.000
 Gap=     0.271 Goal=   None    Shift=    0.000
 RMSDP=2.05D-08 MaxDP=9.00D-07              OVMax= 5.60D-07

 Cycle   2  Pass 1  IDiag  1:
 RMSU=  2.05D-08    CP:  1.00D+00
 E= -440.794924042622     Delta-E=        0.000000000012 Rises=F Damp=F
 DIIS: error= 4.43D-08 at cycle   2 NSaved=   2.
 NSaved= 2 IEnMin= 1 EnMin= -440.794924042634     IErMin= 2 ErrMin= 4.43D-08
 ErrMax= 4.43D-08  0.00D+00 EMaxC= 1.00D-01 BMatC= 1.97D-12 BMatP= 8.83D-12
 IDIUse=1 WtCom= 1.00D+00 WtEn= 0.00D+00
 Coeff-Com:  0.224D+00 0.776D+00
 Coeff:      0.224D+00 0.776D+00
 Gap=     0.322 Goal=   None    Shift=    0.000
 Gap=     0.271 Goal=   None    Shift=    0.000
 RMSDP=4.23D-09 MaxDP=2.93D-07 DE= 1.19D-11 OVMax= 3.93D-07

 SCF Done:  E(UwB97XD) =  -440.794924043     A.U. after    2 cycles
            NFock=  2  Conv=0.42D-08     -V/T= 2.0048
 <Sx>= 0.0000 <Sy>= 0.0000 <Sz>= 0.5000 <S**2>= 0.7918 S= 0.5207
 <L.S>= 0.000000000000E+00
 KE= 4.387081997333D+02 PE=-2.046930187772D+03 EE= 6.572538674545D+02
 Annihilation of the first spin contaminant:
 S**2 before annihilation     0.7918,   after     0.7511
 Leave Link  502 at Fri Dec  6 20:03:33 2019, MaxMem=  1879048192 cpu:            1018.5 elap:             127.4
 (Enter /opt/g16/l508.exe)
 QCSCF skips out because SCF is already converged.
 Leave Link  508 at Fri Dec  6 20:03:33 2019, MaxMem=  1879048192 cpu:               0.1 elap:               0.0
 (Enter /opt/g16/l801.exe)
 DoSCS=F DFT=T ScalE2(SS,OS)=  1.000000  1.000000
 Range of M.O.s used for correlation:     1   370
 NBasis=   370 NAE=    37 NBE=    36 NFC=     0 NFV=     0
 NROrb=    370 NOA=    37 NOB=    36 NVA=   333 NVB=   334

 **** Warning!!: The largest alpha MO coefficient is  0.69372156D+02


 **** Warning!!: The largest beta MO coefficient is  0.69993060D+02

 Leave Link  801 at Fri Dec  6 20:03:33 2019, MaxMem=  1879048192 cpu:               0.4 elap:               0.0
 (Enter /opt/g16/l1101.exe)
 Using compressed storage, NAtomX=    20.
 Will process     21 centers per pass.
   1 Symmetry operations used in ECPInt.
 ECPInt:  NShTT=   11325 NPrTT=   34180 LenC2=   10953 LenP2D=   25816.
 LDataN:  DoStor=T MaxTD1= 7 Len=  274
 R6Disp: Adding Grimme-D2 dispersion energy 1st derivatives to the gradient.
 Leave Link 1101 at Fri Dec  6 20:03:35 2019, MaxMem=  1879048192 cpu:              13.0 elap:               1.6
 (Enter /opt/g16/l1102.exe)
 Symmetrizing basis deriv contribution to polar:
 IMax=3 JMax=2 DiffMx= 0.00D+00
 Leave Link 1102 at Fri Dec  6 20:03:35 2019, MaxMem=  1879048192 cpu:               0.7 elap:               0.1
 (Enter /opt/g16/l1110.exe)
 Forming Gx(P) for the SCF density, NAtomX=    20.
 Integral derivatives from FoFJK, PRISM(SPDF).
 Do as many integral derivatives as possible in FoFJK.
 G2DrvN: MDV=    1879046456.
 G2DrvN: will do    21 centers at a time, making    1 passes.
 Calling FoFCou, ICntrl=  3107 FMM=F I1Cent=   0 AccDes= 1.00D-12.
 FoFJK:  IHMeth= 1 ICntrl=    3107 DoSepK=T KAlg= 0 I1Cent=           0 FoldK=F
 IRaf=         1 NMat=       1 IRICut=       1 DoRegI=T DoRafI=F ISym2E= 0 IDoP0=0 IntGTp=1.
 FoFCou: FMM=F IPFlag=           0 FMFlag=      100000 FMFlg1=           0
         NFxFlg=           0 DoJE=F BraDBF=F KetDBF=F FulRan=T
         wScrn=  0.000000 ICntrl=      3507 IOpCl=  0 I1Cent=           0 NGrid=           0
         NMat0=    1 NMatS0=      1 NMatT0=    0 NMatD0=    1 NMtDS0=    0 NMtDT0=    0
 Symmetry not used in FoFCou.
 End of G2Drv F.D. properties file   721 does not exist.
 End of G2Drv F.D. properties file   722 does not exist.
 End of G2Drv F.D. properties file   788 does not exist.
 Leave Link 1110 at Fri Dec  6 20:21:25 2019, MaxMem=  1879048192 cpu:            8552.9 elap:            1070.0
 (Enter /opt/g16/l1002.exe)
 Minotr:  UHF open shell wavefunction.
          IDoAtm=11111111111111111111
          Direct CPHF calculation.
          Differentiating once with respect to electric field.
                with respect to dipole field.
          Differentiating once with respect to nuclear coordinates.
          Requested convergence is 1.0D-08 RMS, and 1.0D-07 maximum.
          Secondary convergence is 1.0D-12 RMS, and 1.0D-12 maximum.
          NewPWx=T KeepS1=F KeepF1=F KeepIn=T MapXYZ=F SortEE=F KeepMc=T.
         6045 words used for storage of precomputed grid.
 Two-electron integrals replicated using symmetry.
          MDV=    1879048192 using IRadAn=       1.
          Solving linear equations simultaneously, MaxMat=     384.
 FoF2E skips out because all densities are zero.
 CalDSu exits because no D1Ps are significant.
 FoFJK:  IHMeth= 1 ICntrl=       0 DoSepK=T KAlg= 0 I1Cent=           0 FoldK=F
 IRaf=         1 NMat=      60 IRICut=       1 DoRegI=T DoRafI=F ISym2E= 2 IDoP0=3 IntGTp=3.
 FoFCou: FMM=F IPFlag=           0 FMFlag=      100000 FMFlg1=           0
         NFxFlg=           0 DoJE=F BraDBF=F KetDBF=F FulRan=T
         wScrn=  0.000000 ICntrl=       500 IOpCl=  0 I1Cent=           0 NGrid=           0
         NMat0=   60 NMatS0=     60 NMatT0=    0 NMatD0=   60 NMtDS0=    0 NMtDT0=    0
 Integrals replicated using symmetry in FoFCou.
          There are    63 degrees of freedom in the 1st order CPHF.  IDoFFX=6 NUNeed=     3.
     60 vectors produced by pass  0 Test12= 3.86D-14 1.59D-09 XBig12= 1.46D+02 5.55D+00.
 AX will form    60 AO Fock derivatives at one time.
     60 vectors produced by pass  1 Test12= 3.86D-14 1.59D-09 XBig12= 1.74D+01 4.32D-01.
     60 vectors produced by pass  2 Test12= 3.86D-14 1.59D-09 XBig12= 9.87D-01 2.55D-01.
     60 vectors produced by pass  3 Test12= 3.86D-14 1.59D-09 XBig12= 1.92D-02 2.49D-02.
     60 vectors produced by pass  4 Test12= 3.86D-14 1.59D-09 XBig12= 1.87D-04 1.64D-03.
     60 vectors produced by pass  5 Test12= 3.86D-14 1.59D-09 XBig12= 1.94D-06 1.51D-04.
     60 vectors produced by pass  6 Test12= 3.86D-14 1.59D-09 XBig12= 2.03D-08 1.73D-05.
     42 vectors produced by pass  7 Test12= 3.86D-14 1.59D-09 XBig12= 1.91D-10 1.74D-06.
     13 vectors produced by pass  8 Test12= 3.86D-14 1.59D-09 XBig12= 1.77D-12 1.60D-07.
      3 vectors produced by pass  9 Test12= 3.86D-14 1.59D-09 XBig12= 1.51D-14 1.67D-08.
 InvSVY:  IOpt=1 It=  1 EMax= 1.24D-14
 Solved reduced A of dimension   478 with    63 vectors.
 FullF1:  Do perturbations      1 to       3.
 Isotropic polarizability for W=    0.000000      109.35 Bohr**3.
 End of Minotr F.D. properties file   721 does not exist.
 End of Minotr F.D. properties file   722 does not exist.
 End of Minotr F.D. properties file   788 does not exist.
 Leave Link 1002 at Fri Dec  6 21:26:02 2019, MaxMem=  1879048192 cpu:           30990.5 elap:            3877.0
 (Enter /opt/g16/l601.exe)
 Copying SCF densities to generalized density rwf, IOpCl= 1 IROHF=0.

 **********************************************************************

            Population analysis using the SCF Density.

 **********************************************************************

 Orbital symmetries:
 Alpha Orbitals:
       Occupied  (A) (A) (A) (A) (A) (A) (A) (A) (A) (A) (A) (A)
                 (A) (A) (A) (A) (A) (A) (A) (A) (A) (A) (A) (A)
                 (A) (A) (A) (A) (A) (A) (A) (A) (A) (A) (A) (A)
                 (A)
       Virtual   (A) (A) (A) (A) (A) (A) (A) (A) (A) (A) (A) (A)
                 (A) (A) (A) (A) (A) (A) (A) (A) (A) (A) (A) (A)
                 (A) (A) (A) (A) (A) (A) (A) (A) (A) (A) (A) (A)
                 (A) (A) (A) (A) (A) (A) (A) (A) (A) (A) (A) (A)
                 (A) (A) (A) (A) (A) (A) (A) (A) (A) (A) (A) (A)
                 (A) (A) (A) (A) (A) (A) (A) (A) (A) (A) (A) (A)
                 (A) (A) (A) (A) (A) (A) (A) (A) (A) (A) (A) (A)
                 (A) (A) (A) (A) (A) (A) (A) (A) (A) (A) (A) (A)
                 (A) (A) (A) (A) (A) (A) (A) (A) (A) (A) (A) (A)
                 (A) (A) (A) (A) (A) (A) (A) (A) (A) (A) (A) (A)
                 (A) (A) (A) (A) (A) (A) (A) (A) (A) (A) (A) (A)
                 (A) (A) (A) (A) (A) (A) (A) (A) (A) (A) (A) (A)
                 (A) (A) (A) (A) (A) (A) (A) (A) (A) (A) (A) (A)
                 (A) (A) (A) (A) (A) (A) (A) (A) (A) (A) (A) (A)
                 (A) (A) (A) (A) (A) (A) (A) (A) (A) (A) (A) (A)
                 (A) (A) (A) (A) (A) (A) (A) (A) (A) (A) (A) (A)
                 (A) (A) (A) (A) (A) (A) (A) (A) (A) (A) (A) (A)
                 (A) (A) (A) (A) (A) (A) (A) (A) (A) (A) (A) (A)
                 (A) (A) (A) (A) (A) (A) (A) (A) (A) (A) (A) (A)
                 (A) (A) (A) (A) (A) (A) (A) (A) (A) (A) (A) (A)
                 (A) (A) (A) (A) (A) (A) (A) (A) (A) (A) (A) (A)
                 (A) (A) (A) (A) (A) (A) (A) (A) (A) (A) (A) (A)
                 (A) (A) (A) (A) (A) (A) (A) (A) (A) (A) (A) (A)
                 (A) (A) (A) (A) (A) (A) (A) (A) (A) (A) (A) (A)
                 (A) (A) (A) (A) (A) (A) (A) (A) (A) (A) (A) (A)
                 (A) (A) (A) (A) (A) (A) (A) (A) (A) (A) (A) (A)
                 (A) (A) (A) (A) (A) (A) (A) (A) (A) (A) (A) (A)
                 (A) (A) (A) (A) (A) (A) (A) (A) (A)
 Beta  Orbitals:
       Occupied  (A) (A) (A) (A) (A) (A) (A) (A) (A) (A) (A) (A)
                 (A) (A) (A) (A) (A) (A) (A) (A) (A) (A) (A) (A)
                 (A) (A) (A) (A) (A) (A) (A) (A) (A) (A) (A) (A)
       Virtual   (A) (A) (A) (A) (A) (A) (A) (A) (A) (A) (A) (A)
                 (A) (A) (A) (A) (A) (A) (A) (A) (A) (A) (A) (A)
                 (A) (A) (A) (A) (A) (A) (A) (A) (A) (A) (A) (A)
                 (A) (A) (A) (A) (A) (A) (A) (A) (A) (A) (A) (A)
                 (A) (A) (A) (A) (A) (A) (A) (A) (A) (A) (A) (A)
                 (A) (A) (A) (A) (A) (A) (A) (A) (A) (A) (A) (A)
                 (A) (A) (A) (A) (A) (A) (A) (A) (A) (A) (A) (A)
                 (A) (A) (A) (A) (A) (A) (A) (A) (A) (A) (A) (A)
                 (A) (A) (A) (A) (A) (A) (A) (A) (A) (A) (A) (A)
                 (A) (A) (A) (A) (A) (A) (A) (A) (A) (A) (A) (A)
                 (A) (A) (A) (A) (A) (A) (A) (A) (A) (A) (A) (A)
                 (A) (A) (A) (A) (A) (A) (A) (A) (A) (A) (A) (A)
                 (A) (A) (A) (A) (A) (A) (A) (A) (A) (A) (A) (A)
                 (A) (A) (A) (A) (A) (A) (A) (A) (A) (A) (A) (A)
                 (A) (A) (A) (A) (A) (A) (A) (A) (A) (A) (A) (A)
                 (A) (A) (A) (A) (A) (A) (A) (A) (A) (A) (A) (A)
                 (A) (A) (A) (A) (A) (A) (A) (A) (A) (A) (A) (A)
                 (A) (A) (A) (A) (A) (A) (A) (A) (A) (A) (A) (A)
                 (A) (A) (A) (A) (A) (A) (A) (A) (A) (A) (A) (A)
                 (A) (A) (A) (A) (A) (A) (A) (A) (A) (A) (A) (A)
                 (A) (A) (A) (A) (A) (A) (A) (A) (A) (A) (A) (A)
                 (A) (A) (A) (A) (A) (A) (A) (A) (A) (A) (A) (A)
                 (A) (A) (A) (A) (A) (A) (A) (A) (A) (A) (A) (A)
                 (A) (A) (A) (A) (A) (A) (A) (A) (A) (A) (A) (A)
                 (A) (A) (A) (A) (A) (A) (A) (A) (A) (A) (A) (A)
                 (A) (A) (A) (A) (A) (A) (A) (A) (A) (A) (A) (A)
                 (A) (A) (A) (A) (A) (A) (A) (A) (A) (A) (A) (A)
                 (A) (A) (A) (A) (A) (A) (A) (A) (A) (A)
 The electronic state is 2-A.
 Alpha  occ. eigenvalues --  -19.28776 -14.42830 -10.36006 -10.32459 -10.32290
 Alpha  occ. eigenvalues --  -10.30018 -10.29595 -10.29180 -10.28719 -10.28309
 Alpha  occ. eigenvalues --   -1.17973  -1.02531  -0.95012  -0.86743  -0.84078
 Alpha  occ. eigenvalues --   -0.80106  -0.75877  -0.69841  -0.67638  -0.62111
 Alpha  occ. eigenvalues --   -0.58579  -0.57955  -0.56425  -0.54188  -0.53057
 Alpha  occ. eigenvalues --   -0.52529  -0.51306  -0.48243  -0.47630  -0.46370
 Alpha  occ. eigenvalues --   -0.44765  -0.42057  -0.41571  -0.39279  -0.33738
 Alpha  occ. eigenvalues --   -0.32278  -0.26322
 Alpha virt. eigenvalues --    0.05895   0.07434   0.12094   0.13098   0.14130
 Alpha virt. eigenvalues --    0.16194   0.16961   0.17808   0.19289   0.19852
 Alpha virt. eigenvalues --    0.19860   0.20334   0.20735   0.21646   0.22676
 Alpha virt. eigenvalues --    0.24038   0.27364   0.28515   0.28625   0.29215
 Alpha virt. eigenvalues --    0.30019   0.30159   0.31140   0.31527   0.33861
 Alpha virt. eigenvalues --    0.34537   0.35553   0.36135   0.36318   0.38593
 Alpha virt. eigenvalues --    0.39571   0.41136   0.41915   0.43119   0.43512
 Alpha virt. eigenvalues --    0.44046   0.45019   0.45632   0.47555   0.48152
 Alpha virt. eigenvalues --    0.49079   0.49823   0.50267   0.50989   0.52633
 Alpha virt. eigenvalues --    0.52642   0.53010   0.54643   0.54660   0.55464
 Alpha virt. eigenvalues --    0.56444   0.56658   0.56681   0.57468   0.59129
 Alpha virt. eigenvalues --    0.61167   0.62704   0.64216   0.65770   0.66141
 Alpha virt. eigenvalues --    0.68889   0.70985   0.71675   0.73351   0.74282
 Alpha virt. eigenvalues --    0.75411   0.77063   0.77866   0.78232   0.80147
 Alpha virt. eigenvalues --    0.81716   0.82101   0.83458   0.84358   0.84970
 Alpha virt. eigenvalues --    0.85181   0.85720   0.91634   0.93236   0.94666
 Alpha virt. eigenvalues --    0.94688   0.96473   0.97023   0.98069   1.00882
 Alpha virt. eigenvalues --    1.03987   1.05397   1.05998   1.06936   1.09216
 Alpha virt. eigenvalues --    1.13091   1.14744   1.16607   1.17508   1.17938
 Alpha virt. eigenvalues --    1.21550   1.23936   1.26063   1.26539   1.28750
 Alpha virt. eigenvalues --    1.29981   1.31291   1.31296   1.34387   1.37162
 Alpha virt. eigenvalues --    1.40149   1.41104   1.44367   1.44443   1.49148
 Alpha virt. eigenvalues --    1.49470   1.53239   1.54511   1.55761   1.57846
 Alpha virt. eigenvalues --    1.58536   1.58895   1.59595   1.59887   1.60685
 Alpha virt. eigenvalues --    1.62159   1.62258   1.63073   1.64326   1.66764
 Alpha virt. eigenvalues --    1.67615   1.68658   1.69770   1.70388   1.71774
 Alpha virt. eigenvalues --    1.76096   1.78886   1.79061   1.79256   1.81119
 Alpha virt. eigenvalues --    1.82997   1.85878   1.86488   1.89199   1.92328
 Alpha virt. eigenvalues --    1.94640   1.95975   1.96575   2.00550   2.02576
 Alpha virt. eigenvalues --    2.03739   2.04014   2.05901   2.08669   2.10256
 Alpha virt. eigenvalues --    2.14217   2.14750   2.18154   2.19510   2.20547
 Alpha virt. eigenvalues --    2.21830   2.22367   2.26911   2.27927   2.30324
 Alpha virt. eigenvalues --    2.31906   2.33193   2.34030   2.34191   2.38145
 Alpha virt. eigenvalues --    2.38875   2.40609   2.43712   2.44099   2.45830
 Alpha virt. eigenvalues --    2.49612   2.53574   2.53683   2.54737   2.57327
 Alpha virt. eigenvalues --    2.59180   2.60909   2.62423   2.63816   2.64228
 Alpha virt. eigenvalues --    2.64427   2.68129   2.71419   2.73116   2.73775
 Alpha virt. eigenvalues --    2.73829   2.74876   2.76185   2.78801   2.80125
 Alpha virt. eigenvalues --    2.81004   2.81973   2.83976   2.84218   2.85750
 Alpha virt. eigenvalues --    2.87140   2.88747   2.89788   2.92825   2.93130
 Alpha virt. eigenvalues --    2.93858   2.95984   2.96259   2.97125   3.01185
 Alpha virt. eigenvalues --    3.02320   3.04657   3.08667   3.09121   3.11399
 Alpha virt. eigenvalues --    3.14124   3.14726   3.15001   3.15674   3.18159
 Alpha virt. eigenvalues --    3.21534   3.21778   3.22812   3.24141   3.24312
 Alpha virt. eigenvalues --    3.27367   3.28186   3.28577   3.32094   3.32149
 Alpha virt. eigenvalues --    3.34878   3.35733   3.36020   3.38301   3.39171
 Alpha virt. eigenvalues --    3.41274   3.41473   3.41624   3.44246   3.44269
 Alpha virt. eigenvalues --    3.47084   3.48949   3.50256   3.50527   3.53609
 Alpha virt. eigenvalues --    3.55048   3.55354   3.55855   3.58405   3.60329
 Alpha virt. eigenvalues --    3.60605   3.61426   3.62954   3.63731   3.64076
 Alpha virt. eigenvalues --    3.66578   3.68043   3.74748   3.76499   3.80226
 Alpha virt. eigenvalues --    3.80521   3.85744   3.86131   3.89735   3.92084
 Alpha virt. eigenvalues --    3.94934   3.99227   4.05233   4.05811   4.06069
 Alpha virt. eigenvalues --    4.08198   4.14928   4.16440   4.18605   4.20350
 Alpha virt. eigenvalues --    4.22107   4.22936   4.26619   4.27378   4.28669
 Alpha virt. eigenvalues --    4.33316   4.34496   4.36087   4.42341   4.43874
 Alpha virt. eigenvalues --    4.46697   4.49884   4.51413   4.53648   4.59682
 Alpha virt. eigenvalues --    4.66816   4.67341   4.70977   4.71495   4.74617
 Alpha virt. eigenvalues --    4.80379   4.85200   4.94865   4.94979   4.99435
 Alpha virt. eigenvalues --    5.00804   5.07984   5.13772   5.19940   5.20425
 Alpha virt. eigenvalues --    5.26694   5.30894   5.34859   5.34955   5.37878
 Alpha virt. eigenvalues --    5.40025   5.52316   5.57929   5.64643   5.74255
 Alpha virt. eigenvalues --    5.79445   5.83933   5.84837   5.99271   6.08745
 Alpha virt. eigenvalues --    6.25524   6.47161   6.69912   6.72233   6.87184
 Alpha virt. eigenvalues --    6.97459   7.28704   7.54361  22.32383  22.51906
 Alpha virt. eigenvalues --   22.55968  22.74575  22.80068  22.97302  23.06589
 Alpha virt. eigenvalues --   23.49610  32.61274  44.40056
  Beta  occ. eigenvalues --  -19.28570 -14.41799 -10.35704 -10.32500 -10.32462
  Beta  occ. eigenvalues --  -10.30071 -10.29309 -10.28957 -10.28823 -10.28451
  Beta  occ. eigenvalues --   -1.17473  -1.00824  -0.94280  -0.86396  -0.83553
  Beta  occ. eigenvalues --   -0.79959  -0.75122  -0.69495  -0.67205  -0.61695
  Beta  occ. eigenvalues --   -0.58412  -0.57642  -0.55457  -0.53668  -0.52401
  Beta  occ. eigenvalues --   -0.51402  -0.51199  -0.47988  -0.46673  -0.46247
  Beta  occ. eigenvalues --   -0.44593  -0.41305  -0.40851  -0.36093  -0.32406
  Beta  occ. eigenvalues --   -0.30817
  Beta virt. eigenvalues --   -0.03681   0.07444   0.09881   0.12113   0.13150
  Beta virt. eigenvalues --    0.14151   0.16289   0.16968   0.17840   0.19277
  Beta virt. eigenvalues --    0.19866   0.19880   0.20794   0.20796   0.21869
  Beta virt. eigenvalues --    0.22626   0.25389   0.27402   0.28365   0.28796
  Beta virt. eigenvalues --    0.29294   0.30095   0.30315   0.31214   0.31619
  Beta virt. eigenvalues --    0.34003   0.34524   0.35748   0.36213   0.36405
  Beta virt. eigenvalues --    0.38871   0.39763   0.41218   0.42107   0.43432
  Beta virt. eigenvalues --    0.43799   0.44114   0.45118   0.45799   0.47689
  Beta virt. eigenvalues --    0.48237   0.49208   0.49941   0.50391   0.51028
  Beta virt. eigenvalues --    0.52756   0.53167   0.53671   0.54744   0.54831
  Beta virt. eigenvalues --    0.55635   0.56603   0.56747   0.56988   0.57638
  Beta virt. eigenvalues --    0.59254   0.61337   0.63319   0.64376   0.66168
  Beta virt. eigenvalues --    0.66332   0.69015   0.70975   0.71779   0.73851
  Beta virt. eigenvalues --    0.74426   0.75474   0.77282   0.78145   0.78414
  Beta virt. eigenvalues --    0.80381   0.81867   0.82545   0.83499   0.84500
  Beta virt. eigenvalues --    0.85054   0.85740   0.86137   0.91853   0.93349
  Beta virt. eigenvalues --    0.94661   0.95160   0.96854   0.97047   0.98116
  Beta virt. eigenvalues --    1.01027   1.04003   1.05477   1.06186   1.07239
  Beta virt. eigenvalues --    1.09356   1.13234   1.15075   1.16814   1.17878
  Beta virt. eigenvalues --    1.17991   1.21604   1.24198   1.26644   1.26737
  Beta virt. eigenvalues --    1.29157   1.30127   1.31349   1.31801   1.34452
  Beta virt. eigenvalues --    1.37251   1.40311   1.41298   1.44585   1.45258
  Beta virt. eigenvalues --    1.49427   1.50207   1.53462   1.54634   1.55927
  Beta virt. eigenvalues --    1.58584   1.58674   1.59358   1.59994   1.60027
  Beta virt. eigenvalues --    1.60973   1.62339   1.62544   1.63165   1.64558
  Beta virt. eigenvalues --    1.67205   1.67728   1.69093   1.70014   1.71081
  Beta virt. eigenvalues --    1.71968   1.76430   1.78988   1.79388   1.79720
  Beta virt. eigenvalues --    1.81400   1.83435   1.86368   1.86688   1.89394
  Beta virt. eigenvalues --    1.92528   1.94986   1.96160   1.96949   2.00902
  Beta virt. eigenvalues --    2.02853   2.03966   2.04191   2.06161   2.08998
  Beta virt. eigenvalues --    2.10464   2.14667   2.15126   2.18455   2.19770
  Beta virt. eigenvalues --    2.21022   2.22734   2.23341   2.27206   2.28043
  Beta virt. eigenvalues --    2.30664   2.32349   2.33396   2.34332   2.34555
  Beta virt. eigenvalues --    2.38433   2.39635   2.40811   2.44105   2.44352
  Beta virt. eigenvalues --    2.46128   2.49840   2.53899   2.53933   2.54950
  Beta virt. eigenvalues --    2.58292   2.59380   2.61143   2.62693   2.63923
  Beta virt. eigenvalues --    2.64524   2.64533   2.68468   2.71598   2.73200
  Beta virt. eigenvalues --    2.73927   2.74493   2.75090   2.76440   2.78972
  Beta virt. eigenvalues --    2.80434   2.81880   2.82239   2.84269   2.84688
  Beta virt. eigenvalues --    2.86067   2.87454   2.88833   2.90330   2.93095
  Beta virt. eigenvalues --    2.93269   2.93981   2.96398   2.96801   2.97241
  Beta virt. eigenvalues --    3.01434   3.02741   3.04875   3.08869   3.09446
  Beta virt. eigenvalues --    3.12005   3.14420   3.14909   3.15341   3.15809
  Beta virt. eigenvalues --    3.18545   3.21733   3.22064   3.23080   3.24359
  Beta virt. eigenvalues --    3.24662   3.27580   3.28378   3.28790   3.32380
  Beta virt. eigenvalues --    3.32639   3.35134   3.35912   3.36383   3.38601
  Beta virt. eigenvalues --    3.39454   3.41444   3.41720   3.41839   3.44407
  Beta virt. eigenvalues --    3.44497   3.47290   3.49342   3.50531   3.50692
  Beta virt. eigenvalues --    3.53976   3.55412   3.55760   3.56227   3.58818
  Beta virt. eigenvalues --    3.60748   3.60877   3.61851   3.63331   3.63876
  Beta virt. eigenvalues --    3.64546   3.66776   3.68274   3.74880   3.76704
  Beta virt. eigenvalues --    3.80507   3.81003   3.86465   3.86707   3.90296
  Beta virt. eigenvalues --    3.92267   3.95457   3.99741   4.05404   4.06529
  Beta virt. eigenvalues --    4.07303   4.08809   4.15372   4.16867   4.18864
  Beta virt. eigenvalues --    4.20741   4.22491   4.23187   4.26863   4.27662
  Beta virt. eigenvalues --    4.29226   4.33413   4.34904   4.36276   4.42487
  Beta virt. eigenvalues --    4.44401   4.46914   4.50066   4.52467   4.53975
  Beta virt. eigenvalues --    4.60183   4.67422   4.67678   4.71395   4.72285
  Beta virt. eigenvalues --    4.75812   4.80860   4.85539   4.95092   4.98094
  Beta virt. eigenvalues --    4.99818   5.04093   5.08437   5.14830   5.20396
  Beta virt. eigenvalues --    5.23140   5.27462   5.32758   5.35223   5.37096
  Beta virt. eigenvalues --    5.38347   5.40552   5.52761   5.58506   5.65388
  Beta virt. eigenvalues --    5.75111   5.80185   5.84397   5.85504   5.99655
  Beta virt. eigenvalues --    6.09338   6.25888   6.47511   6.70620   6.72458
  Beta virt. eigenvalues --    6.87735   6.98139   7.28908   7.54635  22.32519
  Beta virt. eigenvalues --   22.51906  22.55925  22.74753  22.80145  22.97489
  Beta virt. eigenvalues --   23.06584  23.49683  32.62583  44.40248
          Condensed to atoms (all electrons):
               1          2          3          4          5          6
     1  C    4.858416   0.287738  -0.093538  -0.001954  -0.001145   0.000280
     2  N    0.287738   6.782641   0.543897  -0.085723  -0.001421  -0.026912
     3  C   -0.093538   0.543897   5.319633   0.005393  -0.073808  -0.010059
     4  C   -0.001954  -0.085723   0.005393   5.127212   0.374450  -0.040282
     5  O   -0.001145  -0.001421  -0.073808   0.374450   7.891347   0.227792
     6  C    0.000280  -0.026912  -0.010059  -0.040282   0.227792   4.771880
     7  C   -0.000390  -0.000962   0.137046   0.311613  -0.060350   0.010087
     8  C    0.000456  -0.002167  -0.143726   0.087574   0.001813  -0.001565
     9  C   -0.001759   0.013057   0.145760  -0.153974  -0.001060   0.000925
    10  C    0.000309  -0.111228   0.034672   0.198007   0.012287  -0.003815
    11  H    0.413897  -0.040390  -0.014896  -0.001990   0.000027  -0.000059
    12  H    0.413901  -0.040372  -0.014924  -0.002004   0.000027  -0.000058
    13  H    0.414683  -0.043093   0.004475   0.001128  -0.000045   0.000252
    14  H    0.000226   0.005058   0.006505  -0.008255  -0.039398   0.417225
    15  H   -0.000133   0.004801  -0.003402   0.002695  -0.030854   0.382972
    16  H    0.000229   0.005098   0.006550  -0.008357  -0.039337   0.417227
    17  H    0.000059  -0.000136   0.026140  -0.082361   0.011411  -0.000445
    18  H   -0.000004  -0.000007  -0.007744   0.018164  -0.000147   0.000026
    19  H   -0.000047  -0.000102   0.011683  -0.003645   0.000007  -0.000001
    20  H    0.008770  -0.008928  -0.061995   0.002869   0.000058  -0.000187
               7          8          9         10         11         12
     1  C   -0.000390   0.000456  -0.001759   0.000309   0.413897   0.413901
     2  N   -0.000962  -0.002167   0.013057  -0.111228  -0.040390  -0.040372
     3  C    0.137046  -0.143726   0.145760   0.034672  -0.014896  -0.014924
     4  C    0.311613   0.087574  -0.153974   0.198007  -0.001990  -0.002004
     5  O   -0.060350   0.001813  -0.001060   0.012287   0.000027   0.000027
     6  C    0.010087  -0.001565   0.000925  -0.003815  -0.000059  -0.000058
     7  C    5.161480   0.389168   0.107757  -0.229605  -0.000499  -0.000501
     8  C    0.389168   4.962326   0.317727   0.120276   0.000289   0.000290
     9  C    0.107757   0.317727   5.108751   0.255142  -0.001200  -0.001200
    10  C   -0.229605   0.120276   0.255142   5.558168   0.009476   0.009515
    11  H   -0.000499   0.000289  -0.001200   0.009476   0.575221  -0.045268
    12  H   -0.000501   0.000290  -0.001200   0.009515  -0.045268   0.575192
    13  H    0.000191  -0.000058   0.000305  -0.001864  -0.024101  -0.024096
    14  H    0.001927  -0.000201   0.000122  -0.001378  -0.000090   0.000114
    15  H   -0.002754   0.000301  -0.000181   0.000874   0.000013   0.000013
    16  H    0.001899  -0.000199   0.000123  -0.001373   0.000115  -0.000091
    17  H    0.455415  -0.064152   0.018077  -0.011041  -0.000002  -0.000002
    18  H   -0.068101   0.459295  -0.069821   0.018437   0.000002   0.000002
    19  H    0.010110  -0.054336   0.435827  -0.045658  -0.000009  -0.000009
    20  H   -0.002454   0.008502  -0.028054   0.439479   0.000673   0.000658
              13         14         15         16         17         18
     1  C    0.414683   0.000226  -0.000133   0.000229   0.000059  -0.000004
     2  N   -0.043093   0.005058   0.004801   0.005098  -0.000136  -0.000007
     3  C    0.004475   0.006505  -0.003402   0.006550   0.026140  -0.007744
     4  C    0.001128  -0.008255   0.002695  -0.008357  -0.082361   0.018164
     5  O   -0.000045  -0.039398  -0.030854  -0.039337   0.011411  -0.000147
     6  C    0.000252   0.417225   0.382972   0.417227  -0.000445   0.000026
     7  C    0.000191   0.001927  -0.002754   0.001899   0.455415  -0.068101
     8  C   -0.000058  -0.000201   0.000301  -0.000199  -0.064152   0.459295
     9  C    0.000305   0.000122  -0.000181   0.000123   0.018077  -0.069821
    10  C   -0.001864  -0.001378   0.000874  -0.001373  -0.011041   0.018437
    11  H   -0.024101  -0.000090   0.000013   0.000115  -0.000002   0.000002
    12  H   -0.024096   0.000114   0.000013  -0.000091  -0.000002   0.000002
    13  H    0.543116  -0.000089  -0.000054  -0.000090   0.000000  -0.000000
    14  H   -0.000089   0.561614  -0.026005  -0.037176   0.000167  -0.000002
    15  H   -0.000054  -0.026005   0.569728  -0.026025  -0.000504   0.000001
    16  H   -0.000090  -0.037176  -0.026025   0.561538   0.000167  -0.000002
    17  H    0.000000   0.000167  -0.000504   0.000167   0.533300  -0.009601
    18  H   -0.000000  -0.000002   0.000001  -0.000002  -0.009601   0.543279
    19  H    0.000000   0.000001  -0.000000   0.000001  -0.000058  -0.006460
    20  H   -0.000291  -0.000020   0.000009  -0.000020  -0.000018  -0.000091
              19         20
     1  C   -0.000047   0.008770
     2  N   -0.000102  -0.008928
     3  C    0.011683  -0.061995
     4  C   -0.003645   0.002869
     5  O    0.000007   0.000058
     6  C   -0.000001  -0.000187
     7  C    0.010110  -0.002454
     8  C   -0.054336   0.008502
     9  C    0.435827  -0.028054
    10  C   -0.045658   0.439479
    11  H   -0.000009   0.000673
    12  H   -0.000009   0.000658
    13  H    0.000000  -0.000291
    14  H    0.000001  -0.000020
    15  H   -0.000000   0.000009
    16  H    0.000001  -0.000020
    17  H   -0.000058  -0.000018
    18  H   -0.006460  -0.000091
    19  H    0.539610  -0.006060
    20  H   -0.006060   0.512026
          Atomic-Atomic Spin Densities.
               1          2          3          4          5          6
     1  C   -0.049139  -0.001495   0.004685   0.000142   0.000006   0.000069
     2  N   -0.001495   0.666525  -0.026945  -0.022828   0.004576  -0.001210
     3  C    0.004685  -0.026945  -0.152015   0.028554  -0.000833  -0.000023
     4  C    0.000142  -0.022828   0.028554   0.249053  -0.052263   0.001990
     5  O    0.000006   0.004576  -0.000833  -0.052263   0.122309  -0.003217
     6  C    0.000069  -0.001210  -0.000023   0.001990  -0.003217  -0.003934
     7  C    0.000014  -0.000703   0.006198   0.030044  -0.003450   0.000008
     8  C    0.000003   0.000828  -0.004384  -0.019652   0.001360  -0.000020
     9  C    0.000050   0.000677   0.006143  -0.001851  -0.000026   0.000024
    10  C   -0.001042  -0.018783   0.022301   0.004772  -0.000344  -0.000119
    11  H    0.005406  -0.014723   0.001521   0.000340  -0.000026   0.000007
    12  H    0.005417  -0.014712   0.001500   0.000325  -0.000026   0.000008
    13  H    0.000063   0.000369   0.000026   0.000036  -0.000001   0.000006
    14  H    0.000009  -0.002424  -0.000251   0.001657  -0.001418   0.001746
    15  H    0.000008  -0.000456   0.000071  -0.000037   0.000075   0.002372
    16  H    0.000009  -0.002418  -0.000232   0.001615  -0.001407   0.001767
    17  H   -0.000000   0.000015   0.000047   0.000361  -0.000146  -0.000005
    18  H   -0.000000  -0.000001   0.000101  -0.000471   0.000004  -0.000001
    19  H    0.000003   0.000016   0.000060   0.000013   0.000000   0.000000
    20  H   -0.000081   0.000464   0.001063  -0.000266   0.000005  -0.000003
               7          8          9         10         11         12
     1  C    0.000014   0.000003   0.000050  -0.001042   0.005406   0.005417
     2  N   -0.000703   0.000828   0.000677  -0.018783  -0.014723  -0.014712
     3  C    0.006198  -0.004384   0.006143   0.022301   0.001521   0.001500
     4  C    0.030044  -0.019652  -0.001851   0.004772   0.000340   0.000325
     5  O   -0.003450   0.001360  -0.000026  -0.000344  -0.000026  -0.000026
     6  C    0.000008  -0.000020   0.000024  -0.000119   0.000007   0.000008
     7  C   -0.120122  -0.016311   0.002264   0.001869   0.000042   0.000040
     8  C   -0.016311   0.250321   0.034628  -0.018411  -0.000080  -0.000080
     9  C    0.002264   0.034628  -0.093436  -0.025554  -0.000048  -0.000044
    10  C    0.001869  -0.018411  -0.025554   0.212344   0.003518   0.003547
    11  H    0.000042  -0.000080  -0.000048   0.003518   0.053016  -0.015444
    12  H    0.000040  -0.000080  -0.000044   0.003547  -0.015444   0.053005
    13  H   -0.000000  -0.000000   0.000001  -0.000063  -0.000027  -0.000026
    14  H    0.000061  -0.000024   0.000012   0.000000   0.000103  -0.000060
    15  H    0.000086  -0.000008   0.000007  -0.000024  -0.000001  -0.000001
    16  H    0.000057  -0.000024   0.000012   0.000001  -0.000060   0.000102
    17  H    0.000201  -0.000145  -0.000162   0.000046   0.000000   0.000000
    18  H    0.001587  -0.002259   0.002060  -0.000405  -0.000000  -0.000000
    19  H   -0.000030   0.000183   0.000488  -0.000458  -0.000002  -0.000002
    20  H    0.000066  -0.000164   0.000634  -0.001177  -0.000056  -0.000065
              13         14         15         16         17         18
     1  C    0.000063   0.000009   0.000008   0.000009  -0.000000  -0.000000
     2  N    0.000369  -0.002424  -0.000456  -0.002418   0.000015  -0.000001
     3  C    0.000026  -0.000251   0.000071  -0.000232   0.000047   0.000101
     4  C    0.000036   0.001657  -0.000037   0.001615   0.000361  -0.000471
     5  O   -0.000001  -0.001418   0.000075  -0.001407  -0.000146   0.000004
     6  C    0.000006   0.001746   0.002372   0.001767  -0.000005  -0.000001
     7  C   -0.000000   0.000061   0.000086   0.000057   0.000201   0.001587
     8  C   -0.000000  -0.000024  -0.000008  -0.000024  -0.000145  -0.002259
     9  C    0.000001   0.000012   0.000007   0.000012  -0.000162   0.002060
    10  C   -0.000063   0.000000  -0.000024   0.000001   0.000046  -0.000405
    11  H   -0.000027   0.000103  -0.000001  -0.000060   0.000000  -0.000000
    12  H   -0.000026  -0.000060  -0.000001   0.000102   0.000000  -0.000000
    13  H    0.000136   0.000014   0.000003   0.000014  -0.000000  -0.000000
    14  H    0.000014   0.002910  -0.000012  -0.000130   0.000001  -0.000000
    15  H    0.000003  -0.000012  -0.003164  -0.000010   0.000017  -0.000000
    16  H    0.000014  -0.000130  -0.000010   0.002882   0.000001  -0.000000
    17  H   -0.000000   0.000001   0.000017   0.000001   0.003037   0.000189
    18  H   -0.000000  -0.000000  -0.000000  -0.000000   0.000189  -0.010708
    19  H    0.000000  -0.000000  -0.000000  -0.000000  -0.000003   0.000126
    20  H    0.000000  -0.000002  -0.000000  -0.000002  -0.000001   0.000006
              19         20
     1  C    0.000003  -0.000081
     2  N    0.000016   0.000464
     3  C    0.000060   0.001063
     4  C    0.000013  -0.000266
     5  O    0.000000   0.000005
     6  C    0.000000  -0.000003
     7  C   -0.000030   0.000066
     8  C    0.000183  -0.000164
     9  C    0.000488   0.000634
    10  C   -0.000458  -0.001177
    11  H   -0.000002  -0.000056
    12  H   -0.000002  -0.000065
    13  H    0.000000   0.000000
    14  H   -0.000000  -0.000002
    15  H   -0.000000  -0.000000
    16  H   -0.000000  -0.000002
    17  H   -0.000003  -0.000001
    18  H    0.000126   0.000006
    19  H    0.002899   0.000030
    20  H    0.000030  -0.008492
 Mulliken charges and spin densities:
               1          2
     1  C   -0.299994  -0.035874
     2  N   -0.280848   0.566771
     3  C    0.182339  -0.112413
     4  C    0.259439   0.221533
     5  O   -0.271654   0.065176
     6  C   -0.145281  -0.000538
     7  C   -0.221076  -0.098080
     8  C   -0.081611   0.225759
     9  C   -0.146324  -0.074123
    10  C   -0.250680   0.182017
    11  H    0.128792   0.033485
    12  H    0.128813   0.033483
    13  H    0.129630   0.000549
    14  H    0.119654   0.002190
    15  H    0.128504  -0.001077
    16  H    0.119722   0.002176
    17  H    0.123584   0.003452
    18  H    0.122771  -0.009773
    19  H    0.119145   0.003325
    20  H    0.135073  -0.008040
 Sum of Mulliken charges =  -0.00000   1.00000
 Mulliken charges and spin densities with hydrogens summed into heavy atoms:
               1          2
     1  C    0.087241   0.031644
     2  N   -0.280848   0.566771
     3  C    0.182339  -0.112413
     4  C    0.259439   0.221533
     5  O   -0.271654   0.065176
     6  C    0.222600   0.002752
     7  C   -0.097492  -0.094629
     8  C    0.041161   0.215986
     9  C   -0.027179  -0.070798
    10  C   -0.115607   0.173977
 APT charges:
               1
     1  C    0.315580
     2  N   -0.301663
     3  C   -0.052967
     4  C    0.649204
     5  O   -0.889990
     6  C    0.500331
     7  C   -0.156990
     8  C    0.105331
     9  C   -0.184885
    10  C    0.006179
    11  H   -0.046687
    12  H   -0.046676
    13  H   -0.022151
    14  H   -0.018388
    15  H   -0.020073
    16  H   -0.018203
    17  H    0.056529
    18  H    0.040832
    19  H    0.033700
    20  H    0.050988
 Sum of APT charges =  -0.00000
 APT charges with hydrogens summed into heavy atoms:
               1
     1  C    0.200066
     2  N   -0.301663
     3  C   -0.052967
     4  C    0.649204
     5  O   -0.889990
     6  C    0.443667
     7  C   -0.100461
     8  C    0.146163
     9  C   -0.151185
    10  C    0.057167
 Electronic spatial extent (au):  <R**2>=           1476.5498
 Charge=             -0.0000 electrons
 Dipole moment (field-independent basis, Debye):
    X=             -0.2298    Y=              0.7762    Z=              0.0026  Tot=              0.8095
 Quadrupole moment (field-independent basis, Debye-Ang):
   XX=            -53.3181   YY=            -54.6958   ZZ=            -62.0961
   XY=             -0.6577   XZ=              0.0038   YZ=             -0.0026
 Traceless Quadrupole moment (field-independent basis, Debye-Ang):
   XX=              3.3852   YY=              2.0076   ZZ=             -5.3928
   XY=             -0.6577   XZ=              0.0038   YZ=             -0.0026
 Octapole moment (field-independent basis, Debye-Ang**2):
  XXX=              0.3924  YYY=              3.1663  ZZZ=             -0.0030  XYY=              4.4835
  XXY=             -9.0000  XXZ=              0.0068  XZZ=              8.7530  YZZ=             -1.6716
  YYZ=              0.0070  XYZ=             -0.0113
 Hexadecapole moment (field-independent basis, Debye-Ang**3):
 XXXX=           -977.7870 YYYY=           -821.1654 ZZZZ=            -80.8919 XXXY=            -16.7710
 XXXZ=             -0.0114 YYYX=             -2.6498 YYYZ=             -0.0049 ZZZX=              0.0067
 ZZZY=              0.0011 XXYY=           -283.1322 XXZZ=           -203.4144 YYZZ=           -159.9321
 XXYZ=             -0.0009 YYXZ=              0.0106 ZZXY=             -1.7017
 N-N= 5.101731965415D+02 E-N=-2.046930183082D+03  KE= 4.387081997334D+02
  Exact polarizability: 140.199   6.947 124.254  -0.005   0.004  63.599
 Approx polarizability: 146.434   5.677 130.569  -0.009   0.012  78.321
                          Isotropic Fermi Contact Couplings
        Atom                 a.u.       MegaHertz       Gauss      10(-4) cm-1
     1  C(13)             -0.01917     -21.54916      -7.68928      -7.18803
     2  N(14)              0.06624      21.40169       7.63666       7.13884
     3  C(13)             -0.03543     -39.83311     -14.21344     -13.28690
     4  C(13)              0.01444      16.22778       5.79048       5.41300
     5  O(17)              0.01691     -10.24916      -3.65716      -3.41875
     6  C(13)             -0.00313      -3.51482      -1.25417      -1.17242
     7  C(13)             -0.01790     -20.12681      -7.18174      -6.71358
     8  C(13)              0.01518      17.06343       6.08865       5.69175
     9  C(13)             -0.01507     -16.94580      -6.04668      -5.65251
    10  C(13)              0.01255      14.10917       5.03450       4.70631
    11  H(1)               0.01401      62.61575      22.34286      20.88637
    12  H(1)               0.01401      62.61173      22.34142      20.88502
    13  H(1)               0.00004       0.18345       0.06546       0.06119
    14  H(1)               0.00228      10.18022       3.63256       3.39576
    15  H(1)              -0.00031      -1.37494      -0.49061      -0.45863
    16  H(1)               0.00227      10.16414       3.62682       3.39039
    17  H(1)               0.00137       6.13712       2.18988       2.04712
    18  H(1)              -0.00368     -16.46653      -5.87567      -5.49264
    19  H(1)               0.00113       5.05837       1.80495       1.68729
    20  H(1)              -0.00306     -13.69247      -4.88581      -4.56732
 --------------------------------------------------------
       Center         ----  Spin Dipole Couplings  ----
                      3XX-RR        3YY-RR        3ZZ-RR
 --------------------------------------------------------
     1   Atom       -0.011818      0.018290     -0.006472
     2   Atom       -0.686357     -0.680769      1.367126
     3   Atom        0.094230      0.060106     -0.154336
     4   Atom       -0.148116     -0.146180      0.294296
     5   Atom       -0.186091     -0.192277      0.378368
     6   Atom        0.000066      0.000125     -0.000192
     7   Atom        0.064167      0.052016     -0.116183
     8   Atom       -0.134910     -0.143729      0.278639
     9   Atom        0.045326      0.044236     -0.089562
    10   Atom       -0.110145     -0.108055      0.218200
    11   Atom       -0.004851      0.009592     -0.004741
    12   Atom       -0.004850      0.009596     -0.004746
    13   Atom        0.000448      0.005722     -0.006170
    14   Atom        0.000776      0.003486     -0.004262
    15   Atom        0.001497      0.001428     -0.002925
    16   Atom        0.000797      0.003483     -0.004280
    17   Atom        0.007990     -0.003003     -0.004987
    18   Atom        0.012590     -0.012354     -0.000235
    19   Atom       -0.000179      0.004260     -0.004081
    20   Atom       -0.010882      0.013924     -0.003042
 --------------------------------------------------------
                        XY            XZ            YZ
 --------------------------------------------------------
     1   Atom        0.002955      0.000004      0.000006
     2   Atom        0.003268      0.000841     -0.000190
     3   Atom        0.014811     -0.000084      0.000060
     4   Atom        0.002591     -0.000013     -0.000154
     5   Atom        0.005805     -0.000425     -0.000374
     6   Atom       -0.003067      0.000022     -0.000002
     7   Atom        0.000975     -0.000000      0.000057
     8   Atom        0.004898      0.000074     -0.000166
     9   Atom        0.004432     -0.000016      0.000049
    10   Atom       -0.001071      0.000059     -0.000127
    11   Atom       -0.000518     -0.000651      0.006794
    12   Atom       -0.000523      0.000650     -0.006790
    13   Atom        0.010353     -0.000001     -0.000002
    14   Atom       -0.004156      0.003636     -0.002121
    15   Atom       -0.003544      0.000006     -0.000003
    16   Atom       -0.004161     -0.003627      0.002113
    17   Atom        0.001636     -0.000001      0.000001
    18   Atom        0.015189      0.000004     -0.000008
    19   Atom        0.002428      0.000000      0.000003
    20   Atom       -0.001605      0.000000      0.000008
 --------------------------------------------------------


 ---------------------------------------------------------------------------------
              Anisotropic Spin Dipole Couplings in Principal Axis System
 ---------------------------------------------------------------------------------

       Atom             a.u.   MegaHertz   Gauss  10(-4) cm-1        Axes

              Baa    -0.0121    -1.624    -0.580    -0.542  0.9953 -0.0968 -0.0006
     1 C(13)  Bbb    -0.0065    -0.868    -0.310    -0.290  0.0005 -0.0003  1.0000
              Bcc     0.0186     2.493     0.890     0.832  0.0968  0.9953  0.0002
 
              Baa    -0.6879   -26.529    -9.466    -8.849  0.9082 -0.4185 -0.0004
     2 N(14)  Bbb    -0.6793   -26.198    -9.348    -8.739  0.4185  0.9082 -0.0001
              Bcc     1.3671    52.727    18.814    17.588  0.0004 -0.0001  1.0000
 
              Baa    -0.1543   -20.710    -7.390    -6.908  0.0004 -0.0003  1.0000
     3 C(13)  Bbb     0.0546     7.323     2.613     2.443 -0.3499  0.9368  0.0004
              Bcc     0.0998    13.387     4.777     4.465  0.9368  0.3499 -0.0002
 
              Baa    -0.1499   -20.117    -7.178    -6.710  0.8216 -0.5701 -0.0002
     4 C(13)  Bbb    -0.1444   -19.375    -6.913    -6.463  0.5701  0.8216  0.0003
              Bcc     0.2943    39.492    14.092    13.173 -0.0000 -0.0003  1.0000
 
              Baa    -0.1958    14.165     5.054     4.725 -0.5147  0.8574  0.0002
     5 O(17)  Bbb    -0.1826    13.213     4.715     4.407  0.8574  0.5147  0.0010
              Bcc     0.3784   -27.379    -9.769    -9.132 -0.0008 -0.0007  1.0000
 
              Baa    -0.0030    -0.399    -0.142    -0.133  0.7105  0.7037 -0.0052
     6 C(13)  Bbb    -0.0002    -0.026    -0.009    -0.009  0.0001  0.0072  1.0000
              Bcc     0.0032     0.424     0.151     0.142 -0.7037  0.7105 -0.0051
 
              Baa    -0.1162   -15.591    -5.563    -5.200  0.0000 -0.0003  1.0000
     7 C(13)  Bbb     0.0519     6.970     2.487     2.325 -0.0794  0.9968  0.0003
              Bcc     0.0642     8.621     3.076     2.876  0.9968  0.0794  0.0000
 
              Baa    -0.1459   -19.580    -6.987    -6.531 -0.4068  0.9135  0.0004
     8 C(13)  Bbb    -0.1327   -17.811    -6.355    -5.941  0.9135  0.4068  0.0000
              Bcc     0.2786    37.391    13.342    12.472  0.0002 -0.0004  1.0000
 
              Baa    -0.0896   -12.018    -4.288    -4.009  0.0001 -0.0004  1.0000
     9 C(13)  Bbb     0.0403     5.410     1.930     1.805 -0.6625  0.7490  0.0004
              Bcc     0.0492     6.608     2.358     2.204  0.7490  0.6625  0.0002
 
              Baa    -0.1106   -14.841    -5.296    -4.950  0.9215  0.3883 -0.0000
    10 C(13)  Bbb    -0.1076   -14.439    -5.152    -4.816 -0.3883  0.9215  0.0004
              Bcc     0.2182    29.280    10.448     9.767  0.0002 -0.0004  1.0000
 
              Baa    -0.0075    -4.009    -1.431    -1.337  0.1548 -0.3606  0.9198
    11 H(1)   Bbb    -0.0048    -2.570    -0.917    -0.857  0.9870  0.0961 -0.1285
              Bcc     0.0123     6.579     2.348     2.195 -0.0420  0.9278  0.3708
 
              Baa    -0.0075    -4.009    -1.431    -1.337 -0.1539  0.3604  0.9200
    12 H(1)   Bbb    -0.0048    -2.570    -0.917    -0.857  0.9872  0.0959  0.1275
              Bcc     0.0123     6.580     2.348     2.195 -0.0422  0.9279 -0.3705
 
              Baa    -0.0076    -4.054    -1.447    -1.352  0.7896 -0.6137 -0.0001
    13 H(1)   Bbb    -0.0062    -3.292    -1.175    -1.098  0.0002  0.0000  1.0000
              Bcc     0.0138     7.346     2.621     2.450  0.6137  0.7896 -0.0001
 
              Baa    -0.0062    -3.290    -1.174    -1.098 -0.4671 -0.0068  0.8842
    14 H(1)   Bbb    -0.0016    -0.853    -0.305    -0.285  0.6494  0.6760  0.3483
              Bcc     0.0078     4.144     1.479     1.382 -0.6001  0.7369 -0.3113
 
              Baa    -0.0029    -1.561    -0.557    -0.521 -0.0023 -0.0013  1.0000
    15 H(1)   Bbb    -0.0021    -1.111    -0.396    -0.371  0.7037  0.7105  0.0025
              Bcc     0.0050     2.671     0.953     0.891  0.7105 -0.7037  0.0007
 
              Baa    -0.0062    -3.291    -1.174    -1.098  0.4649  0.0066  0.8853
    16 H(1)   Bbb    -0.0016    -0.853    -0.304    -0.285  0.6501  0.6763 -0.3465
              Bcc     0.0078     4.145     1.479     1.382 -0.6010  0.7366  0.3101
 
              Baa    -0.0050    -2.661    -0.949    -0.888  0.0001 -0.0008  1.0000
    17 H(1)   Bbb    -0.0032    -1.730    -0.617    -0.577 -0.1441  0.9896  0.0008
              Bcc     0.0082     4.390     1.567     1.464  0.9896  0.1441 -0.0000
 
              Baa    -0.0195   -10.423    -3.719    -3.477 -0.4274  0.9040  0.0004
    18 H(1)   Bbb    -0.0002    -0.126    -0.045    -0.042  0.0002 -0.0004  1.0000
              Bcc     0.0198    10.549     3.764     3.519  0.9040  0.4274 -0.0000
 
              Baa    -0.0041    -2.177    -0.777    -0.726  0.0002 -0.0004  1.0000
    19 H(1)   Bbb    -0.0012    -0.666    -0.238    -0.222  0.9151 -0.4033 -0.0004
              Bcc     0.0053     2.844     1.015     0.949  0.4033  0.9151  0.0003
 
              Baa    -0.0110    -5.862    -2.092    -1.955  0.9979  0.0643 -0.0001
    20 H(1)   Bbb    -0.0030    -1.623    -0.579    -0.541  0.0001 -0.0005  1.0000
              Bcc     0.0140     7.484     2.671     2.497 -0.0643  0.9979  0.0005
 

 ---------------------------------------------------------------------------------

 No NMR shielding tensors so no spin-rotation constants.
 Leave Link  601 at Fri Dec  6 21:26:04 2019, MaxMem=  1879048192 cpu:              10.2 elap:               1.3
 (Enter /opt/g16/l701.exe)
 SCFChk:  SCF convergence  4.23D-09 required  1.00D-08
 ... and contract with generalized density number  0.
 Compute integral second derivatives.
 R6Disp: Adding Grimme-D2 dispersion energy 2nd derivatives to the Hessian.
 Entering OneElI...
 Calculate overlap and kinetic energy integrals
    NBasis = 420  MinDer = 2  MaxDer = 2
 Requested accuracy = 0.1000D-14
 PrmmSu-InSpLW:  IPartL=    0 NPrtUS=    8 NPrtUL=    1 DoSpLW=F IThBeg=    0 IThEnd=    7 NThAct=    8.
 PrSmSu:  IncTry=   512 NBBP=          11189 NTPThr=   100 NPartT=    8 Incr=          13 LDynOK=F GPUOK=F.
 PrsmSu:  NPrtUS=   8 ThrOK=T IAlg=2 LenDen=           0 ISkipM=0 DoSpLW=F IThBeg=    0 IThEnd=    7.
 Prism:   IPart=     0 DynPar=F LinDyn=F Incr=          13.
 PRISM was handed   234516743 working-precision words and 11189 shell-pairs
 PRISM was handed   234516743 working-precision words and 11189 shell-pairs
 PRISM was handed   234516743 working-precision words and 11189 shell-pairs
 PRISM was handed   234516743 working-precision words and 11189 shell-pairs
 PRISM was handed   234516743 working-precision words and 11189 shell-pairs
 PRISM was handed   234516743 working-precision words and 11189 shell-pairs
 PRISM was handed   234516743 working-precision words and 11189 shell-pairs
 PRISM was handed   234516743 working-precision words and 11189 shell-pairs
 IPart=  7 NShTot=        1375 NBatch=          55 AvBLen=        25.0
 IPart=  0 NShTot=        1424 NBatch=          70 AvBLen=        20.3
 IPart=  4 NShTot=        1396 NBatch=          62 AvBLen=        22.5
 IPart=  6 NShTot=        1382 NBatch=          56 AvBLen=        24.7
 IPart=  2 NShTot=        1406 NBatch=          63 AvBLen=        22.3
 IPart=  3 NShTot=        1400 NBatch=          62 AvBLen=        22.6
 IPart=  5 NShTot=        1388 NBatch=          61 AvBLen=        22.8
 IPart=  1 NShTot=        1418 NBatch=          65 AvBLen=        21.8
 PrSmSu:  NxtVal=            105.
 Entering OneElI...
 Calculate potential energy integrals
    NBasis = 420  MinDer = 2  MaxDer = 2
 Requested accuracy = 0.1000D-14
 PrmmSu-InSpLW:  IPartL=    0 NPrtUS=    8 NPrtUL=    1 DoSpLW=F IThBeg=    0 IThEnd=    7 NThAct=    8.
 PrSmSu:  IncTry=   512 NBBP=         206460 NTPThr=   100 NPartT=    8 Incr=         258 LDynOK=F GPUOK=F.
 PrsmSu:  NPrtUS=   8 ThrOK=T IAlg=2 LenDen=           0 ISkipM=0 DoSpLW=F IThBeg=    0 IThEnd=    7.
 Prism:   IPart=     0 DynPar=F LinDyn=F Incr=         258.
 PRISM was handed   234576841 working-precision words and 10323 shell-pairs
 PRISM was handed   234576841 working-precision words and 10323 shell-pairs
 PRISM was handed   234576841 working-precision words and 10323 shell-pairs
 PRISM was handed   234576841 working-precision words and 10323 shell-pairs
 PRISM was handed   234576841 working-precision words and 10323 shell-pairs
 PRISM was handed   234576841 working-precision words and 10323 shell-pairs
 PRISM was handed   234576841 working-precision words and 10323 shell-pairs
 PRISM was handed   234576841 working-precision words and 10323 shell-pairs
 IPart=  7 NShTot=       25380 NBatch=        1269 AvBLen=        20.0
 IPart=  6 NShTot=       25460 NBatch=        1273 AvBLen=        20.0
 IPart=  5 NShTot=       25580 NBatch=        1279 AvBLen=        20.0
 IPart=  0 NShTot=       26460 NBatch=        1323 AvBLen=        20.0
 IPart=  1 NShTot=       26200 NBatch=        1310 AvBLen=        20.0
 IPart=  2 NShTot=       25940 NBatch=        1297 AvBLen=        20.0
 IPart=  4 NShTot=       25680 NBatch=        1284 AvBLen=        20.0
 IPart=  3 NShTot=       25760 NBatch=        1288 AvBLen=        20.0
 PrSmSu:  NxtVal=           2065.
   1 Symmetry operations used in ECPInt.
 ECPInt:  NShTT=   11325 NPrTT=   34180 LenC2=   10953 LenP2D=   25816.
 LDataN:  DoStor=F MaxTD1= 8 Len=  415
 LDataN:  DoStor=T MaxTD1= 8 Len=  415
 ECPSu:  NPrtUS=   8 ThrOK=T ISkipM=0 DoSpLW=F IThBeg=    0 IThEnd=    7.
 Polarizability after L701:
                1             2             3 
      1  0.140199D+03
      2  0.694743D+01  0.124254D+03
      3 -0.528473D-02  0.419817D-02  0.635995D+02
 Dipole Derivatives after L701:
                 1             2             3             4             5 
      1   0.377607D+00  0.114463D+00 -0.699352D-04 -0.382673D+00  0.100747D+00
      2   0.226240D+00  0.320352D+00 -0.572611D-04 -0.207731D-02 -0.222431D+00
      3  -0.457707D-04 -0.276359D-04  0.248780D+00 -0.274011D-04 -0.105676D-04
                 6             7             8             9            10 
      1   0.953340D-04 -0.851869D-02  0.103406D+00  0.134347D-03  0.102247D+01
      2  -0.277340D-04 -0.258014D+00 -0.215975D+00 -0.974009D-04 -0.877586D+00
      3  -0.299884D+00 -0.376379D-04 -0.224888D-04  0.655916D-01 -0.242367D-03
                11            12            13            14            15 
      1  -0.728927D+00 -0.789356D-03 -0.145425D+01  0.686947D+00  0.245637D-03
      2   0.832434D+00  0.630225D-03  0.843141D+00 -0.981640D+00 -0.904743D-03
      3  -0.579295D-04  0.927043D-01 -0.387062D-03 -0.768980D-05 -0.234082D+00
                16            17            18            19            20 
      1   0.918261D+00 -0.100348D-01  0.613325D-03 -0.313916D+00 -0.889450D-02
      2  -0.337135D+00  0.323845D+00 -0.121259D-03  0.519391D+00  0.221929D-01
      3   0.602022D-03 -0.431041D-04  0.258886D+00  0.198115D-04  0.132593D-03
                21            22            23            24            25 
      1  -0.122130D-03  0.549914D-01  0.182496D+00  0.781206D-04 -0.202663D+00
      2   0.269613D-03 -0.154626D+00  0.378928D+00  0.139455D-03 -0.259982D+00
      3  -0.179247D+00 -0.157608D-04  0.350354D-04 -0.117926D+00 -0.382057D-04
                26            27            28            29            30 
      1  -0.301299D+00 -0.126685D-03  0.179181D+00  0.477791D-01  0.565371D-04
      2  -0.199075D+00  0.800312D-04  0.148584D+00 -0.268490D-01 -0.123139D-04
      3   0.126648D-03 -0.152916D+00 -0.379810D-04  0.504382D-04 -0.133795D+00
                31            32            33            34            35 
      1   0.756247D-02 -0.754914D-01  0.348364D-01  0.749656D-02 -0.754572D-01
      2   0.416078D-01 -0.789876D-01 -0.105829D+00  0.417141D-01 -0.790201D-01
      3   0.932374D-01 -0.310560D-01 -0.686368D-01 -0.932774D-01  0.311197D-01
                36            37            38            39            40 
      1  -0.348982D-01 -0.160551D+00 -0.337733D-01  0.718152D-04 -0.396759D-01
      2   0.105793D+00 -0.117666D+00  0.239348D-01  0.314809D-04  0.653385D-01
      3  -0.685047D-01  0.677342D-04  0.371715D-05  0.701638D-01  0.759368D-02
                41            42            43            44            45 
      1  -0.750195D-01 -0.394632D-01 -0.145185D-01  0.144439D+00 -0.139127D-03
      2   0.427954D-01 -0.491030D-01  0.687959D-01 -0.136066D+00  0.109191D-03
      3  -0.745378D-01 -0.582849D-01 -0.838368D-04  0.115497D-03  0.903668D-01
                46            47            48            49            50 
      1  -0.396665D-01 -0.754302D-01  0.394368D-01  0.809819D-01 -0.190726D-01
      2   0.650890D-01  0.430761D-01  0.493211D-01  0.148991D-02 -0.558939D-01
      3  -0.739025D-02  0.743746D-01 -0.580175D-01  0.160314D-04 -0.584802D-04
                51            52            53            54            55 
      1  -0.586566D-05 -0.658520D-01 -0.559150D-01  0.680983D-05 -0.415739D-01
      2  -0.402276D-04 -0.581271D-01  0.539488D-01 -0.546857D-04  0.687338D-01
      3   0.144500D+00 -0.132261D-05 -0.176209D-04  0.134398D+00  0.572144D-04
                56            57            58            59            60 
      1   0.851694D-01  0.537435D-04  0.753028D-01 -0.613261D-02 -0.142448D-04
      2   0.355025D-02 -0.817022D-04 -0.249107D-01 -0.491188D-01 -0.447526D-04
      3  -0.608392D-04  0.139124D+00 -0.896403D-05 -0.581310D-04  0.126780D+00
 Hessian after L701:
                1             2             3             4             5 
      1  0.177686D+02
      2 -0.167913D+01  0.129461D+02
      3  0.516371D-04 -0.235989D-03  0.189851D+02
      4 -0.764604D+01  0.154788D+01 -0.839322D-04  0.986327D+01
      5  0.170217D+01 -0.113945D+01  0.274487D-03 -0.590123D+01  0.108422D+02
      6 -0.479025D-04  0.311776D-03 -0.828174D+01  0.409245D-02  0.914959D-03
      7  0.270226D+00  0.195315D-02  0.510294D-04 -0.352775D+01  0.483052D+01
      8 -0.716421D-01  0.181707D+00  0.111320D-03  0.473420D+01 -0.109087D+02
      9  0.430381D-04  0.133569D-03  0.167951D+00 -0.385793D-02 -0.508245D-03
     10 -0.980599D-02  0.206167D+00  0.345237D-04 -0.890942D-01 -0.102596D+00
     11  0.238116D+00  0.219415D+00  0.398288D-05 -0.529141D-03  0.510917D+00
     12 -0.149844D-05 -0.280677D-04 -0.111251D+00 -0.825081D-04 -0.384970D-03
     13 -0.852009D-01  0.350111D-01  0.457394D-05 -0.314164D+00  0.184629D+00
     14  0.409100D-01  0.133883D+00  0.418206D-04  0.303469D+00  0.734523D+00
     15  0.345479D-05  0.191791D-04 -0.958089D-01 -0.299463D-05  0.440680D-04
     16 -0.859255D-01 -0.252871D-01  0.978211D-05 -0.179931D+00 -0.749718D-01
     17 -0.601458D-01  0.139281D+00 -0.927911D-04 -0.159460D+00  0.195222D+00
     18  0.259193D-04 -0.552195D-04 -0.949728D-01  0.359379D-04 -0.411859D-04
     19  0.170150D-01  0.680658D-01 -0.118339D-04 -0.518306D-01  0.193249D+00
     20  0.728883D-01  0.138179D-01 -0.323572D-05  0.172033D+00  0.137420D+00
     21  0.534251D-05  0.501183D-05 -0.536679D-01 -0.204678D-04 -0.268331D-04
     22  0.384049D-01  0.579932D-01  0.000000D+00  0.198791D+00  0.639145D-01
     23  0.636753D-01 -0.673780D-02 -0.199751D-05  0.643925D-01 -0.803710D-01
     24 -0.151024D-04 -0.915915D-05 -0.492498D-01 -0.629957D-04 -0.205402D-04
     25  0.145562D+00  0.449637D-01 -0.452588D-04  0.327130D+00  0.187957D+00
     26  0.848723D-01 -0.814327D-01 -0.258170D-04  0.172161D+00 -0.162525D+00
     27 -0.317540D-04 -0.130534D-04 -0.768417D-01 -0.317138D-04 -0.513193D-04
     28 -0.238662D-01  0.128958D+00 -0.314667D-04  0.800054D+00 -0.553457D+00
     29  0.237384D+00 -0.755150D-01 -0.409571D-04 -0.468470D+00  0.144168D+00
     30  0.801014D-05  0.312135D-04 -0.233167D+00  0.198604D-03  0.679117D-04
     31 -0.428529D+01 -0.492873D+00 -0.774644D+00  0.163856D+00 -0.113518D+00
     32 -0.664854D+00 -0.392339D+01  0.130574D+01 -0.738777D-01 -0.891505D-01
     33 -0.923111D+00  0.112694D+01 -0.273455D+01 -0.755963D-01  0.307718D-01
     34 -0.428411D+01 -0.493799D+00  0.775580D+00  0.163882D+00 -0.113554D+00
     35 -0.665925D+00 -0.392286D+01 -0.130553D+01 -0.738947D-01 -0.891235D-01
     36  0.924014D+00 -0.112686D+01 -0.273620D+01  0.756160D-01 -0.308322D-01
     37 -0.191147D+01  0.644459D+00 -0.835525D-03  0.248306D+00 -0.860968D-01
     38  0.799432D+00 -0.445865D+01 -0.252774D-03 -0.135718D+00 -0.265539D+00
     39 -0.831929D-03 -0.204338D-03 -0.455924D+01 -0.638733D-04 -0.165836D-04
     40 -0.882008D-02 -0.199184D-01  0.642431D-02 -0.363214D-01 -0.691916D-01
     41 -0.101888D-01  0.137479D-01 -0.994366D-02 -0.288085D-01 -0.218280D-01
     42  0.130024D-01 -0.291385D-01 -0.795171D-02  0.357034D-01 -0.837982D-01
     43 -0.262089D-02 -0.630133D-02  0.235874D-05 -0.245385D-01 -0.638128D-01
     44 -0.722748D-02  0.134977D-01 -0.868029D-05 -0.352530D-01  0.140093D+00
     45  0.269169D-05 -0.814472D-05 -0.630510D-02  0.181605D-04 -0.986431D-04
     46 -0.876857D-02 -0.200358D-01 -0.643096D-02 -0.361910D-01 -0.695601D-01
     47 -0.102422D-01  0.137880D-01  0.992575D-02 -0.289192D-01 -0.220042D-01
     48 -0.130140D-01  0.290980D-01 -0.801945D-02 -0.357550D-01  0.836401D-01
     49  0.214943D-03  0.719664D-02  0.120615D-05  0.382997D-02  0.143895D-01
     50  0.129280D-01  0.107185D-01  0.328345D-05  0.368035D-01  0.283779D-01
     51  0.200364D-05  0.251995D-05 -0.553051D-02  0.740740D-05  0.764727D-05
     52  0.121456D-01  0.452702D-02  0.000000D+00  0.335757D-01  0.153004D-01
[...]
 .01327249,-0.01185326,0.04092359,0.00404202,-0.00194385,-0.00806866,0.
 00152663,0.00119906,0.00124841,-0.10788747,0.09435767,0.01411902,0.271
 24716,0.00012623,-0.00023961,0.00180302,0.00196980,-0.00196218,0.00341
 399,0.01738859,-0.03651436,-0.01134972,-0.01954544,0.01425731,-0.07702
 668,-0.00054022,0.00791353,0.01181015,0.00096885,-0.00027364,-0.002825
 91,0.10443173,-0.24429784,-0.05801258,-0.22601732,0.52317928,0.0010772
 5,-0.00161031,0.00036461,-0.00210584,-0.00035329,-0.01531690,0.0018208
 8,0.00266482,0.01882691,0.00966362,-0.02434578,-0.03244668,-0.00239015
 ,0.00225933,-0.00320821,0.00029880,-0.00123649,-0.00088397,0.05508145,
 -0.12706194,-0.19300356,0.05677494,0.05391811,0.73713710,-0.00010814,0
 .00105390,-0.00024487,0.00188168,0.00397651,0.00981340,0.01428063,-0.0
 1692598,-0.00148164,-0.00677500,0.00348040,-0.01980984,-0.00178691,0.0
 0221748,0.00368269,-0.00018310,-0.00053700,-0.00148417,-0.01050454,0.0
 3159384,0.01989179,-0.12300065,0.09253719,-0.06484355,0.27820106,0.000
 94480,-0.00085145,0.00076761,0.00273312,-0.00452646,-0.01106303,-0.011
 82856,0.02110300,-0.01338944,0.00501663,-0.00464058,0.02289941,0.00137
 268,-0.00450706,-0.00476585,-0.00014615,0.00050395,0.00222713,0.025785
 69,-0.04266195,-0.01844980,0.10233103,-0.21035842,0.08460453,-0.249663
 98,0.56539729,-0.00068512,0.00151028,0.00199572,0.00476938,-0.00255121
 ,0.02506137,0.01922239,-0.04829802,-0.06005325,-0.01356735,0.01237886,
 -0.04447547,0.00027536,0.00098619,0.00484737,0.00011629,-0.00046706,-0
 .00139993,-0.00374153,0.02137564,0.06662325,-0.02503730,0.01750360,-0.
 15910413,0.03676817,0.08026630,0.70290086,-0.00603539,-0.00397566,0.00
 079991,0.02345223,0.00248358,0.01194252,-0.11027415,0.06860929,0.01353
 598,-0.00709271,0.01569053,0.00735886,0.00265901,0.00318450,-0.0026611
 3,0.00052448,-0.00011738,-0.00070223,-0.00130835,0.00150737,0.00024520
 ,0.00298882,0.00033977,-0.01880696,-0.07985890,0.02594361,-0.05479235,
 0.28195848,-0.00286593,-0.00364634,0.00014799,0.00073406,0.01103263,-0
 .04427642,0.06892606,-0.19557569,-0.03187788,0.01593322,-0.02584688,-0
 .00045974,0.00316333,-0.00000931,0.00155526,0.00009040,0.00066755,0.00
 110768,0.00354041,-0.00921129,-0.01135039,-0.00677226,0.02279938,0.022
 13986,0.03467678,-0.11166509,0.01325675,-0.23550199,0.51990323,0.00530
 287,-0.00743921,-0.00244448,0.00485089,-0.03232639,-0.07477657,0.01477
 309,-0.03396527,-0.10838099,0.00839349,-0.00221019,0.04967486,-0.00275
 501,0.00169862,-0.00697808,0.00015048,-0.00032877,0.00025431,0.0085118
 9,-0.02526991,-0.04488440,-0.04770203,0.07084720,-0.03293697,-0.019305
 39,-0.04656092,-0.37799468,0.09893790,-0.02005010,0.72399803,-0.094576
 64,-0.09895592,-0.01672957,0.00521688,0.01691694,0.00146855,0.00217876
 ,0.00147113,0.00029101,-0.00106023,-0.00085632,0.00023718,0.00019954,0
 .00030883,0.00007168,-0.00038044,-0.00019365,-0.00006772,0.00004890,0.
 00014495,0.00005227,0.00018570,-0.00018960,-0.00001521,-0.00043202,0.0
 0039764,-0.00033143,0.00119198,-0.00057545,0.00018410,0.10052184,-0.10
 355974,-0.23792864,-0.03020760,0.00163049,-0.02758675,0.00574221,-0.00
 132486,-0.00025106,-0.00388024,0.00119935,0.00081077,0.00110111,-0.000
 06909,-0.00059173,-0.00038738,0.00028645,0.00017858,0.00003492,-0.0000
 0968,-0.00034012,-0.00098604,-0.00053902,0.00077465,0.00032325,0.00032
 362,0.00023443,0.00065006,-0.00089074,-0.00049047,0.00017914,0.1073397
 8,0.26772659,-0.01820020,-0.02886950,-0.05411145,0.00843740,0.01579049
 ,0.00367934,-0.00039441,0.00162794,-0.00174549,-0.00062004,-0.00147492
 ,0.00058037,0.00014193,0.00027892,0.00004564,-0.00021041,-0.00011609,-
 0.00011038,0.00011557,0.00011407,0.00010955,0.00039965,-0.00053992,0.0
 0018603,-0.00047418,0.00027678,-0.00098931,0.00032365,0.00104967,0.000
 97502,0.01900696,0.02923963,0.05525459,-0.26531254,0.01073317,0.079847
 56,-0.01695884,0.01060172,-0.00265960,0.00066880,0.00025017,0.00276012
 ,0.00065220,0.00016864,-0.00113240,-0.00030349,0.00024997,0.00035561,0
 .00012774,0.00005623,-0.00005723,-0.00004230,0.00022114,0.00085975,0.0
 0034090,-0.00077274,-0.00021454,0.00023232,-0.00007774,-0.00068239,-0.
 00092723,0.00018429,0.00014777,-0.01284345,0.00031586,0.00578192,0.293
 45250,0.01472290,-0.04252473,-0.00502025,0.02415152,-0.01016065,-0.001
 92500,0.00169970,0.00134909,-0.00298711,-0.00138275,-0.00071359,0.0008
 1674,0.00048225,-0.00012121,-0.00034290,-0.00039562,-0.00025883,0.0001
 8081,0.00014547,-0.00017194,-0.00053865,-0.00019776,0.00057753,0.00016
 878,0.00005469,-0.00044148,0.00053923,0.00032314,0.00142689,-0.0002043
 7,-0.02729252,0.00292310,0.00967221,-0.02008224,0.04856242,0.07882721,
 -0.00215849,-0.07877832,-0.01666921,-0.00010898,0.00842791,-0.00201977
 ,0.00071293,-0.00183597,0.00177292,-0.00005769,0.00039329,-0.00030172,
 -0.00002002,0.00007964,0.00020197,0.00013711,-0.00018140,-0.00014236,-
 0.00005730,0.00003129,0.00028486,-0.00050930,0.00022860,-0.00029879,0.
 00050801,-0.00097789,-0.00071171,0.00013885,0.00117783,-0.00470447,-0.
 00058872,0.00118129,-0.08477166,0.00304070,0.08148518,-0.04874878,-0.0
 0162920,0.00384293,-0.00382258,-0.00071504,-0.02132866,0.00005292,0.00
 298513,-0.00232772,0.00032476,-0.00046556,-0.00071199,-0.00007804,0.00
 024632,0.00023452,-0.00002003,-0.00005379,-0.00020296,-0.00015362,0.00
 018750,0.00009235,0.00003372,-0.00011139,0.00002315,0.00016339,-0.0001
 3645,-0.00017476,0.00005137,0.00096638,0.00032221,-0.00001739,-0.00415
 980,-0.01506738,0.00107170,0.00776611,0.02966888,0.05134170,-0.0026237
 3,-0.06273402,-0.06847150,0.00345651,0.00100027,0.03225892,0.00320992,
 -0.00242569,0.00332035,-0.00019203,0.00071554,0.00096957,0.00011895,-0
 .00023636,-0.00028474,-0.00002130,0.00007563,0.00025215,0.00012896,-0.
 00029720,-0.00009743,-0.00008903,0.00010131,-0.00005345,-0.00012674,0.
 00037531,0.00021908,0.00087080,-0.00102688,-0.00055332,0.00113747,-0.0
 0581199,-0.02737964,-0.00092608,-0.00034310,-0.00043639,-0.00430940,0.
 07012889,-0.00019215,-0.06167186,-0.30178330,-0.00440651,0.00374206,-0
 .01606998,-0.00141714,0.00178535,-0.00028287,0.00039765,-0.00090075,-0
 .00078032,-0.00028210,0.00058545,0.00048078,-0.00007109,0.00003155,-0.
 00038443,-0.00014497,0.00030234,0.00018028,0.00011368,-0.00020585,-0.0
 0009359,-0.00013430,0.00015089,-0.00019846,-0.00006580,0.00010029,0.00
 053567,0.00044756,-0.00145958,-0.00270134,0.00038223,-0.00314834,-0.00
 925922,0.00548566,0.06038355,0.33044806,-0.00034081,0.00002145,-0.0002
 2711,0.00094650,0.00056224,-0.00031180,-0.00033994,-0.00022714,0.00051
 978,0.00106158,-0.00177038,-0.00054961,0.00255009,0.00456781,0.0020597
 8,-0.10736159,-0.09077255,0.06352213,-0.00027278,0.00049156,0.00093174
 ,0.00036813,-0.00065535,-0.00013120,-0.00013019,0.00015758,-0.00046927
 ,-0.00025102,0.00010142,0.00005181,0.00004624,-0.00011078,0.00000479,0
 .00008463,-0.00005308,-0.00003860,-0.00006506,0.00005406,0.00003398,0.
 10812230,-0.00064100,-0.00073212,-0.00024961,0.00472402,-0.00202783,0.
 00071040,-0.00086438,-0.00001798,-0.00056060,0.00089484,0.00190903,0.0
 0015962,0.00688178,0.01136892,-0.00837933,-0.09521398,-0.19577722,0.10
 351225,-0.00032391,-0.00065566,-0.00062881,-0.00035590,0.00024123,-0.0
 0001366,0.00004452,0.00023859,0.00014656,-0.00015059,-0.00006473,-0.00
 000712,0.00017617,-0.00022982,0.00007594,-0.00001127,0.00011277,-0.000
 03572,0.00003041,0.00007311,0.00001727,0.09751161,0.20428740,0.0000910
 9,0.00008032,0.00005919,-0.00116200,-0.00005334,0.00035084,0.00089117,
 -0.00044715,0.00014550,-0.00182013,0.00649451,0.00305472,0.01603593,0.
 01557879,-0.03738610,0.06293387,0.09578463,-0.11755243,-0.00017018,-0.
 00149778,-0.00191608,-0.00084778,0.00074857,0.00021633,0.00033837,-0.0
 0046192,0.00054440,0.00016305,-0.00029065,-0.00045686,0.00000477,-0.00
 001206,0.00001226,0.00001677,-0.00004301,-0.00001776,-0.00001770,-0.00
 000734,-0.00001585,-0.07062185,-0.10912552,0.14213199,-0.00021950,-0.0
 0013580,0.00037940,0.00119899,0.00207396,-0.00052312,-0.00041827,-0.00
 020132,-0.00021224,0.00101820,-0.00093070,-0.00070354,0.00186262,-0.00
 081575,0.00158447,-0.12503457,0.11701167,0.00517914,0.00005090,0.00006
 519,-0.00009031,-0.00006421,0.00009651,0.00004778,0.00005874,-0.000006
 79,0.00012134,-0.00019939,-0.00021214,0.00004322,0.00001202,0.00006072
 ,-0.00000929,-0.00006625,0.00010950,-0.00002704,-0.00000459,-0.0000196
 0,-0.00003737,0.00901435,-0.01309739,-0.00171237,0.12406055,-0.0002231
 6,-0.00008988,-0.00044964,0.00183955,-0.00053403,0.00021004,-0.0001146
 0,-0.00023106,0.00033945,-0.00102209,0.00234341,0.00015402,0.00399090,
 -0.00747884,-0.00777286,0.11532169,-0.25180241,-0.00598771,0.00026048,
 -0.00034581,-0.00004192,-0.00000848,-0.00003539,-0.00014166,-0.0000069
 5,0.00001489,-0.00013812,-0.00017594,-0.00002762,0.00003972,0.00006616
 ,-0.00013348,0.00003024,0.00008793,-0.00006420,0.00000985,-0.00000291,
 0.00000943,0.00006249,0.01223098,-0.01606054,-0.00077780,-0.12964320,0
 .26919135,0.00002254,0.00015148,0.00040989,-0.00147574,0.00181293,-0.0
 0022652,0.00014729,-0.00026830,-0.00058328,-0.00110759,0.00086669,-0.0
 0363932,0.02137516,-0.04111540,-0.01986691,-0.00176327,0.00570680,-0.0
 4502908,0.00071059,-0.00139648,-0.00070096,-0.00038568,0.00058597,-0.0
 0026606,0.00012278,-0.00013878,0.00031370,0.00019702,-0.00022245,0.000
 11909,-0.00003495,0.00009006,-0.00002117,-0.00006545,0.00005789,-0.000
 01243,0.00003052,-0.00005182,-0.00001177,-0.00959239,0.01213432,0.0033
 5095,-0.00543071,0.01307760,0.06398586,-0.00081523,-0.00027655,0.00055
 716,0.00079702,0.00476672,-0.00120136,-0.00045957,-0.00089101,0.000500
 98,0.00045465,0.00176448,0.00045247,0.00886132,-0.00115585,-0.00337105
 ,-0.29564824,-0.03068936,-0.07966671,-0.00025353,-0.00033878,-0.000191
 17,-0.00017033,0.00016749,0.00013677,0.00032405,-0.00023593,0.00016650
 ,-0.00010532,-0.00027770,-0.00005546,0.00009236,-0.00001313,0.00002753
 ,-0.00014862,0.00026100,-0.00006891,0.00007057,-0.00004736,-0.00004442
 ,-0.01343909,0.00028596,-0.00447910,-0.01131348,-0.00264385,-0.0027918
 2,0.31167578,0.00033690,-0.00016026,0.00003623,0.00079203,-0.00173773,
 0.00073041,-0.00025885,-0.00001015,-0.00066950,-0.00230039,0.00232490,
 0.00115948,-0.00669771,-0.00232364,-0.00910146,-0.02482386,-0.05172900
 ,-0.00785287,0.00049295,-0.00067368,-0.00141342,-0.00037066,0.00091182
 ,0.00010010,0.00010287,-0.00012206,0.00055653,0.00003763,-0.00023202,-
 0.00008588,-0.00004502,0.00011579,0.00000881,0.00000060,-0.00004362,0.
 00004111,-0.00002559,-0.00006857,-0.00000926,-0.02213699,-0.00276065,-
 0.00606124,0.02560905,0.00527225,0.00883638,0.02934043,0.05128920,0.00
 003141,0.00004663,-0.00003450,0.00039682,0.00025191,0.00025512,0.00014
 179,-0.00080615,0.00026089,-0.00406782,0.00459527,0.00323202,-0.030595
 80,-0.01076301,-0.02999113,-0.07325441,-0.00993567,-0.07329845,0.00098
 848,-0.00069182,-0.00192065,-0.00013407,0.00100398,0.00008322,0.000287
 65,-0.00039492,0.00044901,0.00009981,-0.00026043,-0.00043351,0.0000125
 4,-0.00005087,-0.00002674,0.00004313,-0.00005946,0.00002118,-0.0000007
 1,0.00002914,-0.00001012,0.01487892,0.00220290,0.00739245,0.00137896,0
 .00146338,0.00234945,0.09003284,0.01361966,0.09150802,-0.00021383,-0.0
 0017906,0.00004167,-0.00018984,0.00005063,-0.00009658,0.00453236,0.001
 82776,-0.00096009,0.00219505,0.00496805,-0.00079536,-0.00218167,-0.001
 63713,0.00126573,-0.00051608,-0.00050568,0.00008914,-0.11382557,0.1148
 5033,-0.06876472,-0.00268526,0.00678379,-0.00610611,0.00524154,0.00415
 059,0.00111444,-0.00048396,-0.00070610,0.00032414,0.00003051,-0.000012
 38,0.00004356,-0.00003472,0.00005491,-0.00005608,-0.00003187,0.0000000
 2,-0.00001363,-0.00001165,0.00008558,0.00021685,0.00001689,-0.00000747
 ,-0.00003636,0.00002785,-0.00003182,-0.00015588,0.11151043,-0.00018207
 ,-0.00003486,-0.00006395,-0.00016417,0.00012330,-0.00002977,0.00213298
 ,0.00194630,-0.00087012,0.00090216,0.00316348,-0.00233584,-0.00185462,
 -0.00040522,-0.00079124,-0.00046740,-0.00003176,0.00004044,0.11522518,
 -0.20638916,0.09549173,0.01056901,-0.01244482,0.01276845,0.00408069,-0
 .00030889,-0.00394871,-0.00070941,0.00010799,-0.00056037,0.00003190,-0
 .00004057,0.00003550,0.00000389,0.00000565,-0.00002516,-0.00001192,-0.
 00000682,0.00001196,0.00001578,0.00002347,0.00009396,0.00000188,0.0000
 2554,0.00004546,0.00002249,-0.00005612,-0.00012484,-0.12773217,0.21559
 004,0.00002870,-0.00004339,-0.00030242,-0.00097250,0.00144507,-0.00093
 458,0.00028182,-0.00296362,-0.00436412,-0.01733407,0.02555258,-0.00964
 801,0.00038140,0.00069793,0.00212282,0.00024943,-0.00022766,-0.0000537
 5,-0.06723416,0.09290527,-0.11870280,0.00927628,-0.01315921,0.01230059
 ,0.00083391,-0.00347356,-0.00086473,0.00031330,-0.00054490,-0.00101739
 ,-0.00000945,0.00004230,-0.00001967,-0.00003051,0.00001444,-0.00000076
 ,-0.00006253,0.00009423,-0.00007486,-0.00004524,0.00000054,0.00014490,
 0.00000197,-0.00002013,-0.00005113,0.00004310,0.00007389,0.00018601,0.
 07350044,-0.10050970,0.12007469,0.00011371,0.00009742,-0.00007014,-0.0
 0030692,-0.00028506,0.00007841,-0.00110842,0.00002814,0.00034194,0.005
 11322,0.00502871,0.00029973,0.00024096,0.00008980,0.00065267,-0.000368
 80,-0.00007054,0.00003814,0.00535030,0.00012578,0.01225390,-0.04733226
 ,0.00999019,-0.03900473,0.00180620,-0.00210115,-0.01570515,0.00269312,
 0.00495875,-0.00175093,-0.00004363,-0.00005463,0.00000507,0.00001567,-
 0.00000546,0.00003196,-0.00000439,-0.00003727,-0.00000474,-0.00000536,
 0.00003174,0.00007431,-0.00001929,0.00000486,0.00004941,0.00001597,-0.
 00003085,-0.00006897,-0.00293095,-0.00226520,0.00031290,0.03870677,0.0
 0010544,0.00002126,0.00007060,-0.00028378,-0.00000559,0.00001378,0.000
 00078,-0.00119506,-0.00021361,0.00506067,-0.00101486,-0.00217738,-0.00
 005994,-0.00005137,-0.00144765,-0.00005669,-0.00029733,0.00010501,-0.0
 0375309,0.00393874,-0.02447849,0.01008360,-0.05484231,-0.00865502,0.00
 176372,0.00563264,0.02339180,0.00486295,-0.00188855,0.00170566,0.00001
 179,0.00004125,-0.00003925,-0.00008050,-0.00000523,-0.00000464,-0.0000
 3324,0.00003219,0.00000786,-0.00000366,0.00002849,0.00002562,-0.000003
 72,-0.00004026,-0.00009434,-0.00000247,-0.00001571,-0.00005812,-0.0021
 7466,-0.00047806,0.00071868,-0.01387492,0.05019258,-0.00003721,0.00001
 539,-0.00001040,0.00008596,0.00000318,0.00011368,0.00022443,-0.0000187
 2,0.00032031,0.00043720,-0.00240840,0.00125682,0.00003333,-0.00040148,
 -0.00121325,0.00009930,0.00000163,0.00027873,-0.00350155,0.00207950,-0
 .01190073,-0.03862588,-0.00929189,-0.33816492,0.00000056,-0.00308844,-
 0.00969622,-0.00214207,0.00236741,0.00083473,-0.00002527,-0.00000661,0
 .00000934,0.00002686,0.00002232,-0.00000349,0.00001158,-0.00001972,-0.
 00002653,-0.00000381,0.00000825,-0.00005343,0.00001404,-0.00003465,-0.
 00006886,-0.00002028,0.00000933,-0.00003080,0.00068063,0.00009866,0.00
 074558,0.04253654,0.01029382,0.35758822,0.00065050,0.00040736,-0.00007
 594,-0.00131894,-0.00106691,0.00028770,0.00710319,0.00373109,-0.002274
 86,-0.00053536,-0.00044239,-0.00056208,-0.00039265,-0.00025398,0.00024
 007,-0.00010109,-0.00008557,-0.00004041,0.00313891,0.00426938,-0.00270
 166,-0.00339326,0.01021019,0.01016228,-0.08184369,0.09198313,0.0530324
 2,0.00468862,-0.00364792,-0.00302407,-0.00006757,0.00012028,-0.0000171
 2,0.00006385,-0.00013085,0.00001088,-0.00000273,0.00001083,0.00000393,
 0.00001671,0.00000230,0.00003045,0.00003451,0.00002713,0.00000295,0.00
 000824,0.00002248,-0.00000500,-0.00003754,0.00062000,0.00043347,-0.001
 82673,-0.00166735,0.00020149,0.07727932,0.00042853,0.00017803,-0.00001
 182,-0.00089474,-0.00055689,-0.00028938,0.00358062,0.00372199,0.000445
 83,-0.00039477,0.00017110,0.00089923,-0.00027176,-0.00016907,-0.000200
 57,-0.00007424,0.00000264,0.00009774,0.00438219,-0.00061412,0.00288001
 ,0.00622644,-0.01288653,-0.01450981,0.09199668,-0.21832301,-0.11464145
 ,0.00029684,0.00279577,0.00134042,-0.00005991,0.00008638,-0.00000833,0
 .00003432,-0.00005295,0.00000590,0.00000164,-0.00000356,-0.00001585,0.
 00000884,-0.00000428,-0.00001232,0.00002971,-0.00000293,-0.00001274,0.
 00000385,0.00000777,-0.00003340,0.00043598,-0.00063912,-0.00069625,-0.
 00155159,-0.00010386,0.00050971,-0.10155165,0.22702783,0.00001170,-0.0
 0015818,0.00033878,0.00098654,-0.00147142,-0.00121041,-0.00288811,0.00
 148255,-0.00411377,-0.00037179,0.00057797,-0.00091340,0.00016628,-0.00
 007511,0.00025606,0.00000756,0.00001610,-0.00002869,-0.00223965,0.0021
 0031,-0.00074593,-0.00603290,0.01279331,0.01184013,0.05308977,-0.11473
 803,-0.13759499,0.01301067,-0.02569123,-0.01230378,0.00001739,0.000056
 60,-0.00003441,-0.00008467,0.00004404,-0.00002638,-0.00003349,0.000047
 16,-0.00003447,-0.00004282,0.00000106,0.00001420,0.00001382,-0.0000312
 2,0.00001765,0.00001988,0.00003482,0.00001050,-0.00031484,0.00056518,0
 .00040812,0.00067217,-0.00028400,0.00060678,-0.05648447,0.12412499,0.1
 4274603,0.00122644,0.00034886,-0.00111996,-0.00229639,-0.00122292,-0.0
 0074059,-0.00230816,0.00791540,-0.00530679,0.00288399,0.00276338,0.001
 33368,-0.00018644,0.00052566,-0.00035140,-0.00005992,-0.00013255,-0.00
 021539,-0.00059101,-0.00060122,0.00033072,0.00633554,0.00282175,-0.001
 46861,0.00243353,0.00338026,-0.00039965,-0.11367169,0.11728440,-0.0674
 0096,-0.00030338,-0.00053273,0.00070499,-0.00007287,-0.00023092,-0.000
 98836,-0.00016105,-0.00059499,-0.00005047,0.00000696,-0.00001050,0.000
 03451,0.00001178,0.00001899,0.00002572,0.00002560,-0.00001321,-0.00000
 968,-0.00041168,-0.00021900,0.00003172,-0.00010918,0.00010508,0.000004
 14,-0.00346429,-0.00262697,0.00049695,0.11071221,0.00061212,0.00079887
 ,0.00095012,-0.00115139,-0.00047165,0.00202524,0.01134284,-0.01318531,
 0.01126572,0.00263352,-0.00106523,-0.00387075,0.00075355,-0.00092133,0
 .00068944,-0.00008529,0.00014843,0.00046424,-0.00055143,-0.00016974,-0
 .00041639,0.00289940,0.00309904,-0.00096583,-0.00064224,0.00490634,-0.
 00273631,0.11737169,-0.20904858,0.09375104,0.00016562,0.00051308,0.000
 22744,-0.00095735,-0.00005595,-0.00059205,-0.00052921,0.00044251,0.000
 23045,0.00000660,0.00004782,-0.00001627,0.00000820,-0.00001043,-0.0000
 6527,-0.00004045,0.00001149,-0.00003419,-0.00022116,-0.00015040,0.0000
 9351,-0.00007872,0.00005104,-0.00013930,-0.00255754,-0.00063518,0.0006
 0510,-0.12897877,0.21569518,-0.00005110,-0.00085381,-0.00220395,-0.000
 45166,0.00154244,0.00025477,0.00862112,-0.01222083,0.01254979,0.000811
 69,-0.00299159,-0.00226548,0.00056998,-0.00086217,0.00057380,-0.000019
 72,0.00013352,0.00030445,0.00053256,-0.00075532,-0.00041539,-0.0011474
 0,-0.00150686,-0.00575854,-0.01675237,0.02482401,-0.00938663,-0.067045
 62,0.09316042,-0.11496182,0.00012405,0.00011979,-0.00227348,-0.0005232
 6,-0.00028805,-0.00193258,0.00021610,-0.00021880,0.00008230,0.00003077
 ,0.00003127,-0.00001923,-0.00001815,0.00000893,-0.00006911,-0.00004694
 ,-0.00001311,-0.00000198,0.00002303,0.00010834,0.00005150,-0.00074249,
 0.00111967,-0.00058559,0.00077997,0.00012809,0.00076798,0.07508944,-0.
 10146594,0.12528918\\0.00000038,0.00000096,0.00000004,-0.00000034,-0.0
 0000103,0.00000125,-0.00000184,0.00000452,-0.00000188,0.00000074,-0.00
 000195,0.00000407,0.00000135,-0.00000032,-0.00000263,0.00000072,-0.000
 00176,0.00000178,0.00000027,-0.00000086,-0.00000148,-0.00000149,0.0000
 0277,0.00000083,0.00000127,-0.00000217,0.00000107,0.00000031,-0.000000
 82,-0.00000069,-0.00000074,-0.00000081,-0.00000040,0.00000076,-0.00000
 024,-0.00000065,-0.00000029,0.00000056,0.00000026,-0.00000056,-0.00000
 021,-0.00000016,-0.00000077,0.00000112,0.,0.00000042,0.00000060,-0.000
 00040,-0.00000060,0.00000085,-0.00000029,0.,-0.00000024,-0.00000084,0.
 00000011,-0.00000032,-0.00000028,0.00000030,-0.00000065,0.00000041\\\@


 ACCORDING TO HEN3RY, LIFE IS MUCH LIKE A SEWER........
 YOU GET OUT OF IT JUST WHAT YOU PUT INTO IT...........
                         TOM LEHRER - (THE 3 IS SILENT)
 Job cpu time:       0 days 16 hours  2 minutes 29.0 seconds.
 Elapsed time:       0 days  2 hours  0 minutes 24.5 seconds.
 File lengths (MBytes):  RWF=    428 Int=      0 D2E=      0 Chk=     16 Scr=      1
 Normal termination of Gaussian 16 at Fri Dec  6 22:01:48 2019.
