
 Primary working directories    : /scratch/alongd/2748
 Secondary working directories  : /scratch/alongd/2748
 Wavefunction directory         : /home/alongd/wfu/
 Main file repository           : /scratch/alongd/2748/

 SHA1      : 5e3d8ac6839c721e2824de82269b4736200146bd
 NAME      : 2015.1.37
 ARCHNAME  : linux/x86_64
 FC        : /opt/intel/composer_xe_2015.1.133/bin/intel64/ifort
 BLASLIB   : -Wl,-_start-group /opt/intel/mkl/lib/intel64/libmkl_intel_ilp64.a /opt/intel/mkl/lib/intel64/libmkl_intel_thread.a /opt/intel/mkl/lib/intel64/libmkl_core.a -Wl,-_end-group
 id        : phalgunlolur

 Nodes     nprocs
 node07       1

 Using customized tuning parameters: mindgm=1; mindgv=20; mindgc=4; mindgr=1; noblas=0; minvec=7
 default implementation of scratch files=df  

 ***,name
 memory,750.0,m;
 geometry={angstrom;
 N      -0.74678911   -0.11808617    0.00000000
 C       0.70509192    0.01713705    0.00000000
 H       1.11547027   -0.48545372    0.87928387
 H       1.07725213    1.05216968    0.00000000
 H       1.11547027   -0.48545372   -0.87928387
 H      -1.15564256    0.32084665   -0.81500591
 H      -1.15564256    0.32084665    0.81500591
 }
 
 basis=cc-pvtz-f12
 
 int;
 
 {hf;
 maxit,1000;
 wf,spin=0,charge=0;}
 
 ccsd(t)-f12;
 
 

 Variables initialized (889), CPU time= 0.01 sec
 Commands  initialized (702), CPU time= 0.01 sec, 572 directives.
 Default parameters read. Elapsed time= 0.11 sec

 Checking input...
 Passed
1


                                         ***  PROGRAM SYSTEM MOLPRO  ***
                                       Copyright, TTI GmbH Stuttgart, 2015
                                    Version 2015.1 linked Aug 10 2018 15:00:15


 **********************************************************************************************************************************
 LABEL *   name                                                                          
  64 bit serial version                                                                  DATE: 21-Jan-19          TIME: 02:30:45  
 **********************************************************************************************************************************

 SHA1:             5e3d8ac6839c721e2824de82269b4736200146bd
 **********************************************************************************************************************************

Geometry recognized as XYZ


 Variable memory set to  750000000 words,  buffer space   230000 words

 SETTING BASIS          =    CC-PVTZ-F12


 Using spherical harmonics

 Library entry N      S cc-pVTZ-F12          selected for orbital group  1
 Library entry N      P cc-pVTZ-F12          selected for orbital group  1
 Library entry N      D cc-pVTZ-F12          selected for orbital group  1
 Library entry N      F cc-pVTZ-F12          selected for orbital group  1
 Library entry C      S cc-pVTZ-F12          selected for orbital group  2
 Library entry C      P cc-pVTZ-F12          selected for orbital group  2
 Library entry C      D cc-pVTZ-F12          selected for orbital group  2
 Library entry C      F cc-pVTZ-F12          selected for orbital group  2
 Library entry H      S cc-pVTZ-F12          selected for orbital group  3
 Library entry H      P cc-pVTZ-F12          selected for orbital group  3
 Library entry H      D cc-pVTZ-F12          selected for orbital group  3


 PROGRAM * SEWARD (Integral evaluation for generally contracted gaussian basis sets)     Author: Roland Lindh, 1990

 Geometry written to block  1 of record 700


 Point group  Cs  



 ATOMIC COORDINATES

 NR  ATOM    CHARGE       X              Y              Z

   1  N       7.00   -1.411226891   -0.223150520    0.000000000
   2  C       6.00    1.332430621    0.032384331    0.000000000
   3  H       1.00    2.107933310   -0.917374577    1.661605700
   4  H       1.00    2.107933310   -0.917374577   -1.661605700
   5  H       1.00    2.035711493    1.988312532    0.000000000
   6  H       1.00   -2.183847936    0.606312296   -1.540137960
   7  H       1.00   -2.183847936    0.606312296    1.540137960

 Bond lengths in Bohr (Angstrom)

 1-2  2.755531637  1-6  1.912322353  1-7  1.912322353  2-3  2.065037507  2-4  2.065037507
     ( 1.458164546)     ( 1.011957409)     ( 1.011957409)     ( 1.092770789)     ( 1.092770789)

 2-5  2.078523300
     ( 1.099907163)

 Bond angles

  1-2-3  109.34587196   1-2-4  109.34587196   1-2-5  115.09772790   2-1-6  111.22662723

  2-1-7  111.22662723   3-2-4  107.15043672   3-2-5  107.80210162   4-2-5  107.80210162

  6-1-7  107.29310930

 NUCLEAR CHARGE:                   18
 NUMBER OF PRIMITIVE AOS:         249
 NUMBER OF SYMMETRY AOS:          226
 NUMBER OF CONTRACTIONS:          196   ( 119A'  +  77A"  )
 NUMBER OF CORE ORBITALS:           2   (   2A'  +   0A"  )
 NUMBER OF VALENCE ORBITALS:       13   (   9A'  +   4A"  )


 NUCLEAR REPULSION ENERGY   42.04981807

 Eigenvalues of metric

         1 0.791E-04 0.116E-03 0.304E-03 0.399E-03 0.432E-03 0.532E-03 0.559E-03 0.570E-03
         2 0.264E-03 0.319E-03 0.559E-03 0.595E-03 0.151E-02 0.185E-02 0.247E-02 0.306E-02


 Contracted 2-electron integrals neglected if value below      1.0D-11
 AO integral compression algorithm  1   Integral accuracy      1.0D-11

     485.491 MB (compressed) written to integral file ( 53.4%)


 NUMBER OF SORTED TWO-ELECTRON INTEGRALS:   94328136.     BUFFER LENGTH:  32768
 NUMBER OF SEGMENTS:   6  SEGMENT LENGTH:   15997996      RECORD LENGTH: 524288

 Memory used in sort:      16.56 MW

 SORT1 READ   113550139. AND WROTE    93258669. INTEGRALS IN    270 RECORDS. CPU TIME:     1.58 SEC, REAL TIME:     2.37 SEC
 SORT2 READ    93258669. AND WROTE    94328136. INTEGRALS IN   1852 RECORDS. CPU TIME:     1.97 SEC, REAL TIME:     2.48 SEC

 FILE SIZES:   FILE 1:   506.5 MBYTE,  FILE 4:  1132.5 MBYTE,   TOTAL:   1639.0 MBYTE

 OPERATOR DM      FOR CENTER  0  COORDINATES:    0.000000    0.000000    0.000000


 **********************************************************************************************************************************
 DATASETS  * FILE   NREC   LENGTH (MB)   RECORD NAMES
              1      19      432.40       500      610      700      900      950      970     1000      129      960     1100   
                                          VAR    BASINP    GEOM    SYMINP    ZMAT    AOBASIS   BASIS     P2S    ABASIS      S 
                                         1400     1410     1200     1210     1080     1600     1650     1300     1700   
                                           T        V       H0       H01     AOSYM     SMH    MOLCAS    ERIS     OPER   

 PROGRAMS   *        TOTAL       INT
 CPU TIMES  *         8.48      8.30
 REAL TIME  *        15.72 SEC
 DISK USED  *         1.64 GB      
 **********************************************************************************************************************************


 PROGRAM * RHF-SCF (CLOSED SHELL)       Authors: W. Meyer, H.-J. Werner


 NUMBER OF ELECTRONS:       9+    9-
 CONVERGENCE THRESHOLDS:    1.00E-05 (Density)    1.00E-07 (Energy)
 MAX. NUMBER OF ITERATIONS:     1000
 INTERPOLATION TYPE:            DIIS
 INTERPOLATION STEPS:              2 (START)      1 (STEP)
 LEVEL SHIFTS:                  0.00 (CLOSED)  0.00 (OPEN) 



 Orbital guess generated from atomic densities. Full valence occupancy:   11   4

 Molecular orbital dump at record        2100.2

 Initial occupancy:   7   2

 ITERATION    DDIFF          GRAD             ENERGY        2-EL.EN.            DIPOLE MOMENTS         DIIS   ORB.
    1      0.000D+00      0.000D+00       -95.23047244    149.681706    0.02982    0.73502    0.00000    0    start
    2      0.000D+00      0.518D-02       -95.25612269    147.487897    0.05277    0.43453    0.00000    1    diag
    3      0.536D-02      0.220D-02       -95.26000429    148.535259    0.08988    0.52434    0.00000    2    diag
    4      0.159D-02      0.640D-03       -95.26052803    148.322519    0.09088    0.52088    0.00000    3    diag
    5      0.600D-03      0.123D-03       -95.26055398    148.328812    0.09601    0.52016    0.00000    4    diag
    6      0.144D-03      0.292D-04       -95.26055560    148.331816    0.09643    0.52112    0.00000    5    diag
    7      0.554D-04      0.808D-05       -95.26055572    148.329941    0.09681    0.52138    0.00000    6    diag
    8      0.172D-04      0.211D-05       -95.26055573    148.330249    0.09692    0.52142    0.00000    7    diag
    9      0.731D-05      0.545D-06       -95.26055573    148.330184    0.09694    0.52143    0.00000    0    orth

 Final occupancy:   7   2

 !RHF STATE 1.1 Energy                -95.260555729010
 Nuclear energy                        42.04981807
 One-electron energy                 -211.47546580
 Two-electron energy                   74.16509200
 Virial quotient                       -1.00124032
 !RHF STATE 1.1 Dipole moment           0.09693695     0.52143154     0.00000000
 Dipole moment /Debye                   0.24637303     1.32525998     0.00000000

 Orbital energies:

         1.1          2.1          3.1          4.1          5.1          6.1          7.1          8.1          9.1
    -15.537170   -11.241120    -1.169389    -0.894754    -0.602933    -0.558483    -0.388732     0.055532     0.065331

         1.2          2.2          3.2          4.2
     -0.663500    -0.516559     0.072396     0.129830

 HOMO      7.1    -0.388732 =     -10.5779eV
 LUMO      8.1     0.055532 =       1.5111eV
 LUMO-HOMO         0.444265 =      12.0891eV


 **********************************************************************************************************************************
 DATASETS  * FILE   NREC   LENGTH (MB)   RECORD NAMES
              1      19      432.40       500      610      700      900      950      970     1000      129      960     1100   
                                          VAR    BASINP    GEOM    SYMINP    ZMAT    AOBASIS   BASIS     P2S    ABASIS      S 
                                         1400     1410     1200     1210     1080     1600     1650     1300     1700   
                                           T        V       H0       H01     AOSYM     SMH    MOLCAS    ERIS     OPER   

              2       4        3.28       700     1000      520     2100   
                                         GEOM     BASIS   MCVARS     RHF  

 PROGRAMS   *        TOTAL        HF       INT
 CPU TIMES  *        14.14      5.66      8.30
 REAL TIME  *        32.46 SEC
 DISK USED  *         1.64 GB      
 **********************************************************************************************************************************


 PROGRAM * CCSD (Closed-shell coupled cluster)     Authors: C. Hampel, H.-J. Werner, 1991, M. Deegan, P.J. Knowles, 1992

                                  CCSD-F12 implementation by  H.-J. Werner, 2007

                   Density fitting integral evaluation by F.R. Manby, 2003,2007, G. Knizia, 2010

 Basis set AUG-CC-PVTZ/JKFIT generated.  Number of basis functions:   438 
 Basis set CC-PVTZ-F12/OPTRI generated.  Number of basis functions:   355 
 Basis set AUG-CC-PVTZ/MP2FIT generated. Number of basis functions:   442 

 Convergence thresholds:  THRVAR = 1.00D-08  THRDEN = 1.00D-06

 CCSD(T)     terms to be evaluated (factor= 1.000)


 Number of core orbitals:           2 (   2   0 )
 Number of closed-shell orbitals:   7 (   5   2 )
 Number of external orbitals:     187 ( 112  75 )

 Molecular orbitals read from record     2100.2  Type=RHF/CANONICAL (state 1.1)

 MP2-F12 correlation treatment (H.-J. Werner, 2006)
 ==================================================

 Using MP2-F12 with ansatz 3C(FIX)

 Using projected zeroth-order Hamiltonian (+Z)

 FOCKRIB=T FOCKRIC=T FOCKRIP=T CABSP=T CABSA=T CABSK=T CABSF=T GBC=F EBC=F DMAT=T NOFIK=T NOPAO=1 SOLVE=-1  USEPAO=0
 EXCH_A= T EXCH_B= F EXCH_C= F EXCH_P= F
 
 Geminal basis:    OPTFULL  GEM_TYPE=SLATER  BETA=1.0  NGEM=6

 Optimizing Gaussian exponents for each gem_beta

 Geminal optimization for beta= 1.0000
 Weight function:   m=0, omega= 1.4646

 Augmented Hessian optimization of geminal fit. Trust ratio= 0.40000
 Convergence reached after   2 iterations. Final gradient= 8.41D-16, Step= 4.29D-06, Delta= 1.28D-09
 
 Alpha:                 0.19532     0.81920     2.85917     9.50073    35.69989   197.79328
 Coeff:                 0.27070     0.30552     0.18297     0.10986     0.06810     0.04224
 

 Symmetry turned off. Reference energy:        -95.260555729010

 All pairs explicitly correlated. Number of r12-pairs:           28

 Excluding core orbitals from MO domains
 
 AO(A)-basis ORBITAL           loaded. Number of functions:     196
 RI(R)-basis CC-PVTZ-F12/OPTRI loaded. Number of functions:     355
 DF-basis AUG-CC-PVTZ/JKFIT    loaded. Number of functions:     438

 Screening thresholds:   THRAO=  1.00D-10  THRMO=  1.00D-09  THRPROD=  1.00D-09
                         THRSW=  1.00D-05  THROV=  1.00D-12  THRAOF12=   1.00D-08

 CPU time for Fock operators                      7.01 sec
 
 Construction of ABS:
 Smallest eigenvalue of S          2.99E-04  (threshold= 1.00E-08)
 Ratio eigmin/eigmax               3.58E-05  (threshold= 1.00E-09)
 Smallest eigenvalue of S kept     2.99E-04  (threshold= 2.99E-04, 0 functions deleted, 355 kept)
 
 Construction of CABS:
 Smallest eigenvalue of S          4.04E-07  (threshold= 1.00E-08)
 Ratio eigmin/eigmax               4.04E-07  (threshold= 1.00E-09)
 Smallest eigenvalue of S kept     4.04E-07  (threshold= 4.04E-07, 0 functions deleted, 355 kept)
 
 CPU time for CABS singles                        0.07 sec

 CABS-singles contribution of  -0.00122089 patched into reference energy.
 New reference energy         -95.26177662
 
 AO(A)-basis ORBITAL           loaded. Number of functions:     196
 RI(R)-basis CC-PVTZ-F12/OPTRI loaded. Number of functions:     355
 DF-basis AUG-CC-PVTZ/MP2FIT   loaded. Number of functions:     442

 Screening thresholds:   THRAO=  1.00D-10  THRMO=  1.00D-09  THRPROD=  1.00D-09
                         THRSW=  1.00D-05  THROV=  1.00D-12  THRAOF12=   1.00D-08

 CPU time for 3-index integral evaluation         4.69 sec
 CPU time for first  half transformation          0.32 sec (10582.1 MFLOP/sec)
 CPU time for second half transformation          0.01 sec ( 7640.9 MFLOP/sec)
 CPU time for sorting                             0.02 sec
 CPU time for fitting                             0.05 sec (31617.7 MFLOP/sec)
 CPU time for tilde quantities                    0.04 sec (52308.7 MFLOP/sec)
 CPU time for assembly                            0.43 sec (39956.8 MFLOP/sec)
 CPU time for tranop_f12                          0.61 sec (36088.0 MFLOP/sec)
 CPU time for f12 integrals (total)              10.34 sec, Elapsed time:     10.86 sec
 CPU time for f12 matrices (total)                0.21 sec, Elapsed time:      5.08 sec

 Diagonal F12 approximation with fixed coefficients:  TSING= 0.500,  TTRIP= 0.250 (scaled by -1/beta)

 DF-MP2-F12 energy corrections:
 ==============================
 Approx.                                    Singlet             Triplet             Total
 DF-MP2-F12/3*C(DX,FIX)                -0.032869706884     -0.003048854970     -0.035918561853
 DF-MP2-F12/3*C(FIX)                   -0.031761890374     -0.003011919616     -0.034773809989
 DF-MP2-F12/3C(FIX)                    -0.031818473713     -0.003094729082     -0.034913202795

 DF-MP2-F12 correlation energies:
 ================================
 Approx.                                    Singlet             Triplet             Ecorr            Total Energy
 DF-MP2                                -0.279626036914     -0.136759532310     -0.416385569224    -95.678162184931
 DF-MP2-F12/3*C(DX,FIX)                -0.312495743798     -0.139808387280     -0.452304131078    -95.714080746784
 DF-MP2-F12/3*C(FIX)                   -0.311387927288     -0.139771451926     -0.451159379213    -95.712935994920
 DF-MP2-F12/3C(FIX)                    -0.311444510627     -0.139854261392     -0.451298772019    -95.713075387726

 SCS-DF-MP2 energies (F_SING= 1.20000  F_TRIP= 0.62222  F_PARALLEL= 0.33333):
 ============================================================================
 SCS-DF-MP2                            -0.420646064401    -95.682422680108
 SCS-DF-MP2-F12/3*C(DX,FIX)            -0.461986777976    -95.723763393683
 SCS-DF-MP2-F12/3*C(FIX)               -0.460634416166    -95.722411031872
 SCS-DF-MP2-F12/3C(FIX)                -0.460753842063    -95.722530457770

 Symmetry restored.
 Symmetry transformation completed.

 Number of N-1 electron functions:               7
 Number of N-2 electron functions:              28
 Number of singly external CSFs:               710
 Number of doubly external CSFs:            432105
 Total number of CSFs:                      432816

 Length of J-op  integral file:             128.44 MB
 Length of K-op  integral file:             157.93 MB
 Length of 3-ext integral record:             0.00 MB

 Memory could be reduced to 32.66 Mwords without degradation in triples

 Integral transformation finished. Total CPU:   1.84 sec, npass=  1  Memory used:  10.42 MW

 Reference energy:                    -95.26177662

 Adding F12 terms to K(Cij), methodcc=6,  factor= 1.0

 ITER.      SQ.NORM     CORR.ENERGY   TOTAL ENERGY   ENERGY CHANGE        DEN1      VAR(S)    VAR(P)  DIIS     TIME  TIME/IT
   1      1.12610019    -0.43132897   -95.69310559    -0.01487514    -0.00476411  0.12D-02  0.18D-02  1  1    21.74     1.58
   2      1.13377706    -0.43228037   -95.69405699    -0.00095140    -0.00872612  0.29D-04  0.21D-03  2  2    23.36     3.72
   3      1.13666175    -0.43247038   -95.69424700    -0.00019001    -0.00201669  0.72D-05  0.13D-04  3  3    24.83     3.03
   4      1.13753306    -0.43250532   -95.69428193    -0.00003493    -0.00050425  0.11D-05  0.93D-06  4  4    26.35     3.96
   5      1.13769047    -0.43250744   -95.69428406    -0.00000213    -0.00003355  0.18D-06  0.81D-07  5  5    27.90     3.49
   6      1.13772168    -0.43250564   -95.69428225     0.00000181    -0.00000366  0.46D-07  0.10D-07  6  6    29.45     3.88
   7      1.13773268    -0.43250513   -95.69428175     0.00000051    -0.00000233  0.82D-08  0.19D-08  6  2    31.02     3.57
   8      1.13773766    -0.43250499   -95.69428160     0.00000015    -0.00000077  0.12D-08  0.27D-09  6  1    32.60     3.91

 Norm of t1 vector:      0.04591224      S-energy:    -0.00000015      T1 diagnostic:  0.00867660
                                                                       D1 diagnostic:  0.01763825

 Adding energy correction from Wij-K(Fij), methodcc=6  factor= 1.0
 
  CCSD correlation energy              -0.432504985766
  MP2-F12 correction (uncoupled)       -0.033608150312
  C*T doubles correction               -0.000971304166
  f12b correction                       0.006658679643


 Total CPU time for triples:     23.15 sec


 RESULTS
 =======

  Reference energy                    -95.260555729010
  F12 singles correction               -0.001220886696

 F12 singles corrections added to reference energy

  New reference energy                -95.261776615707

  F12a singlet correction              -0.031573637055
  F12a triplet correction              -0.003005817423
  F12a total correction                -0.034579454478

 F12a corrections for ansatz F12/3C(FIX) added to CCSD energy
 
  CCSD-F12a singlet pair energy        -0.338221553927
  CCSD-F12a triplet pair energy        -0.128862741114
  CCSD-F12a correlation energy         -0.467084440244

  Triples (T) contribution             -0.015760985914
  Total correlation energy             -0.482845426159

  CCSD-F12a total energy              -95.728861055951
  CCSD[T]-F12a energy                 -95.745055663852
  CCSD-T-F12a energy                  -95.744452212744
 !CCSD(T)-F12a total energy           -95.744622041865

 F12b corrections for ansatz F12/3C(FIX) added to CCSD(T)-F12a energy

  CCSD-F12b singlet pair energy        -0.331946196032
  CCSD-F12b triplet pair energy        -0.128479419365
  CCSD-F12b correlation energy         -0.460425760601

  Triples (T) contribution             -0.015760985914
  Total correlation energy             -0.476186746516

  CCSD-F12b total energy              -95.722202376308
  CCSD[T]-F12b energy                 -95.738396984209
  CCSD-T-F12b energy                  -95.737793533101
 !CCSD(T)-F12b total energy           -95.737963362222

 Timing summary (sec):

 STEP                 CPU(USER)    SYS     CPU(TOT)    WALL
 Transformation          1.86      0.26      2.12      2.13
 CCSD iterations        12.43      0.97     13.40     31.37
 Triples                23.15      0.76     23.91     23.93
 MP2-F12                18.32      0.84     19.16     38.99
 F12b energy             1.27      0.08      1.35      1.34

 Program statistics:

 Available memory in ccsd:               749999564
 Min. memory needed in ccsd:               1383122
 Max. memory used in ccsd:                 1741772
 Max. memory used in cckext:               2357842 ( 9 integral passes)



 **********************************************************************************************************************************
 DATASETS  * FILE   NREC   LENGTH (MB)   RECORD NAMES
              1      20      531.67       500      610      700      900      950      970     1000      129      960     1100   
                                          VAR    BASINP    GEOM    SYMINP    ZMAT    AOBASIS   BASIS     P2S    ABASIS      S 
                                         1400     1410     1200     1210     1080     1600     1650     1300     1700     1380   
                                           T        V       H0       H01     AOSYM     SMH    MOLCAS    ERIS     OPER     JKOP   

              2       6        3.69       700     1000      520     2100     7360     7350   
                                         GEOM     BASIS   MCVARS     RHF    F12ABS    EF12   

 PROGRAMS   *        TOTAL   CCSD(T)        HF       INT
 CPU TIMES  *        71.21     57.07      5.66      8.30
 REAL TIME  *       135.77 SEC
 DISK USED  *         1.64 GB      
 **********************************************************************************************************************************

 CCSD(T)-F12/cc-pVTZ-F12 energy=    -95.737963362222

     CCSD(T)-F12        HF-SCF  
    -95.73796336    -95.26055573
 **********************************************************************************************************************************
 Molpro calculation terminated
 Variable memory released
