
Running Job 1 of 1 input.in
qchem input.in_18400.0 /scratch/alongd/qlscratch/qchem18400/ 1
/opt/qchem/bin/mpi/mpirun_qchem -machinefile /tmp/551471.1.long1/hostfile -np 1 /opt/qchem/exe/qcprog.exe input.in_18400.0 /scratch/alongd/qlscratch/qchem18400/

Process 0 of 1 is on node18.cluster - thread support 0
initial socket setup ...start
initial socket setup ...done 
now start server 0 ... 

cmd = /usr/bin/ssh node96 /opt/qchem/bin/get_hostid 819503934 > /scratch/alongd/qlscratch/qchem18400/lic.dat
                  Welcome to Q-Chem
     A Quantum Leap Into The Future Of Chemistry


 Q-Chem 4.4, Q-Chem, Inc., Pleasanton, CA (2016)

 Y. Shao,  Z. Gan,  E. Epifanovsky,  A. T. B. Gilbert,  M. Wormit,  
 J. Kussmann,  A. W. Lange,  A. Behn,  J. Deng,  X. Feng,  D. Ghosh,  
 M. Goldey,  P. R. Horn,  L. D. Jacobson,  I. Kaliman,  R. Z. Khaliullin,  
 T. Kus,  A. Landau,  J. Liu,  E. I. Proynov,  Y. M. Rhee,  R. M. Richard,  
 M. A. Rohrdanz,  R. P. Steele,  E. J. Sundstrom,  H. L. Woodcock III,  
 P. M. Zimmerman,  D. Zuev,  B. Albrecht,  E. Alguire,  B. Austin,  
 S. A. Baeppler,  G. J. O. Beran,  Y. A. Bernard,  E. Berquist,  
 K. Brandhorst,  K. B. Bravaya,  S. T. Brown,  D. Casanova,  C.-M. Chang,  
 Y. Chen,  S. H. Chien,  K. D. Closser,  M. P. Coons,  D. L. Crittenden,  
 S. Dasgupta,  M. Diedenhofen,  R. A. DiStasio Jr.,  H. Do,  A. D. Dutoi,  
 R. G. Edgar,  P.-T. Fang,  S. Fatehi,  Q. Feng,  L. Fusti-Molnar,  
 A. Ghysels,  A. Golubeva-Zadorozhnaya,  J. Gomes,  A. Gunina,  
 M. W. D. Hanson-Heine,  P. H. P. Harbach,  A. W. Hauser,  E. G. Hohenstein,  
 Z. C. Holden,  K. Hui,  T.-C. Jagau,  H. Ji,  B. Kaduk,  K. Khistyaev,  
 Jaehoon Kim,  Jihan Kim,  R. A. King,  P. Klunzinger,  D. Kosenkov,  
 T. Kowalczyk,  C. M. Krauter,  A. Kunitsa,  K. U. Lao,  A. Laurent,  
 K. V. Lawler,  D. Lefrancois,  S. Lehtola,  S. V. Levchenko,  C. Y. Lin,  
 Y.-S. Lin,  F. Liu,  E. Livshits,  R. C. Lochan,  A. Luenser,  P. Manohar,  
 S. F. Manzer,  S.-P. Mao,  Y. Mao,  N. Mardirossian,  A. V. Marenich,  
 L. A. Martinez-Martinez,  S. A. Maurer,  N. J. Mayhall,  J.-M. Mewes,  
 A. F. Morrison,  K. Nanda,  C. M. Oana,  R. Olivares-Amaya,  D. P. O'Neill,  
 J. A. Parkhill,  T. M. Perrine,  R. Peverati,  P. A. Pieniazek,  F. Plasser,  
 A. Prociuk,  D. R. Rehn,  E. Rosta,  N. J. Russ,  N. Sergueev,  
 S. M. Sharada,  S. Sharma,  D. W. Small,  A. Sodt,  T. Stauch,  T. Stein,  
 D. Stuck,  Y.-C. Su,  A. J. W. Thom,  T. Tsuchimochi,  L. Vogt,  O. Vydrov,  
 T. Wang,  M. A. Watson,  J. Wenzel,  A. White,  C. F. Williams,  
 V. Vanovschi,  S. Yeganeh,  S. R. Yost,  Z.-Q. You,  I. Y. Zhang,  X. Zhang,  
 Y. Zhao,  B. R. Brooks,  G. K. L. Chan,  D. M. Chipman,  C. J. Cramer,  
 W. A. Goddard III,  M. S. Gordon,  W. J. Hehre,  A. Klamt,  
 H. F. Schaefer III,  M. W. Schmidt,  C. D. Sherrill,  D. G. Truhlar,  
 A. Warshel,  X. Xu,  A. Aspuru-Guzik,  R. Baer,  A. T. Bell,  N. A. Besley,  
 J.-D. Chai,  A. Dreuw,  B. D. Dunietz,  T. R. Furlani,  S. R. Gwaltney,  
 C.-P. Hsu,  Y. Jung,  J. Kong,  D. S. Lambrecht,  W. Liang,  C. Ochsenfeld,  
 V. A. Rassolov,  L. V. Slipchenko,  J. E. Subotnik,  T. Van Voorhis,  
 J. M. Herbert,  A. I. Krylov,  P. M. W. Gill,  M. Head-Gordon

 Contributors to earlier versions of Q-Chem not listed above: 
 R. D. Adamson,  J. Baker,  E. F. C. Byrd,  A. K. Chakraborty,  C.-L. Cheng,  
 H. Dachsel,  R. J. Doerksen,  G. Hawkins,  A. Heyden,  S. Hirata,  
 G. Kedziora,  F. J. Keil,  C. Kelley,  P. P. Korambath,  W. Kurlancheek,  
 A. M. Lee,  M. S. Lee,  D. Liotard,  I. Lotan,  P. E. Maslen,  N. Nair,  
 D. Neuhauser,  R. Olson,  B. Peters,  J. Ritchie,  N. E. Schultz,  
 N. Shenvi,  A. C. Simmonett,  K. S. Thanthiriwatte,  Q. Wu,  W. Zhang

 Please cite Q-Chem as follows:
 Y. Shao et al., Mol. Phys. 113, 184-215 (2015)
 DOI: 10.1080/00268976.2014.952696

 Q-Chem 4.4.0 for Intel X86 Linux

 Parts of Q-Chem use Armadillo 5.200.1 (Boston Tea Smuggler).
 http://arma.sourceforge.net/

 Q-Chem begins on Fri Jan 18 15:40:59 2019  

Host: 
0

     Scratch files written to /scratch/alongd/qlscratch/qchem18400//
 Apr2716 1281_ 20995  20993 4150   
 Parallel job on  1  processors
Processing $rem in /opt/qchem/config/preferences.
 MEM_TOTAL  2000 

Checking the input file for inconsistencies... 	...done.

--------------------------------------------------------------
User input:
--------------------------------------------------------------
$molecule
0 1
N       1.06285195   -0.05973289   -0.05572905
C       0.58593742   -0.13433639    1.31364725
H       0.94565108    0.72039562    1.89348456
H      -0.50740438   -0.13635514    1.33321487
H       0.94049061   -1.05387396    1.78748900
H       0.75109199    0.81493417   -0.47581149
H       2.08152855   -0.02815550   -0.05839008

$end

$rem
JOBTYPE       opt
METHOD        b97-d3
UNRESTRICTED  False
BASIS         6-311+g(d,p)
$end

--------------------------------------------------------------
 Atom   1: ( -0.7419989889, -0.1327547549,  0.0000000139)
         ->( -0.7419989889, -0.1327547549,  0.0000000000)
 Atom   2: (  0.7023470134,  0.0158023979, -0.0000000048)
         ->(  0.7023470134,  0.0158023979,  0.0000000000)
 Atom   3: (  0.9803673385,  1.0735720944,  0.0000018233)
         ->(  0.9803673385,  1.0735720944,  0.0000000000)
 Atom   5: (  1.1309107675, -0.4595536831, -0.8866527081)
         ->(  1.1309109832, -0.4595567954, -0.8866508960)
 Atom   7: ( -1.1311391684,  0.3400036346, -0.8147242670)
         ->( -1.1311390790,  0.3400036467, -0.8147241874)
 ----------------------------------------------------------------
             Standard Nuclear Orientation (Angstroms)
    I     Atom           X                Y                Z
 ----------------------------------------------------------------
    1      N      -0.7419989889    -0.1327547549     0.0000000000
    2      C       0.7023470134     0.0158023979     0.0000000000
    3      H       0.9803673385     1.0735720944     0.0000000000
    4      H       1.1309109832    -0.4595567954     0.8866508960
    5      H       1.1309109832    -0.4595567954    -0.8866508960
    6      H      -1.1311390790     0.3400036467     0.8147241874
    7      H      -1.1311390790     0.3400036467    -0.8147241874
 ----------------------------------------------------------------
 Molecular Point Group                 Cs    NOp =  2
 Largest Abelian Subgroup              Cs    NOp =  2
 Nuclear Repulsion Energy =    42.1650059587 hartrees
 There are        9 alpha and        9 beta electrons
 Requested basis set is 6-311+G(d,p)
 There are 32 shells and 74 basis functions

 Total QAlloc Memory Limit   2000 MB
 Mega-Array Size        61 MB
 MEM_STATIC part        62 MB
 A cutoff of  1.0D-11 yielded    528 shell pairs
 There are      2858 function pairs (      3019 Cartesian)
 
 -------------------------------------------------------
 OpenMP Integral Computing Module                       
 Release: version 1.0, May 2013, Q-Chem Inc. Pittsburgh 
 -------------------------------------------------------
 Integral Job Info:
 Integral job number is                      11
 Integral operator is                         1
 short-range coefficients                     0
 long-range coefficients              100000000
 Omega coefficients                           0
 if combine SR and LR in K                    0
 Integral screening is                        0
 Integral computing path is                   2
 max size of driver memory is            800000
 size of driver memory is                593474
 size of scratch memory is              2260544
 max col of scratch BK array               1296
 max len of scratch array in speh3          155
 max len of scratch index in speh4           18
 max int batch size is                      520
 min int batch size is                       52
 fixed nKL is                                52
 max L of basis functions is                  2
 order of int derivative is                   0
 number of shells is                         32
 number of basis is                          76
 number of cartesian basis is                76
 number of contracted shell pairs           528
 number of primitive shell pairs           1440
 maxK2 (contraction) of shell pair           36
 max number of K2 of shell pair               1
 max number of CS2 of shell pair             60
 max number of PS2 of shell pair            150
 mem total for path MDJ                   10762
 -------------------------------------------------------
 Smallest overlap matrix eigenvalue = 1.51E-03

 Scale SEOQF with 1.000000e-01/1.000000e-01/1.000000e-01

 Standard Electronic Orientation quadrupole field applied
 Nucleus-field energy     =     0.0000000003 hartrees
 Guess from superposition of atomic densities
 Warning:  Energy on first SCF cycle will be non-variational
 A restricted Kohn-Sham SCF calculation will be
 performed using Pulay DIIS extrapolation
 Exchange:  B97-D      Correlation:  B97-D
 Using SG-1 standard quadrature grid
 Dispersion:   Grimme D3
 SCF converges when DIIS error is below 1.0E-08
 using 6 threads for integral computing 
 -------------------------------------------------------
 OpenMP BLAS3 based DFT computing Module                
 Release: version 1.0, May 2013, Q-Chem Inc. Pittsburgh 
 -------------------------------------------------------
 ---------------------------------------
  Cycle       Energy         DIIS Error
 ---------------------------------------
    1     -95.9185647808      6.61E-02
    2     -95.7143314059      1.29E-02
    3     -95.5362267033      2.08E-02
    4     -95.8240246156      2.05E-03
    5     -95.8260955789      9.51E-04
    6     -95.8266297570      1.53E-04
    7     -95.8266435779      1.77E-05
    8     -95.8266437830      2.28E-06
    9     -95.8266437873      5.32E-07
   10     -95.8266437876      6.98E-08
   11     -95.8266437876      8.38E-09 Convergence criterion met
 ---------------------------------------
 SCF time:  CPU 6.85 s  wall 1.34 s
 SCF   energy in the final basis set = -95.8266437876
 Total energy in the final basis set = -95.8266437876
 
 --------------------------------------------------------------
             Orbital Energies (a.u.) and Symmetries
 --------------------------------------------------------------
 
 Alpha MOs, Restricted
 -- Occupied --                  
-13.971  -9.913  -0.806  -0.597  -0.443  -0.394  -0.363  -0.327
  1 A'    2 A'    3 A'    4 A'    1 A"    5 A'    6 A'    2 A"                 
 -0.196
  7 A'                                                                         
 -- Virtual --                   
 -0.010   0.021   0.036   0.048   0.094   0.114   0.129   0.131
  8 A'    9 A'    3 A"   10 A'   11 A'    4 A"   12 A'    5 A"                 
  0.138   0.163   0.176   0.185   0.218   0.256   0.385   0.398
 13 A'    6 A"   14 A'   15 A'   16 A'   17 A'    7 A"   18 A'                 
  0.477   0.483   0.544   0.552   0.576   0.631   0.708   0.718
 19 A'    8 A"   20 A'    9 A"   21 A'   22 A'   10 A"   23 A'                 
  0.759   0.814   0.975   1.002   1.101   1.261   1.365   1.388
 24 A'   25 A'   26 A'   11 A"   27 A'   12 A"   28 A'   13 A"                 
  1.464   1.465   1.570   1.586   1.591   1.673   1.723   1.813
 29 A'   14 A"   30 A'   31 A'   15 A"   16 A"   32 A'   17 A"                 
  1.909   1.997   2.079   2.160   2.317   2.328   2.379   2.399
 33 A'   34 A'   18 A"   35 A'   36 A'   19 A"   20 A"   37 A'                 
  2.404   2.501   2.593   2.608   2.670   2.702   2.791   2.917
 38 A'   39 A'   40 A'   21 A"   22 A"   41 A'   42 A'   43 A'                 
  3.021   3.405   3.702   3.727   4.037   4.612   4.743  23.776
 23 A"   44 A'   45 A'   24 A"   46 A'   25 A"   47 A'   48 A'                 
 35.399
 49 A'                                                                         
 
 Beta MOs, Restricted
 -- Occupied --                  
-13.971  -9.913  -0.806  -0.597  -0.443  -0.394  -0.363  -0.327
  1 A'    2 A'    3 A'    4 A'    1 A"    5 A'    6 A'    2 A"                 
 -0.196
  7 A'                                                                         
 -- Virtual --                   
 -0.010   0.021   0.036   0.048   0.094   0.114   0.129   0.131
  8 A'    9 A'    3 A"   10 A'   11 A'    4 A"   12 A'    5 A"                 
  0.138   0.163   0.176   0.185   0.218   0.256   0.385   0.398
 13 A'    6 A"   14 A'   15 A'   16 A'   17 A'    7 A"   18 A'                 
  0.477   0.483   0.544   0.552   0.576   0.631   0.708   0.718
 19 A'    8 A"   20 A'    9 A"   21 A'   22 A'   10 A"   23 A'                 
  0.759   0.814   0.975   1.002   1.101   1.261   1.365   1.388
 24 A'   25 A'   26 A'   11 A"   27 A'   12 A"   28 A'   13 A"                 
  1.464   1.465   1.570   1.586   1.591   1.673   1.723   1.813
 29 A'   14 A"   30 A'   31 A'   15 A"   16 A"   32 A'   17 A"                 
  1.909   1.997   2.079   2.160   2.317   2.328   2.379   2.399
 33 A'   34 A'   18 A"   35 A'   36 A'   19 A"   20 A"   37 A'                 
  2.404   2.501   2.593   2.608   2.670   2.702   2.791   2.917
 38 A'   39 A'   40 A'   21 A"   22 A"   41 A'   42 A'   43 A'                 
  3.021   3.405   3.702   3.727   4.037   4.612   4.743  23.776
 23 A"   44 A'   45 A'   24 A"   46 A'   25 A"   47 A'   48 A'                 
 35.399
 49 A'                                                                         
 --------------------------------------------------------------
 
          Ground-State Mulliken Net Atomic Charges

     Atom                 Charge (a.u.)
  ----------------------------------------
      1 N                    -0.474062
      2 C                    -0.364967
      3 H                     0.117000
      4 H                     0.137641
      5 H                     0.137641
      6 H                     0.223373
      7 H                     0.223373
  ----------------------------------------
  Sum of atomic charges =     0.000000

 -----------------------------------------------------------------
                    Cartesian Multipole Moments
 -----------------------------------------------------------------
    Charge (ESU x 10^10)
                 0.0000
    Dipole Moment (Debye)
         X       0.3252      Y       1.4581      Z       0.0000
       Tot       1.4939
    Quadrupole Moments (Debye-Ang)
        XX     -14.3543     XY      -2.3312     YY     -15.7749
        XZ       0.0000     YZ       0.0000     ZZ     -12.6407
    Octopole Moments (Debye-Ang^2)
       XXX      -2.3117    XXY       2.1606    XYY       0.9234
       YYY       1.9645    XXZ       0.0000    XYZ       0.0000
       YYZ       0.0000    XZZ      -1.7792    YZZ       0.3810
       ZZZ       0.0000
    Hexadecapole Moments (Debye-Ang^3)
      XXXX     -77.4871   XXXY      -5.0489   XXYY     -19.1062
      XYYY      -2.4684   YYYY     -27.8977   XXXZ       0.0000
      XXYZ       0.0000   XYYZ       0.0000   YYYZ       0.0000
      XXZZ     -14.8101   XYZZ      -2.1792   YYZZ      -8.6538
      XZZZ       0.0000   YZZZ       0.0000   ZZZZ     -24.3399
 -----------------------------------------------------------------
 Calculating analytic gradient of the SCF energy
 Gradient of SCF Energy
            1           2           3           4           5           6
    1   0.0146066  -0.0040803  -0.0110583  -0.0013072  -0.0013063   0.0015723
    2   0.0046896  -0.0048891  -0.0059575   0.0017828   0.0017833   0.0012954
    3  -0.0000017  -0.0000018   0.0000006  -0.0017561   0.0017488   0.0005668
            7
    1   0.0015731
    2   0.0012956
    3  -0.0005565
 Max gradient component =       1.461E-02
 RMS gradient           =       4.673E-03
 Gradient time:  CPU 2.26 s  wall 0.65 s
 Geometry Optimization Parameters
   NAtoms,    NIC,     NZ,  NCons,   NDum,   NFix, NCnnct, MaxDiis
        7      35       0       0       0       0       0       0


** GEOMETRY OPTIMIZATION IN DELOCALIZED INTERNAL COORDINATES **
   Searching for a Minimum

   Optimization Cycle:   1

                       Coordinates (Angstroms)
     ATOM                X               Y               Z
      1  N        -0.7419989889   -0.1327547549    0.0000000000
      2  C         0.7023470134    0.0158023979    0.0000000000
      3  H         0.9803673385    1.0735720944    0.0000000000
      4  H         1.1309109832   -0.4595567954    0.8866508960
      5  H         1.1309109832   -0.4595567954   -0.8866508960
      6  H        -1.1311390790    0.3400036467    0.8147241874
      7  H        -1.1311390790    0.3400036467   -0.8147241874
   Point Group: cs    Number of degrees of freedom:     9


   Energy is    -95.826643788


 Attempting to Generate Delocalized Internal Coordinates

  9 Hessian modes will be used to form the next step
  Hessian Eigenvalues:
     0.045550    0.074629    0.160000    0.160000    0.160000    0.343889
     0.344091    0.379886    0.444709

 Minimum Search - Taking Simple RFO Step
 Searching for Lamda that Minimizes Along All modes
 Value Taken    Lamda =  -0.00328339
 Step Taken.  Stepsize is  0.143210

                             Maximum     Tolerance    Cnvgd?
         Gradient           0.022802      0.000300      NO
         Displacement       0.110325      0.001200      NO
         Energy change     *********      0.000001      NO


 New Cartesian Coordinates Obtained by Inverse Iteration

 Displacement from previous Coordinates is:  0.237246
 ----------------------------------------------------------------
             Standard Nuclear Orientation (Angstroms)
    I     Atom           X                Y                Z
 ----------------------------------------------------------------
    1      N      -0.7576874621    -0.1286934113     0.0000000000
    2      C       0.7097184338     0.0426706598     0.0000000000
    3      H       1.0791194467     1.0859626830     0.0000000000
    4      H       1.1289950724    -0.4587313069     0.8818332420
    5      H       1.1289950724    -0.4587313069    -0.8818332420
    6      H      -1.1744406959     0.3175180611     0.8153788726
    7      H      -1.1744406959     0.3175180611    -0.8153788726
 ----------------------------------------------------------------
 Molecular Point Group                 Cs    NOp =  2
 Largest Abelian Subgroup              Cs    NOp =  2
 Nuclear Repulsion Energy =    41.6609591225 hartrees
 There are        9 alpha and        9 beta electrons
 Applying Cartesian multipole field
    Component          Value
    ---------          -----
     (2,0,0)        1.00000E-11
     (0,2,0)        2.00000E-11
     (0,0,2)       -3.00000E-11
 Nucleus-field energy     =     0.0000000003 hartrees
 Requested basis set is 6-311+G(d,p)
 There are 32 shells and 74 basis functions
 A cutoff of  1.0D-11 yielded    528 shell pairs
 There are      2858 function pairs (      3019 Cartesian)
 Smallest overlap matrix eigenvalue = 1.66E-03
 Guess MOs from SCF MO coefficient file
 Reading MOs from coefficient file
 Reading MOs from coefficient file
 A restricted Kohn-Sham SCF calculation will be
 performed using Pulay DIIS extrapolation
 Exchange:  B97-D      Correlation:  B97-D
 Using SG-1 standard quadrature grid
 Dispersion:   Grimme D3
 SCF converges when DIIS error is below 1.0E-08
 Geometry optimization detected.  Setting ReadMinima to 0
 Setting SaveMinima to 0
 using 6 threads for integral computing 
 -------------------------------------------------------
 OpenMP BLAS3 based DFT computing Module                
 Release: version 1.0, May 2013, Q-Chem Inc. Pittsburgh 
 -------------------------------------------------------
 ---------------------------------------
  Cycle       Energy         DIIS Error
 ---------------------------------------
    1     -95.8183717437      1.66E-03
    2     -95.8278473431      4.32E-04
    3     -95.8278962936      3.28E-04
    4     -95.8279586405      1.14E-04
    5     -95.8279672002      1.55E-05
    6     -95.8279673113      6.95E-06
    7     -95.8279673395      7.97E-07
    8     -95.8279673399      6.39E-08
    9     -95.8279673399      8.04E-09 Convergence criterion met
 ---------------------------------------
 SCF time:  CPU 5.15 s  wall 1.02 s
 SCF   energy in the final basis set = -95.8279673399
 Total energy in the final basis set = -95.8279673399
 
 --------------------------------------------------------------
             Orbital Energies (a.u.) and Symmetries
 --------------------------------------------------------------
 
 Alpha MOs, Restricted
 -- Occupied --                  
-13.974  -9.918  -0.798  -0.599  -0.439  -0.394  -0.357  -0.326
  1 A'    2 A'    3 A'    4 A'    1 A"    5 A'    6 A'    2 A"                 
 -0.199
  7 A'                                                                         
 -- Virtual --                   
 -0.009   0.019   0.038   0.049   0.093   0.113   0.129   0.132
  8 A'    9 A'    3 A"   10 A'   11 A'    4 A"    5 A"   12 A'                 
  0.141   0.164   0.175   0.182   0.206   0.248   0.385   0.402
 13 A'    6 A"   14 A'   15 A'   16 A'   17 A'    7 A"   18 A'                 
  0.473   0.484   0.547   0.547   0.573   0.623   0.706   0.711
 19 A'    8 A"   20 A'    9 A"   21 A'   22 A'   10 A"   23 A'                 
  0.769   0.815   0.975   1.008   1.099   1.257   1.330   1.392
 24 A'   25 A'   26 A'   11 A"   27 A'   12 A"   28 A'   13 A"                 
  1.477   1.479   1.564   1.593   1.605   1.653   1.705   1.805
 14 A"   29 A'   30 A'   15 A"   31 A'   16 A"   32 A'   17 A"                 
  1.912   2.001   2.072   2.145   2.301   2.327   2.368   2.376
 33 A'   34 A'   18 A"   35 A'   36 A'   19 A"   37 A'   20 A"                 
  2.431   2.483   2.585   2.586   2.655   2.678   2.791   2.876
 38 A'   39 A'   40 A'   21 A"   22 A"   41 A'   42 A'   43 A'                 
  3.018   3.380   3.677   3.717   4.000   4.608   4.718  23.752
 23 A"   44 A'   45 A'   24 A"   46 A'   25 A"   47 A'   48 A'                 
 35.389
 49 A'                                                                         
 
 Beta MOs, Restricted
 -- Occupied --                  
-13.974  -9.918  -0.798  -0.599  -0.439  -0.394  -0.357  -0.326
  1 A'    2 A'    3 A'    4 A'    1 A"    5 A'    6 A'    2 A"                 
 -0.199
  7 A'                                                                         
 -- Virtual --                   
 -0.009   0.019   0.038   0.049   0.093   0.113   0.129   0.132
  8 A'    9 A'    3 A"   10 A'   11 A'    4 A"    5 A"   12 A'                 
  0.141   0.164   0.175   0.182   0.206   0.248   0.385   0.402
 13 A'    6 A"   14 A'   15 A'   16 A'   17 A'    7 A"   18 A'                 
  0.473   0.484   0.547   0.547   0.573   0.623   0.706   0.711
 19 A'    8 A"   20 A'    9 A"   21 A'   22 A'   10 A"   23 A'                 
  0.769   0.815   0.975   1.008   1.099   1.257   1.330   1.392
 24 A'   25 A'   26 A'   11 A"   27 A'   12 A"   28 A'   13 A"                 
  1.477   1.479   1.564   1.593   1.605   1.653   1.705   1.805
 14 A"   29 A'   30 A'   15 A"   31 A'   16 A"   32 A'   17 A"                 
  1.912   2.001   2.072   2.145   2.301   2.327   2.368   2.376
 33 A'   34 A'   18 A"   35 A'   36 A'   19 A"   37 A'   20 A"                 
  2.431   2.483   2.585   2.586   2.655   2.678   2.791   2.876
 38 A'   39 A'   40 A'   21 A"   22 A"   41 A'   42 A'   43 A'                 
  3.018   3.380   3.677   3.717   4.000   4.608   4.718  23.752
 23 A"   44 A'   45 A'   24 A"   46 A'   25 A"   47 A'   48 A'                 
 35.389
 49 A'                                                                         
 --------------------------------------------------------------
 
          Ground-State Mulliken Net Atomic Charges

     Atom                 Charge (a.u.)
  ----------------------------------------
      1 N                    -0.483832
      2 C                    -0.359717
      3 H                     0.117683
      4 H                     0.138155
      5 H                     0.138155
      6 H                     0.224778
      7 H                     0.224778
  ----------------------------------------
  Sum of atomic charges =     0.000000

 -----------------------------------------------------------------
                    Cartesian Multipole Moments
 -----------------------------------------------------------------
    Charge (ESU x 10^10)
                 0.0000
    Dipole Moment (Debye)
         X       0.2575      Y       1.3770      Z       0.0000
       Tot       1.4009
    Quadrupole Moments (Debye-Ang)
        XX     -13.9739     XY      -2.1436     YY     -15.9113
        XZ       0.0000     YZ       0.0000     ZZ     -12.7251
    Octopole Moments (Debye-Ang^2)
       XXX      -2.6814    XXY       2.0486    XYY       1.0829
       YYY       1.3838    XXZ       0.0000    XYZ       0.0000
       YYZ       0.0000    XZZ      -1.9306    YZZ       0.1585
       ZZZ       0.0000
    Hexadecapole Moments (Debye-Ang^3)
      XXXX     -79.0609   XXXY      -5.2219   XXYY     -19.3941
      XYYY      -2.7750   YYYY     -28.2297   XXXZ       0.0000
      XXYZ       0.0000   XYYZ       0.0000   YYYZ       0.0000
      XXZZ     -15.0941   XYZZ      -2.3315   YYZZ      -8.7601
      XZZZ       0.0000   YZZZ       0.0000   ZZZZ     -24.4862
 -----------------------------------------------------------------
 Calculating analytic gradient of the SCF energy
 Gradient of SCF Energy
            1           2           3           4           5           6
    1  -0.0012826   0.0008815   0.0016130   0.0003199   0.0003208  -0.0009266
    2  -0.0011148   0.0010299  -0.0005882   0.0001639   0.0001645   0.0001723
    3  -0.0000020  -0.0000024   0.0000008  -0.0005688   0.0005613  -0.0000583
            7
    1  -0.0009260
    2   0.0001725
    3   0.0000693
 Max gradient component =       1.613E-03
 RMS gradient           =       7.022E-04
 Gradient time:  CPU 1.06 s  wall 0.44 s
 Geometry Optimization Parameters
   NAtoms,    NIC,     NZ,  NCons,   NDum,   NFix, NCnnct, MaxDiis
        7      35       0       0       0       0       0       0

 Cartesian Hessian Update
 Hessian Updated using BFGS Update


** GEOMETRY OPTIMIZATION IN DELOCALIZED INTERNAL COORDINATES **
   Searching for a Minimum

   Optimization Cycle:   2

                       Coordinates (Angstroms)
     ATOM                X               Y               Z
      1  N        -0.7576874621   -0.1286934113    0.0000000000
      2  C         0.7097184338    0.0426706598    0.0000000000
      3  H         1.0791194467    1.0859626830    0.0000000000
      4  H         1.1289950724   -0.4587313069    0.8818332420
      5  H         1.1289950724   -0.4587313069   -0.8818332420
      6  H        -1.1744406959    0.3175180611    0.8153788726
      7  H        -1.1744406959    0.3175180611   -0.8153788726
   Point Group: cs    Number of degrees of freedom:     9


   Energy is    -95.827967340

 Hessian Updated using BFGS Update

  8 Hessian modes will be used to form the next step
  Hessian Eigenvalues:
     0.045763    0.076066    0.157996    0.179992    0.338735    0.344278
     0.401149    0.444900

 Minimum Search - Taking Simple RFO Step
 Searching for Lamda that Minimizes Along All modes
 Value Taken    Lamda =  -0.00009125
 Step Taken.  Stepsize is  0.021186

                             Maximum     Tolerance    Cnvgd?
         Gradient           0.004592      0.000300      NO
         Displacement       0.019024      0.001200      NO
         Energy change     -0.001324      0.000001      NO


 New Cartesian Coordinates Obtained by Inverse Iteration

 Displacement from previous Coordinates is:  0.037226
 ----------------------------------------------------------------
             Standard Nuclear Orientation (Angstroms)
    I     Atom           X                Y                Z
 ----------------------------------------------------------------
    1      N      -0.7555086207    -0.1296875235     0.0000000000
    2      C       0.7084338588     0.0395643099     0.0000000000
    3      H       1.0653709036     1.0872911263     0.0000000000
    4      H       1.1268829346    -0.4597368027     0.8841294780
    5      H       1.1268829346    -0.4597368027    -0.8841294780
    6      H      -1.1659014197     0.3199095664     0.8162347684
    7      H      -1.1659014197     0.3199095664    -0.8162347684
 ----------------------------------------------------------------
 Molecular Point Group                 Cs    NOp =  2
 Largest Abelian Subgroup              Cs    NOp =  2
 Nuclear Repulsion Energy =    41.7272107152 hartrees
 There are        9 alpha and        9 beta electrons
 Applying Cartesian multipole field
    Component          Value
    ---------          -----
     (2,0,0)        1.00000E-11
     (0,2,0)        2.00000E-11
     (0,0,2)       -3.00000E-11
 Nucleus-field energy     =     0.0000000003 hartrees
 Requested basis set is 6-311+G(d,p)
 There are 32 shells and 74 basis functions
 A cutoff of  1.0D-11 yielded    528 shell pairs
 There are      2858 function pairs (      3019 Cartesian)
 Smallest overlap matrix eigenvalue = 1.64E-03
 Guess MOs from SCF MO coefficient file
 Reading MOs from coefficient file
 Reading MOs from coefficient file
 A restricted Kohn-Sham SCF calculation will be
 performed using Pulay DIIS extrapolation
 Exchange:  B97-D      Correlation:  B97-D
 Using SG-1 standard quadrature grid
 Dispersion:   Grimme D3
 SCF converges when DIIS error is below 1.0E-08
 Geometry optimization detected.  Setting ReadMinima to 0
 Setting SaveMinima to 0
 using 6 threads for integral computing 
 -------------------------------------------------------
 OpenMP BLAS3 based DFT computing Module                
 Release: version 1.0, May 2013, Q-Chem Inc. Pittsburgh 
 -------------------------------------------------------
 ---------------------------------------
  Cycle       Energy         DIIS Error
 ---------------------------------------
    1     -95.8288303192      2.16E-04
    2     -95.8280141555      5.32E-05
    3     -95.8280152196      3.37E-05
    4     -95.8280157729      1.59E-05
    5     -95.8280159249      1.41E-06
    6     -95.8280159257      8.34E-07
    7     -95.8280159261      9.61E-08
    8     -95.8280159261      1.05E-08
    9     -95.8280159261      1.15E-09 Convergence criterion met
 ---------------------------------------
 SCF time:  CPU 6.02 s  wall 1.14 s
 SCF   energy in the final basis set = -95.8280159261
 Total energy in the final basis set = -95.8280159261
 
 --------------------------------------------------------------
             Orbital Energies (a.u.) and Symmetries
 --------------------------------------------------------------
 
 Alpha MOs, Restricted
 -- Occupied --                  
-13.973  -9.917  -0.800  -0.598  -0.440  -0.393  -0.357  -0.326
  1 A'    2 A'    3 A'    4 A'    1 A"    5 A'    6 A'    2 A"                 
 -0.199
  7 A'                                                                         
 -- Virtual --                   
 -0.009   0.019   0.038   0.048   0.093   0.113   0.129   0.131
  8 A'    9 A'    3 A"   10 A'   11 A'    4 A"    5 A"   12 A'                 
  0.140   0.164   0.175   0.182   0.207   0.249   0.385   0.402
 13 A'    6 A"   14 A'   15 A'   16 A'   17 A'    7 A"   18 A'                 
  0.473   0.484   0.547   0.548   0.572   0.623   0.706   0.712
 19 A'    8 A"   20 A'    9 A"   21 A'   22 A'   10 A"   23 A'                 
  0.767   0.815   0.976   1.007   1.099   1.258   1.335   1.390
 24 A'   25 A'   26 A'   11 A"   27 A'   12 A"   28 A'   13 A"                 
  1.475   1.476   1.566   1.591   1.600   1.657   1.707   1.807
 14 A"   29 A'   30 A'   15 A"   31 A'   16 A"   32 A'   17 A"                 
  1.911   1.997   2.071   2.146   2.303   2.328   2.369   2.375
 33 A'   34 A'   18 A"   35 A'   36 A'   19 A"   37 A'   20 A"                 
  2.429   2.486   2.586   2.590   2.655   2.683   2.790   2.883
 38 A'   39 A'   40 A'   21 A"   22 A"   41 A'   42 A'   43 A'                 
  3.017   3.382   3.677   3.717   4.006   4.612   4.720  23.752
 23 A"   44 A'   45 A'   24 A"   46 A'   25 A"   47 A'   48 A'                 
 35.391
 49 A'                                                                         
 
 Beta MOs, Restricted
 -- Occupied --                  
-13.973  -9.917  -0.800  -0.598  -0.440  -0.393  -0.357  -0.326
  1 A'    2 A'    3 A'    4 A'    1 A"    5 A'    6 A'    2 A"                 
 -0.199
  7 A'                                                                         
 -- Virtual --                   
 -0.009   0.019   0.038   0.048   0.093   0.113   0.129   0.131
  8 A'    9 A'    3 A"   10 A'   11 A'    4 A"    5 A"   12 A'                 
  0.140   0.164   0.175   0.182   0.207   0.249   0.385   0.402
 13 A'    6 A"   14 A'   15 A'   16 A'   17 A'    7 A"   18 A'                 
  0.473   0.484   0.547   0.548   0.572   0.623   0.706   0.712
 19 A'    8 A"   20 A'    9 A"   21 A'   22 A'   10 A"   23 A'                 
  0.767   0.815   0.976   1.007   1.099   1.258   1.335   1.390
 24 A'   25 A'   26 A'   11 A"   27 A'   12 A"   28 A'   13 A"                 
  1.475   1.476   1.566   1.591   1.600   1.657   1.707   1.807
 14 A"   29 A'   30 A'   15 A"   31 A'   16 A"   32 A'   17 A"                 
  1.911   1.997   2.071   2.146   2.303   2.328   2.369   2.375
 33 A'   34 A'   18 A"   35 A'   36 A'   19 A"   37 A'   20 A"                 
  2.429   2.486   2.586   2.590   2.655   2.683   2.790   2.883
 38 A'   39 A'   40 A'   21 A"   22 A"   41 A'   42 A'   43 A'                 
  3.017   3.382   3.677   3.717   4.006   4.612   4.720  23.752
 23 A"   44 A'   45 A'   24 A"   46 A'   25 A"   47 A'   48 A'                 
 35.391
 49 A'                                                                         
 --------------------------------------------------------------
 
          Ground-State Mulliken Net Atomic Charges

     Atom                 Charge (a.u.)
  ----------------------------------------
      1 N                    -0.481592
      2 C                    -0.361409
      3 H                     0.117464
      4 H                     0.138109
      5 H                     0.138109
      6 H                     0.224659
      7 H                     0.224659
  ----------------------------------------
  Sum of atomic charges =     0.000000

 -----------------------------------------------------------------
                    Cartesian Multipole Moments
 -----------------------------------------------------------------
    Charge (ESU x 10^10)
                 0.0000
    Dipole Moment (Debye)
         X       0.2648      Y       1.3872      Z       0.0000
       Tot       1.4122
    Quadrupole Moments (Debye-Ang)
        XX     -14.0584     XY      -2.1641     YY     -15.8916
        XZ       0.0000     YZ       0.0000     ZZ     -12.7042
    Octopole Moments (Debye-Ang^2)
       XXX      -2.6404    XXY       2.0561    XYY       1.0601
       YYY       1.4637    XXZ       0.0000    XYZ       0.0000
       YYZ       0.0000    XZZ      -1.9179    YZZ       0.1834
       ZZZ       0.0000
    Hexadecapole Moments (Debye-Ang^3)
      XXXX     -78.8707   XXXY      -5.2049   XXYY     -19.3516
      XYYY      -2.7547   YYYY     -28.2207   XXXZ       0.0000
      XXYZ       0.0000   XYYZ       0.0000   YYYZ       0.0000
      XXZZ     -15.0579   XYZZ      -2.3216   YYZZ      -8.7562
      XZZZ       0.0000   YZZZ       0.0000   ZZZZ     -24.4833
 -----------------------------------------------------------------
 Calculating analytic gradient of the SCF energy
 Gradient of SCF Energy
            1           2           3           4           5           6
    1   0.0000996  -0.0001768   0.0001837  -0.0000255  -0.0000246  -0.0000285
    2  -0.0002344   0.0002896  -0.0000656  -0.0000596  -0.0000590   0.0000644
    3  -0.0000019  -0.0000024   0.0000008  -0.0000168   0.0000091   0.0000224
            7
    1  -0.0000279
    2   0.0000645
    3  -0.0000112
 Max gradient component =       2.896E-04
 RMS gradient           =       1.063E-04
 Gradient time:  CPU 2.31 s  wall 0.43 s
 Geometry Optimization Parameters
   NAtoms,    NIC,     NZ,  NCons,   NDum,   NFix, NCnnct, MaxDiis
        7      35       0       0       0       0       0       0

 Cartesian Hessian Update
 Hessian Updated using BFGS Update


** GEOMETRY OPTIMIZATION IN DELOCALIZED INTERNAL COORDINATES **
   Searching for a Minimum

   Optimization Cycle:   3

                       Coordinates (Angstroms)
     ATOM                X               Y               Z
      1  N        -0.7555086207   -0.1296875235    0.0000000000
      2  C         0.7084338588    0.0395643099    0.0000000000
      3  H         1.0653709036    1.0872911263    0.0000000000
      4  H         1.1268829346   -0.4597368027    0.8841294780
      5  H         1.1268829346   -0.4597368027   -0.8841294780
      6  H        -1.1659014197    0.3199095664    0.8162347684
      7  H        -1.1659014197    0.3199095664   -0.8162347684
   Point Group: cs    Number of degrees of freedom:     9


   Energy is    -95.828015926

 Hessian Updated using BFGS Update

  9 Hessian modes will be used to form the next step
  Hessian Eigenvalues:
     0.045920    0.074223    0.156939    0.160000    0.170871    0.338804
     0.344311    0.409816    0.444172

 Minimum Search - Taking Simple RFO Step
 Searching for Lamda that Minimizes Along All modes
 Value Taken    Lamda =  -0.00000102
 Step Taken.  Stepsize is  0.003070

                             Maximum     Tolerance    Cnvgd?
         Gradient           0.000244      0.000300     YES
         Displacement       0.002111      0.001200      NO
         Energy change     -0.000049      0.000001      NO


 New Cartesian Coordinates Obtained by Inverse Iteration

 Displacement from previous Coordinates is:  0.003510
 ----------------------------------------------------------------
             Standard Nuclear Orientation (Angstroms)
    I     Atom           X                Y                Z
 ----------------------------------------------------------------
    1      N      -0.7555595189    -0.1293710615     0.0000000000
    2      C       0.7085544011     0.0388720622     0.0000000000
    3      H       1.0639513532     1.0871126599     0.0000000000
    4      H       1.1273234795    -0.4597850734     0.8843327730
    5      H       1.1273234795    -0.4597850734    -0.8843327730
    6      H      -1.1656670115     0.3202349630     0.8163050825
    7      H      -1.1656670115     0.3202349630    -0.8163050825
 ----------------------------------------------------------------
 Molecular Point Group                 Cs    NOp =  2
 Largest Abelian Subgroup              Cs    NOp =  2
 Nuclear Repulsion Energy =    41.7271769007 hartrees
 There are        9 alpha and        9 beta electrons
 Applying Cartesian multipole field
    Component          Value
    ---------          -----
     (2,0,0)        1.00000E-11
     (0,2,0)        2.00000E-11
     (0,0,2)       -3.00000E-11
 Nucleus-field energy     =     0.0000000003 hartrees
 Requested basis set is 6-311+G(d,p)
 There are 32 shells and 74 basis functions
 A cutoff of  1.0D-11 yielded    528 shell pairs
 There are      2858 function pairs (      3019 Cartesian)
 Smallest overlap matrix eigenvalue = 1.64E-03
 Guess MOs from SCF MO coefficient file
 Reading MOs from coefficient file
 Reading MOs from coefficient file
 A restricted Kohn-Sham SCF calculation will be
 performed using Pulay DIIS extrapolation
 Exchange:  B97-D      Correlation:  B97-D
 Using SG-1 standard quadrature grid
 Dispersion:   Grimme D3
 SCF converges when DIIS error is below 1.0E-08
 Geometry optimization detected.  Setting ReadMinima to 0
 Setting SaveMinima to 0
 using 6 threads for integral computing 
 -------------------------------------------------------
 OpenMP BLAS3 based DFT computing Module                
 Release: version 1.0, May 2013, Q-Chem Inc. Pittsburgh 
 -------------------------------------------------------
 ---------------------------------------
  Cycle       Energy         DIIS Error
 ---------------------------------------
    1     -95.8281041277      3.06E-05
    2     -95.8280163900      5.25E-06
    3     -95.8280163972      4.24E-06
    4     -95.8280164086      1.43E-06
    5     -95.8280164099      2.71E-07
    6     -95.8280164099      1.17E-07
    7     -95.8280164099      7.44E-09 Convergence criterion met
 ---------------------------------------
 SCF time:  CPU 4.33 s  wall 0.79 s
 SCF   energy in the final basis set = -95.8280164099
 Total energy in the final basis set = -95.8280164099
 
 --------------------------------------------------------------
             Orbital Energies (a.u.) and Symmetries
 --------------------------------------------------------------
 
 Alpha MOs, Restricted
 -- Occupied --                  
-13.973  -9.917  -0.800  -0.598  -0.440  -0.393  -0.358  -0.327
  1 A'    2 A'    3 A'    4 A'    1 A"    5 A'    6 A'    2 A"                 
 -0.198
  7 A'                                                                         
 -- Virtual --                   
 -0.009   0.019   0.038   0.048   0.093   0.113   0.129   0.131
  8 A'    9 A'    3 A"   10 A'   11 A'    4 A"    5 A"   12 A'                 
  0.140   0.164   0.175   0.182   0.207   0.249   0.385   0.401
 13 A'    6 A"   14 A'   15 A'   16 A'   17 A'    7 A"   18 A'                 
  0.473   0.485   0.546   0.548   0.572   0.623   0.706   0.712
 19 A'    8 A"   20 A'    9 A"   21 A'   22 A'   10 A"   23 A'                 
  0.767   0.815   0.976   1.007   1.099   1.258   1.336   1.390
 24 A'   25 A'   26 A'   11 A"   27 A'   12 A"   28 A'   13 A"                 
  1.475   1.476   1.566   1.591   1.600   1.657   1.707   1.807
 14 A"   29 A'   30 A'   15 A"   31 A'   16 A"   32 A'   17 A"                 
  1.911   1.997   2.072   2.146   2.303   2.327   2.370   2.375
 33 A'   34 A'   18 A"   35 A'   36 A'   19 A"   37 A'   20 A"                 
  2.428   2.486   2.585   2.590   2.655   2.684   2.790   2.884
 38 A'   39 A'   40 A'   21 A"   22 A"   41 A'   42 A'   43 A'                 
  3.017   3.382   3.676   3.717   4.005   4.612   4.720  23.752
 23 A"   44 A'   45 A'   24 A"   46 A'   25 A"   47 A'   48 A'                 
 35.391
 49 A'                                                                         
 
 Beta MOs, Restricted
 -- Occupied --                  
-13.973  -9.917  -0.800  -0.598  -0.440  -0.393  -0.358  -0.327
  1 A'    2 A'    3 A'    4 A'    1 A"    5 A'    6 A'    2 A"                 
 -0.198
  7 A'                                                                         
 -- Virtual --                   
 -0.009   0.019   0.038   0.048   0.093   0.113   0.129   0.131
  8 A'    9 A'    3 A"   10 A'   11 A'    4 A"    5 A"   12 A'                 
  0.140   0.164   0.175   0.182   0.207   0.249   0.385   0.401
 13 A'    6 A"   14 A'   15 A'   16 A'   17 A'    7 A"   18 A'                 
  0.473   0.485   0.546   0.548   0.572   0.623   0.706   0.712
 19 A'    8 A"   20 A'    9 A"   21 A'   22 A'   10 A"   23 A'                 
  0.767   0.815   0.976   1.007   1.099   1.258   1.336   1.390
 24 A'   25 A'   26 A'   11 A"   27 A'   12 A"   28 A'   13 A"                 
  1.475   1.476   1.566   1.591   1.600   1.657   1.707   1.807
 14 A"   29 A'   30 A'   15 A"   31 A'   16 A"   32 A'   17 A"                 
  1.911   1.997   2.072   2.146   2.303   2.327   2.370   2.375
 33 A'   34 A'   18 A"   35 A'   36 A'   19 A"   37 A'   20 A"                 
  2.428   2.486   2.585   2.590   2.655   2.684   2.790   2.884
 38 A'   39 A'   40 A'   21 A"   22 A"   41 A'   42 A'   43 A'                 
  3.017   3.382   3.676   3.717   4.005   4.612   4.720  23.752
 23 A"   44 A'   45 A'   24 A"   46 A'   25 A"   47 A'   48 A'                 
 35.391
 49 A'                                                                         
 --------------------------------------------------------------
 
          Ground-State Mulliken Net Atomic Charges

     Atom                 Charge (a.u.)
  ----------------------------------------
      1 N                    -0.481583
      2 C                    -0.361463
      3 H                     0.117454
      4 H                     0.138142
      5 H                     0.138142
      6 H                     0.224655
      7 H                     0.224655
  ----------------------------------------
  Sum of atomic charges =     0.000000

 -----------------------------------------------------------------
                    Cartesian Multipole Moments
 -----------------------------------------------------------------
    Charge (ESU x 10^10)
                 0.0000
    Dipole Moment (Debye)
         X       0.2664      Y       1.3873      Z       0.0000
       Tot       1.4127
    Quadrupole Moments (Debye-Ang)
        XX     -14.0618     XY      -2.1675     YY     -15.8910
        XZ       0.0000     YZ       0.0000     ZZ     -12.7019
    Octopole Moments (Debye-Ang^2)
       XXX      -2.6356    XXY       2.0567    XYY       1.0583
       YYY       1.4691    XXZ       0.0000    XYZ       0.0000
       YYZ       0.0000    XZZ      -1.9156    YZZ       0.1860
       ZZZ       0.0000
    Hexadecapole Moments (Debye-Ang^3)
      XXXX     -78.8816   XXXY      -5.2010   XXYY     -19.3558
      XYYY      -2.7404   YYYY     -28.2152   XXXZ       0.0000
      XXYZ       0.0000   XYYZ       0.0000   YYYZ       0.0000
      XXZZ     -15.0549   XYZZ      -2.3180   YYZZ      -8.7554
      XZZZ       0.0000   YZZZ       0.0000   ZZZZ     -24.4811
 -----------------------------------------------------------------
 Calculating analytic gradient of the SCF energy
 Gradient of SCF Energy
            1           2           3           4           5           6
    1   0.0000570  -0.0000508   0.0000015   0.0000179   0.0000188  -0.0000225
    2   0.0000085  -0.0000238  -0.0000202  -0.0000239  -0.0000233   0.0000412
    3  -0.0000019  -0.0000024   0.0000008   0.0000031  -0.0000108   0.0000149
            7
    1  -0.0000219
    2   0.0000414
    3  -0.0000037
 Max gradient component =       5.704E-05
 RMS gradient           =       2.530E-05
 Gradient time:  CPU 1.86 s  wall 0.43 s
 Geometry Optimization Parameters
   NAtoms,    NIC,     NZ,  NCons,   NDum,   NFix, NCnnct, MaxDiis
        7      35       0       0       0       0       0       0

 Cartesian Hessian Update
 Hessian Updated using BFGS Update


** GEOMETRY OPTIMIZATION IN DELOCALIZED INTERNAL COORDINATES **
   Searching for a Minimum

   Optimization Cycle:   4

                       Coordinates (Angstroms)
     ATOM                X               Y               Z
      1  N        -0.7555595189   -0.1293710615    0.0000000000
      2  C         0.7085544011    0.0388720622    0.0000000000
      3  H         1.0639513532    1.0871126599    0.0000000000
      4  H         1.1273234795   -0.4597850734    0.8843327730
      5  H         1.1273234795   -0.4597850734   -0.8843327730
      6  H        -1.1656670115    0.3202349630    0.8163050825
      7  H        -1.1656670115    0.3202349630   -0.8163050825
   Point Group: cs    Number of degrees of freedom:     9


   Energy is    -95.828016410

 Hessian Updated using BFGS Update

  9 Hessian modes will be used to form the next step
  Hessian Eigenvalues:
     0.045206    0.074762    0.159049    0.160932    0.185260    0.338824
     0.345598    0.409861    0.441512

 Minimum Search - Taking Simple RFO Step
 Searching for Lamda that Minimizes Along All modes
 Value Taken    Lamda =   0.00000000
 Step Taken.  Stepsize is  0.000430

                             Maximum     Tolerance    Cnvgd?
         Gradient           0.000067      0.000300     YES
         Displacement       0.000342      0.001200     YES
         Energy change      0.000000      0.000001     YES


                       Distance Matrix (Angstroms)
             N (  1)   C (  2)   H (  3)   H (  4)   H (  5)   H (  6)
   C (  2)  1.473749
   H (  3)  2.188710  1.106849
   H (  4)  2.106292  1.098213  1.782962
   H (  5)  2.106292  1.098213  1.782962  1.768666
   H (  6)  1.018179  2.063547  2.495126  2.422987  2.959460
   H (  7)  1.018179  2.063547  2.495126  2.959460  2.422987  1.632610

 
 Final energy is   -96.8280164099384


 ******************************
 **  OPTIMIZATION CONVERGED  **
 ******************************

                       Coordinates (Angstroms)
     ATOM                X               Y               Z
      1  N        -0.7555595189   -0.1293710615    0.0000000000
      2  C         0.7085544011    0.0388720622    0.0000000000
      3  H         1.0639513532    1.0871126599    0.0000000000
      4  H         1.1273234795   -0.4597850734    0.8843327730
      5  H         1.1273234795   -0.4597850734   -0.8843327730
      6  H        -1.1656670115    0.3202349630    0.8163050825
      7  H        -1.1656670115    0.3202349630   -0.8163050825

Z-matrix Print:
$molecule
0 1
N 
H  1 1.018179
H  1 1.018179 2 106.591386
C  1 1.473749 2 110.471507 3 120.050685 0
H  4 1.098213 1 109.086188 2 62.714844 0
H  4 1.098213 1 109.086188 2 179.593969 0
H  4 1.106849 1 115.283962 2 -58.845593 0
$end

 
 --------------------------------------------------------------
             Orbital Energies (a.u.) and Symmetries
 --------------------------------------------------------------
 
 Alpha MOs, Restricted
 -- Occupied --                  
-13.973  -9.917  -0.800  -0.598  -0.440  -0.393  -0.358  -0.327
  1 A'    2 A'    3 A'    4 A'    1 A"    5 A'    6 A'    2 A"                 
 -0.198
  7 A'                                                                         
 -- Virtual --                   
 -0.009   0.019   0.038   0.048   0.093   0.113   0.129   0.131
  8 A'    9 A'    3 A"   10 A'   11 A'    4 A"    5 A"   12 A'                 
  0.140   0.164   0.175   0.182   0.207   0.249   0.385   0.401
 13 A'    6 A"   14 A'   15 A'   16 A'   17 A'    7 A"   18 A'                 
  0.473   0.485   0.546   0.548   0.572   0.623   0.706   0.712
 19 A'    8 A"   20 A'    9 A"   21 A'   22 A'   10 A"   23 A'                 
  0.767   0.815   0.976   1.007   1.099   1.258   1.336   1.390
 24 A'   25 A'   26 A'   11 A"   27 A'   12 A"   28 A'   13 A"                 
  1.475   1.476   1.566   1.591   1.600   1.657   1.707   1.807
 14 A"   29 A'   30 A'   15 A"   31 A'   16 A"   32 A'   17 A"                 
  1.911   1.997   2.072   2.146   2.303   2.327   2.370   2.375
 33 A'   34 A'   18 A"   35 A'   36 A'   19 A"   37 A'   20 A"                 
  2.428   2.486   2.585   2.590   2.655   2.684   2.790   2.884
 38 A'   39 A'   40 A'   21 A"   22 A"   41 A'   42 A'   43 A'                 
  3.017   3.382   3.676   3.717   4.005   4.612   4.720  23.752
 23 A"   44 A'   45 A'   24 A"   46 A'   25 A"   47 A'   48 A'                 
 35.391
 49 A'                                                                         
 
 Beta MOs, Restricted
 -- Occupied --                  
-13.973  -9.917  -0.800  -0.598  -0.440  -0.393  -0.358  -0.327
  1 A'    2 A'    3 A'    4 A'    1 A"    5 A'    6 A'    2 A"                 
 -0.198
  7 A'                                                                         
 -- Virtual --                   
 -0.009   0.019   0.038   0.048   0.093   0.113   0.129   0.131
  8 A'    9 A'    3 A"   10 A'   11 A'    4 A"    5 A"   12 A'                 
  0.140   0.164   0.175   0.182   0.207   0.249   0.385   0.401
 13 A'    6 A"   14 A'   15 A'   16 A'   17 A'    7 A"   18 A'                 
  0.473   0.485   0.546   0.548   0.572   0.623   0.706   0.712
 19 A'    8 A"   20 A'    9 A"   21 A'   22 A'   10 A"   23 A'                 
  0.767   0.815   0.976   1.007   1.099   1.258   1.336   1.390
 24 A'   25 A'   26 A'   11 A"   27 A'   12 A"   28 A'   13 A"                 
  1.475   1.476   1.566   1.591   1.600   1.657   1.707   1.807
 14 A"   29 A'   30 A'   15 A"   31 A'   16 A"   32 A'   17 A"                 
  1.911   1.997   2.072   2.146   2.303   2.327   2.370   2.375
 33 A'   34 A'   18 A"   35 A'   36 A'   19 A"   37 A'   20 A"                 
  2.428   2.486   2.585   2.590   2.655   2.684   2.790   2.884
 38 A'   39 A'   40 A'   21 A"   22 A"   41 A'   42 A'   43 A'                 
  3.017   3.382   3.676   3.717   4.005   4.612   4.720  23.752
 23 A"   44 A'   45 A'   24 A"   46 A'   25 A"   47 A'   48 A'                 
 35.391
 49 A'                                                                         
 --------------------------------------------------------------
 
          Ground-State Mulliken Net Atomic Charges

     Atom                 Charge (a.u.)
  ----------------------------------------
      1 N                    -0.481583
      2 C                    -0.361463
      3 H                     0.117454
      4 H                     0.138142
      5 H                     0.138142
      6 H                     0.224655
      7 H                     0.224655
  ----------------------------------------
  Sum of atomic charges =     0.000000

 -----------------------------------------------------------------
                    Cartesian Multipole Moments
 -----------------------------------------------------------------
    Charge (ESU x 10^10)
                 0.0000
    Dipole Moment (Debye)
         X       0.2664      Y       1.3873      Z       0.0000
       Tot       1.4127
    Quadrupole Moments (Debye-Ang)
        XX     -14.0618     XY      -2.1675     YY     -15.8910
        XZ       0.0000     YZ       0.0000     ZZ     -12.7019
    Octopole Moments (Debye-Ang^2)
       XXX      -2.6356    XXY       2.0567    XYY       1.0583
       YYY       1.4691    XXZ       0.0000    XYZ       0.0000
       YYZ       0.0000    XZZ      -1.9156    YZZ       0.1860
       ZZZ       0.0000
    Hexadecapole Moments (Debye-Ang^3)
      XXXX     -78.8816   XXXY      -5.2010   XXYY     -19.3558
      XYYY      -2.7404   YYYY     -28.2152   XXXZ       0.0000
      XXYZ       0.0000   XYYZ       0.0000   YYYZ       0.0000
      XXZZ     -15.0549   XYZZ      -2.3180   YYZZ      -8.7554
      XZZZ       0.0000   YZZZ       0.0000   ZZZZ     -24.4811
 -----------------------------------------------------------------
Archival summary:
1\1\node18\OPT\ProcedureUnspecified\6-311+G**\115\alongd\FriJan1815:41:062019FriJan1815:41:062019\0\\#,OPT,ProcedureUnspecified,6-311+G**,\\0,1\N\H,1,1.01818\H,1,1.01818,2,106.591\C,1,1.47375,2,110.472,3,120.051,0\H,4,1.09821,1,109.086,2,62.7148,0\H,4,1.09821,1,109.086,2,179.594,0\H,4,1.10685,1,115.284,2,-58.8456,0\\\@

 Total job time:  6.87s(wall), 32.86s(cpu) 
 Fri Jan 18 15:41:06 2019

        *************************************************************
        *                                                           *
        *  Thank you very much for using Q-Chem.  Have a nice day.  *
        *                                                           *
        *************************************************************


0 sent ACK to 0 
now end server 0 ... 
cleanup process ... done
