 Entering Gaussian System, Link 0=g09
 Initial command:
 /usr/local/g09/l1.exe "/gtmp/jintaowu/scratch/g09/1026667.zeus-master/Gau-3696687.inp" -scrdir="/gtmp/jintaowu/scratch/g09/1026667.zeus-master/"
 Entering Link 1 = /usr/local/g09/l1.exe PID=   3696688.
  
 Copyright (c) 1988,1990,1992,1993,1995,1998,2003,2009,2013,
            Gaussian, Inc.  All Rights Reserved.
  
 This is part of the Gaussian(R) 09 program.  It is based on
 the Gaussian(R) 03 system (copyright 2003, Gaussian, Inc.),
 the Gaussian(R) 98 system (copyright 1998, Gaussian, Inc.),
 the Gaussian(R) 94 system (copyright 1995, Gaussian, Inc.),
 the Gaussian 92(TM) system (copyright 1992, Gaussian, Inc.),
 the Gaussian 90(TM) system (copyright 1990, Gaussian, Inc.),
 the Gaussian 88(TM) system (copyright 1988, Gaussian, Inc.),
 the Gaussian 86(TM) system (copyright 1986, Carnegie Mellon
 University), and the Gaussian 82(TM) system (copyright 1983,
 Carnegie Mellon University). Gaussian is a federally registered
 trademark of Gaussian, Inc.
  
 This software contains proprietary and confidential information,
 including trade secrets, belonging to Gaussian, Inc.
  
 This software is provided under written license and may be
 used, copied, transmitted, or stored only in accord with that
 written license.
  
 The following legend is applicable only to US Government
 contracts under FAR:
  
                    RESTRICTED RIGHTS LEGEND
  
 Use, reproduction and disclosure by the US Government is
 subject to restrictions as set forth in subparagraphs (a)
 and (c) of the Commercial Computer Software - Restricted
 Rights clause in FAR 52.227-19.
  
 Gaussian, Inc.
 340 Quinnipiac St., Bldg. 40, Wallingford CT 06492
  
  
 ---------------------------------------------------------------
 Warning -- This program may not be used in any manner that
 competes with the business of Gaussian, Inc. or will provide
 assistance to any competitor of Gaussian, Inc.  The licensee
 of this program is prohibited from giving any competitor of
 Gaussian, Inc. access to this program.  By using this program,
 the user acknowledges that Gaussian, Inc. is engaged in the
 business of creating and licensing software in the field of
 computational chemistry and represents and warrants to the
 licensee that it is not a competitor of Gaussian, Inc. and that
 it will not use this program in any manner prohibited above.
 ---------------------------------------------------------------
  

 Cite this work as:
 Gaussian 09, Revision D.01,
 M. J. Frisch, G. W. Trucks, H. B. Schlegel, G. E. Scuseria, 
 M. A. Robb, J. R. Cheeseman, G. Scalmani, V. Barone, B. Mennucci, 
 G. A. Petersson, H. Nakatsuji, M. Caricato, X. Li, H. P. Hratchian, 
 A. F. Izmaylov, J. Bloino, G. Zheng, J. L. Sonnenberg, M. Hada, 
 M. Ehara, K. Toyota, R. Fukuda, J. Hasegawa, M. Ishida, T. Nakajima, 
 Y. Honda, O. Kitao, H. Nakai, T. Vreven, J. A. Montgomery, Jr., 
 J. E. Peralta, F. Ogliaro, M. Bearpark, J. J. Heyd, E. Brothers, 
 K. N. Kudin, V. N. Staroverov, T. Keith, R. Kobayashi, J. Normand, 
 K. Raghavachari, A. Rendell, J. C. Burant, S. S. Iyengar, J. Tomasi, 
 M. Cossi, N. Rega, J. M. Millam, M. Klene, J. E. Knox, J. B. Cross, 
 V. Bakken, C. Adamo, J. Jaramillo, R. Gomperts, R. E. Stratmann, 
 O. Yazyev, A. J. Austin, R. Cammi, C. Pomelli, J. W. Ochterski, 
 R. L. Martin, K. Morokuma, V. G. Zakrzewski, G. A. Voth, 
 P. Salvador, J. J. Dannenberg, S. Dapprich, A. D. Daniels, 
 O. Farkas, J. B. Foresman, J. V. Ortiz, J. Cioslowski, 
 and D. J. Fox, Gaussian, Inc., Wallingford CT, 2013.
 
 ******************************************
 Gaussian 09:  EM64L-G09RevD.01 24-Apr-2013
                10-Dec-2023 
 ******************************************
 %chk=check.chk
 %mem=184320mb
 %NProcShared=16
 Will use up to   16 processors via shared memory.
 ----------------------------------
 #P opt guess=mix uff IOp(2/9=2000)
 ----------------------------------
 1/6=10,10=10,14=-1,18=4000020,19=15,38=1,56=1,64=2/1,3;
 2/9=2000,12=2,17=6,18=5,40=1/2;
 3/5=30,11=9,16=1,25=1,30=1,41=10200000,43=2,71=1/1;
 4/20=10,22=1001,24=3/2;
 7/44=-1/16;
 1/6=10,10=10,14=-1,18=4000020,19=15,64=2/3(2);
 2/9=2000/2;
 99//99;
 2/9=2000/2;
 3/5=30,11=9,16=1,25=1,30=1,41=10200000,43=2,71=1/1;
 4/16=2,20=10,22=1001,24=3/2;
 7/44=-1/16;
 1/6=10,10=10,14=-1,18=4000020,19=15,64=2/3(-4);
 2/9=2000/2;
 99//99;
 Leave Link    1 at Sun Dec 10 04:21:45 2023, MaxMem= 24159191040 cpu:         0.1
 (Enter /usr/local/g09/l101.exe)
 -----
 water
 -----
 Symbolic Z-matrix:
 Charge =  0 Multiplicity = 1
 O                    -0.00033   0.39781   0. 
 H                    -0.7633   -0.19954   0. 
 H                     0.76363  -0.19828   0. 
 
 NAtoms=      3 NQM=        0 NQMF=       0 NMMI=      0 NMMIF=      0
                NMic=       3 NMicF=      0.
                    Isotopes and Nuclear Properties:
 (Nuclear quadrupole moments (NQMom) in fm**2, nuclear magnetic moments (NMagM)
  in nuclear magnetons)

  Atom         1           2           3
 IAtWgt=          16           1           1
 AtmWgt=  15.9949146   1.0078250   1.0078250
 NucSpn=           0           1           1
 AtZEff=   0.0000000   0.0000000   0.0000000
 NQMom=    0.0000000   0.0000000   0.0000000
 NMagM=    0.0000000   2.7928460   2.7928460
 AtZNuc=   8.0000000   1.0000000   1.0000000
 Generating MM parameters.
 Include all MM classes

 MM sanity checks:
 All charges sum to:                0.00000000
 Charges of atoms sum to:           0.00000000
 MMInit generated parameter data with length LenPar=         499.
 Leave Link  101 at Sun Dec 10 04:21:45 2023, MaxMem= 24159191040 cpu:         1.4
 (Enter /usr/local/g09/l103.exe)

 GradGradGradGradGradGradGradGradGradGradGradGradGradGradGradGradGradGrad
 Berny optimization.
 Initialization pass.
 No Z-matrix variables, so optimization will use Cartesian coordinates.
 Trust Radius=1.00D-01 FncErr=1.00D-07 GrdErr=1.00D-07
 Number of steps in this run=      2 maximum allowed number of steps=      2.
 GradGradGradGradGradGradGradGradGradGradGradGradGradGradGradGradGradGrad

 Leave Link  103 at Sun Dec 10 04:21:45 2023, MaxMem= 24159191040 cpu:         0.1
 (Enter /usr/local/g09/l202.exe)
                          Input orientation:                          
 ---------------------------------------------------------------------
 Center     Atomic      Atomic             Coordinates (Angstroms)
 Number     Number       Type             X           Y           Z
 ---------------------------------------------------------------------
      1          8    10081003       -0.000328    0.397815    0.000000
      2          1    10011000       -0.763303   -0.199538    0.000000
      3          1    10011000        0.763632   -0.198277    0.000000
 ---------------------------------------------------------------------
                    Distance matrix (angstroms):
                    1          2          3
     1  O    0.000000
     2  H    0.969000   0.000000
     3  H    0.969000   1.526936   0.000000
 Stoichiometry    H2O
 Framework group  C2V[C2(O),SGV(H2)]
 Deg. of freedom     2
 Full point group                 C2V     NOp   4
 Largest Abelian subgroup         C2V     NOp   4
 Largest concise Abelian subgroup C2      NOp   2
                         Standard orientation:                         
 ---------------------------------------------------------------------
 Center     Atomic      Atomic             Coordinates (Angstroms)
 Number     Number       Type             X           Y           Z
 ---------------------------------------------------------------------
      1          8    10081003        0.000000    0.000000    0.119345
      2          1    10011000        0.000000    0.763468   -0.477378
      3          1    10011000        0.000000   -0.763468   -0.477378
 ---------------------------------------------------------------------
 Rotational constants (GHZ):    792.8710505    430.1505895    278.8617459
 Leave Link  202 at Sun Dec 10 04:21:45 2023, MaxMem= 24159191040 cpu:         0.0
 (Enter /usr/local/g09/l301.exe)
 Standard basis: Dummy (5D, 7F)
 There are     2 symmetry adapted cartesian basis functions of A1  symmetry.
 There are     0 symmetry adapted cartesian basis functions of A2  symmetry.
 There are     0 symmetry adapted cartesian basis functions of B1  symmetry.
 There are     1 symmetry adapted cartesian basis functions of B2  symmetry.
 There are     2 symmetry adapted basis functions of A1  symmetry.
 There are     0 symmetry adapted basis functions of A2  symmetry.
 There are     0 symmetry adapted basis functions of B1  symmetry.
 There are     1 symmetry adapted basis functions of B2  symmetry.
     3 basis functions,     3 primitive gaussians,     3 cartesian basis functions
     2 alpha electrons        2 beta electrons
       nuclear repulsion energy         2.5309875879 Hartrees.
 IExCor=    0 DFT=F Ex=HF Corr=None ExCW=0 ScaHFX=  1.000000
 ScaDFX=  1.000000  1.000000  1.000000  1.000000 ScalE2=  1.000000  1.000000
 IRadAn=      0 IRanWt=     -1 IRanGd=            0 ICorTp=0 IEmpDi=  4
 NAtoms=    3 NActive=    3 NUniq=    2 SFac= 2.25D+00 NAtFMM=   60 NAOKFM=F Big=F
 Integral buffers will be    131072 words long.
 Raffenetti 1 integral format.
 Two-electron integral symmetry is turned on.
 Leave Link  301 at Sun Dec 10 04:21:45 2023, MaxMem= 24159191040 cpu:         0.2
 (Enter /usr/local/g09/l402.exe)
 UFF calculation of energy and first derivatives.
 NRF= 0 NRA=   0 NVA=   3 HaveQM=F NVQ=       0
 Convergence limit is  0.750E-04 MaxStp= 10000 StMxLn= 3.00D-04 StpMin= 1.00D-06.
 Convergence criteria             0.00011250 0.00007500 0.00045000 0.00030000
  Step  NS  ND Rises OKQ   Scale  Max. Force  RMS Force Max. Disp.  RMS Disp.     Energy   Flag
     1   0   0   F    T  1.00D+00 0.02318444 0.01222656 0.02318444 0.01222656    0.0008146 ----
     2   0   0   F    F  7.96D-02 0.02318444 0.01222656 0.00184474 0.00097284    0.0000913 ----
     3   0   0   F    T  7.00D+00 0.00306302 0.00186517 0.02410100 0.01319941    0.0000873 ----
     4   0   0   F    F -2.02D-01 0.00306302 0.00186517 0.00486308 0.00266337    0.0000056 ----
     5   0   0   F    T  8.42D+02 0.00002610 0.00001235 0.01987199 0.01053604    0.0000000 ++--
     6   0   0   T    T  1.00D+00 0.02075082 0.00984158 0.02075082 0.00984158    0.0004597 ----
     7   0   0   T    F  5.00D-01 0.02075082 0.00984158 0.01037541 0.00492079    0.0004123 ----
     8   0   0   T    F  5.00D-01 0.02075082 0.00984158 0.00518771 0.00246039    0.0001035 ----
     9   0   0   T    F  5.00D-01 0.02075082 0.00984158 0.00259385 0.00123020    0.0000260 ----
    10   0   0   T    F  5.00D-01 0.02075082 0.00984158 0.00129693 0.00061510    0.0000066 ----
    11   0   0   T    F  5.00D-01 0.02075082 0.00984158 0.00064846 0.00030755    0.0000017 ----
    12   0   0   T    F  5.00D-01 0.02075082 0.00984158 0.00032423 0.00015377    0.0000004 --++
    13   0   0   T    F  5.00D-01 0.02075082 0.00984158 0.00016212 0.00007689    0.0000001 --++
    14   0   0   T    F  5.00D-01 0.02075082 0.00984158 0.00008106 0.00003844    0.0000000 --++
    15   0   0   T    F  5.00D-01 0.02075082 0.00984158 0.00004053 0.00001922    0.0000000 --++
    16   0   0   T    F  5.00D-01 0.02075082 0.00984158 0.00002026 0.00000961    0.0000000 --++
    17   0   0   T    F  5.00D-01 0.02075082 0.00984158 0.00001013 0.00000481    0.0000000 --++
    18   0   0   T    F  5.00D-01 0.02075082 0.00984158 0.00000507 0.00000240    0.0000000 --++
    19   0   0   T    F  5.00D-01 0.02075082 0.00984158 0.00000253 0.00000120    0.0000000 --++
    20   0   0   T    F  5.00D-01 0.02075082 0.00984158 0.00000127 0.00000060    0.0000000 --++
    21   0   0   T    F  5.00D-01 0.02075082 0.00984158 0.00000063 0.00000030    0.0000000 --++
    22   0   0   T    T  1.00D+00 0.00002671 0.00001264 0.00000010 0.00000005    0.0000000 ++++
    23   0   0   F    T  1.00D+00 0.00002609 0.00001235 0.00002607 0.00001234    0.0000000 ====
 Energy per function type:
 Direct Coulomb + vdW (small)                           0.000000000
 Direct Coulomb (large)                                 0.000000000
 Direct vdW (large)                                   195.421389429
 Non-direct Coulomb + vdW (small)                       0.000000000
 Non-direct Coulomb (large)                             0.000000000
 Non-direct vdW (large)                              -195.421389429
 Harmonic stretch III                                   0.000000001
 UFF 3-term bend                                        0.000000000
 Energy per function class:
        Coulomb               0.000000000
    Vanderwaals               0.000000000
     Stretching               0.000000001
        Bending               0.000000000
 Energy=    7.267946252E-10 NIter=   0.
 Dipole moment=       0.000000       0.000000       0.000000
 Leave Link  402 at Sun Dec 10 04:21:45 2023, MaxMem= 24159191040 cpu:         0.2
 (Enter /usr/local/g09/l716.exe)
 Dipole        = 0.00000000D+00 0.00000000D+00 0.00000000D+00
 ***** Axes restored to original set *****
 -------------------------------------------------------------------
 Center     Atomic                   Forces (Hartrees/Bohr)
 Number     Number              X              Y              Z
 -------------------------------------------------------------------
      1        8          -0.000000022    0.000026088    0.000000000
      2        1          -0.000013255   -0.000013055    0.000000000
      3        1           0.000013277   -0.000013033    0.000000000
 -------------------------------------------------------------------
 Cartesian Forces:  Max     0.000026088 RMS     0.000012351
 Leave Link  716 at Sun Dec 10 04:21:45 2023, MaxMem= 24159191040 cpu:         0.1
 (Enter /usr/local/g09/l103.exe)

 GradGradGradGradGradGradGradGradGradGradGradGradGradGradGradGradGradGrad
 Berny optimization.
 Search for a local minimum.
 Step number   1 out of a maximum of    2
 All quantities printed in internal units (Hartrees-Bohrs-Radians)
 RMS Force = .12351D-04 SwitMx=.10000D-02 MixMth= 2
 Mixed Optimization -- En-DIIS/RFO-DIIS
 Second derivative matrix not updated -- unit matrix used.
 ITU=  0
 RFO step:  Lambda= 0.00000000D+00 EMin= 1.00000000D+00
 ClnCor:  largest displacement from symmetrization is 2.10D-12 for atom     3.
 Linear search not attempted -- first point.
 ClnCor:  largest displacement from symmetrization is 1.53D-12 for atom     3.
 Variable       Old X    -DE/DX   Delta X   Delta X   Delta X     New X
                                 (Linear)    (Quad)   (Total)
    X1       -0.00063   0.00000   0.00000   0.00000   0.00000  -0.00063
    Y1        0.76365   0.00003   0.00000   0.00003   0.00003   0.76368
    Z1        0.00000   0.00000   0.00000   0.00000   0.00000   0.00000
    X2       -1.47939  -0.00001   0.00000  -0.00001  -0.00001  -1.47941
    Y2       -0.38305  -0.00001   0.00000  -0.00001  -0.00001  -0.38306
    Z2        0.00000   0.00000   0.00000   0.00000   0.00000   0.00000
    X3        1.48002   0.00001   0.00000   0.00001   0.00001   1.48004
    Y3       -0.38061  -0.00001   0.00000  -0.00001  -0.00001  -0.38062
    Z3        0.00000   0.00000   0.00000   0.00000   0.00000   0.00000
         Item               Value     Threshold  Converged?
 Maximum Force            0.000026     0.000450     YES
 RMS     Force            0.000012     0.000300     YES
 Maximum Displacement     0.000026     0.001800     YES
 RMS     Displacement     0.000012     0.001200     YES
 Predicted change in Energy=-6.864290D-10
 Optimization completed.
    -- Stationary point found.
 GradGradGradGradGradGradGradGradGradGradGradGradGradGradGradGradGradGrad

 Largest change from initial coordinates is atom    3       0.020 Angstoms.
 Leave Link  103 at Sun Dec 10 04:21:45 2023, MaxMem= 24159191040 cpu:         0.1
 (Enter /usr/local/g09/l202.exe)
                          Input orientation:                          
 ---------------------------------------------------------------------
 Center     Atomic      Atomic             Coordinates (Angstroms)
 Number     Number       Type             X           Y           Z
 ---------------------------------------------------------------------
      1          8    10081003       -0.000334    0.404108    0.000000
      2          1    10011000       -0.782861   -0.202700    0.000000
      3          1    10011000        0.783194   -0.201408    0.000000
 ---------------------------------------------------------------------
                    Distance matrix (angstroms):
                    1          2          3
     1  O    0.000000
     2  H    0.990235   0.000000
     3  H    0.990235   1.566055   0.000000
 Stoichiometry    H2O
 Framework group  C2V[C2(O),SGV(H2)]
 Deg. of freedom     2
 Full point group                 C2V     NOp   4
 RotChk:  IX=0 Diff= 3.00D-12
 Largest Abelian subgroup         C2V     NOp   4
 Largest concise Abelian subgroup C2      NOp   2
                         Standard orientation:                         
 ---------------------------------------------------------------------
 Center     Atomic      Atomic             Coordinates (Angstroms)
 Number     Number       Type             X           Y           Z
 ---------------------------------------------------------------------
      1          8    10081003        0.000000    0.000000    0.121232
      2          1    10011000        0.000000    0.783028   -0.484930
      3          1    10011000        0.000000   -0.783028   -0.484930
 ---------------------------------------------------------------------
 Rotational constants (GHZ):    768.3692190    408.9290178    266.8894425
 Leave Link  202 at Sun Dec 10 04:21:45 2023, MaxMem= 24159191040 cpu:         0.0
 (Enter /usr/local/g09/l9999.exe)

 Test job not archived.
 1\1\GINC-N131\FOpt\RUFF\ZDO\H2O1\JINTAOWU\10-Dec-2023\0\\#P opt guess=
 mix uff IOp(2/9=2000)\\water\\0,1\O,-0.0003335149,0.4041079055,0.\H,-0
 .7828605604,-0.2027001957,0.\H,0.7831940833,-0.2014077027,0.\\Version=
 EM64L-G09RevD.01\HF=0.\RMSD=0.000e+00\RMSF=1.235e-05\Dipole=0.,0.,0.\P
 G=C02V [C2(O1),SGV(H2)]\\@


 IT IS IMPOSSIBLE TO MEDITATE ON TIME AND THE MYSTERY 
 OF NATURE WITHOUT AN OVERWHELMING EMOTION AT THE
 LIMITATIONS OF HUMAN INTELLIGENCE.

                                         -- ALFRED NORTH WHITEHEAD
 Job cpu time:       0 days  0 hours  0 minutes  2.4 seconds.
 File lengths (MBytes):  RWF=      5 Int=      0 D2E=      0 Chk=      1 Scr=      1
 Normal termination of Gaussian 09 at Sun Dec 10 04:21:45 2023.
 Initial command:
 /usr/local/g09/l1.exe "/gtmp/jintaowu/scratch/g09/1026667.zeus-master/Gau-3696687.inp" -scrdir="/gtmp/jintaowu/scratch/g09/1026667.zeus-master/"
 Entering Link 1 = /usr/local/g09/l1.exe PID=   3696839.
  
 Copyright (c) 1988,1990,1992,1993,1995,1998,2003,2009,2013,
            Gaussian, Inc.  All Rights Reserved.
  
 This is part of the Gaussian(R) 09 program.  It is based on
 the Gaussian(R) 03 system (copyright 2003, Gaussian, Inc.),
 the Gaussian(R) 98 system (copyright 1998, Gaussian, Inc.),
 the Gaussian(R) 94 system (copyright 1995, Gaussian, Inc.),
 the Gaussian 92(TM) system (copyright 1992, Gaussian, Inc.),
 the Gaussian 90(TM) system (copyright 1990, Gaussian, Inc.),
 the Gaussian 88(TM) system (copyright 1988, Gaussian, Inc.),
 the Gaussian 86(TM) system (copyright 1986, Carnegie Mellon
 University), and the Gaussian 82(TM) system (copyright 1983,
 Carnegie Mellon University). Gaussian is a federally registered
 trademark of Gaussian, Inc.
  
 This software contains proprietary and confidential information,
 including trade secrets, belonging to Gaussian, Inc.
  
 This software is provided under written license and may be
 used, copied, transmitted, or stored only in accord with that
 written license.
  
 The following legend is applicable only to US Government
 contracts under FAR:
  
                    RESTRICTED RIGHTS LEGEND
  
 Use, reproduction and disclosure by the US Government is
 subject to restrictions as set forth in subparagraphs (a)
 and (c) of the Commercial Computer Software - Restricted
 Rights clause in FAR 52.227-19.
  
 Gaussian, Inc.
 340 Quinnipiac St., Bldg. 40, Wallingford CT 06492
  
  
 ---------------------------------------------------------------
 Warning -- This program may not be used in any manner that
 competes with the business of Gaussian, Inc. or will provide
 assistance to any competitor of Gaussian, Inc.  The licensee
 of this program is prohibited from giving any competitor of
 Gaussian, Inc. access to this program.  By using this program,
 the user acknowledges that Gaussian, Inc. is engaged in the
 business of creating and licensing software in the field of
 computational chemistry and represents and warrants to the
 licensee that it is not a competitor of Gaussian, Inc. and that
 it will not use this program in any manner prohibited above.
 ---------------------------------------------------------------
  

 Cite this work as:
 Gaussian 09, Revision D.01,
 M. J. Frisch, G. W. Trucks, H. B. Schlegel, G. E. Scuseria, 
 M. A. Robb, J. R. Cheeseman, G. Scalmani, V. Barone, B. Mennucci, 
 G. A. Petersson, H. Nakatsuji, M. Caricato, X. Li, H. P. Hratchian, 
 A. F. Izmaylov, J. Bloino, G. Zheng, J. L. Sonnenberg, M. Hada, 
 M. Ehara, K. Toyota, R. Fukuda, J. Hasegawa, M. Ishida, T. Nakajima, 
 Y. Honda, O. Kitao, H. Nakai, T. Vreven, J. A. Montgomery, Jr., 
 J. E. Peralta, F. Ogliaro, M. Bearpark, J. J. Heyd, E. Brothers, 
 K. N. Kudin, V. N. Staroverov, T. Keith, R. Kobayashi, J. Normand, 
 K. Raghavachari, A. Rendell, J. C. Burant, S. S. Iyengar, J. Tomasi, 
 M. Cossi, N. Rega, J. M. Millam, M. Klene, J. E. Knox, J. B. Cross, 
 V. Bakken, C. Adamo, J. Jaramillo, R. Gomperts, R. E. Stratmann, 
 O. Yazyev, A. J. Austin, R. Cammi, C. Pomelli, J. W. Ochterski, 
 R. L. Martin, K. Morokuma, V. G. Zakrzewski, G. A. Voth, 
 P. Salvador, J. J. Dannenberg, S. Dapprich, A. D. Daniels, 
 O. Farkas, J. B. Foresman, J. V. Ortiz, J. Cioslowski, 
 and D. J. Fox, Gaussian, Inc., Wallingford CT, 2013.
 
 ******************************************
 Gaussian 09:  EM64L-G09RevD.01 24-Apr-2013
                10-Dec-2023 
 ******************************************
 %chk=check.chk
 %mem=184320mb
 %NProcShared=16
 Will use up to   16 processors via shared memory.
 ----------------------------------
 #P opt guess=mix uff IOp(2/9=2000)
 ----------------------------------
 1/6=10,10=10,14=-1,18=4000020,19=15,38=1,56=1,64=2/1,3;
 2/9=2000,12=2,17=6,18=5,40=1/2;
 3/5=30,11=9,16=1,25=1,30=1,41=10200000,43=2,71=1/1;
 4/20=10,22=1001,24=3/2;
 7/44=-1/16;
 1/6=10,10=10,14=-1,18=4000020,19=15,64=2/3(2);
 2/9=2000/2;
 99//99;
 2/9=2000/2;
 3/5=30,11=9,16=1,25=1,30=1,41=10200000,43=2,71=1/1;
 4/16=2,20=10,22=1001,24=3/2;
 7/44=-1/16;
 1/6=10,10=10,14=-1,18=4000020,19=15,64=2/3(-4);
 2/9=2000/2;
 99//99;
 Leave Link    1 at Sun Dec 10 04:21:45 2023, MaxMem= 24159191040 cpu:         0.1
 (Enter /usr/local/g09/l101.exe)
 ----------
 ethylamine
 ----------
 Symbolic Z-matrix:
 Charge =  0 Multiplicity = 1
 N                     1.14153  -0.29339  -0.72919 
 C                     0.2383   -0.28342   0.41386 
 C                    -1.10176   0.31612   0.02538 
 H                     1.29801   0.66054  -1.05225 
 H                     2.05111  -0.64942  -0.43846 
 H                     0.68266   0.29655   1.22945 
 H                     0.09477  -1.30826   0.77088 
 H                    -1.57472  -0.25818  -0.77844 
 H                    -1.77954   0.31373   0.88506 
 H                    -0.99052   1.35186  -0.313 
 
 NAtoms=     10 NQM=        0 NQMF=       0 NMMI=      0 NMMIF=      0
                NMic=      10 NMicF=      0.
                    Isotopes and Nuclear Properties:
 (Nuclear quadrupole moments (NQMom) in fm**2, nuclear magnetic moments (NMagM)
  in nuclear magnetons)

  Atom         1           2           3           4           5           6           7           8           9          10
 IAtWgt=          14          12          12           1           1           1           1           1           1           1
 AtmWgt=  14.0030740  12.0000000  12.0000000   1.0078250   1.0078250   1.0078250   1.0078250   1.0078250   1.0078250   1.0078250
 NucSpn=           2           0           0           1           1           1           1           1           1           1
 AtZEff=   0.0000000   0.0000000   0.0000000   0.0000000   0.0000000   0.0000000   0.0000000   0.0000000   0.0000000   0.0000000
 NQMom=    2.0440000   0.0000000   0.0000000   0.0000000   0.0000000   0.0000000   0.0000000   0.0000000   0.0000000   0.0000000
 NMagM=    0.4037610   0.0000000   0.0000000   2.7928460   2.7928460   2.7928460   2.7928460   2.7928460   2.7928460   2.7928460
 AtZNuc=   7.0000000   6.0000000   6.0000000   1.0000000   1.0000000   1.0000000   1.0000000   1.0000000   1.0000000   1.0000000
 Generating MM parameters.
 Include all MM classes

 MM sanity checks:
 All charges sum to:                0.00000000
 Charges of atoms sum to:           0.00000000
 MMInit generated parameter data with length LenPar=        1527.
 Leave Link  101 at Sun Dec 10 04:21:45 2023, MaxMem= 24159191040 cpu:         1.5
 (Enter /usr/local/g09/l103.exe)

 GradGradGradGradGradGradGradGradGradGradGradGradGradGradGradGradGradGrad
 Berny optimization.
 Initialization pass.
 No Z-matrix variables, so optimization will use Cartesian coordinates.
 Trust Radius=1.00D-01 FncErr=1.00D-07 GrdErr=1.00D-07
 Number of steps in this run=      2 maximum allowed number of steps=      2.
 GradGradGradGradGradGradGradGradGradGradGradGradGradGradGradGradGradGrad

 Leave Link  103 at Sun Dec 10 04:21:45 2023, MaxMem= 24159191040 cpu:         0.1
 (Enter /usr/local/g09/l202.exe)
                          Input orientation:                          
 ---------------------------------------------------------------------
 Center     Atomic      Atomic             Coordinates (Angstroms)
 Number     Number       Type             X           Y           Z
 ---------------------------------------------------------------------
      1          7    10071003        1.141530   -0.293393   -0.729193
      2          6    10061003        0.238303   -0.283422    0.413863
      3          6    10061003       -1.101764    0.316120    0.025377
      4          1    10011000        1.298014    0.660536   -1.052254
      5          1    10011000        2.051110   -0.649420   -0.438460
      6          1    10011000        0.682661    0.296547    1.229454
      7          1    10011000        0.094768   -1.308261    0.770879
      8          1    10011000       -1.574722   -0.258176   -0.778444
      9          1    10011000       -1.779541    0.313730    0.885061
     10          1    10011000       -0.990519    1.351861   -0.312999
 ---------------------------------------------------------------------
                    Distance matrix (angstroms):
                    1          2          3          4          5
     1  N    0.000000
     2  C    1.456879   0.000000
     3  C    2.444024   1.518601   0.000000
     4  H    1.019233   2.040476   2.653082   0.000000
     5  H    1.019125   2.036340   3.329869   1.630914   0.000000
     6  H    2.096399   1.094992   2.152755   2.391096   2.355726
     7  H    2.091861   1.094695   2.150831   2.940710   2.392456
     8  H    2.716927   2.170090   1.095278   3.028468   3.662693
     9  H    3.392208   2.156458   1.094734   3.653055   4.165724
    10  H    2.725016   2.170825   1.095278   2.502361   3.643127
                    6          7          8          9         10
     6  H    0.000000
     7  H    1.769553   0.000000
     8  H    3.071669   2.508042   0.000000
     9  H    2.486230   2.481316   1.770953   0.000000
    10  H    2.508462   3.070649   1.774867   1.770768   0.000000
 Stoichiometry    C2H7N
 Framework group  C1[X(C2H7N)]
 Deg. of freedom    24
 Full point group                 C1      NOp   1
 Largest Abelian subgroup         C1      NOp   1
 Largest concise Abelian subgroup C1      NOp   1
                         Standard orientation:                         
 ---------------------------------------------------------------------
 Center     Atomic      Atomic             Coordinates (Angstroms)
 Number     Number       Type             X           Y           Z
 ---------------------------------------------------------------------
      1          7    10071003       -1.199825   -0.320309   -0.130026
      2          6    10061003       -0.052627    0.559334    0.050699
      3          6    10061003        1.240339   -0.233686   -0.023509
      4          1    10011000       -1.212445   -1.024822    0.606410
      5          1    10011000       -2.058739    0.218094   -0.025119
      6          1    10011000       -0.124279    1.063775    1.019932
      7          1    10011000       -0.059536    1.328138   -0.728564
      8          1    10011000        1.343181   -0.734166   -0.992311
      9          1    10011000        2.099437    0.432665    0.104437
     10          1    10011000        1.284885   -0.995410    0.762255
 ---------------------------------------------------------------------
 Rotational constants (GHZ):     32.8705480      9.0076410      7.9017644
 Leave Link  202 at Sun Dec 10 04:21:45 2023, MaxMem= 24159191040 cpu:         0.0
 (Enter /usr/local/g09/l301.exe)
 Standard basis: Dummy (5D, 7F)
 There are    10 symmetry adapted cartesian basis functions of A   symmetry.
 There are    10 symmetry adapted basis functions of A   symmetry.
    10 basis functions,    10 primitive gaussians,    10 cartesian basis functions
     6 alpha electrons        6 beta electrons
       nuclear repulsion energy        18.1865930785 Hartrees.
 IExCor=    0 DFT=F Ex=HF Corr=None ExCW=0 ScaHFX=  1.000000
 ScaDFX=  1.000000  1.000000  1.000000  1.000000 ScalE2=  1.000000  1.000000
 IRadAn=      0 IRanWt=     -1 IRanGd=            0 ICorTp=0 IEmpDi=  4
 NAtoms=   10 NActive=   10 NUniq=   10 SFac= 1.00D+00 NAtFMM=   60 NAOKFM=F Big=F
 Integral buffers will be    131072 words long.
 Raffenetti 1 integral format.
 Two-electron integral symmetry is turned on.
 Leave Link  301 at Sun Dec 10 04:21:45 2023, MaxMem= 24159191040 cpu:         0.2
 (Enter /usr/local/g09/l402.exe)
 UFF calculation of energy and first derivatives.
 NRF= 0 NRA=   0 NVA=  10 HaveQM=F NVQ=       0
 Convergence limit is  0.750E-04 MaxStp= 10000 StMxLn= 3.00D-04 StpMin= 1.00D-06.
 Convergence criteria             0.00011250 0.00007500 0.00045000 0.00030000
  Step  NS  ND Rises OKQ   Scale  Max. Force  RMS Force Max. Disp.  RMS Disp.     Energy   Flag
     1   0   0   F    T  1.00D+00 0.02425636 0.00915667 0.02425636 0.00915667    0.0045173 ----
     2   0   0   F    F  2.78D-01 0.02425636 0.00915667 0.00674621 0.00254666    0.0029822 ----
     3   0   0   F    T  2.42D+00 0.01421569 0.00436412 0.02682341 0.01170333    0.0029055 ----
     4   0   0   F    F -3.49D-01 0.01421569 0.00436412 0.00937455 0.00409021    0.0025855 ----
     5   0   0   F    T  2.49D+00 0.00789236 0.00257589 0.01548506 0.00761312    0.0024554 ----
     6   0   0   F    F -3.54D-01 0.00789236 0.00257589 0.00547908 0.00269375    0.0023434 ----
     7   0   0   F    T  5.14D+00 0.00232419 0.00088545 0.01190754 0.00491937    0.0022954 ----
     8   0   0   F    F -4.43D-01 0.00232419 0.00088545 0.00527739 0.00218025    0.0022831 ----
     9   0   0   F    T  3.01D+00 0.00137059 0.00069366 0.00771408 0.00273912    0.0022618 ----
    10   0   0   F    T  4.20D+00 0.00087212 0.00047825 0.00649964 0.00273912    0.0022407 ----
    11   0   0   F    F -1.50D-01 0.00087212 0.00047825 0.00097529 0.00041101    0.0022292 ----
    12   0   0   F    T  2.11D+00 0.00162959 0.00058335 0.00497642 0.00232811    0.0022288 ----
    13   0   0   F    F  8.76D-02 0.00162959 0.00058335 0.00043597 0.00020396    0.0022172 --++
    14   0   0   F    T  2.43D+00 0.00160438 0.00051880 0.00568954 0.00253206    0.0022171 ----
    15   0   0   F    F  1.96D-01 0.00160438 0.00051880 0.00111726 0.00049722    0.0022057 ----
    16   0   0   F    T  3.73D+00 0.00087771 0.00042337 0.00792649 0.00302929    0.0022054 ----
    17   0   0   F    F -2.65D-01 0.00087771 0.00042337 0.00210137 0.00080309    0.0021990 ----
    18   0   0   F    T  1.96D+00 0.00124300 0.00047678 0.00658193 0.00222620    0.0021980 ----
    19   0   0   F    F  1.90D+00 0.00124300 0.00047678 0.01248860 0.00422401    0.0021870 ----
    20   0   0   F    T  1.63D+00 0.00207868 0.00087866 0.01987130 0.00645022    0.0021787 ----
    21   0   0   F    F  8.83D-01 0.00207868 0.00087866 0.01754636 0.00569554    0.0021513 ----
    22   0   0   F    T  5.80D+00 0.00139200 0.00060423 0.04265708 0.01214576    0.0021438 ----
    23   0   0   F    F -3.95D-02 0.00139200 0.00060423 0.00168379 0.00047943    0.0021136 ----
    24   0   0   F    T  2.36D+00 0.00225630 0.00091555 0.04183824 0.01166633    0.0021135 ----
    25   0   0   F    F  1.16D-01 0.00225630 0.00091555 0.00486414 0.00135634    0.0020798 ----
    26   0   0   F    T  1.01D+01 0.00128792 0.00050143 0.04453731 0.01302267    0.0020794 ----
    27   0   0   T    F  1.44D-01 0.00128792 0.00050143 0.00642598 0.00187895    0.0022631 ----
    28   0   0   F    T  2.74D+00 0.00088140 0.00033936 0.00557935 0.00187895    0.0020739 ----
    29   0   0   F    F  1.68D-01 0.00088140 0.00033936 0.00093516 0.00031493    0.0020685 ----
    30   0   0   F    T  2.31D+00 0.00104649 0.00038173 0.00591547 0.00219388    0.0020684 ----
    31   0   0   F    T  7.61D+00 0.00040810 0.00018569 0.00474297 0.00219388    0.0020633 ----
    32   0   0   T    F  3.41D-01 0.00040810 0.00018569 0.00161930 0.00074901    0.0020670 ----
    33   0   0   F    T  2.83D+00 0.00039229 0.00015812 0.00193418 0.00074901    0.0020619 ----
    34   0   0   F    F -3.35D-01 0.00039229 0.00015812 0.00064816 0.00025100    0.0020614 ---+
    35   0   0   F    T  2.86D+00 0.00028632 0.00011266 0.00130905 0.00049801    0.0020612 ----
    36   0   0   F    T  4.40D+00 0.00018776 0.00007925 0.00098825 0.00049801    0.0020607 ----
    37   0   0   F    T  1.84D+00 0.00026909 0.00010899 0.00106211 0.00049801    0.0020604 ----
    38   0   0   F    F -3.86D-01 0.00026909 0.00010899 0.00040997 0.00019223    0.0020604 --++
    39   0   0   F    T  2.69D+00 0.00023994 0.00011167 0.00058691 0.00030578    0.0020603 ----
    40   0   0   F    T  1.82D+00 0.00030738 0.00012330 0.00052311 0.00030578    0.0020602 ----
    41   0   0   T    F  5.00D-01 0.00030738 0.00012330 0.00026156 0.00015289    0.0020609 --++
    42   0   0   T    F  5.00D-01 0.00030738 0.00012330 0.00013078 0.00007645    0.0020604 --++
    43   0   0   T    F  5.00D-01 0.00030738 0.00012330 0.00006539 0.00003822    0.0020603 --++
    44   0   0   T    F  5.00D-01 0.00030738 0.00012330 0.00003269 0.00001911    0.0020603 --++
    45   0   0   T    F  5.00D-01 0.00030738 0.00012330 0.00001635 0.00000956    0.0020602 --++
    46   0   0   T    F  5.00D-01 0.00030738 0.00012330 0.00000817 0.00000478    0.0020602 --++
    47   0   0   T    F  5.00D-01 0.00030738 0.00012330 0.00000409 0.00000239    0.0020602 --++
    48   0   0   T    F  5.00D-01 0.00030738 0.00012330 0.00000204 0.00000119    0.0020602 --++
    49   0   0   T    F  5.00D-01 0.00030738 0.00012330 0.00000102 0.00000060    0.0020602 --++
    50   0   0   T    F  5.00D-01 0.00030738 0.00012330 0.00000051 0.00000030    0.0020602 --++
    51   0   0   T    T  1.00D+00 0.00030755 0.00012339 0.00028774 0.00012072    0.0020602 --++
    52   0   0   F    T  3.55D+00 0.00008916 0.00004229 0.00022835 0.00012072    0.0020599 ====
 Energy per function type:
 Direct Coulomb + vdW (small)                           0.001624302
 Direct Coulomb (large)                                 0.000000000
 Direct vdW (large)                                   451.786360040
 Non-direct Coulomb + vdW (small)                       0.000000000
 Non-direct Coulomb (large)                             0.000000000
 Non-direct vdW (large)                              -451.786360040
 Harmonic stretch III                                   0.000126425
 UFF 3-term bend                                        0.000248401
 UFF torsion w/ sp3 V                                   0.000060817
 Energy per function class:
        Coulomb               0.000000000
    Vanderwaals               0.001624302
     Stretching               0.000126425
        Bending               0.000248401
        Torsion               0.000060817
 Energy=    2.059944177E-03 NIter=   0.
 Dipole moment=       0.000000       0.000000       0.000000
 Leave Link  402 at Sun Dec 10 04:21:45 2023, MaxMem= 24159191040 cpu:         0.2
 (Enter /usr/local/g09/l716.exe)
 Dipole        = 0.00000000D+00 0.00000000D+00 0.00000000D+00
 ***** Axes restored to original set *****
 -------------------------------------------------------------------
 Center     Atomic                   Forces (Hartrees/Bohr)
 Number     Number              X              Y              Z
 -------------------------------------------------------------------
      1        7          -0.000024806   -0.000037488   -0.000005163
      2        6          -0.000028072   -0.000027045    0.000084198
      3        6           0.000101472   -0.000004472    0.000036478
      4        1          -0.000011850    0.000099870    0.000018422
      5        1           0.000015247   -0.000012106   -0.000030362
      6        1          -0.000024939    0.000006771    0.000022684
      7        1          -0.000036893    0.000013519   -0.000045870
      8        1          -0.000049884   -0.000040233   -0.000029793
      9        1           0.000052818    0.000042114    0.000007924
     10        1           0.000006906   -0.000040930   -0.000058520
 -------------------------------------------------------------------
 Cartesian Forces:  Max     0.000101472 RMS     0.000042291
 Leave Link  716 at Sun Dec 10 04:21:45 2023, MaxMem= 24159191040 cpu:         0.3
 (Enter /usr/local/g09/l103.exe)

 GradGradGradGradGradGradGradGradGradGradGradGradGradGradGradGradGradGrad
 Berny optimization.
 Search for a local minimum.
 Step number   1 out of a maximum of    2
 All quantities printed in internal units (Hartrees-Bohrs-Radians)
 RMS Force = .42291D-04 SwitMx=.10000D-02 MixMth= 2
 Mixed Optimization -- En-DIIS/RFO-DIIS
 Second derivative matrix not updated -- unit matrix used.
 ITU=  0
 RFO step:  Lambda=-5.36568585D-08 EMin= 1.00000000D+00
 Linear search not attempted -- first point.
 Variable       Old X    -DE/DX   Delta X   Delta X   Delta X     New X
                                 (Linear)    (Quad)   (Total)
    X1        2.12783  -0.00002   0.00000  -0.00002  -0.00002   2.12781
    Y1       -0.52588  -0.00004   0.00000  -0.00004  -0.00004  -0.52592
    Z1       -1.42764  -0.00001   0.00000  -0.00001  -0.00001  -1.42765
    X2        0.45744  -0.00003   0.00000  -0.00003  -0.00003   0.45741
    Y2       -0.49257  -0.00003   0.00000  -0.00003  -0.00003  -0.49259
    Z2        0.76613   0.00008   0.00000   0.00008   0.00008   0.76622
    X3       -2.11389   0.00010   0.00000   0.00010   0.00010  -2.11379
    Y3        0.58667   0.00000   0.00000   0.00000   0.00000   0.58667
    Z3        0.04728   0.00004   0.00000   0.00004   0.00004   0.04732
    X4        2.59553  -0.00001   0.00000  -0.00001  -0.00001   2.59552
    Y4        1.34150   0.00010   0.00000   0.00010   0.00010   1.34160
    Z4       -1.87709   0.00002   0.00000   0.00002   0.00002  -1.87707
    X5        3.81059   0.00002   0.00000   0.00002   0.00002   3.81060
    Y5       -1.40918  -0.00001   0.00000  -0.00001  -0.00001  -1.40919
    Z5       -0.88625  -0.00003   0.00000  -0.00003  -0.00003  -0.88628
    X6        1.30592  -0.00002   0.00000  -0.00002  -0.00002   1.30589
    Y6        0.66687   0.00001   0.00000   0.00001   0.00001   0.66688
    Z6        2.30174   0.00002   0.00000   0.00002   0.00002   2.30176
    X7        0.19975  -0.00004   0.00000  -0.00004  -0.00004   0.19971
    Y7       -2.45353   0.00001   0.00000   0.00001   0.00001  -2.45352
    Z7        1.47528  -0.00005   0.00000  -0.00005  -0.00005   1.47524
    X8       -2.96946  -0.00005   0.00000  -0.00005  -0.00005  -2.96951
    Y8       -0.55382  -0.00004   0.00000  -0.00004  -0.00004  -0.55386
    Z8       -1.49300  -0.00003   0.00000  -0.00003  -0.00003  -1.49303
    X9       -3.38940   0.00005   0.00000   0.00005   0.00005  -3.38935
    Y9        0.54109   0.00004   0.00000   0.00004   0.00004   0.54114
    Z9        1.71295   0.00001   0.00000   0.00001   0.00001   1.71296
   X10       -1.91122   0.00001   0.00000   0.00001   0.00001  -1.91121
   Y10        2.57497  -0.00004   0.00000  -0.00004  -0.00004   2.57493
   Z10       -0.59430  -0.00006   0.00000  -0.00006  -0.00006  -0.59436
         Item               Value     Threshold  Converged?
 Maximum Force            0.000101     0.000450     YES
 RMS     Force            0.000042     0.000300     YES
 Maximum Displacement     0.000101     0.001800     YES
 RMS     Displacement     0.000042     0.001200     YES
 Predicted change in Energy=-2.682843D-08
 Optimization completed.
    -- Stationary point found.
 GradGradGradGradGradGradGradGradGradGradGradGradGradGradGradGradGradGrad

 Largest change from initial coordinates is atom    4       0.024 Angstoms.
 Leave Link  103 at Sun Dec 10 04:21:45 2023, MaxMem= 24159191040 cpu:         0.1
 (Enter /usr/local/g09/l202.exe)
                          Input orientation:                          
 ---------------------------------------------------------------------
 Center     Atomic      Atomic             Coordinates (Angstroms)
 Number     Number       Type             X           Y           Z
 ---------------------------------------------------------------------
      1          7    10071003        1.126002   -0.278283   -0.755476
      2          6    10061003        0.242066   -0.260655    0.405419
      3          6    10061003       -1.118622    0.310452    0.025020
      4          1    10011000        1.373495    0.709894   -0.993314
      5          1    10011000        2.016475   -0.745706   -0.468983
      6          1    10011000        0.691062    0.352894    1.218028
      7          1    10011000        0.105702   -1.298353    0.780687
      8          1    10011000       -1.571372   -0.293071   -0.790062
      9          1    10011000       -1.793596    0.286335    0.906456
     10          1    10011000       -1.011374    1.362617   -0.314491
 ---------------------------------------------------------------------
                    Distance matrix (angstroms):
                    1          2          3          4          5
     1  N    0.000000
     2  C    1.459223   0.000000
     3  C    2.448289   1.523923   0.000000
     4  H    1.046095   2.044151   2.721619   0.000000
     5  H    1.045709   2.036758   3.344899   1.675446   0.000000
     6  H    2.117139   1.112823   2.167955   2.341624   2.410322
     7  H    2.107451   1.111862   2.158300   2.964361   2.349073
     8  H    2.697636   2.172276   1.110668   3.117610   3.630512
     9  H    3.406591   2.166600   1.110450   3.717391   4.180141
    10  H    2.730457   2.173567   1.110775   2.564069   3.692799
                    6          7          8          9         10
     6  H    0.000000
     7  H    1.805694   0.000000
     8  H    3.093268   2.508072   0.000000
     9  H    2.505001   2.476769   1.806452   0.000000
    10  H    2.503287   3.086752   1.811372   1.805814   0.000000
 Stoichiometry    C2H7N
 Framework group  C1[X(C2H7N)]
 Deg. of freedom    24
 Full point group                 C1      NOp   1
 RotChk:  IX=0 Diff= 1.99D-02
 Largest Abelian subgroup         C1      NOp   1
 Largest concise Abelian subgroup C1      NOp   1
                         Standard orientation:                         
 ---------------------------------------------------------------------
 Center     Atomic      Atomic             Coordinates (Angstroms)
 Number     Number       Type             X           Y           Z
 ---------------------------------------------------------------------
      1          7    10071003       -1.197096   -0.330748   -0.132220
      2          6    10061003       -0.052882    0.553798    0.061908
      3          6    10061003        1.247231   -0.235846   -0.030327
      4          1    10011000       -1.272854   -0.955855    0.703134
      5          1    10011000       -2.058700    0.261801   -0.137627
      6          1    10011000       -0.118655    1.050873    1.055370
      7          1    10011000       -0.055368    1.338078   -0.726214
      8          1    10011000        1.318090   -0.740212   -1.017331
      9          1    10011000        2.111233    0.452361    0.083559
     10          1    10011000        1.289831   -0.999517    0.775162
 ---------------------------------------------------------------------
 Rotational constants (GHZ):     32.3241700      8.9175360      7.8747587
 Leave Link  202 at Sun Dec 10 04:21:45 2023, MaxMem= 24159191040 cpu:         0.0
 (Enter /usr/local/g09/l9999.exe)

 Test job not archived.
 1\1\GINC-N131\FOpt\RUFF\ZDO\C2H7N1\JINTAOWU\10-Dec-2023\0\\#P opt gues
 s=mix uff IOp(2/9=2000)\\ethylamine\\0,1\N,1.1260016666,-0.2782831944,
 -0.7554764009\C,0.2420659825,-0.2606553532,0.4054191683\C,-1.118622320
 6,0.3104523368,0.0250201386\H,1.3734954141,0.7098937381,-0.9933143676\
 H,2.0164752243,-0.7457064505,-0.4689826029\H,0.6910620917,0.3528944984
 ,1.2180284377\H,0.1057022402,-1.2983529937,0.7806871454\H,-1.571371861
 7,-0.293071184,-0.7900624115\H,-1.7935957191,0.2863349458,0.9064556816
 \H,-1.0113738382,1.3626169866,-0.3144911887\\Version=EM64L-G09RevD.01\
 HF=0.0020599\RMSD=0.000e+00\RMSF=4.229e-05\Dipole=0.,0.,0.\PG=C01 [X(C
 2H7N1)]\\@


 IT IS IMPOSSIBLE TO MEDITATE ON TIME AND THE MYSTERY 
 OF NATURE WITHOUT AN OVERWHELMING EMOTION AT THE
 LIMITATIONS OF HUMAN INTELLIGENCE.

                                         -- ALFRED NORTH WHITEHEAD
 Job cpu time:       0 days  0 hours  0 minutes  2.8 seconds.
 File lengths (MBytes):  RWF=      5 Int=      0 D2E=      0 Chk=      1 Scr=      1
 Normal termination of Gaussian 09 at Sun Dec 10 04:21:45 2023.
 Initial command:
 /usr/local/g09/l1.exe "/gtmp/jintaowu/scratch/g09/1026667.zeus-master/Gau-3696687.inp" -scrdir="/gtmp/jintaowu/scratch/g09/1026667.zeus-master/"
 Entering Link 1 = /usr/local/g09/l1.exe PID=   3696990.
  
 Copyright (c) 1988,1990,1992,1993,1995,1998,2003,2009,2013,
            Gaussian, Inc.  All Rights Reserved.
  
 This is part of the Gaussian(R) 09 program.  It is based on
 the Gaussian(R) 03 system (copyright 2003, Gaussian, Inc.),
 the Gaussian(R) 98 system (copyright 1998, Gaussian, Inc.),
 the Gaussian(R) 94 system (copyright 1995, Gaussian, Inc.),
 the Gaussian 92(TM) system (copyright 1992, Gaussian, Inc.),
 the Gaussian 90(TM) system (copyright 1990, Gaussian, Inc.),
 the Gaussian 88(TM) system (copyright 1988, Gaussian, Inc.),
 the Gaussian 86(TM) system (copyright 1986, Carnegie Mellon
 University), and the Gaussian 82(TM) system (copyright 1983,
 Carnegie Mellon University). Gaussian is a federally registered
 trademark of Gaussian, Inc.
  
 This software contains proprietary and confidential information,
 including trade secrets, belonging to Gaussian, Inc.
  
 This software is provided under written license and may be
 used, copied, transmitted, or stored only in accord with that
 written license.
  
 The following legend is applicable only to US Government
 contracts under FAR:
  
                    RESTRICTED RIGHTS LEGEND
  
 Use, reproduction and disclosure by the US Government is
 subject to restrictions as set forth in subparagraphs (a)
 and (c) of the Commercial Computer Software - Restricted
 Rights clause in FAR 52.227-19.
  
 Gaussian, Inc.
 340 Quinnipiac St., Bldg. 40, Wallingford CT 06492
  
  
 ---------------------------------------------------------------
 Warning -- This program may not be used in any manner that
 competes with the business of Gaussian, Inc. or will provide
 assistance to any competitor of Gaussian, Inc.  The licensee
 of this program is prohibited from giving any competitor of
 Gaussian, Inc. access to this program.  By using this program,
 the user acknowledges that Gaussian, Inc. is engaged in the
 business of creating and licensing software in the field of
 computational chemistry and represents and warrants to the
 licensee that it is not a competitor of Gaussian, Inc. and that
 it will not use this program in any manner prohibited above.
 ---------------------------------------------------------------
  

 Cite this work as:
 Gaussian 09, Revision D.01,
 M. J. Frisch, G. W. Trucks, H. B. Schlegel, G. E. Scuseria, 
 M. A. Robb, J. R. Cheeseman, G. Scalmani, V. Barone, B. Mennucci, 
 G. A. Petersson, H. Nakatsuji, M. Caricato, X. Li, H. P. Hratchian, 
 A. F. Izmaylov, J. Bloino, G. Zheng, J. L. Sonnenberg, M. Hada, 
 M. Ehara, K. Toyota, R. Fukuda, J. Hasegawa, M. Ishida, T. Nakajima, 
 Y. Honda, O. Kitao, H. Nakai, T. Vreven, J. A. Montgomery, Jr., 
 J. E. Peralta, F. Ogliaro, M. Bearpark, J. J. Heyd, E. Brothers, 
 K. N. Kudin, V. N. Staroverov, T. Keith, R. Kobayashi, J. Normand, 
 K. Raghavachari, A. Rendell, J. C. Burant, S. S. Iyengar, J. Tomasi, 
 M. Cossi, N. Rega, J. M. Millam, M. Klene, J. E. Knox, J. B. Cross, 
 V. Bakken, C. Adamo, J. Jaramillo, R. Gomperts, R. E. Stratmann, 
 O. Yazyev, A. J. Austin, R. Cammi, C. Pomelli, J. W. Ochterski, 
 R. L. Martin, K. Morokuma, V. G. Zakrzewski, G. A. Voth, 
 P. Salvador, J. J. Dannenberg, S. Dapprich, A. D. Daniels, 
 O. Farkas, J. B. Foresman, J. V. Ortiz, J. Cioslowski, 
 and D. J. Fox, Gaussian, Inc., Wallingford CT, 2013.
 
 ******************************************
 Gaussian 09:  EM64L-G09RevD.01 24-Apr-2013
                10-Dec-2023 
 ******************************************
 %chk=check.chk
 %mem=184320mb
 %NProcShared=16
 Will use up to   16 processors via shared memory.
 ----------------------------------
 #P opt guess=mix uff IOp(2/9=2000)
 ----------------------------------
 1/6=10,10=10,14=-1,18=4000020,19=15,38=1,56=1,64=2/1,3;
 2/9=2000,12=2,17=6,18=5,40=1/2;
 3/5=30,11=9,16=1,25=1,30=1,41=10200000,43=2,71=1/1;
 4/20=10,22=1001,24=3/2;
 7/44=-1/16;
 1/6=10,10=10,14=-1,18=4000020,19=15,64=2/3(2);
 2/9=2000/2;
 99//99;
 2/9=2000/2;
 3/5=30,11=9,16=1,25=1,30=1,41=10200000,43=2,71=1/1;
 4/16=2,20=10,22=1001,24=3/2;
 7/44=-1/16;
 1/6=10,10=10,14=-1,18=4000020,19=15,64=2/3(-4);
 2/9=2000/2;
 99//99;
 Leave Link    1 at Sun Dec 10 04:21:46 2023, MaxMem= 24159191040 cpu:         0.2
 (Enter /usr/local/g09/l101.exe)
 ---------
 acetylene
 ---------
 Symbolic Z-matrix:
 Charge =  0 Multiplicity = 1
 C                     0.57167   0.44861   0.00507 
 C                    -0.57167   0.0834   -0.00507 
 H                     1.58691   0.77289   0.01406 
 H                    -1.58691  -0.24089  -0.01406 
 
 NAtoms=      4 NQM=        0 NQMF=       0 NMMI=      0 NMMIF=      0
                NMic=       4 NMicF=      0.
                    Isotopes and Nuclear Properties:
 (Nuclear quadrupole moments (NQMom) in fm**2, nuclear magnetic moments (NMagM)
  in nuclear magnetons)

  Atom         1           2           3           4
 IAtWgt=          12          12           1           1
 AtmWgt=  12.0000000  12.0000000   1.0078250   1.0078250
 NucSpn=           0           0           1           1
 AtZEff=   0.0000000   0.0000000   0.0000000   0.0000000
 NQMom=    0.0000000   0.0000000   0.0000000   0.0000000
 NMagM=    0.0000000   0.0000000   2.7928460   2.7928460
 AtZNuc=   6.0000000   6.0000000   1.0000000   1.0000000
 Generating MM parameters.
 Include all MM classes

 MM sanity checks:
 All charges sum to:                0.00000000
 Charges of atoms sum to:           0.00000000
 MMInit generated parameter data with length LenPar=         573.
 Leave Link  101 at Sun Dec 10 04:21:46 2023, MaxMem= 24159191040 cpu:         4.1
 (Enter /usr/local/g09/l103.exe)

 GradGradGradGradGradGradGradGradGradGradGradGradGradGradGradGradGradGrad
 Berny optimization.
 Initialization pass.
 No Z-matrix variables, so optimization will use Cartesian coordinates.
 Trust Radius=1.00D-01 FncErr=1.00D-07 GrdErr=1.00D-07
 Number of steps in this run=      2 maximum allowed number of steps=      2.
 GradGradGradGradGradGradGradGradGradGradGradGradGradGradGradGradGradGrad

 Leave Link  103 at Sun Dec 10 04:21:46 2023, MaxMem= 24159191040 cpu:         0.1
 (Enter /usr/local/g09/l202.exe)
                          Input orientation:                          
 ---------------------------------------------------------------------
 Center     Atomic      Atomic             Coordinates (Angstroms)
 Number     Number       Type             X           Y           Z
 ---------------------------------------------------------------------
      1          6    10061001        0.571674    0.448607    0.005066
      2          6    10061001       -0.571674    0.083399   -0.005066
      3          1    10011000        1.586906    0.772893    0.014063
      4          1    10011000       -1.586906   -0.240887   -0.014063
 ---------------------------------------------------------------------
                    Distance matrix (angstroms):
                    1          2          3          4
     1  C    0.000000
     2  C    1.200302   0.000000
     3  H    1.065804   2.266107   0.000000
     4  H    2.266107   1.065804   3.331911   0.000000
 Stoichiometry    C2H2
 Framework group  D*H[C*(HC.CH)]
 Deg. of freedom     2
 Full point group                 D*H     NOp   8
 Largest Abelian subgroup         D2H     NOp   8
 Largest concise Abelian subgroup C2      NOp   2
                         Standard orientation:                         
 ---------------------------------------------------------------------
 Center     Atomic      Atomic             Coordinates (Angstroms)
 Number     Number       Type             X           Y           Z
 ---------------------------------------------------------------------
      1          6    10061001        0.000000    0.000000    0.600151
      2          6    10061001        0.000000    0.000000   -0.600151
      3          1    10011000        0.000000    0.000000    1.665955
      4          1    10011000        0.000000    0.000000   -1.665955
 ---------------------------------------------------------------------
 Rotational constants (GHZ):      0.0000000     35.4935741     35.4935741
 Leave Link  202 at Sun Dec 10 04:21:46 2023, MaxMem= 24159191040 cpu:         0.0
 (Enter /usr/local/g09/l301.exe)
 Standard basis: Dummy (5D, 7F)
 There are     2 symmetry adapted cartesian basis functions of AG  symmetry.
 There are     0 symmetry adapted cartesian basis functions of B1G symmetry.
 There are     0 symmetry adapted cartesian basis functions of B2G symmetry.
 There are     0 symmetry adapted cartesian basis functions of B3G symmetry.
 There are     0 symmetry adapted cartesian basis functions of AU  symmetry.
 There are     2 symmetry adapted cartesian basis functions of B1U symmetry.
 There are     0 symmetry adapted cartesian basis functions of B2U symmetry.
 There are     0 symmetry adapted cartesian basis functions of B3U symmetry.
 There are     2 symmetry adapted basis functions of AG  symmetry.
 There are     0 symmetry adapted basis functions of B1G symmetry.
 There are     0 symmetry adapted basis functions of B2G symmetry.
 There are     0 symmetry adapted basis functions of B3G symmetry.
 There are     0 symmetry adapted basis functions of AU  symmetry.
 There are     2 symmetry adapted basis functions of B1U symmetry.
 There are     0 symmetry adapted basis functions of B2U symmetry.
 There are     0 symmetry adapted basis functions of B3U symmetry.
     4 basis functions,     4 primitive gaussians,     4 cartesian basis functions
     3 alpha electrons        3 beta electrons
       nuclear repulsion energy         4.8423937220 Hartrees.
 IExCor=    0 DFT=F Ex=HF Corr=None ExCW=0 ScaHFX=  1.000000
 ScaDFX=  1.000000  1.000000  1.000000  1.000000 ScalE2=  1.000000  1.000000
 IRadAn=      0 IRanWt=     -1 IRanGd=            0 ICorTp=0 IEmpDi=  4
 NAtoms=    4 NActive=    4 NUniq=    2 SFac= 4.00D+00 NAtFMM=   60 NAOKFM=F Big=F
 Integral buffers will be    131072 words long.
 Raffenetti 1 integral format.
 Two-electron integral symmetry is turned on.
 Leave Link  301 at Sun Dec 10 04:21:46 2023, MaxMem= 24159191040 cpu:         0.3
 (Enter /usr/local/g09/l402.exe)
 UFF calculation of energy and first derivatives.
 NRF= 0 NRA=   0 NVA=   4 HaveQM=F NVQ=       0
 Convergence limit is  0.750E-04 MaxStp= 10000 StMxLn= 3.00D-04 StpMin= 1.00D-06.
 Convergence criteria             0.00011250 0.00007500 0.00045000 0.00030000
  Step  NS  ND Rises OKQ   Scale  Max. Force  RMS Force Max. Disp.  RMS Disp.     Energy   Flag
     1   0   0   F    T  1.00D+00 0.01066971 0.00477176 0.01066971 0.00477176    0.0000477 ----
     2   0   0   F    F -3.85D-01 0.01066971 0.00477176 0.00410342 0.00183515   -0.0000035 ----
     3   0   0   F    T  4.22D+00 0.00153885 0.00068821 0.00691829 0.00293661   -0.0000363 ----
     4   0   0   F    F -8.60D-02 0.00153885 0.00068821 0.00059507 0.00025259   -0.0000472 ---+
 MMCGO1:  length 4.52D-18 force  1.94D-11 so reinitializing CG.
     5   0   0   F    T  2.03D+02 0.00000000 0.00000000 0.00000029 0.00000012   -0.0000473 ====
 Energy per function type:
 Direct Coulomb + vdW (small)                           0.018078045
 Direct Coulomb (large)                                 0.000000000
 Direct vdW (large)                                   395.154915356
 Non-direct Coulomb + vdW (small)                      -0.018125368
 Non-direct Coulomb (large)                             0.000000000
 Non-direct vdW (large)                              -395.154915356
 Harmonic stretch III                                   0.000000004
 Energy per function class:
        Coulomb               0.000000000
    Vanderwaals              -0.000047323
     Stretching               0.000000004
 Energy=   -4.731909710E-05 NIter=   0.
 Dipole moment=       0.000000       0.000000       0.000000
 Leave Link  402 at Sun Dec 10 04:21:46 2023, MaxMem= 24159191040 cpu:         0.3
 (Enter /usr/local/g09/l716.exe)
 Dipole        = 0.00000000D+00 0.00000000D+00 0.00000000D+00
 ***** Axes restored to original set *****
 -------------------------------------------------------------------
 Center     Atomic                   Forces (Hartrees/Bohr)
 Number     Number              X              Y              Z
 -------------------------------------------------------------------
      1        6          -0.000000001    0.000000000    0.000000000
      2        6           0.000000001    0.000000000    0.000000000
      3        1           0.000000000    0.000000000    0.000000000
      4        1           0.000000000    0.000000000    0.000000000
 -------------------------------------------------------------------
 Cartesian Forces:  Max     0.000000001 RMS     0.000000001
 Leave Link  716 at Sun Dec 10 04:21:46 2023, MaxMem= 24159191040 cpu:         0.2
 (Enter /usr/local/g09/l103.exe)

 GradGradGradGradGradGradGradGradGradGradGradGradGradGradGradGradGradGrad
 Berny optimization.
 Search for a local minimum.
 Step number   1 out of a maximum of    2
 All quantities printed in internal units (Hartrees-Bohrs-Radians)
 RMS Force = .60773D-09 SwitMx=.10000D-02 MixMth= 2
 Mixed Optimization -- En-DIIS/RFO-DIIS
 Second derivative matrix not updated -- unit matrix used.
 ITU=  0
 RFO step:  Lambda= 0.00000000D+00 EMin= 1.00000000D+00
 ClnCor:  largest displacement from symmetrization is 5.96D-13 for atom     2.
 Linear search not attempted -- first point.
 ClnCor:  largest displacement from symmetrization is 6.74D-13 for atom     2.
 Variable       Old X    -DE/DX   Delta X   Delta X   Delta X     New X
                                 (Linear)    (Quad)   (Total)
    X1        1.08485   0.00000   0.00000   0.00000   0.00000   1.08485
    Y1        0.84920   0.00000   0.00000   0.00000   0.00000   0.84920
    Z1        0.00961   0.00000   0.00000   0.00000   0.00000   0.00961
    X2       -1.08485   0.00000   0.00000   0.00000   0.00000  -1.08485
    Y2        0.15615   0.00000   0.00000   0.00000   0.00000   0.15615
    Z2       -0.00961   0.00000   0.00000   0.00000   0.00000  -0.00961
    X3        2.99000   0.00000   0.00000   0.00000   0.00000   2.99000
    Y3        1.45774   0.00000   0.00000   0.00000   0.00000   1.45774
    Z3        0.02650   0.00000   0.00000   0.00000   0.00000   0.02650
    X4       -2.99000   0.00000   0.00000   0.00000   0.00000  -2.99000
    Y4       -0.45239   0.00000   0.00000   0.00000   0.00000  -0.45239
    Z4       -0.02650   0.00000   0.00000   0.00000   0.00000  -0.02650
         Item               Value     Threshold  Converged?
 Maximum Force            0.000000     0.000450     YES
 RMS     Force            0.000000     0.000300     YES
 Maximum Displacement     0.000000     0.001800     YES
 RMS     Displacement     0.000000     0.001200     YES
 Predicted change in Energy=-2.215910D-18
 Optimization completed.
    -- Stationary point found.
 GradGradGradGradGradGradGradGradGradGradGradGradGradGradGradGradGradGrad

 Largest change from initial coordinates is atom    3       0.005 Angstoms.
 Leave Link  103 at Sun Dec 10 04:21:46 2023, MaxMem= 24159191040 cpu:         0.1
 (Enter /usr/local/g09/l202.exe)
                          Input orientation:                          
 ---------------------------------------------------------------------
 Center     Atomic      Atomic             Coordinates (Angstroms)
 Number     Number       Type             X           Y           Z
 ---------------------------------------------------------------------
      1          6    10061001        0.574077    0.449375    0.005087
      2          6    10061001       -0.574077    0.082631   -0.005087
      3          1    10011000        1.582239    0.771402    0.014021
      4          1    10011000       -1.582239   -0.239396   -0.014021
 ---------------------------------------------------------------------
                    Distance matrix (angstroms):
                    1          2          3          4
     1  C    0.000000
     2  C    1.205347   0.000000
     3  H    1.058382   2.263729   0.000000
     4  H    2.263729   1.058382   3.322110   0.000000
 Stoichiometry    C2H2
 Framework group  D*H[C*(HC.CH)]
 Deg. of freedom     2
 Full point group                 D*H     NOp   8
 RotChk:  IX=0 Diff= 4.61D-16
 Largest Abelian subgroup         D2H     NOp   8
 Largest concise Abelian subgroup C2      NOp   2
                         Standard orientation:                         
 ---------------------------------------------------------------------
 Center     Atomic      Atomic             Coordinates (Angstroms)
 Number     Number       Type             X           Y           Z
 ---------------------------------------------------------------------
      1          6    10061001        0.000000    0.000000    0.602673
      2          6    10061001        0.000000    0.000000   -0.602673
      3          1    10011000        0.000000    0.000000    1.661055
      4          1    10011000        0.000000    0.000000   -1.661055
 ---------------------------------------------------------------------
 Rotational constants (GHZ):      0.0000000     35.3942751     35.3942751
 Leave Link  202 at Sun Dec 10 04:21:46 2023, MaxMem= 24159191040 cpu:         0.0
 (Enter /usr/local/g09/l9999.exe)

 Test job not archived.
 1\1\GINC-N131\FOpt\RUFF\ZDO\C2H2\JINTAOWU\10-Dec-2023\0\\#P opt guess=
 mix uff IOp(2/9=2000)\\acetylene\\0,1\C,0.574076695,0.4493748837,0.005
 0873528\C,-0.574076695,0.0826313149,-0.0050873385\H,1.5822386905,0.771
 4023508,0.0140214702\H,-1.5822386905,-0.2393961522,-0.0140214559\\Vers
 ion=EM64L-G09RevD.01\HF=-0.0000473\RMSD=0.000e+00\RMSF=6.077e-10\Dipol
 e=0.,0.,0.\PG=D*H [C*(H1C1.C1H1)]\\@


 BLESSED ARE THOSE WHO NOUGHT EXPECT,
 FOR THEY SHALL NOT BE DISAPPOINTED..  WALCOT - ODE TO PITT
 Job cpu time:       0 days  0 hours  0 minutes  5.7 seconds.
 File lengths (MBytes):  RWF=      5 Int=      0 D2E=      0 Chk=      1 Scr=      1
 Normal termination of Gaussian 09 at Sun Dec 10 04:21:46 2023.
 Initial command:
 /usr/local/g09/l1.exe "/gtmp/jintaowu/scratch/g09/1026667.zeus-master/Gau-3696687.inp" -scrdir="/gtmp/jintaowu/scratch/g09/1026667.zeus-master/"
 Entering Link 1 = /usr/local/g09/l1.exe PID=   3697141.
  
 Copyright (c) 1988,1990,1992,1993,1995,1998,2003,2009,2013,
            Gaussian, Inc.  All Rights Reserved.
  
 This is part of the Gaussian(R) 09 program.  It is based on
 the Gaussian(R) 03 system (copyright 2003, Gaussian, Inc.),
 the Gaussian(R) 98 system (copyright 1998, Gaussian, Inc.),
 the Gaussian(R) 94 system (copyright 1995, Gaussian, Inc.),
 the Gaussian 92(TM) system (copyright 1992, Gaussian, Inc.),
 the Gaussian 90(TM) system (copyright 1990, Gaussian, Inc.),
 the Gaussian 88(TM) system (copyright 1988, Gaussian, Inc.),
 the Gaussian 86(TM) system (copyright 1986, Carnegie Mellon
 University), and the Gaussian 82(TM) system (copyright 1983,
 Carnegie Mellon University). Gaussian is a federally registered
 trademark of Gaussian, Inc.
  
 This software contains proprietary and confidential information,
 including trade secrets, belonging to Gaussian, Inc.
  
 This software is provided under written license and may be
 used, copied, transmitted, or stored only in accord with that
 written license.
  
 The following legend is applicable only to US Government
 contracts under FAR:
  
                    RESTRICTED RIGHTS LEGEND
  
 Use, reproduction and disclosure by the US Government is
 subject to restrictions as set forth in subparagraphs (a)
 and (c) of the Commercial Computer Software - Restricted
 Rights clause in FAR 52.227-19.
  
 Gaussian, Inc.
 340 Quinnipiac St., Bldg. 40, Wallingford CT 06492
  
  
 ---------------------------------------------------------------
 Warning -- This program may not be used in any manner that
 competes with the business of Gaussian, Inc. or will provide
 assistance to any competitor of Gaussian, Inc.  The licensee
 of this program is prohibited from giving any competitor of
 Gaussian, Inc. access to this program.  By using this program,
 the user acknowledges that Gaussian, Inc. is engaged in the
 business of creating and licensing software in the field of
 computational chemistry and represents and warrants to the
 licensee that it is not a competitor of Gaussian, Inc. and that
 it will not use this program in any manner prohibited above.
 ---------------------------------------------------------------
  

 Cite this work as:
 Gaussian 09, Revision D.01,
 M. J. Frisch, G. W. Trucks, H. B. Schlegel, G. E. Scuseria, 
 M. A. Robb, J. R. Cheeseman, G. Scalmani, V. Barone, B. Mennucci, 
 G. A. Petersson, H. Nakatsuji, M. Caricato, X. Li, H. P. Hratchian, 
 A. F. Izmaylov, J. Bloino, G. Zheng, J. L. Sonnenberg, M. Hada, 
 M. Ehara, K. Toyota, R. Fukuda, J. Hasegawa, M. Ishida, T. Nakajima, 
 Y. Honda, O. Kitao, H. Nakai, T. Vreven, J. A. Montgomery, Jr., 
 J. E. Peralta, F. Ogliaro, M. Bearpark, J. J. Heyd, E. Brothers, 
 K. N. Kudin, V. N. Staroverov, T. Keith, R. Kobayashi, J. Normand, 
 K. Raghavachari, A. Rendell, J. C. Burant, S. S. Iyengar, J. Tomasi, 
 M. Cossi, N. Rega, J. M. Millam, M. Klene, J. E. Knox, J. B. Cross, 
 V. Bakken, C. Adamo, J. Jaramillo, R. Gomperts, R. E. Stratmann, 
 O. Yazyev, A. J. Austin, R. Cammi, C. Pomelli, J. W. Ochterski, 
 R. L. Martin, K. Morokuma, V. G. Zakrzewski, G. A. Voth, 
 P. Salvador, J. J. Dannenberg, S. Dapprich, A. D. Daniels, 
 O. Farkas, J. B. Foresman, J. V. Ortiz, J. Cioslowski, 
 and D. J. Fox, Gaussian, Inc., Wallingford CT, 2013.
 
 ******************************************
 Gaussian 09:  EM64L-G09RevD.01 24-Apr-2013
                10-Dec-2023 
 ******************************************
 %chk=check.chk
 %mem=184320mb
 %NProcShared=16
 Will use up to   16 processors via shared memory.
 ----------------------------------
 #P opt guess=mix uff IOp(2/9=2000)
 ----------------------------------
 1/6=10,10=10,14=-1,18=4000020,19=15,38=1,56=1,64=2/1,3;
 2/9=2000,12=2,17=6,18=5,40=1/2;
 3/5=30,11=9,16=1,25=1,30=1,41=10200000,43=2,71=1/1;
 4/20=10,22=1001,24=3/2;
 7/44=-1/16;
 1/6=10,10=10,14=-1,18=4000020,19=15,64=2/3(2);
 2/9=2000/2;
 99//99;
 2/9=2000/2;
 3/5=30,11=9,16=1,25=1,30=1,41=10200000,43=2,71=1/1;
 4/16=2,20=10,22=1001,24=3/2;
 7/44=-1/16;
 1/6=10,10=10,14=-1,18=4000020,19=15,64=2/3(-4);
 2/9=2000/2;
 99//99;
 Leave Link    1 at Sun Dec 10 04:21:46 2023, MaxMem= 24159191040 cpu:         0.2
 (Enter /usr/local/g09/l101.exe)
 ------------
 formaldehyde
 ------------
 Symbolic Z-matrix:
 Charge =  0 Multiplicity = 1
 H                    -0.75972  -0.80349   0.0749 
 C                    -0.01206   0.0023    0.00112 
 H                    -0.41411   1.02749   0.03393 
 O                     1.1859   -0.22631  -0.10996 
 
 NAtoms=      4 NQM=        0 NQMF=       0 NMMI=      0 NMMIF=      0
                NMic=       4 NMicF=      0.
                    Isotopes and Nuclear Properties:
 (Nuclear quadrupole moments (NQMom) in fm**2, nuclear magnetic moments (NMagM)
  in nuclear magnetons)

  Atom         1           2           3           4
 IAtWgt=           1          12           1          16
 AtmWgt=   1.0078250  12.0000000   1.0078250  15.9949146
 NucSpn=           1           0           1           0
 AtZEff=   0.0000000   0.0000000   0.0000000   0.0000000
 NQMom=    0.0000000   0.0000000   0.0000000   0.0000000
 NMagM=    2.7928460   0.0000000   2.7928460   0.0000000
 AtZNuc=   1.0000000   6.0000000   1.0000000   8.0000000
 Generating MM parameters.
 Include all MM classes

 MM sanity checks:
 All charges sum to:                0.00000000
 Charges of atoms sum to:           0.00000000
 MMInit generated parameter data with length LenPar=         621.
 Leave Link  101 at Sun Dec 10 04:21:46 2023, MaxMem= 24159191040 cpu:         4.1
 (Enter /usr/local/g09/l103.exe)

 GradGradGradGradGradGradGradGradGradGradGradGradGradGradGradGradGradGrad
 Berny optimization.
 Initialization pass.
 No Z-matrix variables, so optimization will use Cartesian coordinates.
 Trust Radius=1.00D-01 FncErr=1.00D-07 GrdErr=1.00D-07
 Number of steps in this run=      2 maximum allowed number of steps=      2.
 GradGradGradGradGradGradGradGradGradGradGradGradGradGradGradGradGradGrad

 Leave Link  103 at Sun Dec 10 04:21:46 2023, MaxMem= 24159191040 cpu:         0.1
 (Enter /usr/local/g09/l202.exe)
                          Input orientation:                          
 ---------------------------------------------------------------------
 Center     Atomic      Atomic             Coordinates (Angstroms)
 Number     Number       Type             X           Y           Z
 ---------------------------------------------------------------------
      1          1    10011000       -0.759724   -0.803491    0.074905
      2          6    10061002       -0.012064    0.002302    0.001119
      3          1    10011000       -0.414115    1.027495    0.033934
      4          8    10081002        1.185902   -0.226306   -0.109957
 ---------------------------------------------------------------------
                    Distance matrix (angstroms):
                    1          2          3          4
     1  H    0.000000
     2  C    1.101700   0.000000
     3  H    1.863769   1.101700   0.000000
     4  O    2.037836   1.224632   2.037836   0.000000
 Stoichiometry    CH2O
 Framework group  C2V[C2(CO),SGV(H2)]
 Deg. of freedom     3
 Full point group                 C2V     NOp   4
 Largest Abelian subgroup         C2V     NOp   4
 Largest concise Abelian subgroup C2      NOp   2
                         Standard orientation:                         
 ---------------------------------------------------------------------
 Center     Atomic      Atomic             Coordinates (Angstroms)
 Number     Number       Type             X           Y           Z
 ---------------------------------------------------------------------
      1          1    10011000        0.000000   -0.931884   -1.126510
      2          6    10061002        0.000000    0.000000   -0.538859
      3          1    10011000        0.000000    0.931884   -1.126510
      4          8    10081002        0.000000    0.000000    0.685772
 ---------------------------------------------------------------------
 Rotational constants (GHZ):    288.7208191     37.7190691     33.3607532
 Leave Link  202 at Sun Dec 10 04:21:46 2023, MaxMem= 24159191040 cpu:         0.0
 (Enter /usr/local/g09/l301.exe)
 Standard basis: Dummy (5D, 7F)
 There are     3 symmetry adapted cartesian basis functions of A1  symmetry.
 There are     0 symmetry adapted cartesian basis functions of A2  symmetry.
 There are     0 symmetry adapted cartesian basis functions of B1  symmetry.
 There are     1 symmetry adapted cartesian basis functions of B2  symmetry.
 There are     3 symmetry adapted basis functions of A1  symmetry.
 There are     0 symmetry adapted basis functions of A2  symmetry.
 There are     0 symmetry adapted basis functions of B1  symmetry.
 There are     1 symmetry adapted basis functions of B2  symmetry.
     4 basis functions,     4 primitive gaussians,     4 cartesian basis functions
     3 alpha electrons        3 beta electrons
       nuclear repulsion energy         4.9723903574 Hartrees.
 IExCor=    0 DFT=F Ex=HF Corr=None ExCW=0 ScaHFX=  1.000000
 ScaDFX=  1.000000  1.000000  1.000000  1.000000 ScalE2=  1.000000  1.000000
 IRadAn=      0 IRanWt=     -1 IRanGd=            0 ICorTp=0 IEmpDi=  4
 NAtoms=    4 NActive=    4 NUniq=    3 SFac= 1.78D+00 NAtFMM=   60 NAOKFM=F Big=F
 Integral buffers will be    131072 words long.
 Raffenetti 1 integral format.
 Two-electron integral symmetry is turned on.
 Leave Link  301 at Sun Dec 10 04:21:46 2023, MaxMem= 24159191040 cpu:         0.3
 (Enter /usr/local/g09/l402.exe)
 UFF calculation of energy and first derivatives.
 NRF= 0 NRA=   0 NVA=   4 HaveQM=F NVQ=       0
 Convergence limit is  0.750E-04 MaxStp= 10000 StMxLn= 3.00D-04 StpMin= 1.00D-06.
 Convergence criteria             0.00011250 0.00007500 0.00045000 0.00030000
  Step  NS  ND Rises OKQ   Scale  Max. Force  RMS Force Max. Disp.  RMS Disp.     Energy   Flag
     1   0   0   F    T  1.00D+00 0.01894302 0.00805206 0.01894302 0.00805206    0.0010917 ----
     2   0   0   F    F  5.72D-01 0.01894302 0.00805206 0.01083428 0.00460530    0.0005617 ----
     3   0   0   F    T  1.32D+00 0.02048878 0.00715206 0.03444923 0.01265736    0.0004810 ----
     4   0   0   F    F -6.30D-02 0.02048878 0.00715206 0.00217096 0.00079765    0.0001022 ----
     5   0   0   F    T  6.08D+00 0.00435250 0.00183620 0.02604550 0.01185970    0.0001005 ----
     6   0   0   F    F -1.85D-01 0.00435250 0.00183620 0.00481883 0.00219423    0.0000053 ----
     7   0   0   F    T  8.35D+01 0.00033389 0.00011550 0.02736764 0.00966547    0.0000001 ----
     8   0   0   T    T  1.00D+00 0.04102050 0.01477670 0.04102050 0.01477670    0.0008141 ----
     9   0   0   T    F  5.00D-01 0.04102050 0.01477670 0.02051025 0.00738835    0.0021665 ----
    10   0   0   T    F  5.00D-01 0.04102050 0.01477670 0.01025513 0.00369417    0.0005468 ----
    11   0   0   T    F  5.00D-01 0.04102050 0.01477670 0.00512756 0.00184709    0.0001393 ----
    12   0   0   T    F  5.00D-01 0.04102050 0.01477670 0.00256378 0.00092354    0.0000361 ----
    13   0   0   T    F  5.00D-01 0.04102050 0.01477670 0.00128189 0.00046177    0.0000097 ----
    14   0   0   T    F  5.00D-01 0.04102050 0.01477670 0.00064095 0.00023089    0.0000028 ---+
    15   0   0   T    F  5.00D-01 0.04102050 0.01477670 0.00032047 0.00011544    0.0000009 --++
    16   0   0   T    F  5.00D-01 0.04102050 0.01477670 0.00016024 0.00005772    0.0000004 --++
    17   0   0   T    F  5.00D-01 0.04102050 0.01477670 0.00008012 0.00002886    0.0000002 --++
    18   0   0   T    F  5.00D-01 0.04102050 0.01477670 0.00004006 0.00001443    0.0000001 --++
    19   0   0   T    F  5.00D-01 0.04102050 0.01477670 0.00002003 0.00000722    0.0000001 --++
    20   0   0   T    F  5.00D-01 0.04102050 0.01477670 0.00001001 0.00000361    0.0000001 --++
    21   0   0   T    F  5.00D-01 0.04102050 0.01477670 0.00000501 0.00000180    0.0000001 --++
    22   0   0   T    F  5.00D-01 0.04102050 0.01477670 0.00000250 0.00000090    0.0000001 --++
    23   0   0   T    F  5.00D-01 0.04102050 0.01477670 0.00000125 0.00000045    0.0000001 --++
    24   0   0   T    F  5.00D-01 0.04102050 0.01477670 0.00000063 0.00000023    0.0000001 --++
    25   0   0   T    T  1.00D+00 0.00033491 0.00011585 0.00007028 0.00003223    0.0000001 --++
    26   0   0   F    T  1.00D+00 0.00033556 0.00011625 0.00033579 0.00011630    0.0000001 --++
    27   0   0   F    T  1.88D+00 0.00019160 0.00007542 0.00028924 0.00011630    0.0000000 --++
    28   0   0   T    F  5.00D-01 0.00019160 0.00007542 0.00014462 0.00005815    0.0000001 --++
    29   0   0   T    F  5.00D-01 0.00019160 0.00007542 0.00007231 0.00002908    0.0000001 --++
    30   0   0   T    F  5.00D-01 0.00019160 0.00007542 0.00003615 0.00001454    0.0000000 --++
    31   0   0   T    F  5.00D-01 0.00019160 0.00007542 0.00001808 0.00000727    0.0000000 --++
    32   0   0   T    F  5.00D-01 0.00019160 0.00007542 0.00000904 0.00000363    0.0000000 --++
    33   0   0   F    T -2.73D-04 0.00019726 0.00007872 0.00019726 0.00007872    0.0000000 --++
    34   0   0   F    T -1.77D-04 0.00014872 0.00005119 0.00014872 0.00005119    0.0000000 -+++
    35   0   0   F    T -1.15D-04 0.00008445 0.00003334 0.00008445 0.00003334    0.0000000 ====
 Energy per function type:
 Direct Coulomb + vdW (small)                           0.000000000
 Direct Coulomb (large)                                 0.000000000
 Direct vdW (large)                                   224.046443824
 Non-direct Coulomb + vdW (small)                       0.000000000
 Non-direct Coulomb (large)                             0.000000000
 Non-direct vdW (large)                              -224.046443824
 Harmonic stretch III                                   0.000000005
 UFF 2-term bend                                        0.000000000
 Energy per function class:
        Coulomb               0.000000000
    Vanderwaals               0.000000000
     Stretching               0.000000005
        Bending               0.000000000
 Energy=    5.134822677E-09 NIter=   0.
 Dipole moment=       0.000000       0.000000       0.000000
 Leave Link  402 at Sun Dec 10 04:21:46 2023, MaxMem= 24159191040 cpu:         0.3
 (Enter /usr/local/g09/l716.exe)
 Dipole        = 0.00000000D+00 0.00000000D+00 0.00000000D+00
 ***** Axes restored to original set *****
 -------------------------------------------------------------------
 Center     Atomic                   Forces (Hartrees/Bohr)
 Number     Number              X              Y              Z
 -------------------------------------------------------------------
      1        1          -0.000002263    0.000003979    0.000000193
      2        6          -0.000076797    0.000014655    0.000007121
      3        1          -0.000003556   -0.000002869    0.000000346
      4        8           0.000082616   -0.000015766   -0.000007660
 -------------------------------------------------------------------
 Cartesian Forces:  Max     0.000082616 RMS     0.000033339
 Leave Link  716 at Sun Dec 10 04:21:46 2023, MaxMem= 24159191040 cpu:         0.2
 (Enter /usr/local/g09/l103.exe)

 GradGradGradGradGradGradGradGradGradGradGradGradGradGradGradGradGradGrad
 Berny optimization.
 Search for a local minimum.
 Step number   1 out of a maximum of    2
 All quantities printed in internal units (Hartrees-Bohrs-Radians)
 RMS Force = .33339D-04 SwitMx=.10000D-02 MixMth= 2
 Mixed Optimization -- En-DIIS/RFO-DIIS
[...]
 No Z-matrix variables, so optimization will use Cartesian coordinates.
 Trust Radius=1.00D-01 FncErr=1.00D-07 GrdErr=1.00D-07
 Number of steps in this run=      2 maximum allowed number of steps=      2.
 GradGradGradGradGradGradGradGradGradGradGradGradGradGradGradGradGradGrad

 Leave Link  103 at Sun Dec 10 04:21:50 2023, MaxMem= 24159191040 cpu:         0.1
 (Enter /usr/local/g09/l202.exe)
                          Input orientation:                          
 ---------------------------------------------------------------------
 Center     Atomic      Atomic             Coordinates (Angstroms)
 Number     Number       Type             X           Y           Z
 ---------------------------------------------------------------------
      1          6    10061003        1.429834    0.053970    0.000219
      2          6    10061002        0.011913   -0.242620    0.373788
      3          8    10081002       -0.800080   -0.837860   -0.329154
      4          6    10061000       -0.457393    0.237306    1.743423
      5          8    10081000       -1.746313   -0.097793    1.941822
      6          8    10081002        0.255742    0.835079    2.522458
      7          1    10011000        1.591027    1.134690   -0.011695
      8          1    10011000        2.107654   -0.424201    0.711551
      9          1    10011000        1.632616   -0.342257   -0.998664
     10          1    10011000       -2.080532   -0.577532    1.146541
 ---------------------------------------------------------------------
                    Distance matrix (angstroms):
                    1          2          3          4          5
     1  C    0.000000
     2  C    1.496001   0.000000
     3  O    2.424121   1.227913   0.000000
     4  C    2.575655   1.525280   2.359871   0.000000
     5  O    3.725689   2.360310   2.569122   1.346465   0.000000
     6  O    2.889691   2.416128   3.470617   1.213586   2.283771
     7  H    1.092740   2.130536   3.115947   2.842844   4.058704
     8  H    1.092740   2.130537   3.115942   2.842854   4.058715
     9  H    1.093565   2.126083   2.571356   3.496151   4.485909
    10  H    3.746401   2.255580   1.971042   1.911756   0.987079
                    6          7          8          9         10
     6  O    0.000000
     7  H    2.880050   0.000000
     8  H    2.880061   1.794472   0.000000
     9  H    3.959824   1.776854   1.776854   0.000000
    10  H    3.057253   4.213498   4.213506   4.294733   0.000000
 Stoichiometry    C3H4O3
 Framework group  C1[X(C3H4O3)]
 Deg. of freedom    24
 Full point group                 C1      NOp   1
 Largest Abelian subgroup         C1      NOp   1
 Largest concise Abelian subgroup C1      NOp   1
                         Standard orientation:                         
 ---------------------------------------------------------------------
 Center     Atomic      Atomic             Coordinates (Angstroms)
 Number     Number       Type             X           Y           Z
 ---------------------------------------------------------------------
      1          6    10061003        1.790730   -0.692484    0.000004
      2          6    10061002        0.653760    0.279791   -0.000001
      3          8    10081002        0.762710    1.502861   -0.000005
      4          6    10061000       -0.755437   -0.303855   -0.000001
      5          8    10081000       -1.671932    0.682554    0.000005
      6          8    10081002       -0.985143   -1.495503   -0.000004
      7          1    10011000        1.745592   -1.314589    0.897237
      8          1    10011000        1.745607   -1.314583   -0.897234
      9          1    10011000        2.737080   -0.144481    0.000014
     10          1    10011000       -1.207677    1.553640    0.000006
 ---------------------------------------------------------------------
 Rotational constants (GHZ):      5.3995670      3.6728035      2.2170489
 Leave Link  202 at Sun Dec 10 04:21:50 2023, MaxMem= 24159191040 cpu:         0.0
 (Enter /usr/local/g09/l301.exe)
 Standard basis: Dummy (5D, 7F)
 There are    10 symmetry adapted cartesian basis functions of A   symmetry.
 There are    10 symmetry adapted basis functions of A   symmetry.
    10 basis functions,    10 primitive gaussians,    10 cartesian basis functions
     8 alpha electrons        8 beta electrons
       nuclear repulsion energy        28.6884649002 Hartrees.
 IExCor=    0 DFT=F Ex=HF Corr=None ExCW=0 ScaHFX=  1.000000
 ScaDFX=  1.000000  1.000000  1.000000  1.000000 ScalE2=  1.000000  1.000000
 IRadAn=      0 IRanWt=     -1 IRanGd=            0 ICorTp=0 IEmpDi=  4
 NAtoms=   10 NActive=   10 NUniq=   10 SFac= 1.00D+00 NAtFMM=   60 NAOKFM=F Big=F
 Integral buffers will be    131072 words long.
 Raffenetti 1 integral format.
 Two-electron integral symmetry is turned on.
 Leave Link  301 at Sun Dec 10 04:21:50 2023, MaxMem= 24159191040 cpu:         0.3
 (Enter /usr/local/g09/l402.exe)
 UFF calculation of energy and first derivatives.
 NRF= 0 NRA=   0 NVA=  10 HaveQM=F NVQ=       0
 Convergence limit is  0.750E-04 MaxStp= 10000 StMxLn= 3.00D-04 StpMin= 1.00D-06.
 Convergence criteria             0.00011250 0.00007500 0.00045000 0.00030000
  Step  NS  ND Rises OKQ   Scale  Max. Force  RMS Force Max. Disp.  RMS Disp.     Energy   Flag
     1   0   0   F    T  1.00D+00 0.10984508 0.04216169 0.10984508 0.04216169    0.0539044 ----
     2   0   0   F    F -1.21D-01 0.10984508 0.04216169 0.01331113 0.00510919    0.0311025 ----
     3   0   0   F    T  1.15D+00 0.07213820 0.02704058 0.12348754 0.03705250    0.0306706 ----
     4   0   0   F    F  2.68D-01 0.07213820 0.02704058 0.03308927 0.00992845    0.0160129 ----
     5   0   0   F    F -2.30D-02 0.07213820 0.02704058 0.00076236 0.00022875    0.0153944 ---+
     6   0   0   F    T  2.19D+00 0.04942132 0.01554735 0.17604892 0.04675220    0.0153941 ----
     7   0   0   F    F -4.14D-01 0.04942132 0.01554735 0.07281375 0.01933669    0.0129617 ----
     8   0   0   F    T  1.83D+00 0.02485109 0.00991844 0.09973924 0.02741551    0.0108137 ----
     9   0   0   F    F -3.43D-01 0.02485109 0.00991844 0.03418914 0.00939763    0.0095210 ----
    10   0   0   F    T  2.64D+00 0.01266002 0.00504567 0.05224376 0.01801788    0.0090474 ----
    11   0   0   F    F -2.30D-01 0.01266002 0.00504567 0.01200061 0.00413878    0.0083393 ----
    12   0   0   F    T  2.86D+00 0.00940221 0.00349136 0.04211245 0.01387910    0.0082706 ----
    13   0   0   F    F -1.50D-01 0.00940221 0.00349136 0.00633770 0.00208873    0.0078396 ----
    14   0   0   F    T  1.45D+00 0.01746366 0.00417876 0.03571417 0.01179037    0.0078256 ----
    15   0   0   F    F -2.04D-01 0.01746366 0.00417876 0.00728033 0.00240346    0.0075426 ----
    16   0   0   F    T  2.38D+00 0.00752051 0.00255165 0.02451725 0.00938690    0.0075227 ----
    17   0   0   F    F -4.49D-01 0.00752051 0.00255165 0.01101224 0.00421625    0.0074797 ----
    18   0   0   F    T  1.50D+00 0.00658728 0.00211484 0.01509125 0.00517066    0.0073949 ----
    19   0   0   F    F  2.13D-02 0.00658728 0.00211484 0.00032161 0.00011019    0.0072921 --++
    20   0   0   F    T  2.38D+00 0.00401996 0.00146816 0.01572192 0.00528085    0.0072920 ----
    21   0   0   F    F -3.62D-01 0.00401996 0.00146816 0.00569131 0.00191166    0.0072588 ----
    22   0   0   F    T  5.02D+00 0.00145773 0.00057544 0.00835826 0.00336919    0.0072430 ----
    23   0   0   T    F  3.04D-01 0.00145773 0.00057544 0.00253888 0.00102341    0.0072753 ----
    24   0   0   F    T  1.21D+00 0.00215192 0.00056037 0.00217499 0.00102341    0.0072355 ----
    25   0   0   F    T  1.87D+00 0.00104915 0.00038810 0.00343588 0.00102341    0.0072295 ----
    26   0   0   F    F -1.68D-01 0.00104915 0.00038810 0.00057779 0.00017210    0.0072260 ---+
    27   0   0   F    T  2.12D+00 0.00079747 0.00026964 0.00287420 0.00085131    0.0072259 ----
    28   0   0   F    F -3.59D-01 0.00079747 0.00026964 0.00103189 0.00030564    0.0072249 ----
    29   0   0   F    T  1.37D+00 0.00057713 0.00024247 0.00143003 0.00054568    0.0072244 ----
    30   0   0   F    F  8.06D-01 0.00057713 0.00024247 0.00115219 0.00043966    0.0072227 ----
    31   0   0   F    T  4.60D+00 0.00052096 0.00015009 0.00251155 0.00098534    0.0072222 ----
    32   0   0   T    F  3.06D-01 0.00052096 0.00015009 0.00076917 0.00030176    0.0072242 ----
    33   0   0   F    T  1.79D+00 0.00033232 0.00011446 0.00078759 0.00030176    0.0072218 ----
    34   0   0   F    T  1.00D+00 0.00039856 0.00016163 0.00109472 0.00039545    0.0072215 ----
    35   0   0   F    F  1.01D+00 0.00039856 0.00016163 0.00111097 0.00040132    0.0072211 ----
    36   0   0   F    T  2.42D+00 0.00063424 0.00021156 0.00187790 0.00079677    0.0072209 ----
    37   0   0   T    F  3.14D-01 0.00063424 0.00021156 0.00059029 0.00025045    0.0072229 ---+
    38   0   0   F    T  2.26D+00 0.00025912 0.00008861 0.00079013 0.00025045    0.0072204 ---+
    39   0   0   F    F -4.84D-01 0.00025912 0.00008861 0.00038247 0.00012124    0.0072204 --++
    40   0   0   F    T  1.25D+00 0.00021333 0.00007240 0.00038305 0.00012922    0.0072203 -+++
    41   0   0   F    T  2.32D+00 0.00010698 0.00004592 0.00028261 0.00012922    0.0072202 ====
 Energy per function type:
 Direct Coulomb + vdW (small)                           0.005324244
 Direct Coulomb (large)                                 0.000000000
 Direct vdW (large)                                   442.825767288
 Non-direct Coulomb + vdW (small)                       0.000000000
 Non-direct Coulomb (large)                             0.000000000
 Non-direct vdW (large)                              -442.825767288
 Harmonic stretch III                                   0.000561540
 UFF 3-term bend                                        0.000756814
 UFF 2-term bend                                        0.000577588
 UFF torsion fixed V                                    0.000000001
 UFF torsion w/ bond order V                            0.000000000
 Three term Wilson angle                                0.000000000
 Energy per function class:
        Coulomb               0.000000000
    Vanderwaals               0.005324244
     Stretching               0.000561540
        Bending               0.001334401
        Torsion               0.000000001
   Out-of-plane               0.000000000
 Energy=    7.220186139E-03 NIter=   0.
 Dipole moment=       0.000000       0.000000       0.000000
 Leave Link  402 at Sun Dec 10 04:21:50 2023, MaxMem= 24159191040 cpu:         0.4
 (Enter /usr/local/g09/l716.exe)
 Dipole        = 0.00000000D+00 0.00000000D+00 0.00000000D+00
 ***** Axes restored to original set *****
 -------------------------------------------------------------------
 Center     Atomic                   Forces (Hartrees/Bohr)
 Number     Number              X              Y              Z
 -------------------------------------------------------------------
      1        6          -0.000008670    0.000021892    0.000053382
      2        6           0.000079167    0.000023241   -0.000006510
      3        8          -0.000053551   -0.000056008   -0.000082616
      4        6           0.000073776   -0.000009885   -0.000073990
      5        8          -0.000018686    0.000047241    0.000115227
      6        8          -0.000022091   -0.000032225   -0.000053657
      7        1           0.000004385   -0.000011097   -0.000001541
      8        1          -0.000001559    0.000006817   -0.000009770
      9        1          -0.000039004    0.000022688    0.000076887
     10        1          -0.000013768   -0.000012665   -0.000017412
 -------------------------------------------------------------------
 Cartesian Forces:  Max     0.000115227 RMS     0.000045918
 Leave Link  716 at Sun Dec 10 04:21:50 2023, MaxMem= 24159191040 cpu:         0.3
 (Enter /usr/local/g09/l103.exe)

 GradGradGradGradGradGradGradGradGradGradGradGradGradGradGradGradGradGrad
 Berny optimization.
 Search for a local minimum.
 Step number   1 out of a maximum of    2
 All quantities printed in internal units (Hartrees-Bohrs-Radians)
 RMS Force = .45918D-04 SwitMx=.10000D-02 MixMth= 2
 Mixed Optimization -- En-DIIS/RFO-DIIS
 Second derivative matrix not updated -- unit matrix used.
 ITU=  0
 RFO step:  Lambda=-6.32528296D-08 EMin= 1.00000000D+00
 Linear search not attempted -- first point.
 Variable       Old X    -DE/DX   Delta X   Delta X   Delta X     New X
                                 (Linear)    (Quad)   (Total)
    X1        2.75690  -0.00001   0.00000  -0.00001  -0.00001   2.75689
    Y1        0.10936   0.00002   0.00000   0.00002   0.00002   0.10938
    Z1       -0.02292   0.00005   0.00000   0.00005   0.00005  -0.02286
    X2        0.06775   0.00008   0.00000   0.00008   0.00008   0.06783
    Y2       -0.45536   0.00002   0.00000   0.00002   0.00002  -0.45533
    Z2        0.68078  -0.00001   0.00000  -0.00001  -0.00001   0.68078
    X3       -1.27171  -0.00005   0.00000  -0.00005  -0.00005  -1.27177
    Y3       -1.59382  -0.00006   0.00000  -0.00006  -0.00006  -1.59387
    Z3       -0.81621  -0.00008   0.00000  -0.00008  -0.00008  -0.81629
    X4       -0.95682   0.00007   0.00000   0.00007   0.00007  -0.95674
    Y4        0.35753  -0.00001   0.00000  -0.00001  -0.00001   0.35752
    Z4        3.16469  -0.00007   0.00000  -0.00007  -0.00007   3.16461
    X5       -3.31399  -0.00002   0.00000  -0.00002  -0.00002  -3.31401
    Y5       -0.10841   0.00005   0.00000   0.00005   0.00005  -0.10836
    Z5        3.84413   0.00012   0.00000   0.00012   0.00012   3.84425
    X6        0.40928  -0.00002   0.00000  -0.00002  -0.00002   0.40926
    Y6        1.49064  -0.00003   0.00000  -0.00003  -0.00003   1.49060
    Z6        4.63116  -0.00005   0.00000  -0.00005  -0.00005   4.63110
    X7        3.06804   0.00000   0.00000   0.00000   0.00000   3.06805
    Y7        2.18412  -0.00001   0.00000  -0.00001  -0.00001   2.18411
    Z7       -0.01843   0.00000   0.00000   0.00000   0.00000  -0.01844
    X8        4.05323   0.00000   0.00000   0.00000   0.00000   4.05323
    Y8       -0.78863   0.00001   0.00000   0.00001   0.00001  -0.78862
    Z8        1.36078  -0.00001   0.00000  -0.00001  -0.00001   1.36077
    X9        3.19632  -0.00004   0.00000  -0.00004  -0.00004   3.19629
    Y9       -0.63326   0.00002   0.00000   0.00002   0.00002  -0.63324
    Z9       -1.93744   0.00008   0.00000   0.00008   0.00008  -1.93737
   X10       -4.33450  -0.00001   0.00000  -0.00001  -0.00001  -4.33452
   Y10       -1.05581  -0.00001   0.00000  -0.00001  -0.00001  -1.05583
   Z10        2.53107  -0.00002   0.00000  -0.00002  -0.00002   2.53105
         Item               Value     Threshold  Converged?
 Maximum Force            0.000115     0.000450     YES
 RMS     Force            0.000046     0.000300     YES
 Maximum Displacement     0.000115     0.001800     YES
 RMS     Displacement     0.000046     0.001200     YES
 Predicted change in Energy=-3.162641D-08
 Optimization completed.
    -- Stationary point found.
 GradGradGradGradGradGradGradGradGradGradGradGradGradGradGradGradGradGrad

 Largest change from initial coordinates is atom   10       0.288 Angstoms.
 Leave Link  103 at Sun Dec 10 04:21:50 2023, MaxMem= 24159191040 cpu:         0.1
 (Enter /usr/local/g09/l202.exe)
                          Input orientation:                          
 ---------------------------------------------------------------------
 Center     Atomic      Atomic             Coordinates (Angstroms)
 Number     Number       Type             X           Y           Z
 ---------------------------------------------------------------------
      1          6    10061003        1.458889    0.057872   -0.012126
      2          6    10061002        0.035854   -0.240965    0.360255
      3          8    10081002       -0.672962   -0.843411   -0.431919
      4          6    10061000       -0.506325    0.189196    1.674681
      5          8    10081000       -1.753690   -0.057368    2.034227
      6          8    10081002        0.216584    0.788810    2.450704
      7          1    10011000        1.623539    1.155788   -0.009755
      8          1    10011000        2.144879   -0.417323    0.720092
      9          1    10011000        1.691422   -0.335106   -1.025252
     10          1    10011000       -2.293721   -0.558712    1.339382
 ---------------------------------------------------------------------
                    Distance matrix (angstroms):
                    1          2          3          4          5
     1  C    0.000000
     2  C    1.501000   0.000000
     3  O    2.352303   1.221843   0.000000
     4  C    2.593190   1.485501   2.351979   0.000000
     5  O    3.810709   2.457307   2.804944   1.321357   0.000000
     6  O    2.853616   2.337322   3.430007   1.218338   2.184365
     7  H    1.110196   2.146758   3.073913   2.882351   4.129804
     8  H    1.110196   2.146758   3.073908   2.882358   4.129813
     9  H    1.111272   2.160879   2.490127   3.520600   4.615880
    10  H    4.035942   2.546874   2.417730   1.966360   1.012812
                    6          7          8          9         10
     6  O    0.000000
     7  H    2.857980   0.000000
     8  H    2.857988   1.810843   0.000000
     9  H    3.939619   1.805161   1.805161   0.000000
    10  H    3.058183   4.483816   4.483823   4.639273   0.000000
 Stoichiometry    C3H4O3
 Framework group  C1[X(C3H4O3)]
 Deg. of freedom    24
 Full point group                 C1      NOp   1
 RotChk:  IX=0 Diff= 2.36D-02
 Largest Abelian subgroup         C1      NOp   1
 Largest concise Abelian subgroup C1      NOp   1
                         Standard orientation:                         
 ---------------------------------------------------------------------
 Center     Atomic      Atomic             Coordinates (Angstroms)
 Number     Number       Type             X           Y           Z
 ---------------------------------------------------------------------
      1          6    10061003        1.803278   -0.684450    0.000004
      2          6    10061002        0.648173    0.274055   -0.000001
      3          8    10081002        0.871302    1.475352   -0.000004
      4          6    10061000       -0.749587   -0.228915   -0.000001
      5          8    10081000       -1.789160    0.586728    0.000004
      6          8    10081002       -0.951096   -1.430472   -0.000004
      7          1    10011000        1.757628   -1.325284    0.905423
      8          1    10011000        1.757640   -1.325279   -0.905420
      9          1    10011000        2.769786   -0.136010    0.000011
     10          1    10011000       -1.544592    1.569568    0.000008
 ---------------------------------------------------------------------
 Rotational constants (GHZ):      5.8126185      3.4304976      2.1881688
 Leave Link  202 at Sun Dec 10 04:21:50 2023, MaxMem= 24159191040 cpu:         0.0
 (Enter /usr/local/g09/l9999.exe)

 Test job not archived.
 1\1\GINC-N131\FOpt\RUFF\ZDO\C3H4O3\JINTAOWU\10-Dec-2023\0\\#P opt gues
 s=mix uff IOp(2/9=2000)\\Pyruvic_acid\\0,1\C,1.4588892135,0.0578717487
 ,-0.0121263146\C,0.0358535039,-0.2409646675,0.3602548575\O,-0.67296248
 76,-0.8434105941,-0.431918957\C,-0.5063252613,0.1891955239,1.674681175
 3\O,-1.7536898735,-0.0573676602,2.0342268868\O,0.2165839604,0.78881038
 19,2.4507035791\H,1.623539286,1.1557882096,-0.0097547434\H,2.144878527
 6,-0.4173230529,0.720092466\H,1.6914222139,-0.3351058911,-1.0252515311
 \H,-2.2937205029,-0.5587123183,1.3393819614\\Version=EM64L-G09RevD.01\
 HF=0.0072202\RMSD=0.000e+00\RMSF=4.592e-05\Dipole=0.,0.,0.\PG=C01 [X(C
 3H4O3)]\\@


 THE MORE ACCURATE THE CALCULATIONS BECOME, THE MORE THE CONCEPTS
 TEND TO VANISH INTO THIN AIR.
     -- R.S. MULLIKEN, J.C.P. 43,S2(1965)
 Job cpu time:       0 days  0 hours  0 minutes  6.5 seconds.
 File lengths (MBytes):  RWF=      5 Int=      0 D2E=      0 Chk=      1 Scr=      1
 Normal termination of Gaussian 09 at Sun Dec 10 04:21:50 2023.
