
Running Job 1 of 1 input.in
qchem input.in_30319.0 /scratch/alongd/a11169/qlscratch/qchem30319/ 1
/opt/qchem/bin/mpi/mpirun_qchem -machinefile /tmp/584389.1.long3/hostfile -np 1 /opt/qchem/exe/qcprog.exe input.in_30319.0 /scratch/alongd/a11169/qlscratch/qchem30319/

Process 0 of 1 is on node69.cluster - thread support 0
initial socket setup ...start
initial socket setup ...done 
now start server 0 ... 

cmd = /usr/bin/ssh node96 /opt/qchem/bin/get_hostid 926691104 > /scratch/alongd/a11169/qlscratch/qchem30319/lic.dat
                  Welcome to Q-Chem
     A Quantum Leap Into The Future Of Chemistry


 Q-Chem 4.4, Q-Chem, Inc., Pleasanton, CA (2016)

 Y. Shao,  Z. Gan,  E. Epifanovsky,  A. T. B. Gilbert,  M. Wormit,  
 J. Kussmann,  A. W. Lange,  A. Behn,  J. Deng,  X. Feng,  D. Ghosh,  
 M. Goldey,  P. R. Horn,  L. D. Jacobson,  I. Kaliman,  R. Z. Khaliullin,  
 T. Kus,  A. Landau,  J. Liu,  E. I. Proynov,  Y. M. Rhee,  R. M. Richard,  
 M. A. Rohrdanz,  R. P. Steele,  E. J. Sundstrom,  H. L. Woodcock III,  
 P. M. Zimmerman,  D. Zuev,  B. Albrecht,  E. Alguire,  B. Austin,  
 S. A. Baeppler,  G. J. O. Beran,  Y. A. Bernard,  E. Berquist,  
 K. Brandhorst,  K. B. Bravaya,  S. T. Brown,  D. Casanova,  C.-M. Chang,  
 Y. Chen,  S. H. Chien,  K. D. Closser,  M. P. Coons,  D. L. Crittenden,  
 S. Dasgupta,  M. Diedenhofen,  R. A. DiStasio Jr.,  H. Do,  A. D. Dutoi,  
 R. G. Edgar,  P.-T. Fang,  S. Fatehi,  Q. Feng,  L. Fusti-Molnar,  
 A. Ghysels,  A. Golubeva-Zadorozhnaya,  J. Gomes,  A. Gunina,  
 M. W. D. Hanson-Heine,  P. H. P. Harbach,  A. W. Hauser,  E. G. Hohenstein,  
 Z. C. Holden,  K. Hui,  T.-C. Jagau,  H. Ji,  B. Kaduk,  K. Khistyaev,  
 Jaehoon Kim,  Jihan Kim,  R. A. King,  P. Klunzinger,  D. Kosenkov,  
 T. Kowalczyk,  C. M. Krauter,  A. Kunitsa,  K. U. Lao,  A. Laurent,  
 K. V. Lawler,  D. Lefrancois,  S. Lehtola,  S. V. Levchenko,  C. Y. Lin,  
 Y.-S. Lin,  F. Liu,  E. Livshits,  R. C. Lochan,  A. Luenser,  P. Manohar,  
 S. F. Manzer,  S.-P. Mao,  Y. Mao,  N. Mardirossian,  A. V. Marenich,  
 L. A. Martinez-Martinez,  S. A. Maurer,  N. J. Mayhall,  J.-M. Mewes,  
 A. F. Morrison,  K. Nanda,  C. M. Oana,  R. Olivares-Amaya,  D. P. O'Neill,  
 J. A. Parkhill,  T. M. Perrine,  R. Peverati,  P. A. Pieniazek,  F. Plasser,  
 A. Prociuk,  D. R. Rehn,  E. Rosta,  N. J. Russ,  N. Sergueev,  
 S. M. Sharada,  S. Sharma,  D. W. Small,  A. Sodt,  T. Stauch,  T. Stein,  
 D. Stuck,  Y.-C. Su,  A. J. W. Thom,  T. Tsuchimochi,  L. Vogt,  O. Vydrov,  
 T. Wang,  M. A. Watson,  J. Wenzel,  A. White,  C. F. Williams,  
 V. Vanovschi,  S. Yeganeh,  S. R. Yost,  Z.-Q. You,  I. Y. Zhang,  X. Zhang,  
 Y. Zhao,  B. R. Brooks,  G. K. L. Chan,  D. M. Chipman,  C. J. Cramer,  
 W. A. Goddard III,  M. S. Gordon,  W. J. Hehre,  A. Klamt,  
 H. F. Schaefer III,  M. W. Schmidt,  C. D. Sherrill,  D. G. Truhlar,  
 A. Warshel,  X. Xu,  A. Aspuru-Guzik,  R. Baer,  A. T. Bell,  N. A. Besley,  
 J.-D. Chai,  A. Dreuw,  B. D. Dunietz,  T. R. Furlani,  S. R. Gwaltney,  
 C.-P. Hsu,  Y. Jung,  J. Kong,  D. S. Lambrecht,  W. Liang,  C. Ochsenfeld,  
 V. A. Rassolov,  L. V. Slipchenko,  J. E. Subotnik,  T. Van Voorhis,  
 J. M. Herbert,  A. I. Krylov,  P. M. W. Gill,  M. Head-Gordon

 Contributors to earlier versions of Q-Chem not listed above: 
 R. D. Adamson,  J. Baker,  E. F. C. Byrd,  A. K. Chakraborty,  C.-L. Cheng,  
 H. Dachsel,  R. J. Doerksen,  G. Hawkins,  A. Heyden,  S. Hirata,  
 G. Kedziora,  F. J. Keil,  C. Kelley,  P. P. Korambath,  W. Kurlancheek,  
 A. M. Lee,  M. S. Lee,  D. Liotard,  I. Lotan,  P. E. Maslen,  N. Nair,  
 D. Neuhauser,  R. Olson,  B. Peters,  J. Ritchie,  N. E. Schultz,  
 N. Shenvi,  A. C. Simmonett,  K. S. Thanthiriwatte,  Q. Wu,  W. Zhang

 Please cite Q-Chem as follows:
 Y. Shao et al., Mol. Phys. 113, 184-215 (2015)
 DOI: 10.1080/00268976.2014.952696

 Q-Chem 4.4.0 for Intel X86 Linux

 Parts of Q-Chem use Armadillo 5.200.1 (Boston Tea Smuggler).
 http://arma.sourceforge.net/

 Q-Chem begins on Tue Apr 23 11:00:25 2019  

Host: 
0

     Scratch files written to /scratch/alongd/a11169/qlscratch/qchem30319//
 Apr2716 1281_ 20995  20993 4150   
 Parallel job on  1  processors
Processing $rem in /opt/qchem/config/preferences.
 MEM_TOTAL  2000 

Checking the input file for inconsistencies... 	...done.

--------------------------------------------------------------
User input:
--------------------------------------------------------------
$molecule
0 1
N       0.70463401   -0.08446824   -0.03650418
N      -0.70463401    0.08446824   -0.03650418
H       1.13316987    0.79251582   -0.29922721
H       1.06859957   -0.36850038    0.86656756
H      -1.06859957    0.36850038    0.86656756
H      -1.13316987   -0.79251582   -0.29922721

$end

$rem
JOBTYPE       opt
METHOD        wb97x-d3
UNRESTRICTED  False
BASIS         6-311+g(d,p)
GEOM_OPT_TOL_GRADIENT 15
GEOM_OPT_TOL_DISPLACEMENT 60
GEOM_OPT_TOL_ENERGY 5
XC_GRID 3
$end

--------------------------------------------------------------
 ----------------------------------------------------------------
             Standard Nuclear Orientation (Angstroms)
    I     Atom           X                Y                Z
 ----------------------------------------------------------------
    1      N       0.7030751440    -0.0965883717    -0.0711498567
    2      N      -0.7030751440     0.0965883717    -0.0711498567
    3      H       1.1466477167     0.7728869859    -0.3338728867
    4      H       1.0620961747    -0.3868453009     0.8319218833
    5      H      -1.0620961747     0.3868453009     0.8319218833
    6      H      -1.1466477167    -0.7728869859    -0.3338728867
 ----------------------------------------------------------------
 Molecular Point Group                 C2    NOp =  2
 Largest Abelian Subgroup              C2    NOp =  2
 Nuclear Repulsion Energy =    41.7476531447 hartrees
 There are        9 alpha and        9 beta electrons
 Requested basis set is 6-311+G(d,p)
 There are 28 shells and 68 basis functions

 Total QAlloc Memory Limit   2000 MB
 Mega-Array Size        61 MB
 MEM_STATIC part        62 MB
 A cutoff of  1.0D-11 yielded    406 shell pairs
 There are      2426 function pairs (      2575 Cartesian)
 
 -------------------------------------------------------
 OpenMP Integral Computing Module                       
 Release: version 1.0, May 2013, Q-Chem Inc. Pittsburgh 
 -------------------------------------------------------
 Integral Job Info:
 Integral job number is                      11
 Integral operator is                         1
 short-range coefficients              19572800
 long-range coefficients              100000000
 Omega coefficients                         250
 if combine SR and LR in K                    1
 Integral screening is                        0
 Integral computing path is                   2
 max size of driver memory is            800000
 size of driver memory is                593474
 size of scratch memory is              2260544
 max col of scratch BK array               1296
 max len of scratch array in speh3          155
 max len of scratch index in speh4           18
 max int batch size is                      520
 min int batch size is                       52
 fixed nKL is                                52
 max L of basis functions is                  2
 order of int derivative is                   0
 number of shells is                         28
 number of basis is                          70
 number of cartesian basis is                70
 number of contracted shell pairs           406
 number of primitive shell pairs           1151
 maxK2 (contraction) of shell pair           36
 max number of K2 of shell pair               1
 max number of CS2 of shell pair             48
 max number of PS2 of shell pair            120
 mem total for path MDJ                   10660
 -------------------------------------------------------
 Smallest overlap matrix eigenvalue = 4.22E-04

 Scale SEOQF with 1.000000e-01/1.000000e-01/1.000000e-01

 Standard Electronic Orientation quadrupole field applied
 Nucleus-field energy     =     0.0000000004 hartrees
 Guess from superposition of atomic densities
 Warning:  Energy on first SCF cycle will be non-variational
 Long-range K will be added via erf
 Coulomb attenuation parameter = 0.25 bohr**(-1)
 A restricted hybrid HF-DFT SCF calculation will be
 performed using Pulay DIIS extrapolation
 Exchange:     0.1957 Hartree-Fock + 1.0000 wB97X-D3 + LR-HF
 Correlation:  1.0000 wB97X-D3
 Using SG-3 standard quadrature grid
 Dispersion:   Grimme D3
 SCF converges when DIIS error is below 1.0E-08
 using 6 threads for integral computing 
 using 6 threads for integral computing 
 K construction time:  CPU 0.79 s  wall 0.14 s
 -------------------------------------------------------
 OpenMP BLAS3 based DFT computing Module                
 Release: version 1.0, May 2013, Q-Chem Inc. Pittsburgh 
 -------------------------------------------------------
 ---------------------------------------
  Cycle       Energy         DIIS Error
 ---------------------------------------
    1    -112.0909362139      7.24E-02
 K construction time:  CPU 0.71 s  wall 0.12 s
    2    -111.8325172359      8.24E-03
 K construction time:  CPU 0.58 s  wall 0.15 s
    3    -111.8504777309      6.75E-03
 K construction time:  CPU 0.83 s  wall 0.14 s
    4    -111.8706816637      6.62E-04
 K construction time:  CPU 0.66 s  wall 0.14 s
    5    -111.8709263243      1.65E-04
 K construction time:  CPU 0.27 s  wall 0.15 s
    6    -111.8709556121      2.71E-05
 K construction time:  CPU 0.72 s  wall 0.13 s
    7    -111.8709571695      6.92E-06
 K construction time:  CPU 0.41 s  wall 0.16 s
    8    -111.8709573000      1.59E-06
 K construction time:  CPU 0.85 s  wall 0.15 s
    9    -111.8709573073      3.76E-07
 K construction time:  CPU 0.38 s  wall 0.13 s
   10    -111.8709573076      1.04E-07
 K construction time:  CPU 0.71 s  wall 0.12 s
   11    -111.8709573076      2.32E-08
 K construction time:  CPU 0.44 s  wall 0.15 s
   12    -111.8709573076      3.50E-09 Convergence criterion met
 ---------------------------------------
 SCF time:  CPU 29.54 s  wall 5.97 s
 SCF   energy in the final basis set = -111.8709573076
 Total energy in the final basis set = -111.8709573076
 
 --------------------------------------------------------------
             Orbital Energies (a.u.) and Symmetries
 --------------------------------------------------------------
 
 Alpha MOs, Restricted
 -- Occupied --                  
-14.426 -14.425  -1.071  -0.864  -0.610  -0.596  -0.559  -0.354
  1 A     1 B     2 A     2 B     3 A     3 B     4 A     4 B                  
 -0.348
  5 A                                                                          
 -- Virtual --                   
  0.095   0.112   0.151   0.165   0.199   0.199   0.207   0.233
  6 A     5 B     6 B     7 A     8 A     7 B     9 A    10 A                  
  0.251   0.297   0.301   0.313   0.334   0.588   0.626   0.660
  8 B     9 B    10 B    11 A    11 B    12 A    12 B    13 A                  
  0.691   0.808   0.832   0.847   0.856   0.867   0.874   1.049
 13 B    14 A    14 B    15 B    15 A    16 B    16 A    17 A                  
  1.219   1.247   1.268   1.565   1.585   1.686   1.714   1.845
 17 B    18 A    18 B    19 B    19 A    20 A    20 B    21 A                  
  1.870   1.923   1.975   2.070   2.139   2.318   2.419   2.518
 21 B    22 A    22 B    23 A    23 B    24 A    24 B    25 A                  
  2.544   2.624   2.735   2.802   2.841   2.913   2.977   3.010
 26 A    25 B    26 B    27 B    27 A    28 A    28 B    29 A                  
  3.109   3.164   3.265   3.898   4.149   4.273   4.818   4.871
 29 B    30 A    30 B    31 A    31 B    32 A    33 A    32 B                  
  5.306  35.636  35.647
 33 B    34 B    34 A                                                          
 
 Beta MOs, Restricted
 -- Occupied --                  
-14.426 -14.425  -1.071  -0.864  -0.610  -0.596  -0.559  -0.354
  1 A     1 B     2 A     2 B     3 A     3 B     4 A     4 B                  
 -0.348
  5 A                                                                          
 -- Virtual --                   
  0.095   0.112   0.151   0.165   0.199   0.199   0.207   0.233
  6 A     5 B     6 B     7 A     8 A     7 B     9 A    10 A                  
  0.251   0.297   0.301   0.313   0.334   0.588   0.626   0.660
  8 B     9 B    10 B    11 A    11 B    12 A    12 B    13 A                  
  0.691   0.808   0.832   0.847   0.856   0.867   0.874   1.049
 13 B    14 A    14 B    15 B    15 A    16 B    16 A    17 A                  
  1.219   1.247   1.268   1.565   1.585   1.686   1.714   1.845
 17 B    18 A    18 B    19 B    19 A    20 A    20 B    21 A                  
  1.870   1.923   1.975   2.070   2.139   2.318   2.419   2.518
 21 B    22 A    22 B    23 A    23 B    24 A    24 B    25 A                  
  2.544   2.624   2.735   2.802   2.841   2.913   2.977   3.010
 26 A    25 B    26 B    27 B    27 A    28 A    28 B    29 A                  
  3.109   3.164   3.265   3.898   4.149   4.273   4.818   4.871
 29 B    30 A    30 B    31 A    31 B    32 A    33 A    32 B                  
  5.306  35.636  35.647
 33 B    34 B    34 A                                                          
 --------------------------------------------------------------
 
          Ground-State Mulliken Net Atomic Charges

     Atom                 Charge (a.u.)
  ----------------------------------------
      1 N                    -0.497355
      2 N                    -0.497355
      3 H                     0.263699
      4 H                     0.233655
      5 H                     0.233655
      6 H                     0.263699
  ----------------------------------------
  Sum of atomic charges =     0.000000

 -----------------------------------------------------------------
                    Cartesian Multipole Moments
 -----------------------------------------------------------------
    Charge (ESU x 10^10)
                 0.0000
    Dipole Moment (Debye)
         X       0.0000      Y       0.0000      Z       2.0726
       Tot       2.0726
    Quadrupole Moments (Debye-Ang)
        XX     -12.2991     XY       2.7247     YY     -13.4554
        XZ       0.0000     YZ       0.0000     ZZ     -13.2509
    Octopole Moments (Debye-Ang^2)
       XXX       0.0000    XXY       0.0000    XYY       0.0000
       YYY       0.0000    XXZ       2.8343    XYZ      -3.1440
       YYZ       0.4975    XZZ       0.0000    YZZ       0.0000
       ZZZ       3.1913
    Hexadecapole Moments (Debye-Ang^3)
      XXXX     -61.8476   XXXY       5.3832   XXYY     -13.5563
      XYYY       4.2098   YYYY     -20.3666   XXXZ       0.0000
      XXYZ       0.0000   XYYZ       0.0000   YYYZ       0.0000
      XXZZ     -13.7117   XYZZ       0.4096   YYZZ      -6.7196
      XZZZ       0.0000   YZZZ       0.0000   ZZZZ     -19.9460
 -----------------------------------------------------------------
 Calculating analytic gradient of the SCF energy
 K construction time:  CPU 2.00 s  wall 0.45 s
 Gradient of SCF Energy
            1           2           3           4           5           6
    1  -0.0000870   0.0000870   0.0000019   0.0000020  -0.0000018  -0.0000020
    2  -0.0000556   0.0000556  -0.0000143   0.0000467  -0.0000465   0.0000141
    3  -0.0001275  -0.0001275   0.0001023   0.0000247   0.0000253   0.0001026
 Max gradient component =       1.275E-04
 RMS gradient           =       6.701E-05
 Gradient time:  CPU 6.77 s  wall 1.84 s
 Geometry Optimization Parameters
   NAtoms,    NIC,     NZ,  NCons,   NDum,   NFix, NCnnct, MaxDiis
        6      27       0       0       0       0       0       0


** GEOMETRY OPTIMIZATION IN DELOCALIZED INTERNAL COORDINATES **
   Searching for a Minimum

   Optimization Cycle:   1

                       Coordinates (Angstroms)
     ATOM                X               Y               Z
      1  N         0.7030751440   -0.0965883717   -0.0711498567
      2  N        -0.7030751440    0.0965883717   -0.0711498567
      3  H         1.1466477167    0.7728869859   -0.3338728867
      4  H         1.0620961747   -0.3868453009    0.8319218833
      5  H        -1.0620961747    0.3868453009    0.8319218833
      6  H        -1.1466477167   -0.7728869859   -0.3338728867
   Point Group: c2    Number of degrees of freedom:     7


   Energy is   -111.870957308


 Attempting to Generate Delocalized Internal Coordinates

  7 Hessian modes will be used to form the next step
  Hessian Eigenvalues:
     0.006546    0.050661    0.160000    0.160000    0.425573    0.452698
     0.458347

 Minimum Search - Taking Simple RFO Step
 Searching for Lamda that Minimizes Along All modes
 Value Taken    Lamda =   0.00000000
 Step Taken.  Stepsize is  0.006570

                             Maximum     Tolerance    Cnvgd?
         Gradient           0.000107      0.000015      NO
         Displacement       0.004465      0.000060      NO
         Energy change     *********      0.000000      NO


 New Cartesian Coordinates Obtained by Inverse Iteration

 Displacement from previous Coordinates is:  0.005507
 ----------------------------------------------------------------
             Standard Nuclear Orientation (Angstroms)
    I     Atom           X                Y                Z
 ----------------------------------------------------------------
    1      N       0.7031367832    -0.0965142351    -0.0703895931
    2      N      -0.7031367832     0.0965142351    -0.0703895931
    3      H       1.1468963906     0.7722552497    -0.3352799799
    4      H       1.0627993162    -0.3862930985     0.8325687130
    5      H      -1.0627993162     0.3862930985     0.8325687130
    6      H      -1.1468963906    -0.7722552497    -0.3352799799
 ----------------------------------------------------------------
 Molecular Point Group                 C2    NOp =  2
 Largest Abelian Subgroup              C2    NOp =  2
 Nuclear Repulsion Energy =    41.7439663727 hartrees
 There are        9 alpha and        9 beta electrons
 Applying Cartesian multipole field
    Component          Value
    ---------          -----
     (2,0,0)        1.00000E-11
     (0,2,0)        2.00000E-11
     (0,0,2)       -3.00000E-11
 Nucleus-field energy     =     0.0000000004 hartrees
 Requested basis set is 6-311+G(d,p)
 There are 28 shells and 68 basis functions
 A cutoff of  1.0D-11 yielded    406 shell pairs
 There are      2426 function pairs (      2575 Cartesian)
 Smallest overlap matrix eigenvalue = 4.23E-04
 Guess MOs from SCF MO coefficient file
 Reading MOs from coefficient file
 Reading MOs from coefficient file
 Long-range K will be added via erf
 Coulomb attenuation parameter = 0.25 bohr**(-1)
 A restricted hybrid HF-DFT SCF calculation will be
 performed using Pulay DIIS extrapolation
 Exchange:     0.1957 Hartree-Fock + 1.0000 wB97X-D3 + LR-HF
 Correlation:  1.0000 wB97X-D3
 Using SG-3 standard quadrature grid
 Dispersion:   Grimme D3
 SCF converges when DIIS error is below 1.0E-08
 Geometry optimization detected.  Setting ReadMinima to 0
 Setting SaveMinima to 0
 using 6 threads for integral computing 
 using 6 threads for integral computing 
 K construction time:  CPU 0.81 s  wall 0.14 s
 -------------------------------------------------------
 OpenMP BLAS3 based DFT computing Module                
 Release: version 1.0, May 2013, Q-Chem Inc. Pittsburgh 
 -------------------------------------------------------
 ---------------------------------------
  Cycle       Energy         DIIS Error
 ---------------------------------------
    1    -111.8711593245      4.13E-05
 K construction time:  CPU 0.64 s  wall 0.15 s
    2    -111.8709575826      9.59E-06
 K construction time:  CPU 0.94 s  wall 0.16 s
    3    -111.8709576431      5.75E-06
 K construction time:  CPU 0.35 s  wall 0.14 s
    4    -111.8709576591      1.39E-06
 K construction time:  CPU 0.83 s  wall 0.14 s
    5    -111.8709576606      3.44E-07
 K construction time:  CPU 0.55 s  wall 0.15 s
    6    -111.8709576607      6.00E-08
 K construction time:  CPU 1.17 s  wall 0.21 s
    7    -111.8709576608      1.34E-08
 K construction time:  CPU 0.48 s  wall 0.18 s
    8    -111.8709576608      3.14E-09 Convergence criterion met
 ---------------------------------------
 SCF time:  CPU 21.39 s  wall 4.02 s
 SCF   energy in the final basis set = -111.8709576608
 Total energy in the final basis set = -111.8709576608
 
 --------------------------------------------------------------
             Orbital Energies (a.u.) and Symmetries
 --------------------------------------------------------------
 
 Alpha MOs, Restricted
 -- Occupied --                  
-14.426 -14.425  -1.071  -0.864  -0.610  -0.596  -0.559  -0.355
  1 A     1 B     2 A     2 B     3 A     3 B     4 A     4 B                  
 -0.348
  5 A                                                                          
 -- Virtual --                   
  0.095   0.112   0.151   0.165   0.199   0.199   0.207   0.233
  6 A     5 B     6 B     7 A     8 A     7 B     9 A    10 A                  
  0.250   0.297   0.301   0.313   0.334   0.588   0.627   0.660
  8 B     9 B    10 B    11 A    11 B    12 A    12 B    13 A                  
  0.691   0.808   0.832   0.847   0.856   0.867   0.874   1.049
 13 B    14 A    14 B    15 B    15 A    16 B    16 A    17 A                  
  1.219   1.247   1.268   1.565   1.586   1.686   1.714   1.845
 17 B    18 A    18 B    19 B    19 A    20 A    20 B    21 A                  
  1.871   1.922   1.975   2.070   2.139   2.319   2.419   2.517
 21 B    22 A    22 B    23 A    23 B    24 A    24 B    25 A                  
  2.544   2.624   2.734   2.803   2.840   2.913   2.977   3.010
 26 A    25 B    26 B    27 B    27 A    28 A    28 B    29 A                  
  3.109   3.164   3.265   3.898   4.148   4.272   4.818   4.872
 29 B    30 A    30 B    31 A    31 B    32 A    33 A    32 B                  
  5.305  35.636  35.647
 33 B    34 B    34 A                                                          
 
 Beta MOs, Restricted
 -- Occupied --                  
-14.426 -14.425  -1.071  -0.864  -0.610  -0.596  -0.559  -0.355
  1 A     1 B     2 A     2 B     3 A     3 B     4 A     4 B                  
 -0.348
  5 A                                                                          
 -- Virtual --                   
  0.095   0.112   0.151   0.165   0.199   0.199   0.207   0.233
  6 A     5 B     6 B     7 A     8 A     7 B     9 A    10 A                  
  0.250   0.297   0.301   0.313   0.334   0.588   0.627   0.660
  8 B     9 B    10 B    11 A    11 B    12 A    12 B    13 A                  
  0.691   0.808   0.832   0.847   0.856   0.867   0.874   1.049
 13 B    14 A    14 B    15 B    15 A    16 B    16 A    17 A                  
  1.219   1.247   1.268   1.565   1.586   1.686   1.714   1.845
 17 B    18 A    18 B    19 B    19 A    20 A    20 B    21 A                  
  1.871   1.922   1.975   2.070   2.139   2.319   2.419   2.517
 21 B    22 A    22 B    23 A    23 B    24 A    24 B    25 A                  
  2.544   2.624   2.734   2.803   2.840   2.913   2.977   3.010
 26 A    25 B    26 B    27 B    27 A    28 A    28 B    29 A                  
  3.109   3.164   3.265   3.898   4.148   4.272   4.818   4.872
 29 B    30 A    30 B    31 A    31 B    32 A    33 A    32 B                  
  5.305  35.636  35.647
 33 B    34 B    34 A                                                          
 --------------------------------------------------------------
 
          Ground-State Mulliken Net Atomic Charges

     Atom                 Charge (a.u.)
  ----------------------------------------
      1 N                    -0.497468
      2 N                    -0.497468
      3 H                     0.263719
      4 H                     0.233749
      5 H                     0.233749
      6 H                     0.263719
  ----------------------------------------
  Sum of atomic charges =     0.000000

 -----------------------------------------------------------------
                    Cartesian Multipole Moments
 -----------------------------------------------------------------
    Charge (ESU x 10^10)
                 0.0000
    Dipole Moment (Debye)
         X       0.0000      Y       0.0000      Z       2.0667
       Tot       2.0667
    Quadrupole Moments (Debye-Ang)
        XX     -12.2921     XY       2.7229     YY     -13.4639
        XZ       0.0000     YZ       0.0000     ZZ     -13.2409
    Octopole Moments (Debye-Ang^2)
       XXX       0.0000    XXY       0.0000    XYY       0.0000
       YYY       0.0000    XXZ       2.8204    XYZ      -3.1484
       YYZ       0.4854    XZZ       0.0000    YZZ       0.0000
       ZZZ       3.1665
    Hexadecapole Moments (Debye-Ang^3)
      XXXX     -61.8469   XXXY       5.3783   XXYY     -13.5663
      XYYY       4.2050   YYYY     -20.3758   XXXZ       0.0000
      XXYZ       0.0000   XYYZ       0.0000   YYYZ       0.0000
      XXZZ     -13.6976   XYZZ       0.4083   YYZZ      -6.7169
      XZZZ       0.0000   YZZZ       0.0000   ZZZZ     -19.9362
 -----------------------------------------------------------------
 Calculating analytic gradient of the SCF energy
 K construction time:  CPU 1.63 s  wall 0.45 s
 Gradient of SCF Energy
            1           2           3           4           5           6
    1   0.0000548  -0.0000548   0.0000378   0.0000402  -0.0000400  -0.0000379
    2  -0.0000373   0.0000373   0.0000200  -0.0000035   0.0000037  -0.0000202
    3  -0.0000481  -0.0000481   0.0000036   0.0000441   0.0000446   0.0000039
 Max gradient component =       5.483E-05
 RMS gradient           =       3.674E-05
 Gradient time:  CPU 5.87 s  wall 1.48 s
 Geometry Optimization Parameters
   NAtoms,    NIC,     NZ,  NCons,   NDum,   NFix, NCnnct, MaxDiis
        6      27       0       0       0       0       0       0

 Cartesian Hessian Update
 Hessian Updated using BFGS Update


** GEOMETRY OPTIMIZATION IN DELOCALIZED INTERNAL COORDINATES **
   Searching for a Minimum

   Optimization Cycle:   2

                       Coordinates (Angstroms)
     ATOM                X               Y               Z
      1  N         0.7031367832   -0.0965142351   -0.0703895931
      2  N        -0.7031367832    0.0965142351   -0.0703895931
      3  H         1.1468963906    0.7722552497   -0.3352799799
      4  H         1.0627993162   -0.3862930985    0.8325687130
      5  H        -1.0627993162    0.3862930985    0.8325687130
      6  H        -1.1468963906   -0.7722552497   -0.3352799799
   Point Group: c2    Number of degrees of freedom:     7


   Energy is   -111.870957661

 Hessian Updated using BFGS Update

  7 Hessian modes will be used to form the next step
  Hessian Eigenvalues:
     0.006722    0.043796    0.158645    0.165714    0.444089    0.453918
     0.505540

 Minimum Search - Taking Simple RFO Step
 Searching for Lamda that Minimizes Along All modes
 Value Taken    Lamda =   0.00000000
 Step Taken.  Stepsize is  0.000678

                             Maximum     Tolerance    Cnvgd?
         Gradient           0.000120      0.000015      NO
         Displacement       0.000359      0.000060      NO
         Energy change      0.000000      0.000000      NO


 New Cartesian Coordinates Obtained by Inverse Iteration

 Displacement from previous Coordinates is:  0.000789
 ----------------------------------------------------------------
             Standard Nuclear Orientation (Angstroms)
    I     Atom           X                Y                Z
 ----------------------------------------------------------------
    1      N       0.7030669677    -0.0964910263    -0.0703393628
    2      N      -0.7030669677     0.0964910263    -0.0703393628
    3      H       1.1467121442     0.7722680211    -0.3353230610
    4      H       1.0626112594    -0.3863814203     0.8325615638
    5      H      -1.0626112594     0.3863814203     0.8325615638
    6      H      -1.1467121442    -0.7722680211    -0.3353230610
 ----------------------------------------------------------------
 Molecular Point Group                 C2    NOp =  2
 Largest Abelian Subgroup              C2    NOp =  2
 Nuclear Repulsion Energy =    41.7473979324 hartrees
 There are        9 alpha and        9 beta electrons
 Applying Cartesian multipole field
    Component          Value
    ---------          -----
     (2,0,0)        1.00000E-11
     (0,2,0)        2.00000E-11
     (0,0,2)       -3.00000E-11
 Nucleus-field energy     =     0.0000000004 hartrees
 Requested basis set is 6-311+G(d,p)
 There are 28 shells and 68 basis functions
 A cutoff of  1.0D-11 yielded    406 shell pairs
 There are      2426 function pairs (      2575 Cartesian)
 Smallest overlap matrix eigenvalue = 4.23E-04
 Guess MOs from SCF MO coefficient file
 Reading MOs from coefficient file
 Reading MOs from coefficient file
 Long-range K will be added via erf
 Coulomb attenuation parameter = 0.25 bohr**(-1)
 A restricted hybrid HF-DFT SCF calculation will be
 performed using Pulay DIIS extrapolation
 Exchange:     0.1957 Hartree-Fock + 1.0000 wB97X-D3 + LR-HF
 Correlation:  1.0000 wB97X-D3
 Using SG-3 standard quadrature grid
 Dispersion:   Grimme D3
 SCF converges when DIIS error is below 1.0E-08
 Geometry optimization detected.  Setting ReadMinima to 0
 Setting SaveMinima to 0
 using 6 threads for integral computing 
 using 6 threads for integral computing 
 K construction time:  CPU 0.54 s  wall 0.16 s
 -------------------------------------------------------
 OpenMP BLAS3 based DFT computing Module                
 Release: version 1.0, May 2013, Q-Chem Inc. Pittsburgh 
 -------------------------------------------------------
 ---------------------------------------
  Cycle       Energy         DIIS Error
 ---------------------------------------
    1    -111.8711083104      8.57E-06
 K construction time:  CPU 0.82 s  wall 0.14 s
    2    -111.8709576973      2.17E-06
 K construction time:  CPU 0.65 s  wall 0.15 s
    3    -111.8709576989      1.59E-06
 K construction time:  CPU 0.80 s  wall 0.14 s
    4    -111.8709577000      2.02E-07
 K construction time:  CPU 0.72 s  wall 0.14 s
    5    -111.8709577000      5.59E-08
 K construction time:  CPU 0.82 s  wall 0.14 s
    6    -111.8709577000      1.15E-08
 K construction time:  CPU 0.80 s  wall 0.14 s
    7    -111.8709577000      2.20E-09 Convergence criterion met
 ---------------------------------------
 SCF time:  CPU 18.33 s  wall 3.46 s
 SCF   energy in the final basis set = -111.8709577000
 Total energy in the final basis set = -111.8709577000
 
 --------------------------------------------------------------
             Orbital Energies (a.u.) and Symmetries
 --------------------------------------------------------------
 
 Alpha MOs, Restricted
 -- Occupied --                  
-14.425 -14.425  -1.071  -0.864  -0.610  -0.596  -0.559  -0.355
  1 A     1 B     2 A     2 B     3 A     3 B     4 A     4 B                  
 -0.348
  5 A                                                                          
 -- Virtual --                   
  0.095   0.112   0.151   0.165   0.199   0.199   0.207   0.233
  6 A     5 B     6 B     7 A     8 A     7 B     9 A    10 A                  
  0.250   0.297   0.301   0.313   0.334   0.588   0.627   0.660
  8 B     9 B    10 B    11 A    11 B    12 A    12 B    13 A                  
  0.691   0.808   0.832   0.848   0.856   0.867   0.874   1.049
 13 B    14 A    14 B    15 B    15 A    16 B    16 A    17 A                  
  1.219   1.247   1.268   1.565   1.586   1.686   1.714   1.845
 17 B    18 A    18 B    19 B    19 A    20 A    20 B    21 A                  
  1.871   1.923   1.975   2.070   2.139   2.319   2.419   2.517
 21 B    22 A    22 B    23 A    23 B    24 A    24 B    25 A                  
  2.544   2.624   2.734   2.803   2.841   2.914   2.977   3.010
 26 A    25 B    26 B    27 B    27 A    28 A    28 B    29 A                  
  3.109   3.164   3.265   3.898   4.148   4.272   4.818   4.872
 29 B    30 A    30 B    31 A    31 B    32 A    33 A    32 B                  
  5.306  35.636  35.648
 33 B    34 B    34 A                                                          
 
 Beta MOs, Restricted
 -- Occupied --                  
-14.425 -14.425  -1.071  -0.864  -0.610  -0.596  -0.559  -0.355
  1 A     1 B     2 A     2 B     3 A     3 B     4 A     4 B                  
 -0.348
  5 A                                                                          
 -- Virtual --                   
  0.095   0.112   0.151   0.165   0.199   0.199   0.207   0.233
  6 A     5 B     6 B     7 A     8 A     7 B     9 A    10 A                  
  0.250   0.297   0.301   0.313   0.334   0.588   0.627   0.660
  8 B     9 B    10 B    11 A    11 B    12 A    12 B    13 A                  
  0.691   0.808   0.832   0.848   0.856   0.867   0.874   1.049
 13 B    14 A    14 B    15 B    15 A    16 B    16 A    17 A                  
  1.219   1.247   1.268   1.565   1.586   1.686   1.714   1.845
 17 B    18 A    18 B    19 B    19 A    20 A    20 B    21 A                  
  1.871   1.923   1.975   2.070   2.139   2.319   2.419   2.517
 21 B    22 A    22 B    23 A    23 B    24 A    24 B    25 A                  
  2.544   2.624   2.734   2.803   2.841   2.914   2.977   3.010
 26 A    25 B    26 B    27 B    27 A    28 A    28 B    29 A                  
  3.109   3.164   3.265   3.898   4.148   4.272   4.818   4.872
 29 B    30 A    30 B    31 A    31 B    32 A    33 A    32 B                  
  5.306  35.636  35.648
 33 B    34 B    34 A                                                          
 --------------------------------------------------------------
 
          Ground-State Mulliken Net Atomic Charges

     Atom                 Charge (a.u.)
  ----------------------------------------
      1 N                    -0.497473
      2 N                    -0.497473
      3 H                     0.263719
      4 H                     0.233754
      5 H                     0.233754
      6 H                     0.263719
  ----------------------------------------
  Sum of atomic charges =     0.000000

 -----------------------------------------------------------------
                    Cartesian Multipole Moments
 -----------------------------------------------------------------
    Charge (ESU x 10^10)
                 0.0000
    Dipole Moment (Debye)
         X       0.0000      Y       0.0000      Z       2.0664
       Tot       2.0664
    Quadrupole Moments (Debye-Ang)
        XX     -12.2938     XY       2.7223     YY     -13.4630
        XZ       0.0000     YZ       0.0000     ZZ     -13.2403
    Octopole Moments (Debye-Ang^2)
       XXX       0.0000    XXY       0.0000    XYY       0.0000
       YYY       0.0000    XXZ       2.8189    XYZ      -3.1485
       YYZ       0.4849    XZZ       0.0000    YZZ       0.0000
       ZZZ       3.1650
    Hexadecapole Moments (Debye-Ang^3)
      XXXX     -61.8398   XXXY       5.3761   XXYY     -13.5644
      XYYY       4.2042   YYYY     -20.3744   XXXZ       0.0000
      XXYZ       0.0000   XYYZ       0.0000   YYYZ       0.0000
      XXZZ     -13.6958   XYZZ       0.4081   YYZZ      -6.7160
      XZZZ       0.0000   YZZZ       0.0000   ZZZZ     -19.9344
 -----------------------------------------------------------------
 Calculating analytic gradient of the SCF energy
 K construction time:  CPU 2.10 s  wall 0.50 s
 Gradient of SCF Energy
            1           2           3           4           5           6
    1   0.0000114  -0.0000114  -0.0000048  -0.0000046   0.0000048   0.0000047
    2  -0.0000309   0.0000308   0.0000076  -0.0000052   0.0000054  -0.0000078
    3  -0.0000023  -0.0000023  -0.0000071   0.0000089   0.0000094  -0.0000067
 Max gradient component =       3.088E-05
 RMS gradient           =       1.225E-05
 Gradient time:  CPU 6.31 s  wall 1.56 s
 Geometry Optimization Parameters
   NAtoms,    NIC,     NZ,  NCons,   NDum,   NFix, NCnnct, MaxDiis
        6      27       0       0       0       0       0       0

 Cartesian Hessian Update
 Hessian Updated using BFGS Update


** GEOMETRY OPTIMIZATION IN DELOCALIZED INTERNAL COORDINATES **
   Searching for a Minimum

   Optimization Cycle:   3

                       Coordinates (Angstroms)
     ATOM                X               Y               Z
      1  N         0.7030669677   -0.0964910263   -0.0703393628
      2  N        -0.7030669677    0.0964910263   -0.0703393628
      3  H         1.1467121442    0.7722680211   -0.3353230610
      4  H         1.0626112594   -0.3863814203    0.8325615638
      5  H        -1.0626112594    0.3863814203    0.8325615638
      6  H        -1.1467121442   -0.7722680211   -0.3353230610
   Point Group: c2    Number of degrees of freedom:     7


   Energy is   -111.870957700

 Hessian Updated using BFGS Update

  7 Hessian modes will be used to form the next step
  Hessian Eigenvalues:
     0.006652    0.039747    0.159506    0.205756    0.437227    0.457406
     0.474059

 Minimum Search - Taking Simple RFO Step
 Searching for Lamda that Minimizes Along All modes
 Value Taken    Lamda =   0.00000000
 Step Taken.  Stepsize is  0.000708

                             Maximum     Tolerance    Cnvgd?
         Gradient           0.000024      0.000015      NO
         Displacement       0.000482      0.000060      NO
         Energy change      0.000000      0.000000     YES


 New Cartesian Coordinates Obtained by Inverse Iteration

 Displacement from previous Coordinates is:  0.000530
 ----------------------------------------------------------------
             Standard Nuclear Orientation (Angstroms)
    I     Atom           X                Y                Z
 ----------------------------------------------------------------
    1      N       0.7030645314    -0.0964253810    -0.0703450721
    2      N      -0.7030645314     0.0964253810    -0.0703450721
    3      H       1.1467416243     0.7723319463    -0.3352248528
    4      H       1.0626454003    -0.3864846063     0.8324690648
    5      H      -1.0626454003     0.3864846063     0.8324690648
    6      H      -1.1467416243    -0.7723319463    -0.3352248528
 ----------------------------------------------------------------
 Molecular Point Group                 C2    NOp =  2
 Largest Abelian Subgroup              C2    NOp =  2
 Nuclear Repulsion Energy =    41.7478026754 hartrees
 There are        9 alpha and        9 beta electrons
 Applying Cartesian multipole field
    Component          Value
    ---------          -----
     (2,0,0)        1.00000E-11
     (0,2,0)        2.00000E-11
     (0,0,2)       -3.00000E-11
 Nucleus-field energy     =     0.0000000004 hartrees
 Requested basis set is 6-311+G(d,p)
 There are 28 shells and 68 basis functions
 A cutoff of  1.0D-11 yielded    406 shell pairs
 There are      2426 function pairs (      2575 Cartesian)
 Smallest overlap matrix eigenvalue = 4.23E-04
 Guess MOs from SCF MO coefficient file
 Reading MOs from coefficient file
 Reading MOs from coefficient file
 Long-range K will be added via erf
 Coulomb attenuation parameter = 0.25 bohr**(-1)
 A restricted hybrid HF-DFT SCF calculation will be
 performed using Pulay DIIS extrapolation
 Exchange:     0.1957 Hartree-Fock + 1.0000 wB97X-D3 + LR-HF
 Correlation:  1.0000 wB97X-D3
 Using SG-3 standard quadrature grid
 Dispersion:   Grimme D3
 SCF converges when DIIS error is below 1.0E-08
 Geometry optimization detected.  Setting ReadMinima to 0
 Setting SaveMinima to 0
 using 6 threads for integral computing 
 using 6 threads for integral computing 
 K construction time:  CPU 0.77 s  wall 0.14 s
 -------------------------------------------------------
 OpenMP BLAS3 based DFT computing Module                
 Release: version 1.0, May 2013, Q-Chem Inc. Pittsburgh 
 -------------------------------------------------------
 ---------------------------------------
  Cycle       Energy         DIIS Error
 ---------------------------------------
    1    -111.8710271541      5.70E-06
 K construction time:  CPU 0.41 s  wall 0.16 s
    2    -111.8709577039      1.70E-06
 K construction time:  CPU 0.59 s  wall 0.14 s
    3    -111.8709577050      1.39E-06
 K construction time:  CPU 0.96 s  wall 0.17 s
    4    -111.8709577059      1.08E-07
 K construction time:  CPU 0.71 s  wall 0.15 s
    5    -111.8709577059      2.91E-08
 K construction time:  CPU 0.81 s  wall 0.14 s
    6    -111.8709577059      6.43E-09 Convergence criterion met
 ---------------------------------------
 SCF time:  CPU 16.07 s  wall 2.99 s
 SCF   energy in the final basis set = -111.8709577059
 Total energy in the final basis set = -111.8709577059
 
 --------------------------------------------------------------
             Orbital Energies (a.u.) and Symmetries
 --------------------------------------------------------------
 
 Alpha MOs, Restricted
 -- Occupied --                  
-14.425 -14.425  -1.071  -0.864  -0.610  -0.596  -0.559  -0.355
  1 A     1 B     2 A     2 B     3 A     3 B     4 A     4 B                  
 -0.348
  5 A                                                                          
 -- Virtual --                   
  0.095   0.112   0.151   0.165   0.199   0.199   0.207   0.233
  6 A     5 B     6 B     7 A     8 A     7 B     9 A    10 A                  
  0.250   0.297   0.301   0.313   0.334   0.588   0.627   0.660
  8 B     9 B    10 B    11 A    11 B    12 A    12 B    13 A                  
  0.691   0.808   0.832   0.848   0.856   0.867   0.874   1.049
 13 B    14 A    14 B    15 B    15 A    16 B    16 A    17 A                  
  1.219   1.247   1.268   1.565   1.586   1.686   1.714   1.845
 17 B    18 A    18 B    19 B    19 A    20 A    20 B    21 A                  
  1.871   1.923   1.975   2.070   2.139   2.319   2.419   2.517
 21 B    22 A    22 B    23 A    23 B    24 A    24 B    25 A                  
  2.544   2.624   2.734   2.803   2.840   2.914   2.977   3.010
 26 A    25 B    26 B    27 B    27 A    28 A    28 B    29 A                  
  3.109   3.164   3.265   3.898   4.148   4.272   4.818   4.872
 29 B    30 A    30 B    31 A    31 B    32 A    33 A    32 B                  
  5.306  35.636  35.648
 33 B    34 B    34 A                                                          
 
 Beta MOs, Restricted
 -- Occupied --                  
-14.425 -14.425  -1.071  -0.864  -0.610  -0.596  -0.559  -0.355
  1 A     1 B     2 A     2 B     3 A     3 B     4 A     4 B                  
 -0.348
  5 A                                                                          
 -- Virtual --                   
  0.095   0.112   0.151   0.165   0.199   0.199   0.207   0.233
  6 A     5 B     6 B     7 A     8 A     7 B     9 A    10 A                  
  0.250   0.297   0.301   0.313   0.334   0.588   0.627   0.660
  8 B     9 B    10 B    11 A    11 B    12 A    12 B    13 A                  
  0.691   0.808   0.832   0.848   0.856   0.867   0.874   1.049
 13 B    14 A    14 B    15 B    15 A    16 B    16 A    17 A                  
  1.219   1.247   1.268   1.565   1.586   1.686   1.714   1.845
 17 B    18 A    18 B    19 B    19 A    20 A    20 B    21 A                  
  1.871   1.923   1.975   2.070   2.139   2.319   2.419   2.517
 21 B    22 A    22 B    23 A    23 B    24 A    24 B    25 A                  
  2.544   2.624   2.734   2.803   2.840   2.914   2.977   3.010
 26 A    25 B    26 B    27 B    27 A    28 A    28 B    29 A                  
  3.109   3.164   3.265   3.898   4.148   4.272   4.818   4.872
 29 B    30 A    30 B    31 A    31 B    32 A    33 A    32 B                  
  5.306  35.636  35.648
 33 B    34 B    34 A                                                          
 --------------------------------------------------------------
 
          Ground-State Mulliken Net Atomic Charges

     Atom                 Charge (a.u.)
  ----------------------------------------
      1 N                    -0.497463
      2 N                    -0.497463
      3 H                     0.263713
      4 H                     0.233750
      5 H                     0.233750
      6 H                     0.263713
  ----------------------------------------
  Sum of atomic charges =     0.000000

 -----------------------------------------------------------------
                    Cartesian Multipole Moments
 -----------------------------------------------------------------
    Charge (ESU x 10^10)
                 0.0000
    Dipole Moment (Debye)
         X       0.0000      Y       0.0000      Z       2.0664
       Tot       2.0664
    Quadrupole Moments (Debye-Ang)
        XX     -12.2934     XY       2.7219     YY     -13.4619
        XZ       0.0000     YZ       0.0000     ZZ     -13.2413
    Octopole Moments (Debye-Ang^2)
       XXX       0.0000    XXY       0.0000    XYY       0.0000
       YYY       0.0000    XXZ       2.8194    XYZ      -3.1485
       YYZ       0.4850    XZZ       0.0000    YZZ       0.0000
       ZZZ       3.1648
    Hexadecapole Moments (Debye-Ang^3)
      XXXX     -61.8387   XXXY       5.3747   XXYY     -13.5629
      XYYY       4.2024   YYYY     -20.3727   XXXZ       0.0000
      XXYZ       0.0000   XYYZ       0.0000   YYYZ       0.0000
      XXZZ     -13.6968   XYZZ       0.4072   YYZZ      -6.7157
      XZZZ       0.0000   YZZZ       0.0000   ZZZZ     -19.9351
 -----------------------------------------------------------------
 Calculating analytic gradient of the SCF energy
 K construction time:  CPU 1.62 s  wall 0.47 s
 Gradient of SCF Energy
            1           2           3           4           5           6
    1   0.0000165  -0.0000165   0.0000018  -0.0000065   0.0000067  -0.0000019
    2  -0.0000067   0.0000067  -0.0000052  -0.0000024   0.0000026   0.0000050
    3   0.0000044   0.0000044  -0.0000002  -0.0000047  -0.0000042   0.0000002
 Max gradient component =       1.652E-05
 RMS gradient           =       6.957E-06
 Gradient time:  CPU 5.87 s  wall 1.51 s
 Geometry Optimization Parameters
   NAtoms,    NIC,     NZ,  NCons,   NDum,   NFix, NCnnct, MaxDiis
        6      27       0       0       0       0       0       0

 Cartesian Hessian Update
 Hessian Updated using BFGS Update
**WARNING** Hereditary positive definiteness endangered
**WARNING** Small Scalar Product
 Hessian Update Skipped this cycle


** GEOMETRY OPTIMIZATION IN DELOCALIZED INTERNAL COORDINATES **
   Searching for a Minimum

   Optimization Cycle:   4

                       Coordinates (Angstroms)
     ATOM                X               Y               Z
      1  N         0.7030645314   -0.0964253810   -0.0703450721
      2  N        -0.7030645314    0.0964253810   -0.0703450721
      3  H         1.1467416243    0.7723319463   -0.3352248528
      4  H         1.0626454003   -0.3864846063    0.8324690648
      5  H        -1.0626454003    0.3864846063    0.8324690648
      6  H        -1.1467416243   -0.7723319463   -0.3352248528
   Point Group: c2    Number of degrees of freedom:     7


   Energy is   -111.870957706

 Hessian Updated using BFGS Update
**WARNING** Hereditary positive definiteness endangered
**WARNING** Small Scalar Product
 Hessian Update Skipped this cycle

  7 Hessian modes will be used to form the next step
  Hessian Eigenvalues:
     0.006652    0.039747    0.159506    0.205756    0.437227    0.457406
     0.474059

 Minimum Search - Taking Simple RFO Step
 Searching for Lamda that Minimizes Along All modes
 Value Taken    Lamda =   0.00000000
 Step Taken.  Stepsize is  0.000085

                             Maximum     Tolerance    Cnvgd?
         Gradient           0.000013      0.000015     YES
         Displacement       0.000045      0.000060     YES
         Energy change      0.000000      0.000000     YES


                       Distance Matrix (Angstroms)
             N (  1)   N (  2)   H (  3)   H (  4)   H (  5)
   N (  2)  1.419292
   H (  3)  1.010816  1.987157
   H (  4)  1.014153  2.041080  1.647251
   H (  5)  2.041080  1.014153  2.528592  2.261491
   H (  6)  1.987157  1.010816  2.765150  2.528592  1.647251
 
 Final energy is   -111.870957705938     


 ******************************
 **  OPTIMIZATION CONVERGED  **
 ******************************

                       Coordinates (Angstroms)
     ATOM                X               Y               Z
      1  N         0.7030645314   -0.0964253810   -0.0703450721
      2  N        -0.7030645314    0.0964253810   -0.0703450721
      3  H         1.1467416243    0.7723319463   -0.3352248528
      4  H         1.0626454003   -0.3864846063    0.8324690648
      5  H        -1.0626454003    0.3864846063    0.8324690648
      6  H        -1.1467416243   -0.7723319463   -0.3352248528

Z-matrix Print:
$molecule
0 1
N 
H  1 1.010816
H  1 1.014153 2 108.872559
N  1 1.419292 2 108.546649 3 -123.337954 0
H  4 1.010816 1 108.546649 2 -147.909049 0
H  4 1.014153 1 112.963030 2 91.246891 0
$end

 
 --------------------------------------------------------------
             Orbital Energies (a.u.) and Symmetries
 --------------------------------------------------------------
 
 Alpha MOs, Restricted
 -- Occupied --                  
-14.425 -14.425  -1.071  -0.864  -0.610  -0.596  -0.559  -0.355
  1 A     1 B     2 A     2 B     3 A     3 B     4 A     4 B                  
 -0.348
  5 A                                                                          
 -- Virtual --                   
  0.095   0.112   0.151   0.165   0.199   0.199   0.207   0.233
  6 A     5 B     6 B     7 A     8 A     7 B     9 A    10 A                  
  0.250   0.297   0.301   0.313   0.334   0.588   0.627   0.660
  8 B     9 B    10 B    11 A    11 B    12 A    12 B    13 A                  
  0.691   0.808   0.832   0.848   0.856   0.867   0.874   1.049
 13 B    14 A    14 B    15 B    15 A    16 B    16 A    17 A                  
  1.219   1.247   1.268   1.565   1.586   1.686   1.714   1.845
 17 B    18 A    18 B    19 B    19 A    20 A    20 B    21 A                  
  1.871   1.923   1.975   2.070   2.139   2.319   2.419   2.517
 21 B    22 A    22 B    23 A    23 B    24 A    24 B    25 A                  
  2.544   2.624   2.734   2.803   2.840   2.914   2.977   3.010
 26 A    25 B    26 B    27 B    27 A    28 A    28 B    29 A                  
  3.109   3.164   3.265   3.898   4.148   4.272   4.818   4.872
 29 B    30 A    30 B    31 A    31 B    32 A    33 A    32 B                  
  5.306  35.636  35.648
 33 B    34 B    34 A                                                          
 
 Beta MOs, Restricted
 -- Occupied --                  
-14.425 -14.425  -1.071  -0.864  -0.610  -0.596  -0.559  -0.355
  1 A     1 B     2 A     2 B     3 A     3 B     4 A     4 B                  
 -0.348
  5 A                                                                          
 -- Virtual --                   
  0.095   0.112   0.151   0.165   0.199   0.199   0.207   0.233
  6 A     5 B     6 B     7 A     8 A     7 B     9 A    10 A                  
  0.250   0.297   0.301   0.313   0.334   0.588   0.627   0.660
  8 B     9 B    10 B    11 A    11 B    12 A    12 B    13 A                  
  0.691   0.808   0.832   0.848   0.856   0.867   0.874   1.049
 13 B    14 A    14 B    15 B    15 A    16 B    16 A    17 A                  
  1.219   1.247   1.268   1.565   1.586   1.686   1.714   1.845
 17 B    18 A    18 B    19 B    19 A    20 A    20 B    21 A                  
  1.871   1.923   1.975   2.070   2.139   2.319   2.419   2.517
 21 B    22 A    22 B    23 A    23 B    24 A    24 B    25 A                  
  2.544   2.624   2.734   2.803   2.840   2.914   2.977   3.010
 26 A    25 B    26 B    27 B    27 A    28 A    28 B    29 A                  
  3.109   3.164   3.265   3.898   4.148   4.272   4.818   4.872
 29 B    30 A    30 B    31 A    31 B    32 A    33 A    32 B                  
  5.306  35.636  35.648
 33 B    34 B    34 A                                                          
 --------------------------------------------------------------
 
          Ground-State Mulliken Net Atomic Charges

     Atom                 Charge (a.u.)
  ----------------------------------------
      1 N                    -0.497463
      2 N                    -0.497463
      3 H                     0.263713
      4 H                     0.233750
      5 H                     0.233750
      6 H                     0.263713
  ----------------------------------------
  Sum of atomic charges =     0.000000

 -----------------------------------------------------------------
                    Cartesian Multipole Moments
 -----------------------------------------------------------------
    Charge (ESU x 10^10)
                 0.0000
    Dipole Moment (Debye)
         X       0.0000      Y       0.0000      Z       2.0664
       Tot       2.0664
    Quadrupole Moments (Debye-Ang)
        XX     -12.2934     XY       2.7219     YY     -13.4619
        XZ       0.0000     YZ       0.0000     ZZ     -13.2413
    Octopole Moments (Debye-Ang^2)
       XXX       0.0000    XXY       0.0000    XYY       0.0000
       YYY       0.0000    XXZ       2.8194    XYZ      -3.1485
       YYZ       0.4850    XZZ       0.0000    YZZ       0.0000
       ZZZ       3.1648
    Hexadecapole Moments (Debye-Ang^3)
      XXXX     -61.8387   XXXY       5.3747   XXYY     -13.5629
      XYYY       4.2024   YYYY     -20.3727   XXXZ       0.0000
      XXYZ       0.0000   XYYZ       0.0000   YYYZ       0.0000
      XXZZ     -13.6968   XYZZ       0.4072   YYZZ      -6.7157
      XZZZ       0.0000   YZZZ       0.0000   ZZZZ     -19.9351
 -----------------------------------------------------------------
Archival summary:
1\1\node69\OPT\ProcedureUnspecified\6-311+G**\24\alongd\TueApr2311:00:492019TueApr2311:00:492019\0\\#,OPT,ProcedureUnspecified,6-311+G**,\\0,1\N\H,1,1.01082\H,1,1.01415,2,108.873\N,1,1.41929,2,108.547,3,-123.338,0\H,4,1.01082,1,108.547,2,-147.909,0\H,4,1.01415,1,112.963,2,91.2469,0\\\@

 Total job time:  23.76s(wall), 114.28s(cpu) 
 Tue Apr 23 11:00:49 2019

        *************************************************************
        *                                                           *
        *  Thank you very much for using Q-Chem.  Have a nice day.  *
        *                                                           *
        *************************************************************


0 sent ACK to 0 
now end server 0 ... 
cleanup process ... done
