 Entering Gaussian System, Link 0=g03
 Input=input.gjf
 Output=input.log
 Initial command:
 /opt/g03/l1.exe /scratch/alongd/Gau-20509.inp -scrdir=/scratch/alongd/
 Entering Link 1 = /opt/g03/l1.exe PID=     20511.
  
 Copyright (c) 1988,1990,1992,1993,1995,1998,2003,2004, Gaussian, Inc.
                  All Rights Reserved.
  
 This is the Gaussian(R) 03 program.  It is based on the
 the Gaussian(R) 98 system (copyright 1998, Gaussian, Inc.),
 the Gaussian(R) 94 system (copyright 1995, Gaussian, Inc.),
 the Gaussian 92(TM) system (copyright 1992, Gaussian, Inc.),
 the Gaussian 90(TM) system (copyright 1990, Gaussian, Inc.),
 the Gaussian 88(TM) system (copyright 1988, Gaussian, Inc.),
 the Gaussian 86(TM) system (copyright 1986, Carnegie Mellon
 University), and the Gaussian 82(TM) system (copyright 1983,
 Carnegie Mellon University). Gaussian is a federally registered
 trademark of Gaussian, Inc.
  
 This software contains proprietary and confidential information,
 including trade secrets, belonging to Gaussian, Inc.
  
 This software is provided under written license and may be
 used, copied, transmitted, or stored only in accord with that
 written license.
  
 The following legend is applicable only to US Government
 contracts under FAR:
  
                    RESTRICTED RIGHTS LEGEND
  
 Use, reproduction and disclosure by the US Government is
 subject to restrictions as set forth in subparagraphs (a)
 and (c) of the Commercial Computer Software - Restricted
 Rights clause in FAR 52.227-19.
  
 Gaussian, Inc.
 340 Quinnipiac St., Bldg. 40, Wallingford CT 06492
  
  
 ---------------------------------------------------------------
 Warning -- This program may not be used in any manner that
 competes with the business of Gaussian, Inc. or will provide
 assistance to any competitor of Gaussian, Inc.  The licensee
 of this program is prohibited from giving any competitor of
 Gaussian, Inc. access to this program.  By using this program,
 the user acknowledges that Gaussian, Inc. is engaged in the
 business of creating and licensing software in the field of
 computational chemistry and represents and warrants to the
 licensee that it is not a competitor of Gaussian, Inc. and that
 it will not use this program in any manner prohibited above.
 ---------------------------------------------------------------
  

 Cite this work as:
 Gaussian 03, Revision D.01,
 M. J. Frisch, G. W. Trucks, H. B. Schlegel, G. E. Scuseria, 
 M. A. Robb, J. R. Cheeseman, J. A. Montgomery, Jr., T. Vreven, 
 K. N. Kudin, J. C. Burant, J. M. Millam, S. S. Iyengar, J. Tomasi, 
 V. Barone, B. Mennucci, M. Cossi, G. Scalmani, N. Rega, 
 G. A. Petersson, H. Nakatsuji, M. Hada, M. Ehara, K. Toyota, 
 R. Fukuda, J. Hasegawa, M. Ishida, T. Nakajima, Y. Honda, O. Kitao, 
 H. Nakai, M. Klene, X. Li, J. E. Knox, H. P. Hratchian, J. B. Cross, 
 V. Bakken, C. Adamo, J. Jaramillo, R. Gomperts, R. E. Stratmann, 
 O. Yazyev, A. J. Austin, R. Cammi, C. Pomelli, J. W. Ochterski, 
 P. Y. Ayala, K. Morokuma, G. A. Voth, P. Salvador, J. J. Dannenberg, 
 V. G. Zakrzewski, S. Dapprich, A. D. Daniels, M. C. Strain, 
 O. Farkas, D. K. Malick, A. D. Rabuck, K. Raghavachari, 
 J. B. Foresman, J. V. Ortiz, Q. Cui, A. G. Baboul, S. Clifford, 
 J. Cioslowski, B. B. Stefanov, G. Liu, A. Liashenko, P. Piskorz, 
 I. Komaromi, R. L. Martin, D. J. Fox, T. Keith, M. A. Al-Laham, 
 C. Y. Peng, A. Nanayakkara, M. Challacombe, P. M. W. Gill, 
 B. Johnson, W. Chen, M. W. Wong, C. Gonzalez, and J. A. Pople, 
 Gaussian, Inc., Wallingford CT, 2004.
 
 ******************************************
 Gaussian 03:  AM64L-G03RevD.01 13-Oct-2005
                 9-Feb-2018 
 ******************************************
 %chk=input.chk
 %mem=1500mb
 %nproc=8
 Will use up to    8 processors via shared memory.
 -----------------
 #CBS-QB3 opt freq
 -----------------
 1/14=-1,18=20,26=3,38=1/1,3;
 2/9=110,17=6,18=5,40=1/2;
 3/5=4,6=6,7=700,11=2,16=1,25=1,30=1,74=-5/1,2,3;
 4//1;
 5/5=2,38=5/2;
 6/7=2,8=2,9=2,10=2,28=1/1;
 7//1,2,3,16;
 1/14=-1,18=20/3(3);
 2/9=110/2;
 6/7=2,8=2,9=2,10=2,19=2,28=1/1;
 99//99;
 2/9=110/2;
 3/5=4,6=6,7=700,11=2,16=1,25=1,30=1,74=-5/1,2,3;
 4/5=5,16=3/1;
 5/5=2,38=5/2;
 7//1,2,3,16;
 1/14=-1,18=20/3(-5);
 2/9=110/2;
 6/7=2,8=2,9=2,10=2,19=2,28=1/1;
 99/9=1/99;
 -----
 SO2OO
 -----
 Symbolic Z-matrix:
 Charge =  0 Multiplicity = 1
 S                     0.        0.        0.24471 
 O                     0.        1.26292   0.92826 
 O                     0.79061   0.       -1.17297 
 O                     0.       -1.26292   0.92826 
 O                    -0.79061   0.       -1.17297 
 

 GradGradGradGradGradGradGradGradGradGradGradGradGradGradGradGradGradGrad
 Berny optimization.
 Initialization pass.
                           ----------------------------
                           !    Initial Parameters    !
                           ! (Angstroms and Degrees)  !
 --------------------------                            --------------------------
 ! Name  Definition              Value          Derivative Info.                !
 --------------------------------------------------------------------------------
 ! R1    R(1,2)                  1.436          estimate D2E/DX2                !
 ! R2    R(1,3)                  1.6232         estimate D2E/DX2                !
 ! R3    R(1,4)                  1.436          estimate D2E/DX2                !
 ! R4    R(1,5)                  1.6232         estimate D2E/DX2                !
 ! R5    R(3,5)                  1.5812         estimate D2E/DX2                !
 ! A1    A(2,1,3)              114.5646         estimate D2E/DX2                !
 ! A2    A(2,1,4)              123.1517         estimate D2E/DX2                !
 ! A3    A(2,1,5)              114.5646         estimate D2E/DX2                !
 ! A4    A(3,1,4)              114.5646         estimate D2E/DX2                !
 ! A5    A(4,1,5)              114.5646         estimate D2E/DX2                !
 --------------------------------------------------------------------------------
 Trust Radius=3.00D-01 FncErr=1.00D-07 GrdErr=1.00D-06
 Number of steps in this run=  20 maximum allowed number of steps= 100.
 GradGradGradGradGradGradGradGradGradGradGradGradGradGradGradGradGradGrad

                          Input orientation:                          
 ---------------------------------------------------------------------
 Center     Atomic     Atomic              Coordinates (Angstroms)
 Number     Number      Type              X           Y           Z
 ---------------------------------------------------------------------
    1         16             0        0.000000    0.000000    0.244712
    2          8             0        0.000000    1.262915    0.928255
    3          8             0        0.790608    0.000000   -1.172967
    4          8             0        0.000000   -1.262915    0.928255
    5          8             0       -0.790608    0.000000   -1.172967
 ---------------------------------------------------------------------
                    Distance matrix (angstroms):
                    1          2          3          4          5
     1  S    0.000000
     2  O    1.436031   0.000000
     3  O    1.623230   2.575878   0.000000
     4  O    1.436031   2.525830   2.575878   0.000000
     5  O    1.623230   2.575878   1.581216   2.575878   0.000000
 Stoichiometry    O4S
 Framework group  C2V[C2(S),SGV(O2),SGV'(O2)]
 Deg. of freedom     4
 Full point group                 C2V
 Largest Abelian subgroup         C2V     NOp   4
 Largest concise Abelian subgroup C2V     NOp   4
                         Standard orientation:                         
 ---------------------------------------------------------------------
 Center     Atomic     Atomic              Coordinates (Angstroms)
 Number     Number      Type              X           Y           Z
 ---------------------------------------------------------------------
    1         16             0        0.000000    0.000000    0.244712
    2          8             0        0.000000    1.262915    0.928255
    3          8             0        0.790608    0.000000   -1.172967
    4          8             0        0.000000   -1.262915    0.928255
    5          8             0       -0.790608    0.000000   -1.172967
 ---------------------------------------------------------------------
 Rotational constants (GHZ):      7.1162190      5.4058320      4.0587978
 Standard basis: CBSB7 (5D, 7F)
 There are    41 symmetry adapted basis functions of A1  symmetry.
 There are    12 symmetry adapted basis functions of A2  symmetry.
 There are    25 symmetry adapted basis functions of B1  symmetry.
 There are    25 symmetry adapted basis functions of B2  symmetry.
 Integral buffers will be    131072 words long.
 Raffenetti 2 integral format.
 Two-electron integral symmetry is turned on.
   103 basis functions,   180 primitive gaussians,   109 cartesian basis functions
    24 alpha electrons       24 beta electrons
       nuclear repulsion energy       265.2111017412 Hartrees.
 NAtoms=    5 NActive=    5 NUniq=    3 SFac= 2.08D+00 NAtFMM=   80 NAOKFM=F Big=F
 One-electron integrals computed using PRISM.
 NBasis=   103 RedAO= T  NBF=    41    12    25    25
 NBsUse=   103 1.00D-06 NBFU=    41    12    25    25
 Harris functional with IExCor=  402 diagonalized for initial guess.
 ExpMin= 7.71D-02 ExpMax= 9.34D+04 ExpMxC= 3.17D+03 IAcc=2 IRadAn=         4 AccDes= 0.00D+00
 HarFok:  IExCor= 402 AccDes= 0.00D+00 IRadAn=         4 IDoV=1
 ScaDFX=  1.000000  1.000000  1.000000  1.000000
 Initial guess orbital symmetries:
       Occupied  (A1) (A1) (B2) (A1) (B1) (A1) (B2) (A1) (B1) (A1)
                 (A1) (B2) (B1) (A1) (A1) (B2) (B1) (A1) (B2) (A1)
                 (A2) (B2) (B1) (A2)
       Virtual   (B1) (A1) (B1) (A1) (B2) (B1) (A1) (B2) (A1) (A2)
                 (A1) (B1) (A1) (B2) (A1) (A2) (B1) (B2) (A1) (A1)
                 (B1) (B2) (A2) (B1) (B2) (A1) (A1) (B2) (B1) (A1)
                 (B1) (B2) (A1) (A1) (B2) (B1) (A2) (A1) (A1) (B2)
                 (B2) (A1) (A2) (A2) (B1) (B2) (B1) (A1) (A2) (B1)
                 (A2) (B1) (A1) (B2) (A1) (B2) (B1) (A1) (A1) (A2)
                 (B2) (A1) (B1) (A1) (A2) (B2) (B1) (B2) (B1) (A1)
                 (A1) (B1) (B2) (A1) (B2) (A1) (B1) (A1) (A1)
 The electronic state of the initial guess is 1-A1.
 Requested convergence on RMS density matrix=1.00D-08 within 128 cycles.
 Requested convergence on MAX density matrix=1.00D-06.
 Requested convergence on             energy=1.00D-06.
 No special actions if energy rises.
 Keep R1 integrals in memory in canonical form, NReq=    19826154.
 Integral accuracy reduced to 1.0D-05 until final iterations.
 Initial convergence to 1.0D-05 achieved.  Increase integral accuracy.
 SCF Done:  E(RB+HF-LYP) =  -698.994550553     A.U. after   13 cycles
             Convg  =    0.5535D-08             -V/T =  2.0018
             S**2   =   0.0000

 **********************************************************************

            Population analysis using the SCF density.

 **********************************************************************

 Orbital symmetries:
       Occupied  (A1) (A1) (B1) (B2) (A1) (A1) (A1) (B1) (B2) (A1)
                 (A1) (B2) (B1) (A1) (A1) (B1) (B2) (A1) (B2) (A1)
                 (A2) (B1) (B2) (A2)
       Virtual   (B1) (A1) (B1) (A1) (B2) (B1) (A1) (B2) (A1) (A1)
                 (A2) (B1) (A1) (B2) (A1) (B1) (A2) (B2) (A1) (A1)
                 (B1) (A2) (B2) (B1) (B2) (A1) (A1) (B2) (B1) (B1)
                 (A1) (B2) (A1) (A1) (B2) (B1) (A2) (A1) (A1) (B2)
                 (B2) (A1) (A2) (A2) (B1) (B2) (B1) (A2) (A1) (B1)
                 (B1) (A2) (A1) (B2) (A1) (B2) (B1) (A1) (A1) (A2)
                 (B2) (B1) (A1) (A2) (A1) (B2) (B1) (B1) (B2) (A1)
                 (A1) (B1) (B2) (A1) (B1) (A1) (B2) (A1) (A1)
 The electronic state is 1-A1.
 Alpha  occ. eigenvalues --  -89.14984 -19.27971 -19.27966 -19.20307 -19.20307
 Alpha  occ. eigenvalues --   -8.20690  -6.17069  -6.17011  -6.16759  -1.27712
 Alpha  occ. eigenvalues --   -1.15053  -1.09635  -0.97585  -0.69682  -0.57229
 Alpha  occ. eigenvalues --   -0.55828  -0.55808  -0.52360  -0.47670  -0.43706
 Alpha  occ. eigenvalues --   -0.41776  -0.40733  -0.37198  -0.35506
 Alpha virt. eigenvalues --   -0.15259  -0.06684  -0.04344   0.08850   0.11384
 Alpha virt. eigenvalues --    0.14033   0.17888   0.19010   0.30285   0.39703
 Alpha virt. eigenvalues --    0.40399   0.50539   0.57023   0.58780   0.68560
 Alpha virt. eigenvalues --    0.69686   0.71158   0.76211   0.78529   0.79661
 Alpha virt. eigenvalues --    0.82209   0.84315   0.86116   0.94350   0.96722
 Alpha virt. eigenvalues --    0.99893   1.21080   1.25203   1.30794   1.48708
 Alpha virt. eigenvalues --    1.49291   1.70702   1.76734   1.92264   2.00086
 Alpha virt. eigenvalues --    2.01879   2.02953   2.35211   2.46026   2.55809
 Alpha virt. eigenvalues --    2.68341   2.68442   2.69929   2.73695   2.73785
 Alpha virt. eigenvalues --    2.77843   2.87817   2.89125   2.90225   2.92238
 Alpha virt. eigenvalues --    3.10118   3.13375   3.15501   3.22216   3.34167
 Alpha virt. eigenvalues --    3.43869   3.44736   3.47842   4.53928   4.64648
 Alpha virt. eigenvalues --    4.68449   4.70182   4.70654   4.73968   4.75742
 Alpha virt. eigenvalues --    4.75822   4.77602   5.01978   5.09249   5.48024
 Alpha virt. eigenvalues --    7.75993  17.03186  17.39571  17.46738  49.63749
 Alpha virt. eigenvalues --   49.69228  49.69519  49.77175 188.78295
          Condensed to atoms (all electrons):
              1          2          3          4          5
     1  S   13.565398   0.581549   0.235731   0.581549   0.235731
     2  O    0.581549   7.763634  -0.014637  -0.018156  -0.014637
     3  O    0.235731  -0.014637   7.916077  -0.014637  -0.020264
     4  O    0.581549  -0.018156  -0.014637   7.763634  -0.014637
     5  O    0.235731  -0.014637  -0.020264  -0.014637   7.916077
 Mulliken atomic charges:
              1
     1  S    0.800042
     2  O   -0.297751
     3  O   -0.102270
     4  O   -0.297751
     5  O   -0.102270
 Sum of Mulliken charges=   0.00000
 Atomic charges with hydrogens summed into heavy atoms:
              1
     1  S    0.800042
     2  O   -0.297751
     3  O   -0.102270
     4  O   -0.297751
     5  O   -0.102270
 Sum of Mulliken charges=   0.00000
 Electronic spatial extent (au):  <R**2>=   335.3195
 Charge=     0.0000 electrons
 Dipole moment (field-independent basis, Debye):
    X=     0.0000    Y=     0.0000    Z=    -0.3619  Tot=     0.3619
 Quadrupole moment (field-independent basis, Debye-Ang):
   XX=   -31.1039   YY=   -37.0104   ZZ=   -35.7333
   XY=     0.0000   XZ=     0.0000   YZ=     0.0000
 Traceless Quadrupole moment (field-independent basis, Debye-Ang):
   XX=     3.5119   YY=    -2.3945   ZZ=    -1.1174
   XY=     0.0000   XZ=     0.0000   YZ=     0.0000
 Octapole moment (field-independent basis, Debye-Ang**2):
  XXX=     0.0000  YYY=     0.0000  ZZZ=    -2.3984  XYY=     0.0000
  XXY=     0.0000  XXZ=     0.9556  XZZ=     0.0000  YZZ=     0.0000
  YYZ=    -3.7570  XYZ=     0.0000
 Hexadecapole moment (field-independent basis, Debye-Ang**3):
 XXXX=   -59.8754 YYYY=  -135.1175 ZZZZ=  -173.6705 XXXY=     0.0000
 XXXZ=     0.0000 YYYX=     0.0000 YYYZ=     0.0000 ZZZX=     0.0000
 ZZZY=     0.0000 XXYY=   -32.8593 XXZZ=   -40.5486 YYZZ=   -54.1111
 XXYZ=     0.0000 YYXZ=     0.0000 ZZXY=     0.0000
 N-N= 2.652111017412D+02 E-N=-2.186039645078D+03  KE= 6.977094113537D+02
 Symmetry A1   KE= 4.629382088387D+02
 Symmetry A2   KE= 1.017690173612D+01
 Symmetry B1   KE= 1.099079775744D+02
 Symmetry B2   KE= 1.146863232045D+02
 ***** Axes restored to original set *****
 -------------------------------------------------------------------
 Center     Atomic                   Forces (Hartrees/Bohr)
 Number     Number              X              Y              Z
 -------------------------------------------------------------------
    1         16           0.000000000    0.000000000    0.003416133
    2          8           0.000000000   -0.015635030   -0.007821028
    3          8           0.000121437    0.000000000    0.006112962
    4          8           0.000000000    0.015635030   -0.007821028
    5          8          -0.000121437    0.000000000    0.006112962
 -------------------------------------------------------------------
 Cartesian Forces:  Max     0.015635030 RMS     0.006819977

 GradGradGradGradGradGradGradGradGradGradGradGradGradGradGradGradGradGrad
 Berny optimization.
 Internal  Forces:  Max     0.017472967 RMS     0.008504947
 Search for a local minimum.
 Step number   1 out of a maximum of  20
 All quantities printed in internal units (Hartrees-Bohrs-Radians)
 Second derivative matrix not updated -- first step.
 The second derivative matrix:
                          R1        R2        R3        R4        R5
           R1           1.02457
           R2           0.00000   0.46976
           R3           0.00000   0.00000   1.02457
           R4           0.00000   0.00000   0.00000   0.46976
           R5           0.00000   0.00000   0.00000   0.00000   0.25159
           A1           0.00000   0.00000   0.00000   0.00000   0.00000
           A2           0.00000   0.00000   0.00000   0.00000   0.00000
           A3           0.00000   0.00000   0.00000   0.00000   0.00000
           A4           0.00000   0.00000   0.00000   0.00000   0.00000
           A5           0.00000   0.00000   0.00000   0.00000   0.00000
                          A1        A2        A3        A4        A5
           A1           0.25000
           A2           0.00000   0.25000
           A3           0.00000   0.00000   0.25000
           A4           0.00000   0.00000   0.00000   0.25000
           A5           0.00000   0.00000   0.00000   0.00000   0.25000
     Eigenvalues ---    0.25000   0.25000   0.25000   0.25000   0.25158
     Eigenvalues ---    0.46921   0.46976   1.02457   1.024571000.00000
 RFO step:  Lambda=-8.61499800D-04.
 Linear search not attempted -- first point.
 Iteration  1 RMS(Cart)=  0.01170577 RMS(Int)=  0.00002283
 Iteration  2 RMS(Cart)=  0.00002039 RMS(Int)=  0.00001101
 Iteration  3 RMS(Cart)=  0.00000000 RMS(Int)=  0.00001101
 Variable       Old X    -DE/DX   Delta X   Delta X   Delta X     New X
                                 (Linear)    (Quad)   (Total)
    R1        2.71371  -0.01747   0.00000  -0.01704  -0.01704   2.69667
    R2        3.06746  -0.00701   0.00000  -0.01491  -0.01491   3.05255
    R3        2.71371  -0.01747   0.00000  -0.01704  -0.01704   2.69667
    R4        3.06746  -0.00701   0.00000  -0.01491  -0.01491   3.05255
    R5        2.98807   0.00355   0.00000   0.01412   0.01412   3.00218
    A1        1.99953   0.00009   0.00000   0.00071   0.00070   2.00022
    A2        2.14940  -0.00138   0.00000  -0.00490  -0.00493   2.14448
    A3        1.99953   0.00009   0.00000   0.00071   0.00070   2.00022
    A4        1.99953   0.00009   0.00000   0.00071   0.00070   2.00022
    A5        1.99953   0.00009   0.00000   0.00071   0.00070   2.00022
         Item               Value     Threshold  Converged?
 Maximum Force            0.017473     0.000450     NO 
 RMS     Force            0.008505     0.000300     NO 
 Maximum Displacement     0.018155     0.001800     NO 
 RMS     Displacement     0.011720     0.001200     NO 
 Predicted change in Energy=-4.312972D-04
 GradGradGradGradGradGradGradGradGradGradGradGradGradGradGradGradGradGrad

                          Input orientation:                          
 ---------------------------------------------------------------------
 Center     Atomic     Atomic              Coordinates (Angstroms)
 Number     Number      Type              X           Y           Z
 ---------------------------------------------------------------------
    1         16             0        0.000000    0.000000    0.240736
    2          8             0        0.000000    1.253308    0.923077
    3          8             0        0.794343    0.000000   -1.165801
    4          8             0        0.000000   -1.253308    0.923077
    5          8             0       -0.794343    0.000000   -1.165801
 ---------------------------------------------------------------------
                    Distance matrix (angstroms):
                    1          2          3          4          5
     1  S    0.000000
     2  O    1.427014   0.000000
     3  O    1.615342   2.562259   0.000000
     4  O    1.427014   2.506616   2.562259   0.000000
     5  O    1.615342   2.562259   1.588686   2.562259   0.000000
 Stoichiometry    O4S
 Framework group  C2V[C2(S),SGV(O2),SGV'(O2)]
 Deg. of freedom     4
 Full point group                 C2V
 Largest Abelian subgroup         C2V     NOp   4
 Largest concise Abelian subgroup C2V     NOp   4
                         Standard orientation:                         
 ---------------------------------------------------------------------
 Center     Atomic     Atomic              Coordinates (Angstroms)
 Number     Number      Type              X           Y           Z
 ---------------------------------------------------------------------
    1         16             0        0.000000    0.000000    0.241399
    2          8             0        0.000000    1.253308    0.923740
    3          8             0        0.794343    0.000000   -1.165139
    4          8             0        0.000000   -1.253308    0.923740
    5          8             0       -0.794343    0.000000   -1.165139
 ---------------------------------------------------------------------
 Rotational constants (GHZ):      7.1752157      5.4475046      4.1142376
 Standard basis: CBSB7 (5D, 7F)
 There are    41 symmetry adapted basis functions of A1  symmetry.
 There are    12 symmetry adapted basis functions of A2  symmetry.
 There are    25 symmetry adapted basis functions of B1  symmetry.
 There are    25 symmetry adapted basis functions of B2  symmetry.
 Integral buffers will be    131072 words long.
 Raffenetti 2 integral format.
 Two-electron integral symmetry is turned on.
   103 basis functions,   180 primitive gaussians,   109 cartesian basis functions
    24 alpha electrons       24 beta electrons
       nuclear repulsion energy       266.4963257705 Hartrees.
 NAtoms=    5 NActive=    5 NUniq=    3 SFac= 2.08D+00 NAtFMM=   80 NAOKFM=F Big=F
 One-electron integrals computed using PRISM.
 NBasis=   103 RedAO= T  NBF=    41    12    25    25
 NBsUse=   103 1.00D-06 NBFU=    41    12    25    25
 Initial guess read from the read-write file:
 Initial guess orbital symmetries:
       Occupied  (A1) (A1) (B1) (B2) (A1) (A1) (A1) (B1) (B2) (A1)
                 (A1) (B2) (B1) (A1) (A1) (B1) (B2) (A1) (B2) (A1)
                 (A2) (B1) (B2) (A2)
       Virtual   (B1) (A1) (B1) (A1) (B2) (B1) (A1) (B2) (A1) (A1)
                 (A2) (B1) (A1) (B2) (A1) (B1) (A2) (B2) (A1) (A1)
                 (B1) (A2) (B2) (B1) (B2) (A1) (A1) (B2) (B1) (B1)
                 (A1) (B2) (A1) (A1) (B2) (B1) (A2) (A1) (A1) (B2)
                 (B2) (A1) (A2) (A2) (B1) (B2) (B1) (A2) (A1) (B1)
                 (B1) (A2) (A1) (B2) (A1) (B2) (B1) (A1) (A1) (A2)
                 (B2) (B1) (A1) (A2) (A1) (B2) (B1) (B1) (B2) (A1)
                 (A1) (B1) (B2) (A1) (B1) (A1) (B2) (A1) (A1)
 Requested convergence on RMS density matrix=1.00D-08 within 128 cycles.
 Requested convergence on MAX density matrix=1.00D-06.
 Requested convergence on             energy=1.00D-06.
 No special actions if energy rises.
 Keep R1 integrals in memory in canonical form, NReq=    19826154.
 SCF Done:  E(RB+HF-LYP) =  -698.995150304     A.U. after    9 cycles
             Convg  =    0.6286D-08             -V/T =  2.0017
             S**2   =   0.0000
 ***** Axes restored to original set *****
 -------------------------------------------------------------------
 Center     Atomic                   Forces (Hartrees/Bohr)
 Number     Number              X              Y              Z
 -------------------------------------------------------------------
    1         16           0.000000000    0.000000000    0.000389483
    2          8           0.000000000   -0.005681503   -0.003078922
    3          8          -0.000661768    0.000000000    0.002884181
    4          8           0.000000000    0.005681503   -0.003078922
    5          8           0.000661768    0.000000000    0.002884181
 -------------------------------------------------------------------
 Cartesian Forces:  Max     0.005681503 RMS     0.002597217

 GradGradGradGradGradGradGradGradGradGradGradGradGradGradGradGradGradGrad
 Berny optimization.
 Internal  Forces:  Max     0.006462127 RMS     0.003260564
 Search for a local minimum.
 Step number   2 out of a maximum of  20
 All quantities printed in internal units (Hartrees-Bohrs-Radians)
 Update second derivatives using D2CorX and points  1  2
 Trust test= 1.39D+00 RLast= 3.54D-02 DXMaxT set to 3.00D-01
 The second derivative matrix:
                          R1        R2        R3        R4        R5
           R1           0.89964
           R2          -0.06491   0.43875
           R3          -0.12494  -0.06491   0.89964
           R4          -0.06491  -0.03101  -0.06491   0.43875
           R5           0.01787   0.01067   0.01787   0.01067   0.24973
           A1          -0.00064   0.00001  -0.00064   0.00001   0.00027
           A2          -0.00085  -0.00190  -0.00085  -0.00190  -0.00062
           A3          -0.00064   0.00001  -0.00064   0.00001   0.00027
           A4          -0.00064   0.00001  -0.00064   0.00001   0.00027
           A5          -0.00064   0.00001  -0.00064   0.00001   0.00027
                          A1        A2        A3        A4        A5
           A1           0.25004
           A2          -0.00019   0.25078
           A3           0.00004  -0.00019   0.25004
           A4           0.00004  -0.00019   0.00004   0.25004
           A5           0.00004  -0.00019   0.00004   0.00004   0.25004
     Eigenvalues ---    0.24498   0.25000   0.25000   0.25000   0.25091
     Eigenvalues ---    0.37018   0.46976   0.81652   1.024571000.00000
 RFO step:  Lambda=-8.19224079D-06.
 Quartic linear search produced a step of  0.60063.
 Iteration  1 RMS(Cart)=  0.00732716 RMS(Int)=  0.00001162
 Iteration  2 RMS(Cart)=  0.00000487 RMS(Int)=  0.00000971
 Iteration  3 RMS(Cart)=  0.00000000 RMS(Int)=  0.00000971
 Variable       Old X    -DE/DX   Delta X   Delta X   Delta X     New X
                                 (Linear)    (Quad)   (Total)
    R1        2.69667  -0.00646  -0.01023   0.00019  -0.01005   2.68662
    R2        3.05255  -0.00330  -0.00895  -0.00205  -0.01100   3.04155
    R3        2.69667  -0.00646  -0.01023   0.00019  -0.01005   2.68662
    R4        3.05255  -0.00330  -0.00895  -0.00205  -0.01100   3.04155
    R5        3.00218   0.00095   0.00848  -0.00299   0.00549   3.00767
    A1        2.00022  -0.00011   0.00042  -0.00088  -0.00048   1.99975
    A2        2.14448  -0.00022  -0.00296   0.00221  -0.00077   2.14371
    A3        2.00022  -0.00011   0.00042  -0.00088  -0.00048   1.99975
    A4        2.00022  -0.00011   0.00042  -0.00088  -0.00048   1.99975
    A5        2.00022  -0.00011   0.00042  -0.00088  -0.00048   1.99975
         Item               Value     Threshold  Converged?
 Maximum Force            0.006462     0.000450     NO 
 RMS     Force            0.003261     0.000300     NO 
 Maximum Displacement     0.010080     0.001800     NO 
 RMS     Displacement     0.007331     0.001200     NO 
 Predicted change in Energy=-1.085955D-04
 GradGradGradGradGradGradGradGradGradGradGradGradGradGradGradGradGradGrad

                          Input orientation:                          
 ---------------------------------------------------------------------
 Center     Atomic     Atomic              Coordinates (Angstroms)
 Number     Number      Type              X           Y           Z
 ---------------------------------------------------------------------
    1         16             0        0.000000    0.000000    0.238556
    2          8             0        0.000000    1.248378    0.918833
    3          8             0        0.795795    0.000000   -1.160467
    4          8             0        0.000000   -1.248378    0.918833
    5          8             0       -0.795795    0.000000   -1.160467
 ---------------------------------------------------------------------
                    Distance matrix (angstroms):
                    1          2          3          4          5
     1  S    0.000000
     2  O    1.421698   0.000000
     3  O    1.609520   2.552494   0.000000
     4  O    1.421698   2.496756   2.552494   0.000000
     5  O    1.609520   2.552494   1.591590   2.552494   0.000000
 Stoichiometry    O4S
 Framework group  C2V[C2(S),SGV(O2),SGV'(O2)]
 Deg. of freedom     4
 Full point group                 C2V
 Largest Abelian subgroup         C2V     NOp   4
 Largest concise Abelian subgroup C2V     NOp   4
                         Standard orientation:                         
 ---------------------------------------------------------------------
 Center     Atomic     Atomic              Coordinates (Angstroms)
 Number     Number      Type              X           Y           Z
 ---------------------------------------------------------------------
    1         16             0        0.000000    0.000000    0.239582
    2          8             0        0.000000    1.248378    0.919859
    3          8             0        0.795795    0.000000   -1.159441
    4          8             0        0.000000   -1.248378    0.919859
    5          8             0       -0.795795    0.000000   -1.159441
 ---------------------------------------------------------------------
 Rotational constants (GHZ):      7.2080324      5.4833604      4.1505620
 Standard basis: CBSB7 (5D, 7F)
 There are    41 symmetry adapted basis functions of A1  symmetry.
 There are    12 symmetry adapted basis functions of A2  symmetry.
 There are    25 symmetry adapted basis functions of B1  symmetry.
 There are    25 symmetry adapted basis functions of B2  symmetry.
 Integral buffers will be    131072 words long.
 Raffenetti 2 integral format.
 Two-electron integral symmetry is turned on.
   103 basis functions,   180 primitive gaussians,   109 cartesian basis functions
    24 alpha electrons       24 beta electrons
       nuclear repulsion energy       267.3713960028 Hartrees.
 NAtoms=    5 NActive=    5 NUniq=    3 SFac= 2.08D+00 NAtFMM=   80 NAOKFM=F Big=F
 One-electron integrals computed using PRISM.
 NBasis=   103 RedAO= T  NBF=    41    12    25    25
 NBsUse=   103 1.00D-06 NBFU=    41    12    25    25
 Initial guess read from the read-write file:
 Initial guess orbital symmetries:
       Occupied  (A1) (A1) (B1) (B2) (A1) (A1) (A1) (B1) (B2) (A1)
                 (A1) (B2) (B1) (A1) (A1) (B1) (B2) (A1) (B2) (A1)
                 (A2) (B1) (B2) (A2)
       Virtual   (B1) (A1) (B1) (A1) (B2) (B1) (A1) (B2) (A1) (A1)
                 (A2) (B1) (A1) (B2) (A1) (B1) (A2) (B2) (A1) (A1)
                 (B1) (A2) (B2) (B1) (B2) (A1) (A1) (B2) (B1) (B1)
                 (A1) (B2) (A1) (A1) (B2) (B1) (A2) (A1) (A1) (B2)
                 (B2) (A1) (A2) (A2) (B1) (B2) (B1) (A2) (A1) (B1)
                 (B1) (A2) (A1) (B2) (A1) (B1) (B2) (A1) (A1) (A2)
                 (B2) (B1) (A1) (A2) (B2) (A1) (B1) (B1) (B2) (A1)
                 (A1) (B1) (B2) (A1) (B1) (A1) (B2) (A1) (A1)
 Requested convergence on RMS density matrix=1.00D-08 within 128 cycles.
 Requested convergence on MAX density matrix=1.00D-06.
 Requested convergence on             energy=1.00D-06.
 No special actions if energy rises.
 Keep R1 integrals in memory in canonical form, NReq=    19826154.
 SCF Done:  E(RB+HF-LYP) =  -698.995255777     A.U. after    9 cycles
             Convg  =    0.3565D-08             -V/T =  2.0017
             S**2   =   0.0000
 ***** Axes restored to original set *****
 -------------------------------------------------------------------
 Center     Atomic                   Forces (Hartrees/Bohr)
 Number     Number              X              Y              Z
 -------------------------------------------------------------------
    1         16           0.000000000    0.000000000   -0.001108305
    2          8           0.000000000    0.000320299    0.000184607
    3          8          -0.000279628    0.000000000    0.000369546
    4          8           0.000000000   -0.000320299    0.000184607
    5          8           0.000279628    0.000000000    0.000369546
 -------------------------------------------------------------------
 Cartesian Forces:  Max     0.001108305 RMS     0.000358812

 GradGradGradGradGradGradGradGradGradGradGradGradGradGradGradGradGradGrad
 Berny optimization.
 Internal  Forces:  Max     0.000424734 RMS     0.000252972
 Search for a local minimum.
 Step number   3 out of a maximum of  20
 All quantities printed in internal units (Hartrees-Bohrs-Radians)
 Update second derivatives using D2CorX and points  1  2  3
 Trust test= 9.71D-01 RLast= 2.18D-02 DXMaxT set to 3.00D-01
 The second derivative matrix:
                          R1        R2        R3        R4        R5
           R1           0.92947
           R2          -0.06844   0.43050
           R3          -0.09510  -0.06844   0.92947
           R4          -0.06844  -0.03926  -0.06844   0.43050
           R5           0.00821   0.00923   0.00821   0.00923   0.25209
           A1          -0.00050  -0.00006  -0.00050  -0.00006   0.00020
           A2           0.00140  -0.00167   0.00140  -0.00167  -0.00120
           A3          -0.00050  -0.00006  -0.00050  -0.00006   0.00020
           A4          -0.00050  -0.00006  -0.00050  -0.00006   0.00020
           A5          -0.00050  -0.00006  -0.00050  -0.00006   0.00020
                          A1        A2        A3        A4        A5
           A1           0.25004
           A2          -0.00017   0.25091
           A3           0.00004  -0.00017   0.25004
           A4           0.00004  -0.00017   0.00004   0.25004
           A5           0.00004  -0.00017   0.00004   0.00004   0.25004
     Eigenvalues ---    0.24902   0.25000   0.25000   0.25000   0.25153
     Eigenvalues ---    0.35451   0.46976   0.87319   1.024571000.00000
 RFO step:  Lambda=-1.05021450D-06.
 Quartic linear search produced a step of  0.00744.
 Iteration  1 RMS(Cart)=  0.00033078 RMS(Int)=  0.00000004
 Iteration  2 RMS(Cart)=  0.00000001 RMS(Int)=  0.00000003
 Variable       Old X    -DE/DX   Delta X   Delta X   Delta X     New X
                                 (Linear)    (Quad)   (Total)
    R1        2.68662   0.00037  -0.00007   0.00036   0.00029   2.68690
    R2        3.04155  -0.00042  -0.00008  -0.00090  -0.00098   3.04057
    R3        2.68662   0.00037  -0.00007   0.00036   0.00029   2.68690
    R4        3.04155  -0.00042  -0.00008  -0.00090  -0.00098   3.04057
    R5        3.00767  -0.00007   0.00004  -0.00026  -0.00022   3.00745
    A1        1.99975   0.00000   0.00000   0.00001   0.00001   1.99975
    A2        2.14371  -0.00003  -0.00001  -0.00010  -0.00010   2.14361
    A3        1.99975   0.00000   0.00000   0.00001   0.00001   1.99975
    A4        1.99975   0.00000   0.00000   0.00001   0.00001   1.99975
    A5        1.99975   0.00000   0.00000   0.00001   0.00001   1.99975
         Item               Value     Threshold  Converged?
 Maximum Force            0.000425     0.000450     YES
 RMS     Force            0.000253     0.000300     YES
 Maximum Displacement     0.000536     0.001800     YES
 RMS     Displacement     0.000331     0.001200     YES
 Predicted change in Energy=-5.317393D-07
 Optimization completed.
    -- Stationary point found.
                           ----------------------------
                           !   Optimized Parameters   !
                           ! (Angstroms and Degrees)  !
 --------------------------                            --------------------------
 ! Name  Definition              Value          Derivative Info.                !
 --------------------------------------------------------------------------------
 ! R1    R(1,2)                  1.4217         -DE/DX =    0.0004              !
 ! R2    R(1,3)                  1.6095         -DE/DX =   -0.0004              !
 ! R3    R(1,4)                  1.4217         -DE/DX =    0.0004              !
 ! R4    R(1,5)                  1.6095         -DE/DX =   -0.0004              !
 ! R5    R(3,5)                  1.5916         -DE/DX =   -0.0001              !
 ! A1    A(2,1,3)              114.5771         -DE/DX =    0.0                 !
 ! A2    A(2,1,4)              122.8255         -DE/DX =    0.0                 !
 ! A3    A(2,1,5)              114.5771         -DE/DX =    0.0                 !
 ! A4    A(3,1,4)              114.5771         -DE/DX =    0.0                 !
 ! A5    A(4,1,5)              114.5771         -DE/DX =    0.0                 !
 --------------------------------------------------------------------------------
 GradGradGradGradGradGradGradGradGradGradGradGradGradGradGradGradGradGrad

                          Input orientation:                          
 ---------------------------------------------------------------------
 Center     Atomic     Atomic              Coordinates (Angstroms)
 Number     Number      Type              X           Y           Z
 ---------------------------------------------------------------------
    1         16             0        0.000000    0.000000    0.238556
    2          8             0        0.000000    1.248378    0.918833
    3          8             0        0.795795    0.000000   -1.160467
    4          8             0        0.000000   -1.248378    0.918833
    5          8             0       -0.795795    0.000000   -1.160467
 ---------------------------------------------------------------------
                    Distance matrix (angstroms):
                    1          2          3          4          5
     1  S    0.000000
     2  O    1.421698   0.000000
     3  O    1.609520   2.552494   0.000000
     4  O    1.421698   2.496756   2.552494   0.000000
     5  O    1.609520   2.552494   1.591590   2.552494   0.000000
 Stoichiometry    O4S
 Framework group  C2V[C2(S),SGV(O2),SGV'(O2)]
 Deg. of freedom     4
 Full point group                 C2V
 Largest Abelian subgroup         C2V     NOp   4
 Largest concise Abelian subgroup C2V     NOp   4
                         Standard orientation:                         
 ---------------------------------------------------------------------
 Center     Atomic     Atomic              Coordinates (Angstroms)
 Number     Number      Type              X           Y           Z
 ---------------------------------------------------------------------
    1         16             0        0.000000    0.000000    0.239582
    2          8             0        0.000000    1.248378    0.919859
    3          8             0        0.795795    0.000000   -1.159441
    4          8             0        0.000000   -1.248378    0.919859
    5          8             0       -0.795795    0.000000   -1.159441
 ---------------------------------------------------------------------
 Rotational constants (GHZ):      7.2080324      5.4833604      4.1505620

 **********************************************************************

            Population analysis using the SCF density.

 **********************************************************************

 Orbital symmetries:
       Occupied  (A1) (A1) (B1) (B2) (A1) (A1) (A1) (B1) (B2) (A1)
                 (A1) (B2) (B1) (A1) (A1) (B1) (B2) (A1) (B2) (A1)
                 (A2) (B1) (B2) (A2)
       Virtual   (B1) (A1) (B1) (A1) (B2) (B1) (A1) (B2) (A1) (A1)
                 (A2) (B1) (A1) (B2) (A1) (B1) (A2) (B2) (A1) (A1)
                 (B1) (A2) (B2) (B1) (B2) (A1) (A1) (B2) (B1) (A1)
                 (B1) (B2) (A1) (A1) (B2) (B1) (A2) (A1) (A1) (B2)
                 (B2) (A1) (A2) (B1) (A2) (B2) (A2) (B1) (A1) (B1)
                 (B1) (A2) (A1) (B2) (A1) (B1) (B2) (A1) (A1) (A2)
                 (B2) (B1) (A1) (A2) (B2) (A1) (B1) (B1) (B2) (A1)
                 (A1) (B1) (B2) (A1) (B1) (A1) (B2) (A1) (A1)
 The electronic state is 1-A1.
 Alpha  occ. eigenvalues --  -89.14673 -19.28081 -19.28076 -19.19942 -19.19942
 Alpha  occ. eigenvalues --   -8.20449  -6.16823  -6.16772  -6.16512  -1.28319
 Alpha  occ. eigenvalues --   -1.15460  -1.10075  -0.98271  -0.69338  -0.57204
 Alpha  occ. eigenvalues --   -0.56210  -0.55913  -0.52472  -0.47718  -0.43903
 Alpha  occ. eigenvalues --   -0.42058  -0.41042  -0.37112  -0.35713
 Alpha virt. eigenvalues --   -0.16022  -0.05497  -0.03302   0.09854   0.11993
 Alpha virt. eigenvalues --    0.13993   0.18134   0.19330   0.30525   0.39990
 Alpha virt. eigenvalues --    0.41146   0.51462   0.57396   0.59046   0.68372
 Alpha virt. eigenvalues --    0.69740   0.70820   0.76668   0.78458   0.79890
 Alpha virt. eigenvalues --    0.82149   0.84541   0.86382   0.94430   0.98678
 Alpha virt. eigenvalues --    1.01079   1.20849   1.25297   1.30501   1.48988
 Alpha virt. eigenvalues --    1.49186   1.71012   1.77884   1.92641   1.98691
 Alpha virt. eigenvalues --    2.01021   2.03292   2.34739   2.48071   2.56390
 Alpha virt. eigenvalues --    2.68339   2.68877   2.69851   2.73680   2.73693
 Alpha virt. eigenvalues --    2.78255   2.87973   2.88135   2.91295   2.92627
 Alpha virt. eigenvalues --    3.10931   3.14348   3.17036   3.22918   3.36795
 Alpha virt. eigenvalues --    3.43270   3.46390   3.47228   4.54436   4.64662
 Alpha virt. eigenvalues --    4.69095   4.70298   4.71250   4.74016   4.75918
 Alpha virt. eigenvalues --    4.77240   4.77719   4.99895   5.11743   5.49630
 Alpha virt. eigenvalues --    7.78512  17.04024  17.42160  17.47792  49.63666
 Alpha virt. eigenvalues --   49.69866  49.70111  49.77460 188.81411
          Condensed to atoms (all electrons):
              1          2          3          4          5
     1  S   13.527614   0.594983   0.242011   0.594983   0.242011
     2  O    0.594983   7.755846  -0.015464  -0.019436  -0.015464
     3  O    0.242011  -0.015464   7.905853  -0.015464  -0.018198
     4  O    0.594983  -0.019436  -0.015464   7.755846  -0.015464
     5  O    0.242011  -0.015464  -0.018198  -0.015464   7.905853
 Mulliken atomic charges:
              1
     1  S    0.798400
     2  O   -0.300463
     3  O   -0.098737
     4  O   -0.300463
     5  O   -0.098737
 Sum of Mulliken charges=   0.00000
 Atomic charges with hydrogens summed into heavy atoms:
              1
     1  S    0.798400
     2  O   -0.300463
     3  O   -0.098737
     4  O   -0.300463
     5  O   -0.098737
 Sum of Mulliken charges=   0.00000
 Electronic spatial extent (au):  <R**2>=   330.7004
 Charge=     0.0000 electrons
 Dipole moment (field-independent basis, Debye):
    X=     0.0000    Y=     0.0000    Z=    -0.4111  Tot=     0.4111
 Quadrupole moment (field-independent basis, Debye-Ang):
   XX=   -30.9878   YY=   -36.9584   ZZ=   -35.6697
   XY=     0.0000   XZ=     0.0000   YZ=     0.0000
 Traceless Quadrupole moment (field-independent basis, Debye-Ang):
   XX=     3.5509   YY=    -2.4197   ZZ=    -1.1311
   XY=     0.0000   XZ=     0.0000   YZ=     0.0000
 Octapole moment (field-independent basis, Debye-Ang**2):
  XXX=     0.0000  YYY=     0.0000  ZZZ=    -2.2982  XYY=     0.0000
  XXY=     0.0000  XXZ=     0.9531  XZZ=     0.0000  YZZ=     0.0000
  YYZ=    -3.7955  XYZ=     0.0000
 Hexadecapole moment (field-independent basis, Debye-Ang**3):
 XXXX=   -60.1122 YYYY=  -132.8121 ZZZZ=  -170.4360 XXXY=     0.0000
 XXXZ=     0.0000 YYYX=     0.0000 YYYZ=     0.0000 ZZZX=     0.0000
 ZZZY=     0.0000 XXYY=   -32.4723 XXZZ=   -40.0172 YYZZ=   -53.1659
 XXYZ=     0.0000 YYXZ=     0.0000 ZZXY=     0.0000
 N-N= 2.673713960028D+02 E-N=-2.190437794072D+03  KE= 6.978341191423D+02
 Symmetry A1   KE= 4.629791280653D+02
 Symmetry A2   KE= 1.016964090165D+01
 Symmetry B1   KE= 1.099270908082D+02
 Symmetry B2   KE= 1.147582593671D+02
 1\1\GINC-NODE37\FOpt\RB3LYP\CBSB7\O4S1\ALONGD\09-Feb-2018\0\\#CBS-QB3 
 opt freq\\SO2OO\\0,1\S,0.,0.,0.2385560263\O,0.,1.2483781117,0.91883290
 98\O,0.7957949673,0.,-1.1604669229\O,0.,-1.2483781117,0.9188329098\O,-
 0.7957949673,0.,-1.1604669229\\Version=AM64L-G03RevD.01\State=1-A1\HF=
 -698.9952558\RMSD=3.565e-09\RMSF=3.588e-04\Thermal=0.\Dipole=0.,0.,-0.
 1617401\PG=C02V [C2(S1),SGV(O2),SGV'(O2)]\\@


 A leading authority is anyone who has guessed right more than once.
 -- Frank A. Clark
 Job cpu time:  0 days  0 hours  2 minutes  2.2 seconds.
 File lengths (MBytes):  RWF=     17 Int=      0 D2E=      0 Chk=      6 Scr=      1
 Normal termination of Gaussian 03 at Fri Feb  9 22:33:46 2018.
 Link1:  Proceeding to internal job step number  2.
 -------------------------------------------------------
 #N Geom=AllCheck Guess=Read SCRF=Check B3LYP/CBSB7 Freq
 -------------------------------------------------------
 1/10=4,29=7,30=1,38=1,40=1,46=1/1,3;
 2/40=1/2;
 3/5=4,6=6,7=700,11=2,16=1,25=1,30=1,70=2,71=2,74=-5/1,2,3;
 4/5=1/1;
 5/5=2,38=6/2;
 8/6=4,10=90,11=11/1;
 11/6=1,8=1,9=11,15=111,16=1/1,2,10;
 10/6=1/2;
 6/7=2,8=2,9=2,10=2,18=1,28=1/1;
 7/8=1,10=1,25=1/1,2,3,16;
 1/10=4,30=1,46=1/3;
 99//99;
 -----
 SO2OO
 -----
 Redundant internal coordinates taken from checkpoint file:
 input.chk
 Charge =  0 Multiplicity = 1
 S,0,0.,0.,0.2385560263
 O,0,0.,1.2483781117,0.9188329098
 O,0,0.7957949673,0.,-1.1604669229
 O,0,0.,-1.2483781117,0.9188329098
 O,0,-0.7957949673,0.,-1.1604669229
 Recover connectivity data from disk.

 GradGradGradGradGradGradGradGradGradGradGradGradGradGradGradGradGradGrad
 Berny optimization.
 Initialization pass.
                           ----------------------------
                           !    Initial Parameters    !
                           ! (Angstroms and Degrees)  !
 --------------------------                            --------------------------
 ! Name  Definition              Value          Derivative Info.                !
 --------------------------------------------------------------------------------
 ! R1    R(1,2)                  1.4217         calculate D2E/DX2 analytically  !
 ! R2    R(1,3)                  1.6095         calculate D2E/DX2 analytically  !
 ! R3    R(1,4)                  1.4217         calculate D2E/DX2 analytically  !
 ! R4    R(1,5)                  1.6095         calculate D2E/DX2 analytically  !
 ! R5    R(3,5)                  1.5916         calculate D2E/DX2 analytically  !
 ! A1    A(2,1,3)              114.5771         calculate D2E/DX2 analytically  !
 ! A2    A(2,1,4)              122.8255         calculate D2E/DX2 analytically  !
 ! A3    A(2,1,5)              114.5771         calculate D2E/DX2 analytically  !
 ! A4    A(3,1,4)              114.5771         calculate D2E/DX2 analytically  !
 ! A5    A(4,1,5)              114.5771         calculate D2E/DX2 analytically  !
 --------------------------------------------------------------------------------
 Trust Radius=3.00D-01 FncErr=1.00D-07 GrdErr=1.00D-07
 Number of steps in this run=   2 maximum allowed number of steps=   2.
 GradGradGradGradGradGradGradGradGradGradGradGradGradGradGradGradGradGrad

                          Input orientation:                          
 ---------------------------------------------------------------------
 Center     Atomic     Atomic              Coordinates (Angstroms)
 Number     Number      Type              X           Y           Z
 ---------------------------------------------------------------------
    1         16             0        0.000000    0.000000    0.238556
    2          8             0        0.000000    1.248378    0.918833
    3          8             0        0.795795    0.000000   -1.160467
    4          8             0        0.000000   -1.248378    0.918833
    5          8             0       -0.795795    0.000000   -1.160467
 ---------------------------------------------------------------------
                    Distance matrix (angstroms):
                    1          2          3          4          5
     1  S    0.000000
     2  O    1.421698   0.000000
     3  O    1.609520   2.552494   0.000000
     4  O    1.421698   2.496756   2.552494   0.000000
     5  O    1.609520   2.552494   1.591590   2.552494   0.000000
 Stoichiometry    O4S
 Framework group  C2V[C2(S),SGV(O2),SGV'(O2)]
 Deg. of freedom     4
 Full point group                 C2V
 Largest Abelian subgroup         C2V     NOp   4
 Largest concise Abelian subgroup C2V     NOp   4
                         Standard orientation:                         
 ---------------------------------------------------------------------
 Center     Atomic     Atomic              Coordinates (Angstroms)
 Number     Number      Type              X           Y           Z
 ---------------------------------------------------------------------
    1         16             0        0.000000    0.000000    0.239582
    2          8             0        0.000000    1.248378    0.919859
    3          8             0        0.795795    0.000000   -1.159441
    4          8             0        0.000000   -1.248378    0.919859
    5          8             0       -0.795795    0.000000   -1.159441
 ---------------------------------------------------------------------
 Rotational constants (GHZ):      7.2080324      5.4833604      4.1505620
 Standard basis: CBSB7 (5D, 7F)
 There are    41 symmetry adapted basis functions of A1  symmetry.
 There are    12 symmetry adapted basis functions of A2  symmetry.
 There are    25 symmetry adapted basis functions of B1  symmetry.
 There are    25 symmetry adapted basis functions of B2  symmetry.
 Integral buffers will be    131072 words long.
 Raffenetti 2 integral format.
 Two-electron integral symmetry is turned on.
   103 basis functions,   180 primitive gaussians,   109 cartesian basis functions
    24 alpha electrons       24 beta electrons
       nuclear repulsion energy       267.3713960028 Hartrees.
 NAtoms=    5 NActive=    5 NUniq=    3 SFac= 2.08D+00 NAtFMM=   80 NAOKFM=F Big=F
 One-electron integrals computed using PRISM.
 NBasis=   103 RedAO= T  NBF=    41    12    25    25
 NBsUse=   103 1.00D-06 NBFU=    41    12    25    25
 Initial guess read from the checkpoint file:
 input.chk
 Initial guess orbital symmetries:
       Occupied  (A1) (A1) (B1) (B2) (A1) (A1) (A1) (B1) (B2) (A1)
                 (A1) (B2) (B1) (A1) (A1) (B1) (B2) (A1) (B2) (A1)
                 (A2) (B1) (B2) (A2)
       Virtual   (B1) (A1) (B1) (A1) (B2) (B1) (A1) (B2) (A1) (A1)
                 (A2) (B1) (A1) (B2) (A1) (B1) (A2) (B2) (A1) (A1)
                 (B1) (A2) (B2) (B1) (B2) (A1) (A1) (B2) (B1) (A1)
                 (B1) (B2) (A1) (A1) (B2) (B1) (A2) (A1) (A1) (B2)
                 (B2) (A1) (A2) (B1) (A2) (B2) (A2) (B1) (A1) (B1)
                 (B1) (A2) (A1) (B2) (A1) (B1) (B2) (A1) (A1) (A2)
                 (B2) (B1) (A1) (A2) (B2) (A1) (B1) (B1) (B2) (A1)
                 (A1) (B1) (B2) (A1) (B1) (A1) (B2) (A1) (A1)
 Requested convergence on RMS density matrix=1.00D-08 within 128 cycles.
 Requested convergence on MAX density matrix=1.00D-06.
 Requested convergence on             energy=1.00D-06.
 No special actions if energy rises.
 Keep R1 integrals in memory in canonical form, NReq=    19826154.
 SCF Done:  E(RB+HF-LYP) =  -698.995255777     A.U. after    1 cycles
             Convg  =    0.7284D-09             -V/T =  2.0017
             S**2   =   0.0000
 Range of M.O.s used for correlation:     1   103
 NBasis=   103 NAE=    24 NBE=    24 NFC=     0 NFV=     0
 NROrb=    103 NOA=    24 NOB=    24 NVA=    79 NVB=    79
 Symmetrizing basis deriv contribution to polar:
 IMax=3 JMax=2 DiffMx= 0.00D+00
 G2DrvN: will do    6 centers at a time, making    1 passes doing MaxLOS=2.
 FoFDir/FoFCou used for L=0 through L=2.
 DoAtom=TTTTT
          Differentiating once with respect to electric field.
                with respect to dipole field.
          Differentiating once with respect to nuclear coordinates.
          Store integrals in memory, NReq=    18795277.
          There are  12 degrees of freedom in the 1st order CPHF.
    12 vectors were produced by pass  0.
 AX will form  12 AO Fock derivatives at one time.
    12 vectors were produced by pass  1.
    12 vectors were produced by pass  2.
    12 vectors were produced by pass  3.
    12 vectors were produced by pass  4.
    12 vectors were produced by pass  5.
    12 vectors were produced by pass  6.
     6 vectors were produced by pass  7.
     2 vectors were produced by pass  8.
 Inv2:  IOpt= 1 Iter= 1 AM= 1.17D-15 Conv= 1.00D-12.
 Inverted reduced A of dimension   92 with in-core refinement.
 Isotropic polarizability for W=    0.000000       26.96 Bohr**3.
 End of Minotr Frequency-dependent properties file   721 does not exist.

 **********************************************************************

            Population analysis using the SCF density.

 **********************************************************************

 Orbital symmetries:
       Occupied  (A1) (A1) (B1) (B2) (A1) (A1) (A1) (B1) (B2) (A1)
                 (A1) (B2) (B1) (A1) (A1) (B1) (B2) (A1) (B2) (A1)
                 (A2) (B1) (B2) (A2)
       Virtual   (B1) (A1) (B1) (A1) (B2) (B1) (A1) (B2) (A1) (A1)
                 (A2) (B1) (A1) (B2) (A1) (B1) (A2) (B2) (A1) (A1)
                 (B1) (A2) (B2) (B1) (B2) (A1) (A1) (B2) (B1) (A1)
                 (B1) (B2) (A1) (A1) (B2) (B1) (A2) (A1) (A1) (B2)
                 (B2) (A1) (A2) (B1) (A2) (B2) (A2) (B1) (A1) (B1)
                 (B1) (A2) (A1) (B2) (A1) (B1) (B2) (A1) (A1) (A2)
                 (B2) (B1) (A1) (A2) (B2) (A1) (B1) (B1) (B2) (A1)
                 (A1) (B1) (B2) (A1) (B1) (A1) (B2) (A1) (A1)
 The electronic state is 1-A1.
 Alpha  occ. eigenvalues --  -89.14673 -19.28081 -19.28076 -19.19942 -19.19942
 Alpha  occ. eigenvalues --   -8.20449  -6.16823  -6.16772  -6.16512  -1.28319
 Alpha  occ. eigenvalues --   -1.15460  -1.10075  -0.98271  -0.69338  -0.57204
 Alpha  occ. eigenvalues --   -0.56210  -0.55913  -0.52472  -0.47718  -0.43903
 Alpha  occ. eigenvalues --   -0.42058  -0.41042  -0.37112  -0.35713
 Alpha virt. eigenvalues --   -0.16022  -0.05497  -0.03302   0.09854   0.11993
 Alpha virt. eigenvalues --    0.13993   0.18134   0.19330   0.30525   0.39990
 Alpha virt. eigenvalues --    0.41146   0.51462   0.57396   0.59046   0.68372
 Alpha virt. eigenvalues --    0.69740   0.70820   0.76668   0.78458   0.79890
 Alpha virt. eigenvalues --    0.82149   0.84541   0.86382   0.94430   0.98678
 Alpha virt. eigenvalues --    1.01079   1.20849   1.25297   1.30501   1.48988
 Alpha virt. eigenvalues --    1.49186   1.71012   1.77884   1.92641   1.98691
 Alpha virt. eigenvalues --    2.01021   2.03292   2.34739   2.48071   2.56390
 Alpha virt. eigenvalues --    2.68339   2.68877   2.69851   2.73680   2.73693
 Alpha virt. eigenvalues --    2.78255   2.87973   2.88135   2.91295   2.92627
 Alpha virt. eigenvalues --    3.10931   3.14348   3.17036   3.22918   3.36795
 Alpha virt. eigenvalues --    3.43270   3.46390   3.47228   4.54436   4.64662
 Alpha virt. eigenvalues --    4.69095   4.70298   4.71250   4.74016   4.75918
 Alpha virt. eigenvalues --    4.77240   4.77719   4.99895   5.11743   5.49630
 Alpha virt. eigenvalues --    7.78512  17.04024  17.42160  17.47792  49.63666
 Alpha virt. eigenvalues --   49.69866  49.70111  49.77460 188.81411
          Condensed to atoms (all electrons):
              1          2          3          4          5
     1  S   13.527614   0.594983   0.242011   0.594983   0.242011
     2  O    0.594983   7.755846  -0.015464  -0.019436  -0.015464
     3  O    0.242011  -0.015464   7.905853  -0.015464  -0.018198
     4  O    0.594983  -0.019436  -0.015464   7.755846  -0.015464
     5  O    0.242011  -0.015464  -0.018198  -0.015464   7.905853
 Mulliken atomic charges:
              1
     1  S    0.798400
     2  O   -0.300463
     3  O   -0.098737
     4  O   -0.300463
     5  O   -0.098737
 Sum of Mulliken charges=   0.00000
 Atomic charges with hydrogens summed into heavy atoms:
              1
     1  S    0.798400
     2  O   -0.300463
     3  O   -0.098737
     4  O   -0.300463
     5  O   -0.098737
 Sum of Mulliken charges=   0.00000
 APT atomic charges:
              1
     1  S    1.891023
     2  O   -0.603693
     3  O   -0.341818
     4  O   -0.603693
     5  O   -0.341818
 Sum of APT charges=   0.00000
 APT Atomic charges with hydrogens summed into heavy atoms:
              1
     1  S    1.891023
     2  O   -0.603693
     3  O   -0.341818
     4  O   -0.603693
     5  O   -0.341818
 Sum of APT charges=   0.00000
 Electronic spatial extent (au):  <R**2>=   330.7004
 Charge=     0.0000 electrons
 Dipole moment (field-independent basis, Debye):
    X=     0.0000    Y=     0.0000    Z=    -0.4111  Tot=     0.4111
 Quadrupole moment (field-independent basis, Debye-Ang):
   XX=   -30.9878   YY=   -36.9584   ZZ=   -35.6697
   XY=     0.0000   XZ=     0.0000   YZ=     0.0000
 Traceless Quadrupole moment (field-independent basis, Debye-Ang):
   XX=     3.5509   YY=    -2.4197   ZZ=    -1.1311
   XY=     0.0000   XZ=     0.0000   YZ=     0.0000
 Octapole moment (field-independent basis, Debye-Ang**2):
  XXX=     0.0000  YYY=     0.0000  ZZZ=    -2.2982  XYY=     0.0000
  XXY=     0.0000  XXZ=     0.9531  XZZ=     0.0000  YZZ=     0.0000
  YYZ=    -3.7955  XYZ=     0.0000
 Hexadecapole moment (field-independent basis, Debye-Ang**3):
 XXXX=   -60.1122 YYYY=  -132.8121 ZZZZ=  -170.4360 XXXY=     0.0000
 XXXZ=     0.0000 YYYX=     0.0000 YYYZ=     0.0000 ZZZX=     0.0000
 ZZZY=     0.0000 XXYY=   -32.4723 XXZZ=   -40.0172 YYZZ=   -53.1659
 XXYZ=     0.0000 YYXZ=     0.0000 ZZXY=     0.0000
 N-N= 2.673713960028D+02 E-N=-2.190437794735D+03  KE= 6.978341198260D+02
 Symmetry A1   KE= 4.629791283645D+02
 Symmetry A2   KE= 1.016964099619D+01
 Symmetry B1   KE= 1.099270908942D+02
 Symmetry B2   KE= 1.147582595711D+02
  Exact polarizability:  23.851   0.000  27.501   0.000   0.000  29.539
 Approx polarizability:  49.072   0.000  49.231   0.000   0.000  48.343
 Full mass-weighted force constant matrix:
 Low frequencies ---  -15.1051   -0.9101   -0.0026   -0.0016   -0.0007   13.4754
 Low frequencies ---  302.5100  468.1501  469.0240
 Diagonal vibrational polarizability:
        3.9687255       6.1040901       9.6909159
 Harmonic frequencies (cm**-1), IR intensities (KM/Mole), Raman scattering
 activities (A**4/AMU), depolarization ratios for plane and unpolarized
 incident light, reduced masses (AMU), force constants (mDyne/A),
 and normal coordinates:
                     1                      2                      3
                    A2                     B2                     A1
 Frequencies --   302.5100               468.1488               469.0240
 Red. masses --    15.9949                17.7226                16.2540
 Frc consts  --     0.8624                 2.2885                 2.1067
 IR Inten    --     0.0000                26.1078                 9.5010
 Atom AN      X      Y      Z        X      Y      Z        X      Y      Z
   1  16     0.00   0.00   0.00     0.00   0.33   0.00     0.00   0.00  -0.13
   2   8     0.38   0.00   0.00     0.00   0.09   0.51     0.00  -0.34   0.49
   3   8     0.00   0.60   0.00     0.00  -0.42   0.00    -0.10   0.00  -0.36
   4   8    -0.38   0.00   0.00     0.00   0.09  -0.51     0.00   0.34   0.49
   5   8     0.00  -0.60   0.00     0.00  -0.42   0.00     0.10   0.00  -0.36
                     4                      5                      6
                    B1                     A1                     B1
 Frequencies --   484.1980               641.0067               658.6316
 Red. masses --    18.9768                18.0757                19.1814
 Frc consts  --     2.6213                 4.3759                 4.9025
 IR Inten    --    22.2135                65.0651                22.8725
 Atom AN      X      Y      Z        X      Y      Z        X      Y      Z
   1  16     0.43   0.00   0.00     0.00   0.00  -0.36     0.45   0.00   0.00
   2   8    -0.46   0.00   0.00     0.00  -0.32   0.03    -0.10   0.00   0.00
   3   8     0.03   0.00  -0.44     0.48   0.00   0.33    -0.35   0.00   0.52
   4   8    -0.46   0.00   0.00     0.00   0.32   0.03    -0.10   0.00   0.00
   5   8     0.03   0.00   0.44    -0.48   0.00   0.33    -0.35   0.00  -0.52
                     7                      8                      9
                    A1                     A1                     B2
 Frequencies --   902.2888              1236.9268              1419.0826
 Red. masses --    16.6108                19.1574                20.7239
 Frc consts  --     7.9677                17.2693                24.5887
 IR Inten    --    27.9046               190.1627               216.8830
 Atom AN      X      Y      Z        X      Y      Z        X      Y      Z
   1  16     0.00   0.00   0.20     0.00   0.00   0.44     0.00   0.54   0.00
   2   8     0.00   0.27   0.12     0.00  -0.52  -0.32     0.00  -0.53  -0.27
   3   8     0.54   0.00  -0.31     0.10   0.00  -0.13     0.00  -0.02   0.00
   4   8     0.00  -0.27   0.12     0.00   0.52  -0.32     0.00  -0.53   0.27
   5   8    -0.54   0.00  -0.31    -0.10   0.00  -0.13     0.00  -0.02   0.00

 -------------------
 - Thermochemistry -
 -------------------
 Temperature   298.150 Kelvin.  Pressure   1.00000 Atm.
 Atom  1 has atomic number 16 and mass  31.97207
 Atom  2 has atomic number  8 and mass  15.99491
 Atom  3 has atomic number  8 and mass  15.99491
 Atom  4 has atomic number  8 and mass  15.99491
 Atom  5 has atomic number  8 and mass  15.99491
 Molecular mass:    95.95173 amu.
 Principal axes and moments of inertia in atomic units:
                           1         2         3
     EIGENVALUES --   250.37918 329.13051 434.81851
           X            0.00000   0.00000   1.00000
           Y            0.00000   1.00000   0.00000
           Z            1.00000   0.00000   0.00000
 This molecule is an asymmetric top.
 Rotational symmetry number  2.
 Rotational temperatures (Kelvin)      0.34593     0.26316     0.19920
 Rotational constants (GHZ):           7.20803     5.48336     4.15056
 Zero-point vibrational energy      39368.0 (Joules/Mol)
                                    9.40918 (Kcal/Mol)
 Warning -- explicit consideration of   4 degrees of freedom as
           vibrations may cause significant error
 Vibrational temperatures:    435.24   673.56   674.82   696.65   922.26
          (Kelvin)            947.62  1298.19  1779.66  2041.74
 
 Zero-point correction=                           0.014994 (Hartree/Particle)
 Thermal correction to Energy=                    0.019321
 Thermal correction to Enthalpy=                  0.020265
 Thermal correction to Gibbs Free Energy=        -0.011959
 Sum of electronic and zero-point Energies=           -698.980261
 Sum of electronic and thermal Energies=              -698.975935
 Sum of electronic and thermal Enthalpies=            -698.974991
 Sum of electronic and thermal Free Energies=         -699.007215
 
                     E (Thermal)             CV                S
                      KCal/Mol        Cal/Mol-Kelvin    Cal/Mol-Kelvin
 Total                   12.124             14.190             67.822
 Electronic               0.000              0.000              0.000
 Translational            0.889              2.981             39.595
 Rotational               0.889              2.981             23.709
 Vibrational             10.347              8.228              4.519
 Vibration  1             0.694              1.669              1.403
 Vibration  2             0.825              1.321              0.743
 Vibration  3             0.826              1.319              0.740
 Vibration  4             0.840              1.285              0.699
                       Q            Log10(Q)             Ln(Q)
 Total Bot       0.316875D+06          5.500887         12.666261
 Total V=0       0.249952D+13         12.397856         28.547120
 Vib (Bot)       0.253163D-06         -6.596601        -15.189234
 Vib (Bot)  1    0.627772D+00         -0.202198         -0.465578
 Vib (Bot)  2    0.360862D+00         -0.442659         -1.019260
 Vib (Bot)  3    0.359924D+00         -0.443790         -1.021863
 Vib (Bot)  4    0.344164D+00         -0.463235         -1.066638
 Vib (V=0)       0.199696D+01          0.300369          0.691624
 Vib (V=0)  1    0.130256D+01          0.114797          0.264329
 Vib (V=0)  2    0.111662D+01          0.047906          0.110307
 Vib (V=0)  3    0.111607D+01          0.047692          0.109816
 Vib (V=0)  4    0.110700D+01          0.044147          0.101653
 Electronic      0.100000D+01          0.000000          0.000000
 Translational   0.369432D+08          7.567534         17.424892
 Rotational      0.338808D+05          4.529954         10.430604
 ***** Axes restored to original set *****
 -------------------------------------------------------------------
 Center     Atomic                   Forces (Hartrees/Bohr)
 Number     Number              X              Y              Z
 -------------------------------------------------------------------
    1         16           0.000000000    0.000000000   -0.001108324
    2          8           0.000000000    0.000320296    0.000184606
    3          8          -0.000279663    0.000000000    0.000369555
    4          8           0.000000000   -0.000320296    0.000184606
    5          8           0.000279663    0.000000000    0.000369555
 -------------------------------------------------------------------
 Cartesian Forces:  Max     0.001108324 RMS     0.000358821

 GradGradGradGradGradGradGradGradGradGradGradGradGradGradGradGradGradGrad
 Berny optimization.
 Internal  Forces:  Max     0.000424746 RMS     0.000252975
 Search for a local minimum.
 Step number   1 out of a maximum of   2
 All quantities printed in internal units (Hartrees-Bohrs-Radians)
 Second derivative matrix not updated -- analytic derivatives used.
 The second derivative matrix:
                          R1        R2        R3        R4        R5
           R1           0.69006
           R2           0.00056   0.23493
           R3           0.00360   0.00056   0.69006
           R4           0.00056   0.02717   0.00056   0.23493
           R5           0.00190  -0.00454   0.00190  -0.00454   0.16999
           A1           0.00778   0.02758  -0.01539  -0.01214  -0.00247
           A2           0.00890  -0.00267   0.00890  -0.00267  -0.01457
           A3           0.00778  -0.01214  -0.01539   0.02758  -0.00247
           A4          -0.01539   0.02758   0.00778  -0.01214  -0.00247
           A5          -0.01539  -0.01214   0.00778   0.02758  -0.00247
                          A1        A2        A3        A4        A5
           A1           0.29255
           A2          -0.05544   0.13351
           A3          -0.14089  -0.05544   0.29255
           A4           0.09088  -0.05544  -0.14749   0.29255
           A5          -0.14749  -0.05544   0.09088  -0.14089   0.29255
     Eigenvalues ---    0.16878   0.19508   0.20105   0.20604   0.22161
     Eigenvalues ---    0.26965   0.67851   0.68869   0.694261000.00000
 Angle between quadratic step and forces=  24.34 degrees.
 Linear search not attempted -- first point.
 Iteration  1 RMS(Cart)=  0.00051650 RMS(Int)=  0.00000006
 Iteration  2 RMS(Cart)=  0.00000006 RMS(Int)=  0.00000003
 Variable       Old X    -DE/DX   Delta X   Delta X   Delta X     New X
                                 (Linear)    (Quad)   (Total)
    R1        2.68662   0.00037   0.00000   0.00054   0.00054   2.68716
    R2        3.04155  -0.00042   0.00000  -0.00164  -0.00164   3.03991
    R3        2.68662   0.00037   0.00000   0.00054   0.00054   2.68716
    R4        3.04155  -0.00042   0.00000  -0.00164  -0.00164   3.03991
    R5        3.00767  -0.00007   0.00000  -0.00054  -0.00054   3.00713
    A1        1.99975   0.00000   0.00000   0.00007   0.00007   1.99982
    A2        2.14371  -0.00003   0.00000  -0.00030  -0.00030   2.14341
    A3        1.99975   0.00000   0.00000   0.00007   0.00007   1.99982
    A4        1.99975   0.00000   0.00000   0.00007   0.00007   1.99982
    A5        1.99975   0.00000   0.00000   0.00007   0.00007   1.99982
         Item               Value     Threshold  Converged?
 Maximum Force            0.000425     0.000450     YES
 RMS     Force            0.000253     0.000300     YES
 Maximum Displacement     0.000943     0.001800     YES
 RMS     Displacement     0.000516     0.001200     YES
 Predicted change in Energy=-9.216191D-07
 Optimization completed.
    -- Stationary point found.
                           ----------------------------
                           !   Optimized Parameters   !
                           ! (Angstroms and Degrees)  !
 --------------------------                            --------------------------
 ! Name  Definition              Value          Derivative Info.                !
 --------------------------------------------------------------------------------
 ! R1    R(1,2)                  1.4217         -DE/DX =    0.0004              !
 ! R2    R(1,3)                  1.6095         -DE/DX =   -0.0004              !
 ! R3    R(1,4)                  1.4217         -DE/DX =    0.0004              !
 ! R4    R(1,5)                  1.6095         -DE/DX =   -0.0004              !
 ! R5    R(3,5)                  1.5916         -DE/DX =   -0.0001              !
 ! A1    A(2,1,3)              114.5771         -DE/DX =    0.0                 !
 ! A2    A(2,1,4)              122.8255         -DE/DX =    0.0                 !
 ! A3    A(2,1,5)              114.5771         -DE/DX =    0.0                 !
 ! A4    A(3,1,4)              114.5771         -DE/DX =    0.0                 !
 ! A5    A(4,1,5)              114.5771         -DE/DX =    0.0                 !
 --------------------------------------------------------------------------------
 GradGradGradGradGradGradGradGradGradGradGradGradGradGradGradGradGradGrad

 1\1\GINC-NODE37\Freq\RB3LYP\CBSB7\O4S1\ALONGD\09-Feb-2018\0\\#N Geom=A
 llCheck Guess=Read SCRF=Check B3LYP/CBSB7 Freq\\SO2OO\\0,1\S,0.,0.,0.2
 385560263\O,0.,1.2483781117,0.9188329098\O,0.7957949673,0.,-1.16046692
 29\O,0.,-1.2483781117,0.9188329098\O,-0.7957949673,0.,-1.1604669229\\V
 ersion=AM64L-G03RevD.01\State=1-A1\HF=-698.9952558\RMSD=7.284e-10\RMSF
 =3.588e-04\ZeroPoint=0.0149945\Thermal=0.019321\Dipole=0.,0.,-0.161740
 2\DipoleDeriv=0.9708467,0.,0.,0.,2.2055066,0.,0.,0.,2.4967158,-0.32491
 25,0.,0.,0.,-0.8308258,-0.2253865,0.,-0.1136196,-0.655341,-0.1605108,0
 .,0.0970708,0.,-0.2719275,0.,0.058355,0.,-0.5930169,-0.3249125,0.,0.,0
 .,-0.8308258,0.2253865,0.,0.1136196,-0.655341,-0.1605108,0.,-0.0970708
 ,0.,-0.2719275,0.,-0.058355,0.,-0.5930169\Polar=23.8514302,0.,27.50076
 32,0.,0.,29.538962\PG=C02V [C2(S1),SGV(O2),SGV'(O2)]\NImag=0\\0.263799
 95,0.,1.16442486,0.,0.,0.80762541,-0.06711539,0.,0.,0.03540531,0.,-0.5
 3322646,-0.24775874,0.,0.54766741,0.,-0.23594198,-0.21744451,0.,0.2598
 0393,0.21608842,-0.06478458,0.,0.09711027,0.00611500,0.00170155,0.0026
 0794,0.22399089,0.,-0.04898597,0.,0.01258948,0.00338984,-0.02166479,0.
 ,0.04076785,0.05604123,0.,-0.18636819,0.01276550,0.00371122,-0.0071513
 3,-0.09194919,0.,0.18292903,-0.06711539,0.,0.,0.01948008,0.,0.,0.00611
 500,-0.01258948,0.01276550,0.03540531,0.,-0.53322646,0.24775875,0.,-0.
 02122063,0.01946763,-0.00170155,0.00338984,-0.00371122,0.,0.54766741,0
 .,0.23594198,-0.21744451,0.,-0.01946763,0.01565876,0.00260794,0.021664
 79,-0.00715133,0.,-0.25980393,0.21608842,-0.06478458,0.,-0.09711028,0.
 00611500,-0.00170155,-0.00260794,-0.17143632,0.,0.01037696,0.00611500,
 0.00170155,-0.00260794,0.22399089,0.,-0.04898597,0.,-0.01258948,0.0033
 8984,-0.02166479,0.,0.00143845,0.,0.01258948,0.00338984,0.02166479,0.,
 0.04076785,-0.05604123,0.,-0.18636820,-0.01276550,0.00371122,-0.007151
 33,-0.01037696,0.,0.01774182,-0.01276550,-0.00371122,-0.00715133,0.091
 94919,0.,0.18292903\\0.,0.,0.00110832,0.,-0.00032030,-0.00018461,0.000
 27966,0.,-0.00036956,0.,0.00032030,-0.00018461,-0.00027966,0.,-0.00036
 956\\\@


 Mondays are the potholes in the road of life.
                                -- Tom Wilson
 Job cpu time:  0 days  0 hours  2 minutes 26.2 seconds.
 File lengths (MBytes):  RWF=     19 Int=      0 D2E=      0 Chk=      6 Scr=      1
 Normal termination of Gaussian 03 at Fri Feb  9 22:34:25 2018.
 Link1:  Proceeding to internal job step number  3.
 ---------------------------------------------------------
 #N Geom=AllCheck Guess=Read SCRF=Check CCSD(T)/6-31+G(d')
 ---------------------------------------------------------
 1/29=7,38=1,40=1,46=1/1;
 2/40=1/2;
 3/5=11,6=6,7=11,11=9,16=1,25=1,30=1,70=2/1,2,3;
 4/5=1/1;
 5/5=2,38=6/2;
 8/6=7,9=120000,10=1/1,4;
 9/5=7,14=2/13;
 6/7=2,8=2,9=2,10=2/1;
 99/5=1,9=1/99;
 -----
 SO2OO
 -----
 Redundant internal coordinates taken from checkpoint file:
 input.chk
 Charge =  0 Multiplicity = 1
 S,0,0.,0.,0.2385560263
 O,0,0.,1.2483781117,0.9188329098
 O,0,0.7957949673,0.,-1.1604669229
 O,0,0.,-1.2483781117,0.9188329098
 O,0,-0.7957949673,0.,-1.1604669229
 Recover connectivity data from disk.
                          Input orientation:                          
 ---------------------------------------------------------------------
 Center     Atomic     Atomic              Coordinates (Angstroms)
 Number     Number      Type              X           Y           Z
 ---------------------------------------------------------------------
    1         16             0        0.000000    0.000000    0.238556
    2          8             0        0.000000    1.248378    0.918833
    3          8             0        0.795795    0.000000   -1.160467
    4          8             0        0.000000   -1.248378    0.918833
    5          8             0       -0.795795    0.000000   -1.160467
 ---------------------------------------------------------------------
                    Distance matrix (angstroms):
                    1          2          3          4          5
     1  S    0.000000
     2  O    1.421698   0.000000
     3  O    1.609520   2.552494   0.000000
     4  O    1.421698   2.496756   2.552494   0.000000
     5  O    1.609520   2.552494   1.591590   2.552494   0.000000
 Stoichiometry    O4S
 Framework group  C2V[C2(S),SGV(O2),SGV'(O2)]
 Deg. of freedom     4
 Full point group                 C2V
 Largest Abelian subgroup         C2V     NOp   4
 Largest concise Abelian subgroup C2V     NOp   4
                         Standard orientation:                         
 ---------------------------------------------------------------------
 Center     Atomic     Atomic              Coordinates (Angstroms)
 Number     Number      Type              X           Y           Z
 ---------------------------------------------------------------------
    1         16             0        0.000000    0.000000    0.239582
    2          8             0        0.000000    1.248378    0.919859
    3          8             0        0.795795    0.000000   -1.159441
    4          8             0        0.000000   -1.248378    0.919859
    5          8             0       -0.795795    0.000000   -1.159441
 ---------------------------------------------------------------------
 Rotational constants (GHZ):      7.2080324      5.4833604      4.1505620
 Standard basis: 6-31+(d') (6D, 7F)
 There are    40 symmetry adapted basis functions of A1  symmetry.
 There are    11 symmetry adapted basis functions of A2  symmetry.
 There are    24 symmetry adapted basis functions of B1  symmetry.
 There are    24 symmetry adapted basis functions of B2  symmetry.
 Integral buffers will be    131072 words long.
 Raffenetti 1 integral format.
 Two-electron integral symmetry is turned on.
    99 basis functions,   184 primitive gaussians,    99 cartesian basis functions
    24 alpha electrons       24 beta electrons
       nuclear repulsion energy       267.3713960028 Hartrees.
 NAtoms=    5 NActive=    5 NUniq=    3 SFac= 2.08D+00 NAtFMM=   80 NAOKFM=F Big=F
 One-electron integrals computed using PRISM.
 NBasis=    99 RedAO= T  NBF=    40    11    24    24
 NBsUse=    99 1.00D-06 NBFU=    40    11    24    24
 Initial guess read from the checkpoint file:
 input.chk
 Initial guess orbital symmetries:
       Occupied  (A1) (A1) (B1) (B2) (A1) (A1) (A1) (B1) (B2) (A1)
                 (A1) (B2) (B1) (A1) (A1) (B1) (B2) (A1) (B2) (A1)
                 (A2) (B1) (B2) (A2)
       Virtual   (B1) (A1) (B1) (A1) (B2) (B1) (A1) (B2) (A1) (A1)
                 (A2) (B1) (A1) (B2) (A1) (B1) (A2) (B2) (A1) (A1)
                 (B1) (A2) (B2) (B1) (B2) (A1) (A1) (B2) (B1) (A1)
                 (B1) (B2) (A1) (A1) (B2) (B1) (A2) (A1) (A1) (B2)
                 (B2) (A1) (A2) (B1) (A2) (B2) (A2) (B1) (A1) (B1)
                 (B1) (A2) (A1) (B2) (A1) (B1) (B2) (A1) (A1) (A2)
                 (B2) (B1) (A1) (B2) (A1) (B1) (B1) (B2) (A1) (A1)
                 (B2) (A1) (B1) (A1) (A1)
 Requested convergence on RMS density matrix=1.00D-08 within 128 cycles.
 Requested convergence on MAX density matrix=1.00D-06.
 Requested convergence on             energy=1.00D-06.
 No special actions if energy rises.
 Keep R1 integrals in memory in canonical form, NReq=    13626947.
 SCF Done:  E(RHF) =  -696.682356483     A.U. after   13 cycles
             Convg  =    0.5330D-08             -V/T =  2.0017
             S**2   =   0.0000
 ExpMin= 4.05D-02 ExpMax= 2.19D+04 ExpMxC= 3.30D+03 IAcc=3 IRadAn=         5 AccDes= 0.00D+00
 HarFok:  IExCor= 205 AccDes= 0.00D+00 IRadAn=         5 IDoV=1
 ScaDFX=  1.000000  1.000000  1.000000  1.000000
 Range of M.O.s used for correlation:    10    99
 NBasis=    99 NAE=    24 NBE=    24 NFC=     9 NFV=     0
 NROrb=     90 NOA=    15 NOB=    15 NVA=    75 NVB=    75

 **** Warning!!: The largest alpha MO coefficient is  0.12328212D+02

 Estimate disk for full transformation    53707062 words.
 Spin components of T(2) and E(2):
     alpha-alpha T2 =       0.3990591531D-01 E2=     -0.1282923530D+00
     alpha-beta  T2 =       0.2061909316D+00 E2=     -0.6693526655D+00
     beta-beta   T2 =       0.3990591531D-01 E2=     -0.1282923530D+00
 ANorm=    0.1134020618D+01
 E2=       -0.9259373715D+00 EUMP2=       -0.69760829385470D+03
 Iterations=  50 Convergence= 0.100D-06
 Iteration Nr.   1
 **********************
 MP4(R+Q)=  0.19951874D-01
 E3=        0.31226561D-01        EUMP3=      -0.69757706729D+03
 E4(DQ)=   -0.76665132D-02        UMP4(DQ)=   -0.69758473381D+03
 E4(SDQ)=  -0.27244367D-01        UMP4(SDQ)=  -0.69760431166D+03
 DE(Corr)= -0.87406282     E(CORR)=     -697.55641930    
 NORM(A)=   0.11225941D+01
 Iteration Nr.   2
 **********************
 DE(Corr)= -0.91448610     E(CORR)=     -697.59684259     Delta=-4.04D-02
 NORM(A)=   0.11371582D+01
 Iteration Nr.   3
 **********************
 DE(Corr)= -0.91207966     E(CORR)=     -697.59443615     Delta= 2.41D-03
 NORM(A)=   0.11416281D+01
 Iteration Nr.   4
 **********************
 DE(Corr)= -0.91594564     E(CORR)=     -697.59830213     Delta=-3.87D-03
 NORM(A)=   0.11428763D+01
 Iteration Nr.   5
 **********************
 DE(Corr)= -0.91635336     E(CORR)=     -697.59870985     Delta=-4.08D-04
 NORM(A)=   0.11433283D+01
 Iteration Nr.   6
 **********************
 DE(Corr)= -0.91640641     E(CORR)=     -697.59876289     Delta=-5.30D-05
 NORM(A)=   0.11433882D+01
 Iteration Nr.   7
 **********************
 DE(Corr)= -0.91641735     E(CORR)=     -697.59877383     Delta=-1.09D-05
 NORM(A)=   0.11433992D+01
 Iteration Nr.   8
 **********************
 DE(Corr)= -0.91640802     E(CORR)=     -697.59876450     Delta= 9.32D-06
 NORM(A)=   0.11434097D+01
 Iteration Nr.   9
 **********************
[...]
    X=     0.0000    Y=     0.0000    Z=    -0.4955  Tot=     0.4955
 Quadrupole moment (field-independent basis, Debye-Ang):
   XX=   -31.1926   YY=   -38.7066   ZZ=   -37.1963
   XY=     0.0000   XZ=     0.0000   YZ=     0.0000
 Traceless Quadrupole moment (field-independent basis, Debye-Ang):
   XX=     4.5059   YY=    -3.0081   ZZ=    -1.4978
   XY=     0.0000   XZ=     0.0000   YZ=     0.0000
 Octapole moment (field-independent basis, Debye-Ang**2):
  XXX=     0.0000  YYY=     0.0000  ZZZ=    -2.1185  XYY=     0.0000
  XXY=     0.0000  XXZ=     1.3442  XZZ=     0.0000  YZZ=     0.0000
  YYZ=    -5.5771  XYZ=     0.0000
 Hexadecapole moment (field-independent basis, Debye-Ang**3):
 XXXX=   -61.4998 YYYY=  -140.5083 ZZZZ=  -177.1681 XXXY=     0.0000
 XXXZ=     0.0000 YYYX=     0.0000 YYYZ=     0.0000 ZZZX=     0.0000
 ZZZY=     0.0000 XXYY=   -33.8599 XXZZ=   -41.7178 YYZZ=   -56.0805
 XXYZ=     0.0000 YYXZ=     0.0000 ZZXY=     0.0000
 N-N= 2.673713960028D+02 E-N=-2.185860804571D+03  KE= 6.953607188160D+02
 Symmetry A1   KE= 4.621865849288D+02
 Symmetry A2   KE= 9.769776872513D+00
 Symmetry B1   KE= 1.093017260167D+02
 Symmetry B2   KE= 1.141026309981D+02
 1\1\GINC-NODE37\SP\RMP4SDQ-FC\CBSB4\O4S1\ALONGD\09-Feb-2018\0\\#N Geom
 =AllCheck Guess=Read SCRF=Check MP4SDQ/CBSB4\\SO2OO\\0,1\S,0,0.,0.,0.2
 385560263\O,0,0.,1.2483781117,0.9188329098\O,0,0.7957949673,0.,-1.1604
 669229\O,0,0.,-1.2483781117,0.9188329098\O,0,-0.7957949673,0.,-1.16046
 69229\\Version=AM64L-G03RevD.01\State=1-A1\HF=-696.7315116\MP2=-697.68
 69439\MP3=-697.6587189\MP4D=-697.685888\MP4DQ=-697.6643614\MP4SDQ=-697
 .6848233\RMSD=1.633e-09\Thermal=0.\PG=C02V [C2(S1),SGV(O2),SGV'(O2)]\\
 @


 WE DON'T KNOW ONE MILLIONTH OF ONE PERCENT ABOUT
 ANYTHING.
                                     T. A. EDISON.
 Job cpu time:  0 days  0 hours  1 minutes 51.2 seconds.
 File lengths (MBytes):  RWF=    151 Int=      0 D2E=      0 Chk=     10 Scr=      1
 Normal termination of Gaussian 03 at Fri Feb  9 22:36:01 2018.
 Link1:  Proceeding to internal job step number  5.
 ----------------------------------------------------------------------
 #N Geom=AllCheck Guess=Read SCRF=Check MP2/CBSB3 CBSExtrap=(NMin=10,Mi
 nPop)
 ----------------------------------------------------------------------
 1/29=7,38=1,40=1,46=1/1;
 2/40=1/2;
 3/5=12,11=9,16=1,25=1,30=1,70=2/1,2,3;
 4/5=1/1;
 5/5=2,38=6/2;
 8/10=1/1;
 9/16=-3,75=2,81=10,83=4/6,4;
 6/7=2,8=2,9=2,10=2/1;
 99/5=1,9=1/99;
 -----
 SO2OO
 -----
 Redundant internal coordinates taken from checkpoint file:
 input.chk
 Charge =  0 Multiplicity = 1
 S,0,0.,0.,0.2385560263
 O,0,0.,1.2483781117,0.9188329098
 O,0,0.7957949673,0.,-1.1604669229
 O,0,0.,-1.2483781117,0.9188329098
 O,0,-0.7957949673,0.,-1.1604669229
 Recover connectivity data from disk.
                          Input orientation:                          
 ---------------------------------------------------------------------
 Center     Atomic     Atomic              Coordinates (Angstroms)
 Number     Number      Type              X           Y           Z
 ---------------------------------------------------------------------
    1         16             0        0.000000    0.000000    0.238556
    2          8             0        0.000000    1.248378    0.918833
    3          8             0        0.795795    0.000000   -1.160467
    4          8             0        0.000000   -1.248378    0.918833
    5          8             0       -0.795795    0.000000   -1.160467
 ---------------------------------------------------------------------
                    Distance matrix (angstroms):
                    1          2          3          4          5
     1  S    0.000000
     2  O    1.421698   0.000000
     3  O    1.609520   2.552494   0.000000
     4  O    1.421698   2.496756   2.552494   0.000000
     5  O    1.609520   2.552494   1.591590   2.552494   0.000000
 Stoichiometry    O4S
 Framework group  C2V[C2(S),SGV(O2),SGV'(O2)]
 Deg. of freedom     4
 Full point group                 C2V
 Largest Abelian subgroup         C2V     NOp   4
 Largest concise Abelian subgroup C2V     NOp   4
                         Standard orientation:                         
 ---------------------------------------------------------------------
 Center     Atomic     Atomic              Coordinates (Angstroms)
 Number     Number      Type              X           Y           Z
 ---------------------------------------------------------------------
    1         16             0        0.000000    0.000000    0.239582
    2          8             0        0.000000    1.248378    0.919859
    3          8             0        0.795795    0.000000   -1.159441
    4          8             0        0.000000   -1.248378    0.919859
    5          8             0       -0.795795    0.000000   -1.159441
 ---------------------------------------------------------------------
 Rotational constants (GHZ):      7.2080324      5.4833604      4.1505620
 Standard basis: CBSB3 (5D, 7F)
 There are    69 symmetry adapted basis functions of A1  symmetry.
 There are    27 symmetry adapted basis functions of A2  symmetry.
 There are    47 symmetry adapted basis functions of B1  symmetry.
 There are    47 symmetry adapted basis functions of B2  symmetry.
 Integral buffers will be    131072 words long.
 Raffenetti 1 integral format.
 Two-electron integral symmetry is turned on.
   190 basis functions,   290 primitive gaussians,   219 cartesian basis functions
    24 alpha electrons       24 beta electrons
       nuclear repulsion energy       267.3713960028 Hartrees.
 NAtoms=    5 NActive=    5 NUniq=    3 SFac= 2.08D+00 NAtFMM=   80 NAOKFM=F Big=F
 One-electron integrals computed using PRISM.
 NBasis=   190 RedAO= T  NBF=    69    27    47    47
 NBsUse=   190 1.00D-06 NBFU=    69    27    47    47
 Initial guess read from the checkpoint file:
 input.chk
 Initial guess orbital symmetries:
       Occupied  (A1) (A1) (B1) (B2) (A1) (A1) (B1) (A1) (B2) (A1)
                 (A1) (B2) (B1) (A1) (B2) (A1) (B1) (B2) (A1) (A1)
                 (A2) (B1) (B2) (A2)
       Virtual   (A1) (A1) (A1) (A1) (A1) (A1) (A1) (A1) (A1) (A1)
                 (A1) (A1) (A1) (A1) (A1) (A1) (A1) (A1) (A1) (A1)
                 (A1) (A1) (A1) (A1) (A1) (A1) (A1) (A1) (A1) (A1)
                 (A1) (A1) (A1) (A1) (A1) (A1) (A1) (A1) (A1) (A1)
                 (A1) (A1) (A1) (A1) (A1) (A1) (A1) (A1) (A1) (A1)
                 (A1) (A1) (A1) (A1) (A1) (A1) (A1) (A1) (A2) (A2)
                 (A2) (A2) (A2) (A2) (A2) (A2) (A2) (A2) (A2) (A2)
                 (A2) (A2) (A2) (A2) (A2) (A2) (A2) (A2) (A2) (A2)
                 (A2) (A2) (A2) (B1) (B1) (B1) (B1) (B1) (B1) (B1)
                 (B1) (B1) (B1) (B1) (B1) (B1) (B1) (B1) (B1) (B1)
                 (B1) (B1) (B1) (B1) (B1) (B1) (B1) (B1) (B1) (B1)
                 (B1) (B1) (B1) (B1) (B1) (B1) (B1) (B1) (B1) (B1)
                 (B1) (B1) (B1) (B1) (B1) (B2) (B2) (B2) (B2) (B2)
                 (B2) (B2) (B2) (B2) (B2) (B2) (B2) (B2) (B2) (B2)
                 (B2) (B2) (B2) (B2) (B2) (B2) (B2) (B2) (B2) (B2)
                 (B2) (B2) (B2) (B2) (B2) (B2) (B2) (B2) (B2) (B2)
                 (B2) (B2) (B2) (B2) (B2) (B2)
 Requested convergence on RMS density matrix=1.00D-08 within 128 cycles.
 Requested convergence on MAX density matrix=1.00D-06.
 Requested convergence on             energy=1.00D-06.
 No special actions if energy rises.
 SCF Done:  E(RHF) =  -696.895406771     A.U. after   13 cycles
             Convg  =    0.3079D-08             -V/T =  2.0013
             S**2   =   0.0000
 ExpMin= 4.05D-02 ExpMax= 9.34D+04 ExpMxC= 3.17D+03 IAcc=3 IRadAn=         5 AccDes= 0.00D+00
 HarFok:  IExCor= 205 AccDes= 0.00D+00 IRadAn=         5 IDoV=1
 ScaDFX=  1.000000  1.000000  1.000000  1.000000
 Range of M.O.s used for correlation:    10   190
 NBasis=   190 NAE=    24 NBE=    24 NFC=     9 NFV=     0
 NROrb=    181 NOA=    15 NOB=    15 NVA=   166 NVB=   166

 **** Warning!!: The largest alpha MO coefficient is  0.27039731D+02

 Disk-based method using OVN memory for 15 occupieds at a time.
 Permanent disk used for amplitudes and <ij||ab> integrals=    15276150 words.
 Estimated scratch disk usage=   100011210 words.
 Actual    scratch disk usage=    75917514 words.
 JobTyp=1 Pass  1:  I=   1 to  15 NPSUse=  8 ParTrn=T ParDer=T DoDerP=F.
 (rs|ai) integrals will be sorted in core.
 Spin components of T(2) and E(2):
     alpha-alpha T2 =       0.4510938074D-01 E2=     -0.1543842384D+00
     alpha-beta  T2 =       0.2302818287D+00 E2=     -0.8345310009D+00
     beta-beta   T2 =       0.4510938074D-01 E2=     -0.1543842384D+00
 ANorm=    0.1149130363D+01
 E2 =    -0.1143299478D+01 EUMP2 =    -0.69803870624863D+03

 Complete Basis Set (CBS) Extrapolation:
 M. R. Nyden and G. A. Petersson, JCP 75, 1843 (1981)
 G. A. Petersson and M. A. Al-Laham, JCP 94, 6081 (1991)
 G. A. Petersson, T. Tensfeldt, and J. A. Montgomery, JCP 94, 6091 (1991)
 J. A. Montgomery, J. W. Ochterski, and G. A. Petersson, JCP 101, 5900 (1994)
 
 Minimum Number of PNO for Extrapolation =  10
 Absolute Overlaps: IRadAn =     99590
 LocTrn: ILocal=3 LocCor=F DoCore=F.
 LocMO: Using population method
 Initial Trace= 0.15000000D+02 Initial TraceA= 0.39581933D+01
 RMSG= 0.21425294D-08
 There are a total of      245440 grid points.
 ElSum from orbitals=       24.0000000801
 E2(CBS)=      -1.260869 CBS-Int=       0.035256 OIii=       8.626228

 **********************************************************************

            Population analysis using the SCF density.

 **********************************************************************

 Orbital symmetries:
       Occupied  (A1) (A1) (B1) (B2) (A1) (A1) (B1) (A1) (B2) (A1)
                 (A1) (B2) (B1) (A1) (B2) (A1) (B1) (B2) (A1) (A1)
                 (A2) (B1) (B2) (A2)
       Virtual   (B1) (A1) (A1) (B2) (B1) (B1) (A1) (A1) (B2) (B1)
                 (A1) (A2) (A1) (B2) (A2) (B1) (B2) (A1) (B2) (A1)
                 (B1) (B1) (A1) (A1) (B2) (A1) (B1) (A2) (B2) (A1)
                 (B1) (B2) (A1) (A1) (A1) (B2) (B1) (A1) (A2) (B1)
                 (B2) (B1) (A2) (A1) (B1) (A1) (B2) (A1) (B2) (A2)
                 (A2) (A1) (B1) (B2) (A1) (B1) (B2) (B2) (A1) (A1)
                 (B1) (B2) (A2) (A1) (A1) (B1) (B2) (A1) (B1) (A2)
                 (B1) (A1) (A2) (B2) (A1) (B1) (A2) (B2) (A1) (B2)
                 (B1) (A1) (B1) (A1) (B2) (A1) (A2) (B2) (B1) (B2)
                 (B1) (A1) (A1) (A2) (A1) (B2) (B1) (B2) (A1) (A1)
                 (B2) (B1) (A2) (B1) (A2) (B2) (A1) (A2) (A2) (B1)
                 (B2) (A1) (B2) (A1) (B1) (A2) (A1) (B1) (A1) (A1)
                 (B1) (A2) (B2) (A1) (B2) (B1) (A2) (A1) (B1) (B2)
                 (A2) (B2) (B1) (A1) (B1) (A1) (B2) (B2) (A2) (A1)
                 (B2) (B1) (A1) (B1) (A2) (A2) (B2) (A1) (A2) (A1)
                 (B1) (A1) (A1) (B2) (B2) (B1) (B1) (A1) (B1) (A1)
                 (B2) (A1) (B2) (B1) (A1) (A1)
 The electronic state is 1-A1.
 Alpha  occ. eigenvalues --  -92.30115 -20.74666 -20.74648 -20.64509 -20.64506
 Alpha  occ. eigenvalues --   -9.26345  -6.95183  -6.94960  -6.94828  -1.64038
 Alpha  occ. eigenvalues --   -1.49802  -1.43878  -1.30871  -0.93004  -0.78138
 Alpha  occ. eigenvalues --   -0.77787  -0.75686  -0.67649  -0.66234  -0.61865
 Alpha  occ. eigenvalues --   -0.61306  -0.57973  -0.55754  -0.55189
 Alpha virt. eigenvalues --    0.03032   0.05502   0.09545   0.09629   0.10085
 Alpha virt. eigenvalues --    0.13789   0.15762   0.19459   0.20466   0.23622
 Alpha virt. eigenvalues --    0.23679   0.24893   0.29168   0.31906   0.32148
 Alpha virt. eigenvalues --    0.32466   0.33515   0.34249   0.34593   0.34631
 Alpha virt. eigenvalues --    0.34781   0.35330   0.36082   0.41152   0.41782
 Alpha virt. eigenvalues --    0.45749   0.46725   0.52912   0.53961   0.54054
 Alpha virt. eigenvalues --    0.61924   0.79414   0.83458   0.90785   0.98274
 Alpha virt. eigenvalues --    0.99962   1.05416   1.06650   1.10262   1.11831
 Alpha virt. eigenvalues --    1.12285   1.13585   1.14064   1.18661   1.22233
 Alpha virt. eigenvalues --    1.22361   1.22545   1.25949   1.26926   1.27260
 Alpha virt. eigenvalues --    1.30709   1.33070   1.35378   1.43160   1.43357
 Alpha virt. eigenvalues --    1.45038   1.46209   1.64022   1.70132   1.70732
 Alpha virt. eigenvalues --    1.72309   1.72786   1.73760   1.78775   1.90122
 Alpha virt. eigenvalues --    1.94650   2.00697   2.08300   2.11061   2.13835
 Alpha virt. eigenvalues --    2.27150   2.29567   2.34309   2.35152   2.45207
 Alpha virt. eigenvalues --    2.46546   2.50314   2.51651   2.55699   2.67168
 Alpha virt. eigenvalues --    2.70168   2.80131   2.93254   2.97621   3.00010
 Alpha virt. eigenvalues --    3.56627   3.60425   3.62927   3.65213   3.78231
 Alpha virt. eigenvalues --    3.82850   3.92646   4.78881   4.85245   4.89636
 Alpha virt. eigenvalues --    4.92512   4.93990   4.99451   5.05065   5.23575
 Alpha virt. eigenvalues --    5.28778   5.33085   5.33419   5.39986   5.40166
 Alpha virt. eigenvalues --    5.40772   5.43070   5.45361   5.45904   5.46319
 Alpha virt. eigenvalues --    5.46524   5.49562   5.51329   5.51420   5.54202
 Alpha virt. eigenvalues --    5.55627   5.55880   5.58277   5.59989   5.62503
 Alpha virt. eigenvalues --    5.64311   5.71339   5.72947   5.77425   5.81114
 Alpha virt. eigenvalues --    5.85175   5.87367   5.88511   5.90297   5.96893
 Alpha virt. eigenvalues --    6.24874   6.34495   6.44524   6.51561   6.70028
 Alpha virt. eigenvalues --    7.05203   7.05582   7.11327   7.22509   7.27525
 Alpha virt. eigenvalues --    7.32664   7.39917   7.41433   7.43181   7.50014
 Alpha virt. eigenvalues --    7.66862   7.69559   7.69641   7.75740   7.77629
 Alpha virt. eigenvalues --    7.80532   7.86262   7.97911   7.99557   8.06607
 Alpha virt. eigenvalues --    8.11324   8.40989  10.26096  18.43024  18.99982
 Alpha virt. eigenvalues --   19.30799  51.49224  51.54339  51.55777  51.68640
 Alpha virt. eigenvalues --  193.43004
          Condensed to atoms (all electrons):
              1          2          3          4          5
     1  S   14.267003   0.294960   0.219346   0.294960   0.219346
     2  O    0.294960   7.979919   0.002936  -0.012571   0.002936
     3  O    0.219346   0.002936   7.797743   0.002936   0.061052
     4  O    0.294960  -0.012571   0.002936   7.979919   0.002936
     5  O    0.219346   0.002936   0.061052   0.002936   7.797743
 Mulliken atomic charges:
              1
     1  S    0.704385
     2  O   -0.268180
     3  O   -0.084013
     4  O   -0.268180
     5  O   -0.084013
 Sum of Mulliken charges=   0.00000
 Atomic charges with hydrogens summed into heavy atoms:
              1
     1  S    0.704385
     2  O   -0.268180
     3  O   -0.084013
     4  O   -0.268180
     5  O   -0.084013
 Sum of Mulliken charges=   0.00000
 Electronic spatial extent (au):  <R**2>=   331.7994
 Charge=     0.0000 electrons
 Dipole moment (field-independent basis, Debye):
    X=     0.0000    Y=     0.0000    Z=    -0.6300  Tot=     0.6300
 Quadrupole moment (field-independent basis, Debye-Ang):
   XX=   -31.0120   YY=   -37.8749   ZZ=   -36.2073
   XY=     0.0000   XZ=     0.0000   YZ=     0.0000
 Traceless Quadrupole moment (field-independent basis, Debye-Ang):
   XX=     4.0194   YY=    -2.8435   ZZ=    -1.1759
   XY=     0.0000   XZ=     0.0000   YZ=     0.0000
 Octapole moment (field-independent basis, Debye-Ang**2):
  XXX=     0.0000  YYY=     0.0000  ZZZ=    -3.0869  XYY=     0.0000
  XXY=     0.0000  XXZ=     0.7106  XZZ=     0.0000  YZZ=     0.0000
  YYZ=    -4.6367  XYZ=     0.0000
 Hexadecapole moment (field-independent basis, Debye-Ang**3):
 XXXX=   -60.8798 YYYY=  -136.2699 ZZZZ=  -173.0076 XXXY=     0.0000
 XXXZ=     0.0000 YYYX=     0.0000 YYYZ=     0.0000 ZZZX=     0.0000
 ZZZY=     0.0000 XXYY=   -33.3424 XXZZ=   -40.3310 YYZZ=   -54.2671
 XXYZ=     0.0000 YYXZ=     0.0000 ZZXY=     0.0000
 N-N= 2.673713960028D+02 E-N=-2.187364860423D+03  KE= 6.960099819350D+02
 Symmetry A1   KE= 4.625418504925D+02
 Symmetry A2   KE= 9.781928643989D+00
 Symmetry B1   KE= 1.093669079091D+02
 Symmetry B2   KE= 1.143192948894D+02
 1\1\GINC-NODE37\SP\RMP2-FC\CBSB3\O4S1\ALONGD\09-Feb-2018\0\\#N Geom=Al
 lCheck Guess=Read SCRF=Check MP2/CBSB3 CBSExtrap=(NMin=10,MinPop)\\SO2
 OO\\0,1\S,0,0.,0.,0.2385560263\O,0,0.,1.2483781117,0.9188329098\O,0,0.
 7957949673,0.,-1.1604669229\O,0,0.,-1.2483781117,0.9188329098\O,0,-0.7
 957949673,0.,-1.1604669229\\Version=AM64L-G03RevD.01\State=1-A1\HF=-69
 6.8954068\MP2=-698.0387062\E2(CBS)=-1.2608692\CBS-Int=-1.2256129\OIii=
 8.6262278\RMSD=3.079e-09\Thermal=0.\PG=C02V [C2(S1),SGV(O2),SGV'(O2)]\
 \@


 A MAN SHOULD NEVER BE ASHAMED TO OWN HE HAS BEEN IN THE WRONG
 WHICH IS BUT SAYING IN OTHER WORDS,
 THAT HE IS WISER TODAY THAN HE WAS YESTERDAY.

                          -- JONATHAN SWIFT
 Diagonal vibrational polarizability:
        0.0000000       0.0000000       0.0000000

 Complete Basis Set (CBS) Extrapolation:
 M. R. Nyden and G. A. Petersson, JCP 75, 1843 (1981)
 G. A. Petersson and M. A. Al-Laham, JCP 94, 6081 (1991)
 G. A. Petersson, T. Tensfeldt, and J. A. Montgomery, JCP 94, 6091 (1991)
 J. A. Montgomery, J. W. Ochterski, and G. A. Petersson, JCP 101, 5900 (1994)

 Temperature=            298.150000 Pressure=                    1.000000
 E(ZPE)=                   0.014845 E(Thermal)=                  0.019195
 E(SCF)=                 -696.895407 DE(MP2)=                     -1.143299
 DE(CBS)=                  -0.117570 DE(MP34)=                     0.002121
 DE(CCSD)=                 -0.032333 DE(Int)=                      0.035256
 DE(Empirical)=            -0.049946
 CBS-QB3 (0 K)=          -698.186333 CBS-QB3 Energy=            -698.181982
 CBS-QB3 Enthalpy=       -698.181038 CBS-QB3 Free Energy=       -698.213302
 1\1\GINC-NODE37\Mixed\CBS-QB3\CBS-QB3\O4S1\ALONGD\09-Feb-2018\0\\#CBS-
 QB3 opt freq\\SO2OO\\0,1\S,0,0.,0.,0.2385560263\O,0,0.,1.2483781117,0.
 9188329098\O,0,0.7957949673,0.,-1.1604669229\O,0,0.,-1.2483781117,0.91
 88329098\O,0,-0.7957949673,0.,-1.1604669229\\Version=AM64L-G03RevD.01\
 State=1-A1\HF/CbsB3=-696.8954068\E2(CBS)/CbsB3=-1.2608692\CBS-Int/CbsB
 3=0.0352563\OIii/CbsB3=8.6262278\MP2/CbsB4=-697.6869439\MP4(SDQ)/CbsB4
 =-697.6848233\MP4(SDQ)/6-31+G(d')=-697.6043117\QCISD(T)/6-31+G(d')=-69
 7.6366444\CBSQB3=-698.186333\FreqCoord=0.,0.,0.4508055573,0.,2.3590927
 427,1.7363425623,1.503834547,0.,-2.1929646718,0.,-2.3590927427,1.73634
 25623,-1.503834547,0.,-2.1929646718\PG=C02V [C2(S1),SGV(O2),SGV'(O2)]\
 NImag=0\\0.26379995,0.,1.16442486,0.,0.,0.80762541,-0.06711539,0.,0.,0
 .03540531,0.,-0.53322646,-0.24775874,0.,0.54766741,0.,-0.23594198,-0.2
 1744451,0.,0.25980393,0.21608842,-0.06478458,0.,0.09711027,0.00611500,
 0.00170155,0.00260794,0.22399089,0.,-0.04898597,0.,0.01258948,0.003389
 84,-0.02166479,0.,0.04076785,0.05604123,0.,-0.18636819,0.01276550,0.00
 371122,-0.00715133,-0.09194919,0.,0.18292903,-0.06711539,0.,0.,0.01948
 008,0.,0.,0.00611500,-0.01258948,0.01276550,0.03540531,0.,-0.53322646,
 0.24775875,0.,-0.02122063,0.01946763,-0.00170155,0.00338984,-0.0037112
 2,0.,0.54766741,0.,0.23594198,-0.21744451,0.,-0.01946763,0.01565876,0.
 00260794,0.02166479,-0.00715133,0.,-0.25980393,0.21608842,-0.06478458,
 0.,-0.09711028,0.00611500,-0.00170155,-0.00260794,-0.17143632,0.,0.010
 37696,0.00611500,0.00170155,-0.00260794,0.22399089,0.,-0.04898597,0.,-
 0.01258948,0.00338984,-0.02166479,0.,0.00143845,0.,0.01258948,0.003389
 84,0.02166479,0.,0.04076785,-0.05604123,0.,-0.18636820,-0.01276550,0.0
 0371122,-0.00715133,-0.01037696,0.,0.01774182,-0.01276550,-0.00371122,
 -0.00715133,0.09194919,0.,0.18292903\\0.,0.,0.00110832,0.,-0.00032030,
 -0.00018461,0.00027966,0.,-0.00036956,0.,0.00032030,-0.00018461,-0.000
 27966,0.,-0.00036956\\\@
 Job cpu time:  0 days  0 hours  6 minutes 38.8 seconds.
 File lengths (MBytes):  RWF=    718 Int=      0 D2E=      0 Chk=     11 Scr=      1
 Normal termination of Gaussian 03 at Fri Feb  9 22:37:05 2018.
