 Entering Gaussian System, Link 0=/Local/ce_dana/g09/g09
 Initial command:
 /Local/ce_dana/g09/l1.exe "/storage/ce_dana/alongd/scratch/g09/Gau-42084.inp" -scrdir="/storage/ce_dana/alongd/scratch/g09/"
 Entering Link 1 = /Local/ce_dana/g09/l1.exe PID=     42085.
  
 Copyright (c) 1988,1990,1992,1993,1995,1998,2003,2009,2013,
            Gaussian, Inc.  All Rights Reserved.
  
 This is part of the Gaussian(R) 09 program.  It is based on
 the Gaussian(R) 03 system (copyright 2003, Gaussian, Inc.),
 the Gaussian(R) 98 system (copyright 1998, Gaussian, Inc.),
 the Gaussian(R) 94 system (copyright 1995, Gaussian, Inc.),
 the Gaussian 92(TM) system (copyright 1992, Gaussian, Inc.),
 the Gaussian 90(TM) system (copyright 1990, Gaussian, Inc.),
 the Gaussian 88(TM) system (copyright 1988, Gaussian, Inc.),
 the Gaussian 86(TM) system (copyright 1986, Carnegie Mellon
 University), and the Gaussian 82(TM) system (copyright 1983,
 Carnegie Mellon University). Gaussian is a federally registered
 trademark of Gaussian, Inc.
  
 This software contains proprietary and confidential information,
 including trade secrets, belonging to Gaussian, Inc.
  
 This software is provided under written license and may be
 used, copied, transmitted, or stored only in accord with that
 written license.
  
 The following legend is applicable only to US Government
 contracts under FAR:
  
                    RESTRICTED RIGHTS LEGEND
  
 Use, reproduction and disclosure by the US Government is
 subject to restrictions as set forth in subparagraphs (a)
 and (c) of the Commercial Computer Software - Restricted
 Rights clause in FAR 52.227-19.
  
 Gaussian, Inc.
 340 Quinnipiac St., Bldg. 40, Wallingford CT 06492
  
  
 ---------------------------------------------------------------
 Warning -- This program may not be used in any manner that
 competes with the business of Gaussian, Inc. or will provide
 assistance to any competitor of Gaussian, Inc.  The licensee
 of this program is prohibited from giving any competitor of
 Gaussian, Inc. access to this program.  By using this program,
 the user acknowledges that Gaussian, Inc. is engaged in the
 business of creating and licensing software in the field of
 computational chemistry and represents and warrants to the
 licensee that it is not a competitor of Gaussian, Inc. and that
 it will not use this program in any manner prohibited above.
 ---------------------------------------------------------------
  

 Cite this work as:
 Gaussian 09, Revision D.01,
 M. J. Frisch, G. W. Trucks, H. B. Schlegel, G. E. Scuseria, 
 M. A. Robb, J. R. Cheeseman, G. Scalmani, V. Barone, B. Mennucci, 
 G. A. Petersson, H. Nakatsuji, M. Caricato, X. Li, H. P. Hratchian, 
 A. F. Izmaylov, J. Bloino, G. Zheng, J. L. Sonnenberg, M. Hada, 
 M. Ehara, K. Toyota, R. Fukuda, J. Hasegawa, M. Ishida, T. Nakajima, 
 Y. Honda, O. Kitao, H. Nakai, T. Vreven, J. A. Montgomery, Jr., 
 J. E. Peralta, F. Ogliaro, M. Bearpark, J. J. Heyd, E. Brothers, 
 K. N. Kudin, V. N. Staroverov, T. Keith, R. Kobayashi, J. Normand, 
 K. Raghavachari, A. Rendell, J. C. Burant, S. S. Iyengar, J. Tomasi, 
 M. Cossi, N. Rega, J. M. Millam, M. Klene, J. E. Knox, J. B. Cross, 
 V. Bakken, C. Adamo, J. Jaramillo, R. Gomperts, R. E. Stratmann, 
 O. Yazyev, A. J. Austin, R. Cammi, C. Pomelli, J. W. Ochterski, 
 R. L. Martin, K. Morokuma, V. G. Zakrzewski, G. A. Voth, 
 P. Salvador, J. J. Dannenberg, S. Dapprich, A. D. Daniels, 
 O. Farkas, J. B. Foresman, J. V. Ortiz, J. Cioslowski, 
 and D. J. Fox, Gaussian, Inc., Wallingford CT, 2013.
 
 ******************************************
 Gaussian 09:  ES64L-G09RevD.01 24-Apr-2013
                26-Jun-2021 
 ******************************************
 %chk=check.chk
 %mem=25600mb
 %NProcShared=10
 Will use up to   10 processors via shared memory.
 ----------------------------------------------------------------------
 #P opt=(ts, calcfc, noeigentest, maxcycles=100, tight, maxstep=5) gues
 s=mix cbs-qb3 scf=(tight, direct) integral=(grid=ultrafine, Acc2E=12) 
 IOp(2/9=2000) scf=xqc
 ----------------------------------------------------------------------
 1/5=1,6=100,7=10,8=5,10=4,11=1,14=-1,18=20,26=4,38=1/1,3;
 2/9=2000,12=2,17=6,18=5,40=1/2;
 3/5=4,6=6,7=700,11=2,16=1,25=1,30=1,71=2,74=-5,75=-5,140=1/1,2,3;
 4/13=-1/1;
 5/5=2,8=3,13=1,32=2,38=5,87=12/2,8;
 8/6=4,10=90,11=11,87=12/1;
 11/6=1,8=1,9=11,15=111,16=1,87=12/1,2,10;
 10/6=1,13=1,87=12/2;
 6/7=2,8=2,9=2,10=2,28=1/1;
 7/10=1,18=20,25=1,87=12/1,2,3,16;
 1/5=1,6=100,7=10,8=5,10=4,11=1,14=-1,18=20,26=4/3(2);
 2/9=2000/2;
 99//99;
 2/9=2000/2;
 3/5=4,6=6,7=700,11=2,16=1,25=1,30=1,71=1,74=-5,75=-5/1,2,3;
 4/5=5,16=3,69=1/1;
 5/5=2,8=3,13=1,32=2,38=5,87=12/2,8;
 7/87=12/1,2,3,16;
 1/5=1,6=100,7=10,8=5,11=1,14=-1,18=20,26=4/3(-5);
 2/9=2000/2;
 6/7=2,8=2,9=2,10=2,19=2,28=1/1;
 99/9=1/99;
 Leave Link    1 at Sat Jun 26 10:35:35 2021, MaxMem=  3355443200 cpu:         0.1
 (Enter /Local/ce_dana/g09/l101.exe)
 ---
 TS0
 ---
 Symbolic Z-matrix:
 Charge =  0 Multiplicity = 2
 C                     1.32411   0.17162   0.36758 
 C                    -0.06022  -0.32411   0.6048 
 C                    -1.28916   0.49109   0.39611 
 H                     1.32969   1.21524   0.01751 
 H                     1.94433   0.12497   1.28259 
 H                     1.85843  -0.43493  -0.38785 
 H                    -0.18234  -1.35448   0.95638 
 H                    -1.96998   0.03309  -0.34605 
 H                    -1.88253   0.59279   1.32438 
 H                    -1.05073   1.50625   0.0435 
 
 NAtoms=     10 NQM=       10 NQMF=       0 NMMI=      0 NMMIF=      0
                NMic=       0 NMicF=      0.
                    Isotopes and Nuclear Properties:
 (Nuclear quadrupole moments (NQMom) in fm**2, nuclear magnetic moments (NMagM)
  in nuclear magnetons)

  Atom         1           2           3           4           5           6           7           8           9          10
 IAtWgt=          12          12          12           1           1           1           1           1           1           1
 AtmWgt=  12.0000000  12.0000000  12.0000000   1.0078250   1.0078250   1.0078250   1.0078250   1.0078250   1.0078250   1.0078250
 NucSpn=           0           0           0           1           1           1           1           1           1           1
 AtZEff=   0.0000000   0.0000000   0.0000000   0.0000000   0.0000000   0.0000000   0.0000000   0.0000000   0.0000000   0.0000000
 NQMom=    0.0000000   0.0000000   0.0000000   0.0000000   0.0000000   0.0000000   0.0000000   0.0000000   0.0000000   0.0000000
 NMagM=    0.0000000   0.0000000   0.0000000   2.7928460   2.7928460   2.7928460   2.7928460   2.7928460   2.7928460   2.7928460
 AtZNuc=   6.0000000   6.0000000   6.0000000   1.0000000   1.0000000   1.0000000   1.0000000   1.0000000   1.0000000   1.0000000
 Leave Link  101 at Sat Jun 26 10:35:35 2021, MaxMem=  3355443200 cpu:         0.6
 (Enter /Local/ce_dana/g09/l103.exe)

 GradGradGradGradGradGradGradGradGradGradGradGradGradGradGradGradGradGrad
 Berny optimization.
 Initialization pass.
                           ----------------------------
                           !    Initial Parameters    !
                           ! (Angstroms and Degrees)  !
 --------------------------                            --------------------------
 ! Name  Definition              Value          Derivative Info.                !
 --------------------------------------------------------------------------------
 ! R1    R(1,2)                  1.4894         calculate D2E/DX2 analytically  !
 ! R2    R(1,4)                  1.1008         calculate D2E/DX2 analytically  !
 ! R3    R(1,5)                  1.1064         calculate D2E/DX2 analytically  !
 ! R4    R(1,6)                  1.1064         calculate D2E/DX2 analytically  !
 ! R5    R(2,3)                  1.4894         calculate D2E/DX2 analytically  !
 ! R6    R(2,7)                  1.0955         calculate D2E/DX2 analytically  !
 ! R7    R(3,8)                  1.1064         calculate D2E/DX2 analytically  !
 ! R8    R(3,9)                  1.1064         calculate D2E/DX2 analytically  !
 ! R9    R(3,10)                 1.1008         calculate D2E/DX2 analytically  !
 ! A1    A(2,1,4)              111.7722         calculate D2E/DX2 analytically  !
 ! A2    A(2,1,5)              112.041          calculate D2E/DX2 analytically  !
 ! A3    A(2,1,6)              112.0335         calculate D2E/DX2 analytically  !
 ! A4    A(4,1,5)              107.4663         calculate D2E/DX2 analytically  !
 ! A5    A(4,1,6)              107.468          calculate D2E/DX2 analytically  !
 ! A6    A(5,1,6)              105.7138         calculate D2E/DX2 analytically  !
 ! A7    A(1,2,3)              124.2218         calculate D2E/DX2 analytically  !
 ! A8    A(1,2,7)              117.8891         calculate D2E/DX2 analytically  !
 ! A9    A(3,2,7)              117.8891         calculate D2E/DX2 analytically  !
 ! A10   A(2,3,8)              112.0335         calculate D2E/DX2 analytically  !
 ! A11   A(2,3,9)              112.0409         calculate D2E/DX2 analytically  !
 ! A12   A(2,3,10)             111.7723         calculate D2E/DX2 analytically  !
 ! A13   A(8,3,9)              105.7137         calculate D2E/DX2 analytically  !
 ! A14   A(8,3,10)             107.468          calculate D2E/DX2 analytically  !
 ! A15   A(9,3,10)             107.4663         calculate D2E/DX2 analytically  !
 ! D1    D(4,1,2,3)             -0.0637         calculate D2E/DX2 analytically  !
 ! D2    D(4,1,2,7)            179.9985         calculate D2E/DX2 analytically  !
 ! D3    D(5,1,2,3)            120.626          calculate D2E/DX2 analytically  !
 ! D4    D(5,1,2,7)            -59.3118         calculate D2E/DX2 analytically  !
 ! D5    D(6,1,2,3)           -120.7502         calculate D2E/DX2 analytically  !
 ! D6    D(6,1,2,7)             59.312          calculate D2E/DX2 analytically  !
 ! D7    D(1,2,3,8)            120.7503         calculate D2E/DX2 analytically  !
 ! D8    D(1,2,3,9)           -120.6261         calculate D2E/DX2 analytically  !
 ! D9    D(1,2,3,10)             0.0636         calculate D2E/DX2 analytically  !
 ! D10   D(7,2,3,8)            -59.3119         calculate D2E/DX2 analytically  !
 ! D11   D(7,2,3,9)             59.3117         calculate D2E/DX2 analytically  !
 ! D12   D(7,2,3,10)          -179.9986         calculate D2E/DX2 analytically  !
 --------------------------------------------------------------------------------
 Trust Radius=5.00D-02 FncErr=1.00D-07 GrdErr=1.00D-06
 Number of steps in this run=    100 maximum allowed number of steps=    100.
 Search for a saddle point of order  1.
 GradGradGradGradGradGradGradGradGradGradGradGradGradGradGradGradGradGrad

 Leave Link  103 at Sat Jun 26 10:35:35 2021, MaxMem=  3355443200 cpu:         0.0
 (Enter /Local/ce_dana/g09/l202.exe)
                          Input orientation:                          
 ---------------------------------------------------------------------
 Center     Atomic      Atomic             Coordinates (Angstroms)
 Number     Number       Type             X           Y           Z
 ---------------------------------------------------------------------
      1          6           0        1.324105    0.171623    0.367576
      2          6           0       -0.060222   -0.324114    0.604797
      3          6           0       -1.289158    0.491089    0.396110
      4          1           0        1.329687    1.215244    0.017509
      5          1           0        1.944331    0.124966    1.282591
      6          1           0        1.858434   -0.434929   -0.387854
      7          1           0       -0.182343   -1.354482    0.956379
      8          1           0       -1.969979    0.033086   -0.346050
      9          1           0       -1.882528    0.592790    1.324377
     10          1           0       -1.050733    1.506245    0.043501
 ---------------------------------------------------------------------
                    Distance matrix (angstroms):
                    1          2          3          4          5
     1  C    0.000000
     2  C    1.489426   0.000000
     3  C    2.632872   1.489426   0.000000
     4  H    1.100783   2.155546   2.743372   0.000000
     5  H    1.106395   2.163171   3.372736   1.779586   0.000000
     6  H    1.106385   2.163071   3.373343   1.779596   1.763873
     7  H    2.223752   1.095528   2.223752   3.125892   2.611115
     8  H    3.373343   2.163070   1.106384   3.523843   4.240606
     9  H    3.372736   2.163171   1.106395   3.523305   3.855575
    10  H    2.743373   2.155546   1.100782   2.398282   3.523306
                    6          7          8          9         10
     6  H    0.000000
     7  H    2.610998   0.000000
     8  H    3.857140   2.610998   0.000000
     9  H    4.240606   2.611115   1.763871   0.000000
    10  H    3.523844   3.125893   1.779596   1.779586   0.000000
 Stoichiometry    C3H7(2)
 Framework group  C1[X(C3H7)]
 Deg. of freedom    24
 Full point group                 C1      NOp   1
 Largest Abelian subgroup         C1      NOp   1
 Largest concise Abelian subgroup C1      NOp   1
                         Standard orientation:                         
 ---------------------------------------------------------------------
 Center     Atomic      Atomic             Coordinates (Angstroms)
 Number     Number       Type             X           Y           Z
 ---------------------------------------------------------------------
      1          6           0       -1.316436   -0.194284    0.000028
      2          6           0        0.000000    0.502412   -0.000212
      3          6           0        1.316436   -0.194285    0.000028
      4          1           0       -1.199140   -1.288800   -0.000730
      5          1           0       -1.927787    0.073568    0.882419
      6          1           0       -1.928570    0.074733   -0.881453
      7          1           0       -0.000000    1.597940    0.000461
      8          1           0        1.928570    0.074734   -0.881452
      9          1           0        1.927787    0.073570    0.882419
     10          1           0        1.199142   -1.288800   -0.000730
 ---------------------------------------------------------------------
 Rotational constants (GHZ):     38.8650989      8.0713504      7.2877713
 Leave Link  202 at Sat Jun 26 10:35:35 2021, MaxMem=  3355443200 cpu:         0.0
 (Enter /Local/ce_dana/g09/l301.exe)
 Standard basis: 6-311G(2d,d,p) (5D, 7F)
 Ernie: Thresh=  0.10000D-02 Tol=  0.10000D-05 Strict=F.
 There are    99 symmetry adapted cartesian basis functions of A   symmetry.
 There are    96 symmetry adapted basis functions of A   symmetry.
    96 basis functions,   152 primitive gaussians,    99 cartesian basis functions
    13 alpha electrons       12 beta electrons
       nuclear repulsion energy        74.9992093492 Hartrees.
 IExCor=  402 DFT=T Ex+Corr=B3LYP ExCW=0 ScaHFX=  0.200000
 ScaDFX=  0.800000  0.720000  1.000000  0.810000 ScalE2=  1.000000  1.000000
 IRadAn=      5 IRanWt=     -1 IRanGd=            0 ICorTp=0 IEmpDi=  4
 NAtoms=   10 NActive=   10 NUniq=   10 SFac= 1.00D+00 NAtFMM=   60 NAOKFM=F Big=F
 Integral buffers will be    131072 words long.
 Raffenetti 2 integral format.
 Two-electron integral symmetry is turned on.
 Leave Link  301 at Sat Jun 26 10:35:35 2021, MaxMem=  3355443200 cpu:         0.1
 (Enter /Local/ce_dana/g09/l302.exe)
 NPDir=0 NMtPBC=     1 NCelOv=     1 NCel=       1 NClECP=     1 NCelD=      1
         NCelK=      1 NCelE2=     1 NClLst=     1 CellRange=     0.0.
 One-electron integrals computed using PRISM.
 NBasis=    96 RedAO= T EigKep=  3.00D-03  NBF=    96
 NBsUse=    96 1.00D-06 EigRej= -1.00D+00 NBFU=    96
 Precomputing XC quadrature grid using
 IXCGrd= 4 IRadAn=           5 IRanWt=          -1 IRanGd=           0 AccXCQ= 0.00D+00.
 Generated NRdTot=       0 NPtTot=           0 NUsed=           0 NTot=          32
 NSgBfM=    99    99    99    99    99 MxSgAt=    10 MxSgA2=    10.
 Leave Link  302 at Sat Jun 26 10:35:36 2021, MaxMem=  3355443200 cpu:         1.1
 (Enter /Local/ce_dana/g09/l303.exe)
 DipDrv:  MaxL=1.
 Leave Link  303 at Sat Jun 26 10:35:36 2021, MaxMem=  3355443200 cpu:         0.1
 (Enter /Local/ce_dana/g09/l401.exe)
 ExpMin= 1.03D-01 ExpMax= 4.56D+03 ExpMxC= 6.82D+02 IAcc=3 IRadAn=         5 AccDes= 0.00D+00
 Harris functional with IExCor=  402 and IRadAn=       5 diagonalized for initial guess.
 HarFok:  IExCor=  402 AccDes= 0.00D+00 IRadAn=         5 IDoV= 1 UseB2=F ITyADJ=14
 ICtDFT=  3500011 ScaDFX=  1.000000  1.000000  1.000000  1.000000
 FoFCou: FMM=F IPFlag=           0 FMFlag=      100000 FMFlg1=           0
         NFxFlg=           0 DoJE=T BraDBF=F KetDBF=T FulRan=T
         wScrn=  0.000000 ICntrl=     500 IOpCl=  0 I1Cent=   200000004 NGrid=           0
         NMat0=    1 NMatS0=      1 NMatT0=    0 NMatD0=    1 NMtDS0=    0 NMtDT0=    0
 Petite list used in FoFCou.
 Harris En= -118.544038929243    
 JPrj=0 DoOrth=F DoCkMO=T.
 Mixing orbitals, IMix= 1 IMixAn=  0 NRI=1 NE=   13 Coef=  7.07106781D-01  7.07106781D-01
 Mixing orbitals, IMix= 1 IMixAn=  0 NRI=1 NE=   12 Coef= -7.07106781D-01  7.07106781D-01
 Initial guess <Sx>= 0.0000 <Sy>= 0.0000 <Sz>= 0.5000 <S**2>= 1.0000 S= 0.6180
 Leave Link  401 at Sat Jun 26 10:35:36 2021, MaxMem=  3355443200 cpu:         4.8
 (Enter /Local/ce_dana/g09/l502.exe)
 UHF open shell SCF:
 Using DIIS extrapolation, IDIIS=  1040.
 Integral symmetry usage will be decided dynamically.
 Keep R1 and R2 ints in memory in canonical form, NReq=22641738.
 IVT=       37088 IEndB=       37088 NGot=  3355443200 MDV=  3333723121
 LenX=  3333723121 LenY=  3333712879
 Requested convergence on RMS density matrix=1.00D-08 within  64 cycles.
 Requested convergence on MAX density matrix=1.00D-06.
 Requested convergence on             energy=1.00D-06.
 No special actions if energy rises.
 FoFCou: FMM=F IPFlag=           0 FMFlag=           0 FMFlg1=           0
         NFxFlg=           0 DoJE=F BraDBF=F KetDBF=F FulRan=T
         wScrn=  0.000000 ICntrl=     600 IOpCl=  0 I1Cent=           0 NGrid=           0
         NMat0=    1 NMatS0=   4656 NMatT0=    0 NMatD0=    1 NMtDS0=    0 NMtDT0=    0
 Symmetry not used in FoFCou.
 Integral accuracy reduced to 1.0D-05 until final iterations.

 Cycle   1  Pass 0  IDiag  1:
 E= -118.195482063582    
 DIIS: error= 4.71D-02 at cycle   1 NSaved=   1.
 NSaved= 1 IEnMin= 1 EnMin= -118.195482063582     IErMin= 1 ErrMin= 4.71D-02
 ErrMax= 4.71D-02  0.00D+00 EMaxC= 1.00D-01 BMatC= 5.13D-01 BMatP= 5.13D-01
 IDIUse=3 WtCom= 5.29D-01 WtEn= 4.71D-01
 Coeff-Com:  0.100D+01
 Coeff-En:   0.100D+01
 Coeff:      0.100D+01
 Gap=     0.049 Goal=   None    Shift=    0.000
 Gap=     0.076 Goal=   None    Shift=    0.000
 GapD=    0.049 DampG=0.250 DampE=0.500 DampFc=0.2500 IDamp=-1.
 Damping current iteration by 2.50D-01
 RMSDP=1.70D-02 MaxDP=4.64D-01              OVMax= 5.91D-01

 Cycle   2  Pass 0  IDiag  1:
 E= -118.273596282285     Delta-E=       -0.078114218703 Rises=F Damp=T
 DIIS: error= 3.98D-02 at cycle   2 NSaved=   2.
 NSaved= 2 IEnMin= 2 EnMin= -118.273596282285     IErMin= 2 ErrMin= 3.98D-02
 ErrMax= 3.98D-02  0.00D+00 EMaxC= 1.00D-01 BMatC= 1.51D-01 BMatP= 5.13D-01
 IDIUse=3 WtCom= 6.02D-01 WtEn= 3.98D-01
 Coeff-Com: -0.966D+00 0.197D+01
 Coeff-En:   0.000D+00 0.100D+01
 Coeff:     -0.582D+00 0.158D+01
 Gap=     0.171 Goal=   None    Shift=    0.000
 Gap=     0.264 Goal=   None    Shift=    0.000
 RMSDP=1.40D-02 MaxDP=3.85D-01 DE=-7.81D-02 OVMax= 1.14D-01

 Cycle   3  Pass 0  IDiag  1:
 E= -118.502655123185     Delta-E=       -0.229058840900 Rises=F Damp=F
 DIIS: error= 1.10D-02 at cycle   3 NSaved=   3.
 NSaved= 3 IEnMin= 3 EnMin= -118.502655123185     IErMin= 3 ErrMin= 1.10D-02
 ErrMax= 1.10D-02  0.00D+00 EMaxC= 1.00D-01 BMatC= 1.63D-02 BMatP= 1.51D-01
 IDIUse=3 WtCom= 8.90D-01 WtEn= 1.10D-01
 Coeff-Com:  0.414D+00-0.534D+00 0.112D+01
 Coeff-En:   0.000D+00 0.000D+00 0.100D+01
 Coeff:      0.368D+00-0.476D+00 0.111D+01
 Gap=     0.214 Goal=   None    Shift=    0.000
 Gap=     0.299 Goal=   None    Shift=    0.000
 RMSDP=1.83D-03 MaxDP=4.77D-02 DE=-2.29D-01 OVMax= 8.50D-02

 Cycle   4  Pass 0  IDiag  1:
 E= -118.511879646364     Delta-E=       -0.009224523179 Rises=F Damp=F
 DIIS: error= 3.54D-03 at cycle   4 NSaved=   4.
 NSaved= 4 IEnMin= 4 EnMin= -118.511879646364     IErMin= 4 ErrMin= 3.54D-03
 ErrMax= 3.54D-03  0.00D+00 EMaxC= 1.00D-01 BMatC= 1.61D-03 BMatP= 1.63D-02
 IDIUse=3 WtCom= 9.65D-01 WtEn= 3.54D-02
 Coeff-Com:  0.720D-01-0.118D+00 0.172D+00 0.875D+00
 Coeff-En:   0.000D+00 0.000D+00 0.000D+00 0.100D+01
 Coeff:      0.694D-01-0.114D+00 0.166D+00 0.879D+00
 Gap=     0.231 Goal=   None    Shift=    0.000
 Gap=     0.308 Goal=   None    Shift=    0.000
 RMSDP=4.83D-04 MaxDP=1.33D-02 DE=-9.22D-03 OVMax= 2.43D-02

 Cycle   5  Pass 0  IDiag  1:
 E= -118.512534151315     Delta-E=       -0.000654504951 Rises=F Damp=F
 DIIS: error= 2.16D-03 at cycle   5 NSaved=   5.
 NSaved= 5 IEnMin= 5 EnMin= -118.512534151315     IErMin= 5 ErrMin= 2.16D-03
 ErrMax= 2.16D-03  0.00D+00 EMaxC= 1.00D-01 BMatC= 7.98D-04 BMatP= 1.61D-03
 IDIUse=3 WtCom= 9.78D-01 WtEn= 2.16D-02
 Coeff-Com: -0.277D-01 0.248D-01-0.890D-01 0.422D+00 0.669D+00
 Coeff-En:   0.000D+00 0.000D+00 0.000D+00 0.000D+00 0.100D+01
 Coeff:     -0.271D-01 0.243D-01-0.871D-01 0.413D+00 0.677D+00
 Gap=     0.228 Goal=   None    Shift=    0.000
 Gap=     0.312 Goal=   None    Shift=    0.000
 RMSDP=1.66D-04 MaxDP=5.19D-03 DE=-6.55D-04 OVMax= 8.89D-03

 Cycle   6  Pass 0  IDiag  1:
 E= -118.512775154779     Delta-E=       -0.000241003464 Rises=F Damp=F
 DIIS: error= 4.53D-04 at cycle   6 NSaved=   6.
 NSaved= 6 IEnMin= 6 EnMin= -118.512775154779     IErMin= 6 ErrMin= 4.53D-04
 ErrMax= 4.53D-04  0.00D+00 EMaxC= 1.00D-01 BMatC= 4.03D-05 BMatP= 7.98D-04
 IDIUse=3 WtCom= 9.95D-01 WtEn= 4.53D-03
 Coeff-Com: -0.186D-01 0.285D-01-0.394D-01-0.232D-01 0.152D+00 0.900D+00
 Coeff-En:   0.000D+00 0.000D+00 0.000D+00 0.000D+00 0.000D+00 0.100D+01
 Coeff:     -0.185D-01 0.284D-01-0.392D-01-0.231D-01 0.151D+00 0.901D+00
 Gap=     0.228 Goal=   None    Shift=    0.000
 Gap=     0.310 Goal=   None    Shift=    0.000
 RMSDP=4.68D-05 MaxDP=1.50D-03 DE=-2.41D-04 OVMax= 2.27D-03

 Cycle   7  Pass 0  IDiag  1:
 E= -118.512790094166     Delta-E=       -0.000014939387 Rises=F Damp=F
 DIIS: error= 1.13D-04 at cycle   7 NSaved=   7.
 NSaved= 7 IEnMin= 7 EnMin= -118.512790094166     IErMin= 7 ErrMin= 1.13D-04
 ErrMax= 1.13D-04  0.00D+00 EMaxC= 1.00D-01 BMatC= 2.35D-06 BMatP= 4.03D-05
 IDIUse=3 WtCom= 9.99D-01 WtEn= 1.13D-03
 Coeff-Com:  0.108D-03 0.476D-04 0.112D-02-0.259D-01-0.315D-01 0.122D+00
 Coeff-Com:  0.935D+00
 Coeff-En:   0.000D+00 0.000D+00 0.000D+00 0.000D+00 0.000D+00 0.000D+00
 Coeff-En:   0.100D+01
 Coeff:      0.108D-03 0.475D-04 0.112D-02-0.259D-01-0.314D-01 0.121D+00
 Coeff:      0.935D+00
 Gap=     0.228 Goal=   None    Shift=    0.000
 Gap=     0.311 Goal=   None    Shift=    0.000
 RMSDP=1.44D-05 MaxDP=3.46D-04 DE=-1.49D-05 OVMax= 6.53D-04

 Cycle   8  Pass 0  IDiag  1:
 E= -118.512791123258     Delta-E=       -0.000001029091 Rises=F Damp=F
 DIIS: error= 5.00D-05 at cycle   8 NSaved=   8.
 NSaved= 8 IEnMin= 8 EnMin= -118.512791123258     IErMin= 8 ErrMin= 5.00D-05
 ErrMax= 5.00D-05  0.00D+00 EMaxC= 1.00D-01 BMatC= 2.22D-07 BMatP= 2.35D-06
 IDIUse=1 WtCom= 1.00D+00 WtEn= 0.00D+00
 Coeff-Com:  0.139D-02-0.189D-02 0.326D-02-0.415D-02-0.190D-01-0.516D-01
 Coeff-Com:  0.229D+00 0.843D+00
 Coeff:      0.139D-02-0.189D-02 0.326D-02-0.415D-02-0.190D-01-0.516D-01
 Coeff:      0.229D+00 0.843D+00
 Gap=     0.228 Goal=   None    Shift=    0.000
 Gap=     0.311 Goal=   None    Shift=    0.000
 RMSDP=3.29D-06 MaxDP=6.83D-05 DE=-1.03D-06 OVMax= 1.63D-04

 Initial convergence to 1.0D-05 achieved.  Increase integral accuracy.
 Cycle   9  Pass 1  IDiag  1:
 E= -118.512787397140     Delta-E=        0.000003726118 Rises=F Damp=F
 DIIS: error= 7.45D-06 at cycle   1 NSaved=   1.
 NSaved= 1 IEnMin= 1 EnMin= -118.512787397140     IErMin= 1 ErrMin= 7.45D-06
 ErrMax= 7.45D-06  0.00D+00 EMaxC= 1.00D-01 BMatC= 7.39D-09 BMatP= 7.39D-09
 IDIUse=1 WtCom= 1.00D+00 WtEn= 0.00D+00
 Coeff-Com:  0.100D+01
 Coeff:      0.100D+01
 Gap=     0.228 Goal=   None    Shift=    0.000
 Gap=     0.311 Goal=   None    Shift=    0.000
 RMSDP=3.29D-06 MaxDP=6.83D-05 DE= 3.73D-06 OVMax= 3.61D-05

 Cycle  10  Pass 1  IDiag  1:
 E= -118.512787400952     Delta-E=       -0.000000003813 Rises=F Damp=F
 DIIS: error= 3.17D-06 at cycle   2 NSaved=   2.
 NSaved= 2 IEnMin= 2 EnMin= -118.512787400952     IErMin= 2 ErrMin= 3.17D-06
 ErrMax= 3.17D-06  0.00D+00 EMaxC= 1.00D-01 BMatC= 1.88D-09 BMatP= 7.39D-09
 IDIUse=1 WtCom= 1.00D+00 WtEn= 0.00D+00
 Coeff-Com:  0.194D+00 0.806D+00
 Coeff:      0.194D+00 0.806D+00
 Gap=     0.228 Goal=   None    Shift=    0.000
 Gap=     0.311 Goal=   None    Shift=    0.000
 RMSDP=3.01D-07 MaxDP=9.89D-06 DE=-3.81D-09 OVMax= 1.33D-05

 Cycle  11  Pass 1  IDiag  1:
 E= -118.512787401573     Delta-E=       -0.000000000620 Rises=F Damp=F
 DIIS: error= 2.30D-06 at cycle   3 NSaved=   3.
 NSaved= 3 IEnMin= 3 EnMin= -118.512787401573     IErMin= 3 ErrMin= 2.30D-06
 ErrMax= 2.30D-06  0.00D+00 EMaxC= 1.00D-01 BMatC= 7.46D-10 BMatP= 1.88D-09
 IDIUse=1 WtCom= 1.00D+00 WtEn= 0.00D+00
 Coeff-Com: -0.134D+00 0.332D+00 0.802D+00
 Coeff:     -0.134D+00 0.332D+00 0.802D+00
 Gap=     0.228 Goal=   None    Shift=    0.000
 Gap=     0.311 Goal=   None    Shift=    0.000
 RMSDP=1.64D-07 MaxDP=3.64D-06 DE=-6.20D-10 OVMax= 6.96D-06

 Cycle  12  Pass 1  IDiag  1:
 E= -118.512787401849     Delta-E=       -0.000000000276 Rises=F Damp=F
 DIIS: error= 8.03D-07 at cycle   4 NSaved=   4.
 NSaved= 4 IEnMin= 4 EnMin= -118.512787401849     IErMin= 4 ErrMin= 8.03D-07
 ErrMax= 8.03D-07  0.00D+00 EMaxC= 1.00D-01 BMatC= 8.69D-11 BMatP= 7.46D-10
 IDIUse=1 WtCom= 1.00D+00 WtEn= 0.00D+00
 Coeff-Com: -0.851D-01-0.228D-01 0.281D+00 0.827D+00
 Coeff:     -0.851D-01-0.228D-01 0.281D+00 0.827D+00
 Gap=     0.228 Goal=   None    Shift=    0.000
 Gap=     0.311 Goal=   None    Shift=    0.000
 RMSDP=6.91D-08 MaxDP=1.24D-06 DE=-2.76D-10 OVMax= 3.05D-06

 Cycle  13  Pass 1  IDiag  1:
 E= -118.512787401885     Delta-E=       -0.000000000036 Rises=F Damp=F
 DIIS: error= 1.30D-07 at cycle   5 NSaved=   5.
 NSaved= 5 IEnMin= 5 EnMin= -118.512787401885     IErMin= 5 ErrMin= 1.30D-07
 ErrMax= 1.30D-07  0.00D+00 EMaxC= 1.00D-01 BMatC= 3.44D-12 BMatP= 8.69D-11
 IDIUse=1 WtCom= 1.00D+00 WtEn= 0.00D+00
 Coeff-Com: -0.800D-02-0.250D-01 0.220D-03 0.164D+00 0.868D+00
 Coeff:     -0.800D-02-0.250D-01 0.220D-03 0.164D+00 0.868D+00
 Gap=     0.228 Goal=   None    Shift=    0.000
 Gap=     0.311 Goal=   None    Shift=    0.000
 RMSDP=1.59D-08 MaxDP=6.34D-07 DE=-3.58D-11 OVMax= 5.54D-07

 Cycle  14  Pass 1  IDiag  1:
 E= -118.512787401886     Delta-E=       -0.000000000001 Rises=F Damp=F
 DIIS: error= 4.56D-08 at cycle   6 NSaved=   6.
 NSaved= 6 IEnMin= 6 EnMin= -118.512787401886     IErMin= 6 ErrMin= 4.56D-08
 ErrMax= 4.56D-08  0.00D+00 EMaxC= 1.00D-01 BMatC= 5.06D-13 BMatP= 3.44D-12
 IDIUse=1 WtCom= 1.00D+00 WtEn= 0.00D+00
 Coeff-Com:  0.654D-02-0.645D-02-0.286D-01-0.304D-01 0.270D+00 0.789D+00
 Coeff:      0.654D-02-0.645D-02-0.286D-01-0.304D-01 0.270D+00 0.789D+00
 Gap=     0.228 Goal=   None    Shift=    0.000
 Gap=     0.311 Goal=   None    Shift=    0.000
 RMSDP=4.16D-09 MaxDP=1.46D-07 DE=-1.11D-12 OVMax= 1.52D-07

 SCF Done:  E(UB3LYP) =  -118.512787402     A.U. after   14 cycles
            NFock= 14  Conv=0.42D-08     -V/T= 2.0057
 <Sx>= 0.0000 <Sy>= 0.0000 <Sz>= 0.5000 <S**2>= 0.7542 S= 0.5021
 <L.S>=  0.00000000000    
 KE= 1.178434485452D+02 PE=-4.239404165866D+02 EE= 1.125849712903D+02
 Annihilation of the first spin contaminant:
 S**2 before annihilation     0.7542,   after     0.7500
 Leave Link  502 at Sat Jun 26 10:35:42 2021, MaxMem=  3355443200 cpu:        51.6
 (Enter /Local/ce_dana/g09/l508.exe)
 QCSCF skips out because SCF is already converged.
 Leave Link  508 at Sat Jun 26 10:35:42 2021, MaxMem=  3355443200 cpu:         0.0
 (Enter /Local/ce_dana/g09/l801.exe)
 DoSCS=F DFT=T ScalE2(SS,OS)=  1.000000  1.000000
 Range of M.O.s used for correlation:     1    96
 NBasis=    96 NAE=    13 NBE=    12 NFC=     0 NFV=     0
 NROrb=     96 NOA=    13 NOB=    12 NVA=    83 NVB=    84
 Leave Link  801 at Sat Jun 26 10:35:42 2021, MaxMem=  3355443200 cpu:         0.1
 (Enter /Local/ce_dana/g09/l1101.exe)
 Using compressed storage, NAtomX=    10.
 Will process     11 centers per pass.
 Leave Link 1101 at Sat Jun 26 10:35:42 2021, MaxMem=  3355443200 cpu:         3.3
 (Enter /Local/ce_dana/g09/l1102.exe)
 Symmetrizing basis deriv contribution to polar:
 IMax=3 JMax=2 DiffMx= 0.00D+00
 Leave Link 1102 at Sat Jun 26 10:35:43 2021, MaxMem=  3355443200 cpu:         0.1
 (Enter /Local/ce_dana/g09/l1110.exe)
 Forming Gx(P) for the SCF density, NAtomX=    10.
 Integral derivatives from FoFJK, PRISM(SPDF).
 Do as many integral derivatives as possible in FoFJK.
 G2DrvN: MDV=    3355443016.
 G2DrvN: will do    11 centers at a time, making    1 passes.
 Calling FoFCou, ICntrl=  3107 FMM=F I1Cent=   0 AccDes= 1.00D-12.
 FoFJK:  IHMeth= 1 ICntrl=    3107 DoSepK=F KAlg= 0 I1Cent=   0 FoldK=F
 IRaf=         0 NMat=   1 IRICut=       1 DoRegI=T DoRafI=F ISym2E= 0.
 FoFCou: FMM=F IPFlag=           0 FMFlag=      100000 FMFlg1=           0
         NFxFlg=           0 DoJE=F BraDBF=F KetDBF=F FulRan=T
         wScrn=  0.000000 ICntrl=    3107 IOpCl=  1 I1Cent=           0 NGrid=           0
         NMat0=    1 NMatS0=      1 NMatT0=    0 NMatD0=    1 NMtDS0=    0 NMtDT0=    0
 Symmetry not used in FoFCou.
 End of G2Drv F.D. properties file   721 does not exist.
 End of G2Drv F.D. properties file   722 does not exist.
 End of G2Drv F.D. properties file   788 does not exist.
 Leave Link 1110 at Sat Jun 26 10:35:54 2021, MaxMem=  3355443200 cpu:       114.1
 (Enter /Local/ce_dana/g09/l1002.exe)
 Minotr:  UHF open shell wavefunction.
          IDoAtm=1111111111
          Direct CPHF calculation.
          Differentiating once with respect to nuclear coordinates.
          Requested convergence is 1.0D-08 RMS, and 1.0D-07 maximum.
          Secondary convergence is 1.0D-12 RMS, and 1.0D-12 maximum.
          NewPWx=T KeepS1=F KeepF1=F KeepIn=T MapXYZ=F SortEE=F KeepMc=T.
          MDV=    3355442904 using IRadAn=       1.
 Generate precomputed XC quadrature information.
 Keep R1 and R2 ints in memory in canonical form, NReq=22605689.
 FoFCou: FMM=F IPFlag=           0 FMFlag=           0 FMFlg1=           0
         NFxFlg=           0 DoJE=F BraDBF=F KetDBF=F FulRan=T
         wScrn=  0.000000 ICntrl=     600 IOpCl=  0 I1Cent=           0 NGrid=           0
         NMat0=    1 NMatS0=   4656 NMatT0=    0 NMatD0=    1 NMtDS0=    0 NMtDT0=    0
 Symmetry not used in FoFCou.
          Solving linear equations simultaneously, MaxMat=       0.
          There are    33 degrees of freedom in the 1st order CPHF.  IDoFFX=6 NUNeed=     0.
     27 vectors produced by pass  0 Test12= 6.32D-15 3.03D-09 XBig12= 1.66D-01 1.49D-01.
 AX will form    27 AO Fock derivatives at one time.
     27 vectors produced by pass  1 Test12= 6.32D-15 3.03D-09 XBig12= 8.76D-03 2.67D-02.
     27 vectors produced by pass  2 Test12= 6.32D-15 3.03D-09 XBig12= 2.02D-04 4.56D-03.
     27 vectors produced by pass  3 Test12= 6.32D-15 3.03D-09 XBig12= 1.48D-06 3.01D-04.
     27 vectors produced by pass  4 Test12= 6.32D-15 3.03D-09 XBig12= 6.38D-09 1.67D-05.
     27 vectors produced by pass  5 Test12= 6.32D-15 3.03D-09 XBig12= 3.44D-11 1.15D-06.
     10 vectors produced by pass  6 Test12= 6.32D-15 3.03D-09 XBig12= 1.45D-13 7.84D-08.
      1 vectors produced by pass  7 Test12= 6.32D-15 3.03D-09 XBig12= 4.38D-16 4.35D-09.
 InvSVY:  IOpt=1 It=  1 EMax= 2.55D-15
 Solved reduced A of dimension   173 with    27 vectors.
 End of Minotr F.D. properties file   721 does not exist.
 End of Minotr F.D. properties file   722 does not exist.
 End of Minotr F.D. properties file   788 does not exist.
 Leave Link 1002 at Sat Jun 26 10:36:10 2021, MaxMem=  3355443200 cpu:       152.1
 (Enter /Local/ce_dana/g09/l601.exe)
 Copying SCF densities to generalized density rwf, IOpCl= 1 IROHF=0.

 **********************************************************************

            Population analysis using the SCF density.

 **********************************************************************

 Orbital symmetries:
 Alpha Orbitals:
       Occupied  (A) (A) (A) (A) (A) (A) (A) (A) (A) (A) (A) (A)
                 (A)
       Virtual   (A) (A) (A) (A) (A) (A) (A) (A) (A) (A) (A) (A)
                 (A) (A) (A) (A) (A) (A) (A) (A) (A) (A) (A) (A)
                 (A) (A) (A) (A) (A) (A) (A) (A) (A) (A) (A) (A)
                 (A) (A) (A) (A) (A) (A) (A) (A) (A) (A) (A) (A)
                 (A) (A) (A) (A) (A) (A) (A) (A) (A) (A) (A) (A)
                 (A) (A) (A) (A) (A) (A) (A) (A) (A) (A) (A) (A)
                 (A) (A) (A) (A) (A) (A) (A) (A) (A) (A) (A)
 Beta  Orbitals:
       Occupied  (A) (A) (A) (A) (A) (A) (A) (A) (A) (A) (A) (A)
       Virtual   (A) (A) (A) (A) (A) (A) (A) (A) (A) (A) (A) (A)
                 (A) (A) (A) (A) (A) (A) (A) (A) (A) (A) (A) (A)
                 (A) (A) (A) (A) (A) (A) (A) (A) (A) (A) (A) (A)
                 (A) (A) (A) (A) (A) (A) (A) (A) (A) (A) (A) (A)
                 (A) (A) (A) (A) (A) (A) (A) (A) (A) (A) (A) (A)
                 (A) (A) (A) (A) (A) (A) (A) (A) (A) (A) (A) (A)
                 (A) (A) (A) (A) (A) (A) (A) (A) (A) (A) (A) (A)
 The electronic state is 2-A.
 Alpha  occ. eigenvalues --  -10.17031 -10.16440 -10.16438  -0.78045  -0.69217
 Alpha  occ. eigenvalues --   -0.56918  -0.45449  -0.42692  -0.40580  -0.39139
 Alpha  occ. eigenvalues --   -0.35975  -0.34893  -0.18003
 Alpha virt. eigenvalues --    0.04782   0.08095   0.08102   0.11060   0.11136
 Alpha virt. eigenvalues --    0.12492   0.14424   0.22707   0.27361   0.27532
 Alpha virt. eigenvalues --    0.30586   0.31613   0.36402   0.39699   0.42076
 Alpha virt. eigenvalues --    0.46302   0.47357   0.54437   0.56030   0.56848
 Alpha virt. eigenvalues --    0.58188   0.58718   0.61489   0.62242   0.65902
 Alpha virt. eigenvalues --    0.70249   0.82578   0.89519   0.93045   1.03368
 Alpha virt. eigenvalues --    1.17938   1.21401   1.30628   1.43064   1.43088
 Alpha virt. eigenvalues --    1.43789   1.45667   1.45822   1.48353   1.53389
 Alpha virt. eigenvalues --    1.54949   1.55178   1.57275   1.67192   1.70765
 Alpha virt. eigenvalues --    1.71474   1.74870   1.86602   1.94507   1.94560
 Alpha virt. eigenvalues --    2.03907   2.04596   2.10108   2.15290   2.18706
 Alpha virt. eigenvalues --    2.30847   2.31400   2.36761   2.37471   2.38901
 Alpha virt. eigenvalues --    2.42052   2.45606   2.45623   2.45937   2.54000
 Alpha virt. eigenvalues --    2.55484   2.62996   2.66043   2.77160   2.78424
 Alpha virt. eigenvalues --    2.82083   2.82937   3.10538   3.31197   3.73040
 Alpha virt. eigenvalues --    3.75749   3.77469   3.83575   3.95722   4.29425
 Alpha virt. eigenvalues --   23.80641  23.88566  23.93428
  Beta  occ. eigenvalues --  -10.16531 -10.16530 -10.15605  -0.76297  -0.68948
  Beta  occ. eigenvalues --   -0.54847  -0.44785  -0.40857  -0.40266  -0.38375
  Beta  occ. eigenvalues --   -0.35386  -0.34479
  Beta virt. eigenvalues --   -0.03421   0.04958   0.08210   0.08254   0.11529
  Beta virt. eigenvalues --    0.11774   0.12679   0.14461   0.23533   0.27811
  Beta virt. eigenvalues --    0.28043   0.30862   0.31822   0.37123   0.41888
  Beta virt. eigenvalues --    0.42337   0.48090   0.52214   0.54999   0.56638
  Beta virt. eigenvalues --    0.57171   0.58238   0.58752   0.61491   0.63144
  Beta virt. eigenvalues --    0.66441   0.71339   0.84154   0.89512   0.94330
  Beta virt. eigenvalues --    1.05140   1.17940   1.22065   1.32698   1.43309
  Beta virt. eigenvalues --    1.44310   1.44652   1.46209   1.46682   1.48845
  Beta virt. eigenvalues --    1.53560   1.55507   1.56196   1.59895   1.68186
  Beta virt. eigenvalues --    1.71276   1.71504   1.76473   1.87949   1.95759
  Beta virt. eigenvalues --    1.97190   2.05100   2.05441   2.10458   2.16232
  Beta virt. eigenvalues --    2.18957   2.31242   2.31626   2.37235   2.38542
  Beta virt. eigenvalues --    2.39727   2.42222   2.45871   2.46100   2.46935
  Beta virt. eigenvalues --    2.54637   2.56789   2.63564   2.66372   2.77821
  Beta virt. eigenvalues --    2.78961   2.83360   2.88234   3.11091   3.31917
  Beta virt. eigenvalues --    3.73529   3.75859   3.77893   3.83724   3.97324
  Beta virt. eigenvalues --    4.30854  23.82115  23.88610  23.93337
          Condensed to atoms (all electrons):
               1          2          3          4          5          6
     1  C    4.807738   0.368050  -0.057906   0.404658   0.399187   0.399223
     2  C    0.368050   5.320891   0.368050  -0.037353  -0.046549  -0.046544
     3  C   -0.057906   0.368050   4.807737  -0.009360   0.004425   0.004435
     4  H    0.404658  -0.037353  -0.009360   0.585927  -0.029586  -0.029569
     5  H    0.399187  -0.046549   0.004425  -0.029586   0.601853  -0.039772
     6  H    0.399223  -0.046544   0.004435  -0.029569  -0.039772   0.601776
     7  H   -0.040631   0.404064  -0.040631   0.007193  -0.003222  -0.003220
     8  H    0.004435  -0.046544   0.399223   0.000202  -0.000677   0.000398
     9  H    0.004425  -0.046549   0.399187   0.000201   0.000404  -0.000677
    10  H   -0.009360  -0.037353   0.404658   0.005939   0.000201   0.000202
               7          8          9         10
     1  C   -0.040631   0.004435   0.004425  -0.009360
     2  C    0.404064  -0.046544  -0.046549  -0.037353
     3  C   -0.040631   0.399223   0.399187   0.404658
     4  H    0.007193   0.000202   0.000201   0.005939
     5  H   -0.003222  -0.000677   0.000404   0.000201
     6  H   -0.003220   0.000398  -0.000677   0.000202
     7  H    0.574355  -0.003220  -0.003222   0.007193
     8  H   -0.003220   0.601776  -0.039772  -0.029569
     9  H   -0.003222  -0.039772   0.601853  -0.029586
    10  H    0.007193  -0.029569  -0.029586   0.585927
          Atomic-Atomic Spin Densities.
               1          2          3          4          5          6
     1  C   -0.067272  -0.045525  -0.000757   0.002699   0.013365   0.013382
     2  C   -0.045525   1.227729  -0.045525  -0.001476  -0.027758  -0.027729
     3  C   -0.000757  -0.045525  -0.067272   0.000654   0.000510   0.000511
     4  H    0.002699  -0.001476   0.000654   0.001233  -0.000476  -0.000449
     5  H    0.013365  -0.027758   0.000510  -0.000476   0.080149  -0.021280
     6  H    0.013382  -0.027729   0.000511  -0.000449  -0.021280   0.079978
     7  H    0.000294   0.005849   0.000294  -0.000337   0.000215   0.000226
     8  H    0.000511  -0.027729   0.013382   0.000009  -0.000638   0.001208
     9  H    0.000510  -0.027758   0.013366   0.000006   0.001214  -0.000638
    10  H    0.000654  -0.001476   0.002699  -0.000208   0.000006   0.000009
               7          8          9         10
     1  C    0.000294   0.000511   0.000510   0.000654
     2  C    0.005849  -0.027729  -0.027758  -0.001476
     3  C    0.000294   0.013382   0.013366   0.002699
     4  H   -0.000337   0.000009   0.000006  -0.000208
     5  H    0.000215  -0.000638   0.001214   0.000006
     6  H    0.000226   0.001208  -0.000638   0.000009
     7  H   -0.055334   0.000226   0.000215  -0.000337
     8  H    0.000226   0.079978  -0.021280  -0.000449
     9  H    0.000215  -0.021280   0.080149  -0.000476
    10  H   -0.000337  -0.000449  -0.000476   0.001233
 Mulliken charges and spin densities:
               1          2
     1  C   -0.279819  -0.082139
     2  C   -0.200162   1.028602
     3  C   -0.279819  -0.082139
     4  H    0.101748   0.001655
     5  H    0.113736   0.045309
     6  H    0.113747   0.045218
     7  H    0.101340  -0.048688
     8  H    0.113747   0.045218
     9  H    0.113736   0.045309
    10  H    0.101748   0.001655
 Sum of Mulliken charges =  -0.00000   1.00000
 Mulliken charges and spin densities with hydrogens summed into heavy atoms:
               1          2
     1  C    0.049411   0.010043
     2  C   -0.098823   0.979914
     3  C    0.049412   0.010043
 APT charges:
               1
     1  C   -1.005860
     2  C   -0.371533
     3  C   -1.005860
     4  H    0.274951
     5  H    0.373237
     6  H    0.373369
     7  H    0.340138
     8  H    0.373369
     9  H    0.373237
    10  H    0.274951
 Sum of APT charges =  -0.00000
 APT charges with hydrogens summed into heavy atoms:
               1
     1  C    0.015697
     2  C   -0.031395
     3  C    0.015698
 Electronic spatial extent (au):  <R**2>=            223.9196
 Charge=             -0.0000 electrons
 Dipole moment (field-independent basis, Debye):
    X=              0.0000    Y=             -0.0789    Z=              0.0007  Tot=              0.0789
 Quadrupole moment (field-independent basis, Debye-Ang):
   XX=            -20.8535   YY=            -20.7435   ZZ=            -21.7300
   XY=             -0.0000   XZ=             -0.0000   YZ=              0.0009
 Traceless Quadrupole moment (field-independent basis, Debye-Ang):
   XX=              0.2555   YY=              0.3655   ZZ=             -0.6210
   XY=             -0.0000   XZ=             -0.0000   YZ=              0.0009
 Octapole moment (field-independent basis, Debye-Ang**2):
  XXX=              0.0000  YYY=             -0.1771  ZZZ=              0.0035  XYY=              0.0000
  XXY=              0.7518  XXZ=             -0.0013  XZZ=             -0.0000  YZZ=              0.1193
  YYZ=             -0.0004  XYZ=              0.0000
 Hexadecapole moment (field-independent basis, Debye-Ang**3):
 XXXX=           -220.3547 YYYY=            -57.0074 ZZZZ=            -38.3547 XXXY=              0.0000
 XXXZ=             -0.0000 YYYX=             -0.0000 YYYZ=              0.0054 ZZZX=             -0.0000
 ZZZY=              0.0003 XXYY=            -47.9557 XXZZ=            -39.6784 YYZZ=            -17.9170
 XXYZ=             -0.0034 YYXZ=             -0.0000 ZZXY=              0.0000
 N-N= 7.499920934918D+01 E-N=-4.239404155738D+02  KE= 1.178434485452D+02
  Exact polarizability:   0.000   0.000   0.000   0.000   0.000   0.000
 Approx polarizability:  50.917  -0.000  45.991   0.000  -0.000  40.584
                          Isotropic Fermi Contact Couplings
        Atom                 a.u.       MegaHertz       Gauss      10(-4) cm-1
     1  C(13)             -0.03230     -36.31548     -12.95827     -12.11354
     2  C(13)              0.06823      76.70412      27.36993      25.58574
     3  C(13)             -0.03230     -36.31546     -12.95826     -12.11353
     4  H(1)               0.00063       2.79681       0.99797       0.93292
     5  H(1)               0.02361     105.52667      37.65454      35.19991
     6  H(1)               0.02357     105.36963      37.59850      35.14752
     7  H(1)              -0.01350     -60.32930     -21.52699     -20.12369
     8  H(1)               0.02357     105.36951      37.59846      35.14749
     9  H(1)               0.02361     105.52693      37.65463      35.20000
    10  H(1)               0.00063       2.79680       0.99797       0.93291
 --------------------------------------------------------
       Center         ----  Spin Dipole Couplings  ----
                      3XX-RR        3YY-RR        3ZZ-RR
 --------------------------------------------------------
     1   Atom        0.008491     -0.009818      0.001327
     2   Atom       -0.587321     -0.578070      1.165391
     3   Atom        0.008491     -0.009818      0.001327
     4   Atom       -0.000743      0.007564     -0.006821
     5   Atom        0.012401     -0.006686     -0.005716
     6   Atom        0.012430     -0.006695     -0.005734
     7   Atom       -0.071353      0.074976     -0.003623
     8   Atom        0.012430     -0.006695     -0.005734
     9   Atom        0.012401     -0.006686     -0.005716
    10   Atom       -0.000743      0.007564     -0.006821
 --------------------------------------------------------
                        XY            XZ            YZ
 --------------------------------------------------------
     1   Atom        0.014850     -0.000018     -0.000027
     2   Atom        0.000000      0.000000     -0.000502
     3   Atom       -0.014850      0.000018     -0.000027
     4   Atom        0.011500      0.000000     -0.000000
     5   Atom        0.005156     -0.007480     -0.000559
     6   Atom        0.005148      0.007471      0.000556
     7   Atom       -0.000000      0.000000      0.000060
     8   Atom       -0.005148     -0.007471      0.000556
     9   Atom       -0.005156      0.007480     -0.000559
    10   Atom       -0.011500     -0.000000     -0.000000
 --------------------------------------------------------


 ---------------------------------------------------------------------------------
              Anisotropic Spin Dipole Couplings in Principal Axis System
 ---------------------------------------------------------------------------------

       Atom             a.u.   MegaHertz   Gauss  10(-4) cm-1        Axes

              Baa    -0.0181    -2.430    -0.867    -0.811 -0.4874  0.8732  0.0008
     1 C(13)  Bbb     0.0013     0.178     0.064     0.059  0.0020  0.0002  1.0000
              Bcc     0.0168     2.252     0.804     0.751  0.8731  0.4874 -0.0019
 
              Baa    -0.5873   -78.813   -28.122   -26.289  1.0000 -0.0000 -0.0000
     2 C(13)  Bbb    -0.5781   -77.571   -27.679   -25.875  0.0000  1.0000  0.0003
              Bcc     1.1654   156.384    55.802    52.164  0.0000 -0.0003  1.0000
 
              Baa    -0.0181    -2.430    -0.867    -0.811  0.4875  0.8732  0.0008
     3 C(13)  Bbb     0.0013     0.178     0.064     0.059 -0.0020  0.0002  1.0000
              Bcc     0.0168     2.252     0.804     0.751  0.8731 -0.4875  0.0019
 
              Baa    -0.0088    -4.704    -1.678    -1.569  0.8184 -0.5746 -0.0002
     4 H(1)   Bbb    -0.0068    -3.640    -1.299    -1.214  0.0002 -0.0001  1.0000
              Bcc     0.0156     8.343     2.977     2.783  0.5746  0.8184 -0.0000
 
              Baa    -0.0093    -4.978    -1.776    -1.661  0.3839 -0.6002  0.7017
     5 H(1)   Bbb    -0.0069    -3.667    -1.309    -1.223  0.0410  0.7702  0.6365
              Bcc     0.0162     8.646     3.085     2.884  0.9225  0.2156 -0.3203
 
              Baa    -0.0093    -4.979    -1.777    -1.661 -0.3831  0.5995  0.7027
     6 H(1)   Bbb    -0.0069    -3.673    -1.311    -1.225  0.0404  0.7709 -0.6357
              Bcc     0.0162     8.652     3.087     2.886  0.9228  0.2151  0.3195
 
              Baa    -0.0714   -38.071   -13.585   -12.699  1.0000  0.0000 -0.0000
     7 H(1)   Bbb    -0.0036    -1.933    -0.690    -0.645  0.0000 -0.0008  1.0000
              Bcc     0.0750    40.004    14.274    13.344 -0.0000  1.0000  0.0008
 
              Baa    -0.0093    -4.979    -1.777    -1.661  0.3831  0.5995  0.7027
     8 H(1)   Bbb    -0.0069    -3.673    -1.311    -1.225 -0.0404  0.7709 -0.6357
              Bcc     0.0162     8.652     3.087     2.886  0.9228 -0.2151 -0.3195
 
              Baa    -0.0093    -4.978    -1.776    -1.661 -0.3839 -0.6002  0.7017
     9 H(1)   Bbb    -0.0069    -3.667    -1.309    -1.223 -0.0410  0.7702  0.6364
              Bcc     0.0162     8.646     3.085     2.884  0.9225 -0.2156  0.3203
 
              Baa    -0.0088    -4.704    -1.678    -1.569  0.8184  0.5746  0.0002
    10 H(1)   Bbb    -0.0068    -3.640    -1.299    -1.214 -0.0002 -0.0001  1.0000
              Bcc     0.0156     8.343     2.977     2.783 -0.5746  0.8184 -0.0000
 

 ---------------------------------------------------------------------------------

 No NMR shielding tensors so no spin-rotation constants.
 Leave Link  601 at Sat Jun 26 10:36:10 2021, MaxMem=  3355443200 cpu:         2.5
 (Enter /Local/ce_dana/g09/l701.exe)
 Compute integral second derivatives.
 ... and contract with generalized density number  0.
 Leave Link  701 at Sat Jun 26 10:36:10 2021, MaxMem=  3355443200 cpu:         3.6
 (Enter /Local/ce_dana/g09/l702.exe)
 L702 exits ... SP integral derivatives will be done elsewhere.
 Leave Link  702 at Sat Jun 26 10:36:10 2021, MaxMem=  3355443200 cpu:         0.0
 (Enter /Local/ce_dana/g09/l703.exe)
 Compute integral second derivatives, UseDBF=F ICtDFT=           0.
 Integral derivatives from FoFJK, PRISM(SPDF).
 Calling FoFJK, ICntrl=    100147 FMM=F ISym2X=0 I1Cent= 0 IOpClX= 1 NMat=1 NMatS=1 NMatT=0.
 FoFJK:  IHMeth= 1 ICntrl=  100147 DoSepK=F KAlg= 0 I1Cent=   0 FoldK=F
 IRaf=         0 NMat=   1 IRICut=       1 DoRegI=T DoRafI=F ISym2E= 0.
 FoFCou: FMM=F IPFlag=           0 FMFlag=      100000 FMFlg1=         800
         NFxFlg=           0 DoJE=F BraDBF=F KetDBF=F FulRan=T
         wScrn=  0.000000 ICntrl=  100147 IOpCl=  1 I1Cent=           0 NGrid=           0
         NMat0=    1 NMatS0=      1 NMatT0=    0 NMatD0=    1 NMtDS0=    0 NMtDT0=    0
 Symmetry not used in FoFCou.
 Leave Link  703 at Sat Jun 26 10:36:21 2021, MaxMem=  3355443200 cpu:       103.4
 (Enter /Local/ce_dana/g09/l716.exe)
 Dipole        = 5.34153374D-07-3.10222956D-02 2.74296897D-04
 Polarizability= 0.00000000D+00 0.00000000D+00 0.00000000D+00
                 0.00000000D+00 0.00000000D+00 0.00000000D+00
 ***** Axes restored to original set *****
 -------------------------------------------------------------------
 Center     Atomic                   Forces (Hartrees/Bohr)
 Number     Number              X              Y              Z
 -------------------------------------------------------------------
      1        6           0.004020187    0.001763289   -0.000807454
      2        6          -0.000684142   -0.005775142    0.001986505
      3        6          -0.003493715    0.002681443   -0.000724612
      4        1           0.000057066   -0.004290326    0.001434176
      5        1          -0.001911204    0.000278527   -0.003356253
      6        1          -0.001596637    0.002302592    0.002677445
      7        1           0.000655448    0.005531390   -0.001894542
      8        1           0.002161232    0.001843000    0.002635996
      9        1           0.001849503   -0.000181086   -0.003397497
     10        1          -0.001057739   -0.004153687    0.001446235
 -------------------------------------------------------------------
 Cartesian Forces:  Max     0.005775142 RMS     0.002665731
 Force constants in Cartesian coordinates: 
                1             2             3             4             5 
      1  0.468762D+00
      2 -0.136977D-01  0.534358D+00
      3  0.438666D-02 -0.223099D-01  0.472852D+00
      4 -0.203424D+00 -0.520058D-01  0.258351D-01  0.525703D+00
      5 -0.398160D-01 -0.988605D-01  0.217821D-01 -0.311159D-02  0.514010D+00
      6  0.217732D-01  0.224209D-01 -0.485173D-01 -0.223632D-01 -0.147057D+00
      7 -0.187133D-01  0.134411D-01 -0.306290D-02 -0.176590D+00  0.595450D-01
      8 -0.671769D-02  0.837958D-02  0.431348D-03  0.717350D-01 -0.126535D+00
      9  0.364722D-02 -0.609049D-03  0.862505D-02 -0.168817D-01  0.258835D-01
     10 -0.491107D-01  0.405394D-02 -0.130026D-02 -0.453176D-03 -0.306551D-01
     11  0.119570D-02 -0.267228D+00  0.734016D-01 -0.650393D-03 -0.120153D-01
     12 -0.341783D-03  0.732557D-01 -0.725744D-01  0.188413D-03  0.526701D-02
     13 -0.107490D+00  0.578998D-02 -0.110415D+00 -0.241302D-01  0.157710D-02
     14  0.306217D-02 -0.479688D-01  0.972048D-02 -0.517868D-02  0.211358D-02
     15 -0.102249D+00  0.134432D-01 -0.204518D+00  0.101592D-02 -0.203099D-02
     16 -0.889568D-01  0.627225D-01  0.778998D-01 -0.222219D-01  0.129735D-01
     17  0.560041D-01 -0.119919D+00 -0.846852D-01 -0.310489D-02  0.871200D-02
     18  0.729168D-01 -0.888888D-01 -0.151149D+00  0.473170D-02  0.154546D-02
     19  0.506172D-04 -0.266369D-01  0.896331D-02 -0.603519D-01 -0.259707D-01
     20  0.145536D-02 -0.648784D-02  0.236049D-02 -0.259712D-01 -0.277703D+00
     21 -0.455581D-03  0.379410D-02 -0.479021D-03  0.110176D-01  0.891345D-01
     22 -0.141445D-02  0.212477D-02 -0.142175D-02 -0.231016D-01 -0.507572D-02
     23  0.555883D-03 -0.133015D-02  0.282957D-03  0.111441D-01  0.918973D-02
     24  0.646594D-03 -0.266569D-04 -0.220907D-02 -0.366121D-02  0.276973D-02
     25 -0.142645D-02  0.249483D-02 -0.193371D-03 -0.214505D-01  0.426990D-02
     26 -0.170643D-04 -0.184967D-02 -0.611145D-03  0.108842D-01 -0.219298D-03
     27 -0.885897D-03 -0.513956D-03 -0.167122D-02 -0.769781D-03 -0.184568D-02
     28  0.172312D-02  0.171323D-02 -0.691369D-03  0.602047D-02  0.262636D-01
     29 -0.202479D-02  0.906392D-03 -0.372788D-03 -0.374078D-02 -0.186923D-01
     30  0.561735D-03 -0.565464D-03 -0.358431D-03  0.887198D-03  0.455142D-02
                6             7             8             9            10 
      6  0.124655D+00
      7 -0.128176D-01  0.478558D+00
      8  0.252626D-01  0.270227D-01  0.524258D+00
      9 -0.476763D-01 -0.968285D-02 -0.210478D-01  0.473157D+00
     10  0.102439D-01  0.174543D-02 -0.193214D-02  0.530841D-03  0.541578D-01
     11  0.372648D-02  0.180586D-02  0.883411D-03 -0.564057D-03 -0.946916D-03
     12 -0.276452D-02 -0.721950D-03 -0.368763D-03 -0.357760D-03 -0.783320D-04
     13 -0.174321D-01 -0.201352D-02 -0.246485D-02  0.413146D-04 -0.511021D-03
     14 -0.627780D-02  0.461894D-04 -0.124232D-02 -0.639746D-03  0.164964D-01
     15  0.100034D-01  0.743470D-03 -0.658199D-03 -0.169150D-02 -0.392985D-02
     16  0.155288D-01 -0.201893D-02 -0.195001D-02  0.143882D-02 -0.674370D-03
     17  0.697186D-02 -0.380269D-03 -0.708539D-03 -0.557121D-04  0.131519D-01
     18  0.150139D-02 -0.639061D-03  0.175813D-03 -0.222620D-02 -0.588766D-02
     19  0.110127D-01  0.541071D-02  0.237394D-01 -0.819490D-02 -0.533457D-02
     20  0.890944D-01 -0.435232D-02 -0.120163D-01  0.451429D-02 -0.162594D-02
     21 -0.462007D-01  0.121808D-02  0.303227D-02 -0.310609D-03  0.904263D-03
     22 -0.128757D-01 -0.122579D+00 -0.642806D-01 -0.967928D-01  0.153461D-03
     23  0.102898D-01 -0.574603D-01 -0.900203D-01 -0.620461D-01  0.152776D-03
     24  0.190330D-02 -0.929514D-01 -0.671807D-01 -0.147427D+00 -0.262396D-04
     25  0.160943D-01 -0.101591D+00  0.810766D-02  0.107311D+00  0.154524D-03
     26 -0.105553D-01  0.107333D-01 -0.492782D-01 -0.169875D-01  0.141755D-03
     27  0.965653D-02  0.100289D+00 -0.113495D-01 -0.209107D+00 -0.841984D-04
     28 -0.916435D-02 -0.622086D-01 -0.532595D-01  0.185830D-01 -0.127368D-03
     29  0.612417D-02 -0.504013D-01 -0.253720D+00  0.715522D-01  0.116338D-02
     30 -0.256100D-02  0.176251D-01  0.717030D-01 -0.729861D-01 -0.372462D-03
               11            12            13            14            15 
     11  0.292394D+00
     12 -0.823857D-01  0.740551D-01
     13  0.662918D-03  0.530318D-04  0.126979D+00
     14 -0.415170D-03  0.256950D-01 -0.562143D-02  0.457554D-01
     15  0.331990D-03 -0.811819D-02  0.116508D+00 -0.112781D-01  0.226026D+00
     16  0.526436D-03 -0.333779D-03  0.812104D-02 -0.880239D-02 -0.114642D-01
     17 -0.161852D-01 -0.212603D-01 -0.326189D-03  0.551764D-03  0.494719D-03
     18  0.556545D-02  0.782009D-02  0.111140D-01 -0.171794D-01 -0.222359D-01
     19 -0.190060D-02  0.996120D-03  0.702576D-03  0.332704D-03 -0.695205D-03
     20  0.963279D-03  0.313858D-03 -0.972516D-04  0.257018D-03 -0.141576D-03
     21  0.328978D-03  0.149416D-02  0.974679D-03  0.287575D-03  0.461735D-03
     22  0.785897D-04 -0.852282D-04 -0.126882D-02 -0.278528D-03 -0.268605D-03
     23  0.260360D-03 -0.157423D-03  0.406328D-03  0.391045D-03  0.588535D-04
     24 -0.944052D-04  0.100490D-03 -0.537755D-03 -0.257350D-03  0.000000D+00
     25  0.111554D-03  0.102573D-04 -0.494517D-03  0.337028D-04  0.278873D-03
     26  0.314907D-03 -0.242709D-04  0.134828D-03  0.192356D-03 -0.122819D-03
     27 -0.814052D-04  0.431607D-04 -0.288613D-03 -0.523405D-04  0.297432D-04
     28 -0.883148D-03  0.313248D-03  0.105571D-03 -0.901433D-04  0.605260D-04
     29  0.102719D-02 -0.335121D-03 -0.614250D-04  0.365134D-03 -0.971428D-04
     30 -0.228949D-03  0.301918D-03 -0.173077D-04 -0.183035D-04  0.418873D-04
               16            17            18            19            20 
     16  0.106656D+00
     17 -0.657450D-01  0.126440D+00
     18 -0.828700D-01  0.989674D-01  0.165708D+00
     19  0.668016D-03  0.657456D-03  0.344695D-03  0.617648D-01
     20 -0.648487D-03  0.260598D-03  0.342108D-03  0.277699D-01  0.294332D+00
     21 -0.740800D-03 -0.174132D-03  0.490931D-03 -0.120446D-01 -0.970584D-01
     22 -0.493248D-03 -0.126780D-03 -0.198136D-03  0.651341D-03  0.560770D-03
     23  0.300872D-03  0.213552D-03 -0.386503D-04 -0.758828D-03  0.286155D-03
     24  0.194584D-03 -0.819901D-04  0.880632D-05 -0.257570D-03  0.402549D-03
     25 -0.118600D-02 -0.122264D-04  0.485420D-03  0.616509D-03  0.248740D-05
     26  0.664957D-03  0.325634D-03 -0.392845D-03 -0.413741D-03  0.337362D-03
     27  0.302158D-03 -0.646146D-05 -0.168499D-04  0.636201D-03 -0.305310D-03
     28  0.106585D-03 -0.118060D-03  0.228071D-05 -0.417815D-02  0.290666D-02
     29 -0.423781D-04  0.308957D-03 -0.965081D-04  0.318133D-02 -0.229356D-03
     30  0.445484D-04 -0.170267D-03  0.987672D-04 -0.760731D-03  0.477592D-03
               21            22            23            24            25 
     21  0.420637D-01
     22  0.675053D-03  0.143049D+00
     23 -0.331728D-03  0.640862D-01  0.941536D-01
     24  0.482048D-03  0.104930D+00  0.745437D-01  0.161603D+00
     25 -0.880013D-03  0.972221D-02 -0.198111D-02 -0.156185D-01  0.119958D+00
     26  0.522568D-03  0.617223D-02 -0.110045D-02 -0.140771D-01 -0.133528D-01
     27  0.467464D-03  0.105742D-01 -0.218350D-02 -0.221849D-01 -0.113546D+00
     28 -0.668663D-03 -0.471864D-02 -0.164460D-01  0.728169D-02 -0.430361D-02
     29  0.464230D-03 -0.326093D-02 -0.120435D-01  0.400230D-02  0.326033D-03
     30  0.153038D-02 -0.453689D-02 -0.204179D-01  0.772268D-02  0.605781D-02
               26            27            28            29            30 
     26  0.477507D-01
     27  0.169391D-01  0.231050D+00
     28 -0.149476D-01  0.377267D-02  0.675806D-01
     29  0.352666D-02 -0.600895D-03  0.548609D-01  0.278550D+00
     30  0.253093D-01 -0.826740D-02 -0.194890D-01 -0.806405D-01  0.744773D-01
 FormGI is forming the generalized inverse of G from B-inverse, IUseBI=4.
 Force constants in internal coordinates: 
                1             2             3             4             5 
      1  0.308855D+00
      2  0.528274D-02  0.319977D+00
      3  0.136633D-01  0.307796D-02  0.303662D+00
      4  0.136496D-01  0.307551D-02  0.549561D-02  0.303692D+00
      5  0.842901D-02  0.570043D-03  0.404380D-03  0.402117D-03  0.308855D+00
      6  0.495269D-02 -0.569045D-03  0.487351D-03  0.487319D-03  0.495265D-02
      7  0.402116D-03 -0.104584D-03  0.653927D-03 -0.911162D-04  0.136495D-01
      8  0.404379D-03 -0.103711D-03 -0.905418D-04  0.653929D-03  0.136633D-01
      9  0.570042D-03  0.899881D-03 -0.103710D-03 -0.104582D-03  0.528271D-02
     10  0.155092D-01  0.170485D-02 -0.528807D-02 -0.528690D-02 -0.380956D-02
     11  0.172393D-01 -0.594372D-02  0.345555D-03 -0.665773D-02  0.308631D-02
     12  0.172472D-01 -0.594106D-02 -0.665704D-02  0.350016D-03  0.309432D-02
     13 -0.166899D-01  0.583484D-02  0.649034D-02 -0.136527D-02  0.576856D-04
     14 -0.166856D-01  0.583371D-02 -0.136700D-02  0.648635D-02  0.563070D-04
     15 -0.209738D-01 -0.758365D-03  0.754899D-02  0.754686D-02 -0.260543D-02
     16  0.151489D-01 -0.602199D-02  0.225074D-02  0.225309D-02  0.151488D-01
     17  0.680027D-02  0.531478D-02 -0.937907D-03 -0.938337D-03 -0.219491D-01
     18 -0.219491D-01  0.707209D-03 -0.131240D-02 -0.131518D-02  0.680027D-02
     19  0.309433D-02 -0.974763D-04  0.115270D-02 -0.588946D-04  0.172472D-01
     20  0.308631D-02 -0.977742D-04 -0.579518D-04  0.115206D-02  0.172394D-01
     21 -0.380957D-02  0.156391D-02 -0.420353D-03 -0.420910D-03  0.155091D-01
     22 -0.260543D-02  0.415873D-04 -0.484024D-03 -0.483348D-03 -0.209738D-01
     23  0.563069D-04 -0.774672D-03 -0.297756D-03  0.618076D-04 -0.166856D-01
     24  0.576855D-04 -0.774326D-03  0.607992D-04 -0.297130D-03 -0.166899D-01
     25 -0.126231D-05  0.000000D+00 -0.381421D-02  0.381310D-02  0.787242D-05
     26  0.163294D-05  0.145075D-05 -0.429098D-02  0.429106D-02 -0.574793D-05
     27  0.161909D-02  0.453735D-02  0.104983D-02 -0.638060D-02 -0.439323D-03
     28  0.162198D-02  0.453839D-02  0.573058D-03 -0.590264D-02 -0.452944D-03
     29 -0.162897D-02 -0.453665D-02  0.637981D-02 -0.105012D-02  0.450781D-03
     30 -0.162607D-02 -0.453562D-02  0.590304D-02 -0.572153D-03  0.437160D-03
     31 -0.450777D-03  0.389860D-04 -0.235741D-03  0.107699D-03  0.162898D-02
     32  0.439323D-03 -0.411053D-04 -0.106792D-03  0.236325D-03 -0.161908D-02
     33 -0.787124D-05  0.000000D+00 -0.366833D-03  0.367406D-03  0.126456D-05
     34 -0.437157D-03  0.405987D-04  0.241243D-03 -0.370051D-03  0.162608D-02
     35  0.452943D-03 -0.394927D-04  0.370191D-03 -0.241425D-03 -0.162197D-02
     36  0.574895D-05  0.000000D+00  0.110151D-03 -0.110344D-03 -0.163048D-05
                6             7             8             9            10 
      6  0.330736D+00
      7  0.487317D-03  0.303694D+00
      8  0.487351D-03  0.549563D-02  0.303661D+00
      9 -0.569044D-03  0.307550D-02  0.307795D-02  0.319978D+00
     10  0.372130D-02 -0.420909D-03 -0.420352D-03  0.156390D-02  0.102219D+00
     11 -0.725830D-03  0.115206D-02 -0.579535D-04 -0.977734D-04 -0.214831D-01
     12 -0.724158D-03 -0.588970D-04  0.115270D-02 -0.974745D-04 -0.214811D-01
     13 -0.119469D-02 -0.297126D-03  0.607999D-04 -0.774326D-03 -0.384937D-01
     14 -0.119490D-02  0.618086D-04 -0.297754D-03 -0.774670D-03 -0.384869D-01
     15 -0.139076D-03 -0.483346D-03 -0.484025D-03  0.415861D-04  0.110364D-01
     16 -0.123158D-01  0.225309D-02  0.225074D-02 -0.602197D-02 -0.886728D-02
     17  0.615791D-02 -0.131518D-02 -0.131240D-02  0.707209D-03  0.129701D-01
     18  0.615790D-02 -0.938338D-03 -0.937908D-03  0.531476D-02 -0.410282D-02
     19 -0.724160D-03  0.350012D-03 -0.665705D-02 -0.594108D-02 -0.633305D-03
     20 -0.725833D-03 -0.665772D-02  0.345545D-03 -0.594370D-02 -0.630704D-03
     21  0.372129D-02 -0.528691D-02 -0.528807D-02  0.170485D-02  0.947418D-03
     22 -0.139076D-03  0.754686D-02  0.754902D-02 -0.758375D-03  0.535398D-03
     23 -0.119490D-02  0.648636D-02 -0.136699D-02  0.583372D-02 -0.104898D-03
     24 -0.119468D-02 -0.136527D-02  0.649034D-02  0.583482D-02 -0.105845D-03
     25  0.269572D-05 -0.367405D-03  0.366833D-03  0.000000D+00 -0.370682D-05
     26 -0.249582D-05  0.110345D-03 -0.110151D-03  0.000000D+00  0.000000D+00
     27  0.585774D-03 -0.236324D-03  0.106792D-03  0.411055D-04  0.760769D-02
     28  0.580583D-03  0.241425D-03 -0.370192D-03  0.394928D-04  0.761144D-02
     29 -0.580707D-03 -0.107699D-03  0.235742D-03 -0.389862D-04 -0.761009D-02
     30 -0.585898D-03  0.370050D-03 -0.241242D-03 -0.405989D-04 -0.760634D-02
     31  0.580705D-03  0.105011D-02 -0.637984D-02  0.453664D-02  0.861964D-04
     32 -0.585773D-03  0.638060D-02 -0.104982D-02 -0.453734D-02 -0.925732D-04
     33 -0.269756D-05 -0.381310D-02  0.381422D-02  0.000000D+00 -0.282731D-05
     34  0.585897D-03  0.572149D-03 -0.590307D-02  0.453561D-02  0.922512D-04
     35 -0.580581D-03  0.590264D-02 -0.573048D-03 -0.453837D-02 -0.865183D-04
     36  0.249399D-05 -0.429106D-02  0.429099D-02 -0.145613D-05  0.322752D-05
               11            12            13            14            15 
     11  0.961189D-01
     12 -0.151786D-01  0.961289D-01
     13 -0.360248D-01  0.973166D-02  0.554107D-01
     14  0.973211D-02 -0.360266D-01  0.822639D-02  0.554061D-01
     15 -0.375711D-01 -0.375822D-01  0.700885D-02  0.701030D-02  0.552604D-01
     16  0.708737D-02  0.710639D-02  0.347993D-03  0.342627D-03 -0.628472D-02
     17 -0.633419D-02 -0.634477D-02 -0.240357D-02 -0.240015D-02  0.424135D-02
     18 -0.753053D-03 -0.761739D-03  0.205561D-02  0.205749D-02  0.204337D-02
     19  0.152671D-02  0.841218D-03 -0.682694D-03 -0.233856D-03 -0.945045D-03
     20  0.840223D-03  0.152671D-02 -0.234390D-03 -0.683756D-03 -0.945254D-03
     21 -0.630705D-03 -0.633303D-03 -0.105846D-03 -0.104898D-03  0.535400D-03
     22 -0.945252D-03 -0.945041D-03  0.296299D-03  0.296304D-03  0.861741D-03
     23 -0.683757D-03 -0.233857D-03  0.441681D-03  0.367575D-03  0.296307D-03
     24 -0.234390D-03 -0.682696D-03  0.368043D-03  0.441681D-03  0.296301D-03
     25 -0.589734D-02  0.589909D-02 -0.998990D-02  0.999346D-02  0.000000D+00
     26 -0.604117D-02  0.604236D-02 -0.100296D-01  0.100300D-01  0.000000D+00
     27  0.212619D-03 -0.746290D-02  0.877809D-02  0.209949D-03 -0.963438D-02
     28  0.687893D-04 -0.731963D-02  0.873840D-02  0.246527D-03 -0.963479D-02
     29  0.745980D-02 -0.213086D-03 -0.207520D-03 -0.877887D-02  0.963816D-02
     30  0.731597D-02 -0.698158D-04 -0.247208D-03 -0.874229D-02  0.963775D-02
     31 -0.451401D-03  0.463277D-04  0.126759D-03  0.121702D-03  0.936835D-04
     32 -0.434645D-04  0.455151D-03 -0.120581D-03 -0.125952D-03 -0.957242D-04
     33 -0.199806D-03  0.203066D-03  0.113583D-03 -0.112916D-03 -0.108412D-05
     34 -0.310778D-03 -0.100150D-03  0.163886D-03  0.825625D-04  0.953516D-04
     35  0.971590D-04  0.308673D-03 -0.834544D-04 -0.165091D-03 -0.940560D-04
     36 -0.591821D-04  0.565884D-04  0.150710D-03 -0.152055D-03  0.000000D+00
               16            17            18            19            20 
     16  0.109044D+00
     17 -0.545219D-01  0.868999D-01
     18 -0.545218D-01 -0.323781D-01  0.868999D-01
     19  0.710642D-02 -0.761748D-03 -0.634480D-02  0.961289D-01
     20  0.708738D-02 -0.753054D-03 -0.633419D-02 -0.151785D-01  0.961190D-01
     21 -0.886731D-02 -0.410280D-02  0.129701D-01 -0.214813D-01 -0.214831D-01
     22 -0.628471D-02  0.204337D-02  0.424134D-02 -0.375822D-01 -0.375711D-01
     23  0.342626D-03  0.205749D-02 -0.240015D-02 -0.360267D-01  0.973210D-02
     24  0.347994D-03  0.205560D-02 -0.240356D-02  0.973167D-02 -0.360249D-01
     25  0.000000D+00 -0.172771D-04  0.175720D-04 -0.203067D-03  0.199807D-03
     26  0.000000D+00  0.163062D-04 -0.173666D-04 -0.565884D-04  0.591819D-04
     27 -0.833602D-03  0.160229D-02 -0.768396D-03 -0.455152D-03  0.434649D-04
     28 -0.833273D-03  0.163587D-02 -0.803335D-03 -0.308674D-03 -0.971601D-04
     29  0.825875D-03 -0.163206D-02  0.806471D-03 -0.463284D-04  0.451405D-03
     30  0.826204D-03 -0.159847D-02  0.771533D-03  0.100150D-03  0.310780D-03
     31 -0.825870D-03 -0.806470D-03  0.163205D-02  0.213106D-03 -0.745980D-02
     32  0.833603D-03  0.768391D-03 -0.160229D-02  0.746288D-02 -0.212632D-03
     33  0.000000D+00 -0.175701D-04  0.172745D-04 -0.589910D-02  0.589736D-02
     34 -0.826199D-03 -0.771533D-03  0.159847D-02  0.698344D-04 -0.731597D-02
     35  0.833275D-03  0.803328D-03 -0.163587D-02  0.731961D-02 -0.688006D-04
     36  0.000000D+00  0.173671D-04 -0.163076D-04 -0.604237D-02  0.604120D-02
               21            22            23            24            25 
     21  0.102219D+00
     22  0.110364D-01  0.552604D-01
     23 -0.384869D-01  0.701029D-02  0.554062D-01
     24 -0.384935D-01  0.700885D-02  0.822638D-02  0.554107D-01
     25  0.282739D-05  0.108423D-05  0.112916D-03 -0.113584D-03  0.114532D-01
     26 -0.322720D-05  0.000000D+00  0.152055D-03 -0.150710D-03  0.112788D-01
     27  0.925733D-04  0.957237D-04  0.125954D-03  0.120581D-03 -0.557886D-02
     28  0.865188D-04  0.940555D-04  0.165092D-03  0.834552D-04 -0.575330D-02
     29 -0.861970D-04 -0.936839D-04 -0.121701D-03 -0.126761D-03 -0.557741D-02
     30 -0.922515D-04 -0.953522D-04 -0.825627D-04 -0.163886D-03 -0.575185D-02
     31  0.761007D-02 -0.963821D-02  0.877885D-02  0.207543D-03  0.106064D-03
     32 -0.760766D-02  0.963444D-02 -0.209961D-03 -0.877809D-02  0.105207D-03
     33  0.369970D-05  0.000000D+00 -0.999342D-02  0.998988D-02  0.101653D-03
     34  0.760631D-02 -0.963780D-02  0.874227D-02  0.247231D-03  0.280484D-03
     35 -0.761141D-02  0.963484D-02 -0.246538D-03 -0.873840D-02  0.279627D-03
     36  0.000000D+00  0.000000D+00 -0.100300D-01  0.100296D-01  0.276073D-03
               26            27            28            29            30 
     26  0.122478D-01
     27 -0.590315D-02  0.112678D-01
     28 -0.493417D-02  0.109436D-01  0.117627D-01
     29 -0.590258D-02 -0.597435D-02 -0.629953D-02  0.112695D-01
     30 -0.493360D-02 -0.629865D-02 -0.548040D-02  0.109444D-01  0.117626D-01
     31  0.429841D-03  0.123001D-04  0.336077D-03 -0.144388D-03  0.179389D-03
     32  0.430860D-03 -0.146338D-03  0.179315D-03  0.123003D-04  0.337953D-03
     33  0.276074D-03  0.105207D-03  0.279627D-03  0.106065D-03  0.280485D-03
     34 -0.539125D-03  0.337953D-03 -0.481657D-03  0.179389D-03 -0.640221D-03
     35 -0.538107D-03  0.179315D-03 -0.638419D-03  0.336077D-03 -0.481657D-03
     36 -0.692893D-03  0.430860D-03 -0.538107D-03  0.429841D-03 -0.539125D-03
               31            32            33            34            35 
     31  0.112695D-01
     32 -0.597435D-02  0.112678D-01
     33 -0.557741D-02 -0.557886D-02  0.114532D-01
     34  0.109444D-01 -0.629865D-02 -0.575185D-02  0.117626D-01
     35 -0.629953D-02  0.109436D-01 -0.575330D-02 -0.548040D-02  0.117627D-01
     36 -0.590259D-02 -0.590315D-02  0.112788D-01 -0.493360D-02 -0.493417D-02
               36 
     36  0.122478D-01
 Leave Link  716 at Sat Jun 26 10:36:21 2021, MaxMem=  3355443200 cpu:         0.1
 (Enter /Local/ce_dana/g09/l103.exe)

 GradGradGradGradGradGradGradGradGradGradGradGradGradGradGradGradGradGrad
 Berny optimization.
 Red2BG is reusing G-inverse.
 Internal  Forces:  Max     0.005883463 RMS     0.001949238
 Search for a saddle point.
 Step number   1 out of a maximum of  100
 All quantities printed in internal units (Hartrees-Bohrs-Radians)
 Swapping is turned off.
 Second derivative matrix not updated -- analytic derivatives used.
 ITU=  0
     Eigenvalues ---   -0.00106  -0.00010   0.00414   0.05548   0.05636
     Eigenvalues ---    0.05659   0.05784   0.10614   0.11624   0.11934
     Eigenvalues ---    0.13168   0.13435   0.13606   0.15434   0.17526
     Eigenvalues ---    0.29763   0.29850   0.30016   0.30182   0.31701
     Eigenvalues ---    0.32244   0.33069   0.33125   0.34442
 Eigenvectors required to have negative eigenvalues:
                          D3        D8        D5        D7        D1
   1                    0.37764  -0.37764   0.37762  -0.37762   0.37069
                          D9        D4        D11       D6        D10
   1                   -0.37069   0.16251  -0.16251   0.16249  -0.16249
 Eigenvalue     2 is  -1.02D-04 should be greater than     0.000000 Eigenvector:
                          D8        D11       D4        D3        D7
   1                    0.29237   0.29237   0.29237   0.29237   0.29235
                          D10       D6        D5        D9        D12
   1                    0.29235   0.29235   0.29235   0.28091   0.28091
 RFO step:  Lambda0=6.169564503D-09 Lambda=-4.30655565D-04.
 Linear search not attempted -- option 19 set.
 Iteration  1 RMS(Cart)=  0.02818970 RMS(Int)=  0.00046472
 Iteration  2 RMS(Cart)=  0.00049390 RMS(Int)=  0.00000062
 Iteration  3 RMS(Cart)=  0.00000013 RMS(Int)=  0.00000061
 ITry= 1 IFail=0 DXMaxC= 7.94D-02 DCOld= 1.00D+10 DXMaxT= 5.00D-02 DXLimC= 3.00D+00 Rises=F
 Variable       Old X    -DE/DX   Delta X   Delta X   Delta X     New X
                                 (Linear)    (Quad)   (Total)
    R1        2.81461   0.00056   0.00000   0.00340   0.00340   2.81801
    R2        2.08018  -0.00452   0.00000  -0.01391  -0.01391   2.06627
    R3        2.09078  -0.00386   0.00000  -0.01164  -0.01164   2.07914
    R4        2.09076  -0.00386   0.00000  -0.01317  -0.01317   2.07759
    R5        2.81461   0.00056   0.00000   0.00340   0.00340   2.81801
    R6        2.07025  -0.00588   0.00000  -0.01798  -0.01798   2.05227
    R7        2.09076  -0.00386   0.00000  -0.01162  -0.01162   2.07914
    R8        2.09078  -0.00386   0.00000  -0.01319  -0.01319   2.07759
    R9        2.08018  -0.00452   0.00000  -0.01391  -0.01391   2.06627
    A1        1.95079  -0.00006   0.00000  -0.00129  -0.00129   1.94951
    A2        1.95548   0.00038   0.00000   0.00161   0.00161   1.95709
    A3        1.95535   0.00039   0.00000   0.00118   0.00118   1.95653
    A4        1.87564  -0.00021   0.00000  -0.00184  -0.00184   1.87380
    A5        1.87567  -0.00021   0.00000   0.00066   0.00066   1.87633
    A6        1.84505  -0.00034   0.00000  -0.00041  -0.00041   1.84464
    A7        2.16808  -0.00007   0.00000  -0.00319  -0.00319   2.16489
    A8        2.05755   0.00004   0.00000   0.00160   0.00160   2.05915
    A9        2.05755   0.00004   0.00000   0.00159   0.00159   2.05915
   A10        1.95535   0.00039   0.00000   0.00174   0.00174   1.95709
   A11        1.95548   0.00038   0.00000   0.00105   0.00105   1.95653
   A12        1.95079  -0.00006   0.00000  -0.00129  -0.00129   1.94951
   A13        1.84505  -0.00034   0.00000  -0.00041  -0.00041   1.84464
   A14        1.87567  -0.00021   0.00000  -0.00187  -0.00187   1.87380
   A15        1.87564  -0.00021   0.00000   0.00069   0.00069   1.87633
    D1       -0.00111   0.00000   0.00000  -0.03404  -0.03404  -0.03515
    D2        3.14157  -0.00000   0.00000  -0.03507  -0.03507   3.10650
    D3        2.10532  -0.00005   0.00000  -0.03619  -0.03619   2.06913
    D4       -1.03519  -0.00005   0.00000  -0.03721  -0.03722  -1.07240
    D5       -2.10749   0.00004   0.00000  -0.03481  -0.03481  -2.14230
    D6        1.03519   0.00004   0.00000  -0.03584  -0.03584   0.99935
    D7        2.10749  -0.00004   0.00000  -0.03828  -0.03828   2.06921
    D8       -2.10532   0.00005   0.00000  -0.03690  -0.03690  -2.14223
    D9        0.00111  -0.00000   0.00000  -0.03619  -0.03619  -0.03508
   D10       -1.03519  -0.00004   0.00000  -0.03725  -0.03725  -1.07244
   D11        1.03518   0.00005   0.00000  -0.03588  -0.03588   0.99931
   D12       -3.14157   0.00000   0.00000  -0.03516  -0.03516   3.10646
         Item               Value     Threshold  Converged?
 Maximum Force            0.005883     0.000015     NO 
 RMS     Force            0.001949     0.000010     NO 
 Maximum Displacement     0.079430     0.000060     NO 
 RMS     Displacement     0.028133     0.000040     NO 
 Predicted change in Energy=-2.164185D-04
 Lowest energy point so far.  Saving SCF results.
 GradGradGradGradGradGradGradGradGradGradGradGradGradGradGradGradGradGrad

 Leave Link  103 at Sat Jun 26 10:36:21 2021, MaxMem=  3355443200 cpu:         0.1
 (Enter /Local/ce_dana/g09/l202.exe)
                          Input orientation:                          
 ---------------------------------------------------------------------
 Center     Atomic      Atomic             Coordinates (Angstroms)
 Number     Number       Type             X           Y           Z
 ---------------------------------------------------------------------
      1          6           0        1.324207    0.169173    0.361840
      2          6           0       -0.060572   -0.327135    0.606409
      3          6           0       -1.289364    0.492671    0.402098
      4          1           0        1.324954    1.194266   -0.018628
      5          1           0        1.936112    0.157893    1.276146
      6          1           0        1.864518   -0.453828   -0.365239
      7          1           0       -0.181636   -1.348585    0.954849
      8          1           0       -1.953856    0.060527   -0.360932
      9          1           0       -1.894853    0.565504    1.316858
     10          1           0       -1.047916    1.511033    0.085533
 ---------------------------------------------------------------------
                    Distance matrix (angstroms):
                    1          2          3          4          5
     1  C    0.000000
     2  C    1.491224   0.000000
     3  C    2.633823   1.491226   0.000000
     4  H    1.093423   2.150585   2.739325   0.000000
     5  H    1.100233   2.161145   3.358531   1.767492   0.000000
     6  H    1.099414   2.160121   3.381070   1.768470   1.753132
     7  H    2.218742   1.086014   2.218742   3.111843   2.618696
     8  H    3.358556   2.161146   1.100233   3.486134   4.221535
     9  H    3.381048   2.160123   1.099413   3.542037   3.852805
    10  H    2.739325   2.150587   1.093422   2.396185   3.486112
                    6          7          8          9         10
     6  H    0.000000
     7  H    2.594219   0.000000
     8  H    3.852864   2.618709   0.000000
     9  H    4.242801   2.594205   1.753130   0.000000
    10  H    3.542055   3.111843   1.767491   1.768471   0.000000
 Stoichiometry    C3H7(2)
 Framework group  C1[X(C3H7)]
 Deg. of freedom    24
 Full point group                 C1      NOp   1
 RotChk:  IX=0 Diff= 6.22D-03
 Largest Abelian subgroup         C1      NOp   1
 Largest concise Abelian subgroup C1      NOp   1
                         Standard orientation:                         
 ---------------------------------------------------------------------
 Center     Atomic      Atomic             Coordinates (Angstroms)
 Number     Number       Type             X           Y           Z
 ---------------------------------------------------------------------
      1          6           0       -1.316911   -0.194691   -0.000424
      2          6           0       -0.000001    0.504948   -0.000012
      3          6           0        1.316911   -0.194692    0.000427
      4          1           0       -1.197550   -1.280995   -0.036068
      5          1           0       -1.911811    0.041026    0.894586
      6          1           0       -1.940424    0.097790   -0.857394
      7          1           0       -0.000000    1.590962    0.000023
      8          1           0        1.911843    0.041051   -0.894556
      9          1           0        1.940396    0.097769    0.857424
     10          1           0        1.197550   -1.280996    0.036037
 ---------------------------------------------------------------------
 Rotational constants (GHZ):     39.0644027      8.0774091      7.2916678
 Leave Link  202 at Sat Jun 26 10:36:21 2021, MaxMem=  3355443200 cpu:         0.0
 (Enter /Local/ce_dana/g09/l301.exe)
 Standard basis: 6-311G(2d,d,p) (5D, 7F)
 Ernie: Thresh=  0.10000D-02 Tol=  0.10000D-05 Strict=F.
 There are    99 symmetry adapted cartesian basis functions of A   symmetry.
 There are    96 symmetry adapted basis functions of A   symmetry.
    96 basis functions,   152 primitive gaussians,    99 cartesian basis functions
    13 alpha electrons       12 beta electrons
       nuclear repulsion energy        75.1426500002 Hartrees.
 IExCor=  402 DFT=T Ex+Corr=B3LYP ExCW=0 ScaHFX=  0.200000
 ScaDFX=  0.800000  0.720000  1.000000  0.810000 ScalE2=  1.000000  1.000000
 IRadAn=      5 IRanWt=     -1 IRanGd=            0 ICorTp=0 IEmpDi=  4
 NAtoms=   10 NActive=   10 NUniq=   10 SFac= 1.00D+00 NAtFMM=   60 NAOKFM=F Big=F
 Integral buffers will be    131072 words long.
 Raffenetti 2 integral format.
 Two-electron integral symmetry is turned on.
 Leave Link  301 at Sat Jun 26 10:36:21 2021, MaxMem=  3355443200 cpu:         0.1
 (Enter /Local/ce_dana/g09/l302.exe)
 NPDir=0 NMtPBC=     1 NCelOv=     1 NCel=       1 NClECP=     1 NCelD=      1
         NCelK=      1 NCelE2=     1 NClLst=     1 CellRange=     0.0.
 One-electron integrals computed using PRISM.
 NBasis=    96 RedAO= T EigKep=  2.99D-03  NBF=    96
 NBsUse=    96 1.00D-06 EigRej= -1.00D+00 NBFU=    96
 Precomputing XC quadrature grid using
 IXCGrd= 4 IRadAn=           5 IRanWt=          -1 IRanGd=           0 AccXCQ= 0.00D+00.
 Generated NRdTot=       0 NPtTot=           0 NUsed=           0 NTot=          32
[...]
 Alpha virt. eigenvalues --    0.08864   0.09865   0.14260   0.15198   0.15332
 Alpha virt. eigenvalues --    0.17125   0.18203   0.18486   0.19161   0.19251
 Alpha virt. eigenvalues --    0.20503   0.21113   0.23300   0.24353   0.29240
 Alpha virt. eigenvalues --    0.30561   0.31385   0.33187   0.33491   0.39876
 Alpha virt. eigenvalues --    0.40397   0.42702   0.46497   0.54562   0.55399
 Alpha virt. eigenvalues --    0.61296   0.62410   0.63754   0.63993   0.65913
 Alpha virt. eigenvalues --    0.69131   0.71657   0.72867   0.73399   0.73901
 Alpha virt. eigenvalues --    0.74599   0.80647   0.80873   0.81608   0.83214
 Alpha virt. eigenvalues --    0.84847   0.85977   0.89436   0.97120   1.01145
 Alpha virt. eigenvalues --    1.03066   1.06712   1.11069   1.11739   1.13394
 Alpha virt. eigenvalues --    1.17523   1.21696   1.24207   1.31134   1.34283
 Alpha virt. eigenvalues --    1.34581   1.34858   1.37930   1.39446   1.40203
 Alpha virt. eigenvalues --    1.49371   1.51800   1.53138   1.55274   1.57292
 Alpha virt. eigenvalues --    1.60904   1.61928   1.64769   1.67031   1.71602
 Alpha virt. eigenvalues --    1.73389   1.73730   1.74104   1.75620   1.81751
 Alpha virt. eigenvalues --    1.82121   1.91505   1.96269   2.59669   2.75450
 Alpha virt. eigenvalues --    2.75865   2.83131   2.83715   2.92743   2.99240
 Alpha virt. eigenvalues --    3.09695   3.12841   3.13246   3.14248   3.15633
 Alpha virt. eigenvalues --    3.18395   3.22757   3.27139   3.35800   3.40921
 Alpha virt. eigenvalues --    3.43834   3.44055   3.46857   3.47966   3.49458
 Alpha virt. eigenvalues --    3.55974   3.56093   3.57349   3.59851   3.66415
 Alpha virt. eigenvalues --    3.70188   3.70194   3.75039   3.82044   3.83305
 Alpha virt. eigenvalues --    3.87930   3.92748   3.94062   3.95976   3.98787
 Alpha virt. eigenvalues --    4.05001   4.15105   4.22230   4.24212   4.26931
 Alpha virt. eigenvalues --    4.30131   4.39046   4.39588   4.41822   4.42428
 Alpha virt. eigenvalues --    4.46519   4.51799   4.51823   4.53832   4.60579
 Alpha virt. eigenvalues --    4.62301   4.63715   4.65612   4.73484   4.77128
 Alpha virt. eigenvalues --    4.79715   4.86732   4.89904   4.90163   4.95615
 Alpha virt. eigenvalues --    5.07966   5.11658   5.23513   5.47017   5.47305
 Alpha virt. eigenvalues --    5.94787   6.06048   6.06396   6.07298   6.11769
 Alpha virt. eigenvalues --    6.16309  25.22868  25.48143  25.59773
  Beta  occ. eigenvalues --  -11.21627 -11.21627 -11.19989  -1.02361  -0.93476
  Beta  occ. eigenvalues --   -0.74094  -0.61038  -0.55870  -0.55481  -0.52323
  Beta  occ. eigenvalues --   -0.49377  -0.48420
  Beta virt. eigenvalues --    0.04334   0.05800   0.06105   0.07134   0.08770
  Beta virt. eigenvalues --    0.08874   0.09880   0.10689   0.14379   0.15329
  Beta virt. eigenvalues --    0.17163   0.18365   0.18490   0.18686   0.19375
  Beta virt. eigenvalues --    0.20574   0.21480   0.22255   0.23330   0.24765
  Beta virt. eigenvalues --    0.30132   0.30792   0.31854   0.33139   0.34370
  Beta virt. eigenvalues --    0.40110   0.40743   0.44659   0.47064   0.54755
  Beta virt. eigenvalues --    0.56400   0.61508   0.63308   0.64153   0.66108
  Beta virt. eigenvalues --    0.67425   0.72394   0.72787   0.73917   0.74173
  Beta virt. eigenvalues --    0.74455   0.81182   0.81682   0.81983   0.82197
  Beta virt. eigenvalues --    0.83983   0.85740   0.87390   0.90308   0.97111
  Beta virt. eigenvalues --    1.01930   1.03702   1.07571   1.12158   1.12274
  Beta virt. eigenvalues --    1.15183   1.18148   1.22678   1.24679   1.31657
  Beta virt. eigenvalues --    1.34630   1.35207   1.35413   1.38204   1.39962
  Beta virt. eigenvalues --    1.43108   1.49658   1.51843   1.54348   1.56128
  Beta virt. eigenvalues --    1.57689   1.62085   1.62321   1.65414   1.67460
  Beta virt. eigenvalues --    1.72210   1.74296   1.74549   1.75246   1.75565
  Beta virt. eigenvalues --    1.81887   1.82432   1.92076   1.97018   2.60491
  Beta virt. eigenvalues --    2.75822   2.76574   2.83587   2.84995   2.93054
  Beta virt. eigenvalues --    2.99646   3.11681   3.14016   3.14701   3.18335
  Beta virt. eigenvalues --    3.18636   3.20722   3.24167   3.27163   3.37883
  Beta virt. eigenvalues --    3.42186   3.44589   3.45519   3.47395   3.48326
  Beta virt. eigenvalues --    3.50978   3.56361   3.57187   3.57921   3.59877
  Beta virt. eigenvalues --    3.66833   3.70282   3.73495   3.76056   3.82659
  Beta virt. eigenvalues --    3.83513   3.90869   3.93005   3.96235   3.98403
  Beta virt. eigenvalues --    3.98989   4.05275   4.15414   4.22329   4.24179
  Beta virt. eigenvalues --    4.26869   4.30666   4.38900   4.39917   4.42858
  Beta virt. eigenvalues --    4.42886   4.46899   4.52502   4.52655   4.54296
  Beta virt. eigenvalues --    4.60697   4.62915   4.64082   4.66170   4.73869
  Beta virt. eigenvalues --    4.77527   4.80306   4.87578   4.90158   4.91179
  Beta virt. eigenvalues --    4.95991   5.09012   5.12402   5.23928   5.47259
  Beta virt. eigenvalues --    5.47729   5.95099   6.06247   6.06658   6.07492
  Beta virt. eigenvalues --    6.11808   6.16474  25.23848  25.47912  25.60219
          Condensed to atoms (all electrons):
               1          2          3          4          5          6
     1  C    4.711482   0.305768   0.007233   0.430873   0.430871   0.408023
     2  C    0.305768   5.130190   0.305768  -0.055770  -0.055767  -0.021315
     3  C    0.007233   0.305768   4.711482  -0.001444  -0.001444   0.000205
     4  H    0.430873  -0.055770  -0.001444   0.659829  -0.061154  -0.029877
     5  H    0.430871  -0.055767  -0.001444  -0.061154   0.659831  -0.029878
     6  H    0.408023  -0.021315   0.000205  -0.029877  -0.029878   0.615482
     7  H   -0.044594   0.436045  -0.044594   0.003110   0.003109  -0.003753
     8  H   -0.001444  -0.055770   0.430874   0.006792  -0.003677  -0.000252
     9  H    0.000205  -0.021315   0.408023  -0.000252  -0.000252  -0.000418
    10  H   -0.001444  -0.055767   0.430871  -0.003677   0.006792  -0.000252
               7          8          9         10
     1  C   -0.044594  -0.001444   0.000205  -0.001444
     2  C    0.436045  -0.055770  -0.021315  -0.055767
     3  C   -0.044594   0.430874   0.408023   0.430871
     4  H    0.003110   0.006792  -0.000252  -0.003677
     5  H    0.003109  -0.003677  -0.000252   0.006792
     6  H   -0.003753  -0.000252  -0.000418  -0.000252
     7  H    0.572545   0.003110  -0.003753   0.003110
     8  H    0.003110   0.659829  -0.029877  -0.061154
     9  H   -0.003753  -0.029877   0.615482  -0.029878
    10  H    0.003110  -0.061154  -0.029878   0.659831
          Atomic-Atomic Spin Densities.
               1          2          3          4          5          6
     1  C   -0.114501  -0.034384  -0.001723   0.008804   0.008804   0.002164
     2  C   -0.034384   1.323070  -0.034384  -0.033428  -0.033429  -0.003992
     3  C   -0.001723  -0.034384  -0.114501   0.003804   0.003804   0.000492
     4  H    0.008804  -0.033428   0.003804   0.092004  -0.024292  -0.000596
     5  H    0.008804  -0.033429   0.003804  -0.024292   0.092011  -0.000597
     6  H    0.002164  -0.003992   0.000492  -0.000596  -0.000597   0.006488
     7  H   -0.000641   0.015413  -0.000641  -0.000130  -0.000131   0.000877
     8  H    0.003804  -0.033429   0.008805   0.008484  -0.005320  -0.000063
     9  H    0.000492  -0.003992   0.002164  -0.000063  -0.000063  -0.000047
    10  H    0.003803  -0.033428   0.008803  -0.005320   0.008485  -0.000063
               7          8          9         10
     1  C   -0.000641   0.003804   0.000492   0.003803
     2  C    0.015413  -0.033429  -0.003992  -0.033428
     3  C   -0.000641   0.008805   0.002164   0.008803
     4  H   -0.000130   0.008484  -0.000063  -0.005320
     5  H   -0.000131  -0.005320  -0.000063   0.008485
     6  H    0.000877  -0.000063  -0.000047  -0.000063
     7  H   -0.103022  -0.000130   0.000877  -0.000131
     8  H   -0.000130   0.092005  -0.000596  -0.024292
     9  H    0.000877  -0.000596   0.006488  -0.000597
    10  H   -0.000131  -0.024292  -0.000597   0.092010
 Mulliken charges and spin densities:
               1          2
     1  C   -0.246973  -0.123377
     2  C    0.087932   1.128016
     3  C   -0.246973  -0.123377
     4  H    0.051570   0.049267
     5  H    0.051569   0.049271
     6  H    0.062035   0.004662
     7  H    0.075667  -0.087661
     8  H    0.051570   0.049267
     9  H    0.062035   0.004662
    10  H    0.051569   0.049270
 Sum of Mulliken charges =  -0.00000   1.00000
 Mulliken charges and spin densities with hydrogens summed into heavy atoms:
               1          2
     1  C   -0.081800  -0.020178
     2  C    0.163599   1.040355
     3  C   -0.081800  -0.020178
 Electronic spatial extent (au):  <R**2>=            220.4209
 Charge=             -0.0000 electrons
 Dipole moment (field-independent basis, Debye):
    X=              0.0000    Y=             -0.0355    Z=              0.0000  Tot=              0.0355
 Quadrupole moment (field-independent basis, Debye-Ang):
   XX=            -21.0347   YY=            -20.7871   ZZ=            -21.7879
   XY=             -0.0000   XZ=              0.0000   YZ=              0.0000
 Traceless Quadrupole moment (field-independent basis, Debye-Ang):
   XX=              0.1686   YY=              0.4161   ZZ=             -0.5847
   XY=             -0.0000   XZ=              0.0000   YZ=              0.0000
 Octapole moment (field-independent basis, Debye-Ang**2):
  XXX=              0.0000  YYY=              1.5286  ZZZ=              0.0001  XYY=             -0.0000
  XXY=              1.4503  XXZ=             -0.0000  XZZ=              0.0000  YZZ=             -1.7851
  YYZ=             -0.0000  XYZ=              0.0000
 Hexadecapole moment (field-independent basis, Debye-Ang**3):
 XXXX=           -208.9494 YYYY=            -60.8715 ZZZZ=            -38.2477 XXXY=             -0.0000
 XXXZ=              0.0000 YYYX=             -0.0000 YYYZ=              0.0002 ZZZX=             -0.0000
 ZZZY=              0.0000 XXYY=            -44.5221 XXZZ=            -42.1744 YYZZ=            -16.6854
 XXYZ=             -0.0001 YYXZ=              0.0000 ZZXY=             -0.0000
 N-N= 7.537560328770D+01 E-N=-4.240663501582D+02  KE= 1.175861069772D+02
 Leave Link  601 at Sat Jun 26 10:40:48 2021, MaxMem=  3355443200 cpu:         0.2
 (Enter /Local/ce_dana/g09/l9999.exe)

 Test job not archived.
 1\1\GINC-TECH-WN096\SP\UMP2-FC\CBSB3\C3H7(2)\ALONGD\26-Jun-2021\0\\#P 
 Geom=AllCheck Guess=TCheck SCRF=Check Test MP2/CBSB3 CBSExtrap=(NMin=1
 0,MinPop)\\TS0\\0,2\C,0,1.2829249638,0.1113242295,0.2085254324\C,0,-0.
 065740717,-0.3697371202,0.6210453844\C,0,-1.2501651765,0.5325302322,0.
 5615122126\H,0,1.2922671614,0.4530652971,-0.8380890225\H,0,1.608512141
 5,0.9766606616,0.8064075101\H,0,2.0452143181,-0.6641424466,0.308837165
 9\H,0,-0.1866944679,-1.3885016214,0.9687120792\H,0,-1.4287115539,0.905
 5049146,-0.4589225663\H,0,-2.1635180775,0.0356948612,0.8953344145\H,0,
 -1.1124945997,1.4291189933,1.1855733907\\Version=ES64L-G09RevD.01\Stat
 e=2-A\HF=-117.6753724\MP2=-118.1687196\E2(CBS)=-0.5426898\CBS-Int=-0.5
 251801\OIii=4.6680934\PUHF=-117.6791926\PMP2-0=-118.1711628\S2=0.76513
 3\S2-1=0.754151\S2A=0.75017\RMSD=9.197e-09\PG=C01 [X(C3H7)]\\@


 HEAVEN'S NET CASTS WIDE.
 THOUGH ITS MESHES ARE COARSE, NOTHING SLIPS THROUGH.

                                          -- LAO-TSU
 Diagonal vibrational polarizability:
        0.0000000       0.0000000       0.0000000
    1 imaginary frequencies ignored.

 Complete Basis Set (CBS) Extrapolation:
 M. R. Nyden and G. A. Petersson, JCP 75, 1843 (1981)
 G. A. Petersson and M. A. Al-Laham, JCP 94, 6081 (1991)
 G. A. Petersson, T. Tensfeldt, and J. A. Montgomery, JCP 94, 6091 (1991)
 J. A. Montgomery, J. W. Ochterski, and G. A. Petersson, JCP 101, 5900 (1994)

 Temperature=               298.150000 Pressure=                       1.000000
 E(ZPE)=                      0.086147 E(Thermal)=                     0.090804
 E(SCF)=                   -117.675372 DE(MP2)=                       -0.493347
 DE(CBS)=                    -0.049343 DE(MP34)=                      -0.047268
 DE(CCSD)=                   -0.012885 DE(Int)=                        0.017510
 DE(Empirical)=              -0.027173
 CBS-QB3 (0 K)=            -118.201731 CBS-QB3 Energy=              -118.197074
 CBS-QB3 Enthalpy=         -118.196130 CBS-QB3 Free Energy=         -118.228501

 Test job not archived.
 1\1\GINC-TECH-WN096\Mixed\CBS-QB3\CBS-QB3\C3H7(2)\ALONGD\26-Jun-2021\0
 \\#P opt=(ts, calcfc, noeigentest, maxcycles=100, tight, maxstep=5) gu
 ess=mix cbs-qb3 scf=(tight, direct) integral=(grid=ultrafine, Acc2E=12
 ) IOp(2/9=2000) scf=xqc\\TS0\\0,2\C,0,1.2829249638,0.1113242295,0.2085
 254324\C,0,-0.065740717,-0.3697371202,0.6210453844\C,0,-1.2501651765,0
 .5325302322,0.5615122126\H,0,1.2922671614,0.4530652971,-0.8380890225\H
 ,0,1.6085121415,0.9766606616,0.8064075101\H,0,2.0452143181,-0.66414244
 66,0.3088371659\H,0,-0.1866944679,-1.3885016214,0.9687120792\H,0,-1.42
 87115539,0.9055049146,-0.4589225663\H,0,-2.1635180775,0.0356948612,0.8
 953344145\H,0,-1.1124945997,1.4291189933,1.1855733907\\Version=ES64L-G
 09RevD.01\State=2-A\HF/CbsB3=-117.6753724\E2(CBS)/CbsB3=-0.5426898\CBS
 -Int/CbsB3=0.0175097\OIii/CbsB3=4.6680934\MP2/CbsB4=-118.0691377\MP4(S
 DQ)/CbsB4=-118.1164053\MP4(SDQ)/6-31+G(d')=-118.0584504\QCISD(T)/6-31+
 G(d')=-118.0713358\CBSQB3=-118.2017315\FreqCoord=2.4243768307,0.210372
 3058,0.394055959,-0.1242319509,-0.6987018984,1.1736056926,-2.362469804
 4,1.0063362964,1.0611043022,2.4420310255,0.8561693318,-1.5837587275,3.
 0396474288,1.8456211751,1.5238893455,3.8648949443,-1.2550473372,0.5836
 176632,-0.3528014148,-2.6238877996,1.8306005314,-2.6998735599,1.711156
 3006,-0.8672379664,-4.08845665,0.067453512,1.6919368407,-2.1023101178,
 2.7006435087,2.2404090188\PG=C01 [X(C3H7)]\NImag=1\\0.50248286,-0.0467
 7861,0.52904959,0.01007887,-0.00743725,0.47787590,-0.20003713,-0.03328
 783,0.04040908,0.48877753,-0.04059730,-0.09888815,0.02495982,-0.010271
 91,0.56873542,0.04273628,0.02355420,-0.06073727,-0.07583431,-0.1544751
 9,0.14118221,-0.02273901,0.01813687,-0.00174876,-0.17464711,0.07152581
 ,0.00215215,0.52432219,-0.00806118,0.01046919,-0.00235728,0.06421647,-
 0.13444733,0.01612712,0.04337523,0.49846395,0.00659258,-0.00739496,-0.
 00071585,0.00447959,0.01472142,-0.05056809,-0.02282493,-0.01503485,0.4
 8662222,-0.04426155,0.00384078,0.00233310,-0.00339091,-0.01325726,0.02
 653394,0.00190392,-0.00016894,0.00034143,0.04862502,0.00700393,-0.0630
 4390,0.07060809,-0.00576484,-0.00689657,0.01102856,0.00057217,0.000141
 15,-0.00037522,0.00148547,0.06966220,-0.00642077,0.06916867,-0.2601866
 4,0.00726451,0.00680433,-0.00428708,-0.00044433,0.00019731,0.00095471,
 0.00088738,-0.07887652,0.28822032,-0.06384574,-0.05252830,-0.04166678,
 -0.01165026,-0.02495432,-0.00948137,0.00176068,-0.00041880,-0.00052515
 ,0.00036769,-0.00076226,-0.00197788,0.06962542,-0.04572299,-0.18998337
 ,-0.10780925,-0.00993183,-0.01052234,0.00083730,0.00077503,0.00045602,
 0.00047844,0.00284445,0.00685729,0.00438518,0.06130632,0.21018105,-0.0
 3608601,-0.10445246,-0.11366065,0.00261891,0.00939105,0.00759787,-0.00
 035566,0.00027806,0.00078306,-0.00843604,-0.02506245,-0.02069214,0.039
 95944,0.11608046,0.12669919,-0.17165414,0.12865161,-0.01684203,-0.0202
 6512,0.02323907,-0.00384620,-0.00362277,-0.00405755,0.00221869,-0.0002
 1652,-0.00033795,-0.00082662,0.00687302,-0.00650350,0.00193974,0.18832
 489,0.13169791,-0.18370410,0.01844493,-0.01017269,0.00934304,-0.001587
 86,-0.00155023,-0.00003004,0.00068848,0.00523884,-0.00700789,0.0004172
 1,0.01670353,-0.01766895,0.00357588,-0.14146907,0.19756594,-0.01781189
 ,0.01903072,-0.04886414,0.00679197,-0.00801300,-0.00054280,0.00142021,
 0.00117068,0.00055021,-0.02141909,0.02251673,-0.00196946,0.01336762,-0
 .01298844,0.00160182,0.01751560,-0.02131326,0.04859853,-0.00116358,-0.
 02268827,0.00858911,-0.05505280,-0.02758478,0.01849889,0.00347631,0.02
 140140,-0.00634306,-0.00252750,-0.00182459,0.00049349,-0.00276829,-0.0
 0196533,0.00098434,0.00148139,0.00029860,-0.00042161,0.05894411,0.0022
 4677,-0.00281870,0.00235418,-0.02758487,-0.30304175,0.10035903,-0.0035
 3346,-0.00931711,0.00553503,-0.00058897,-0.00024074,-0.00120643,-0.000
 83715,-0.00022417,0.00039135,-0.00039667,0.00110369,-0.00034419,0.0283
 0417,0.31589539,0.00064879,0.00714853,0.00352945,0.01849897,0.10035953
 ,-0.04004719,0.00159705,0.00073945,0.00538798,0.00121343,0.00055694,-0
 .00206736,-0.00048810,-0.00091712,-0.00184299,-0.00020027,-0.00047782,
 -0.00002610,-0.02017945,-0.10575493,0.03843202,0.00155217,-0.00028453,
 -0.00062472,-0.00498959,0.01304578,-0.02064709,-0.05178217,0.01028613,
 -0.03605200,-0.00040549,-0.00036398,0.00094595,-0.00031399,-0.00001750
 ,-0.00000315,0.00028838,-0.00006564,0.00040720,-0.00203493,0.00078476,
 -0.00093606,0.05309725,-0.00111579,0.00045076,0.00002882,0.00780873,-0
 .01348295,0.01701949,0.00801096,-0.06407391,0.07702310,0.00056590,0.00
 046510,-0.00055639,0.00013232,0.00017829,-0.00019660,-0.00018233,-0.00
 008941,-0.00023473,0.00247576,-0.00119786,0.00030366,-0.01629101,0.075
 44897,0.00026861,0.00010304,0.00099680,-0.00406871,0.00506060,0.003897
 95,-0.02835753,0.07209068,-0.25163579,-0.00092795,-0.00011522,0.000041
 75,-0.00005449,-0.00019817,-0.00033600,-0.00012856,-0.00007622,0.00022
 736,-0.00075953,-0.00120090,-0.00160279,0.03739071,-0.08257094,0.27796
 116,-0.00206804,0.00486794,-0.00092237,-0.02118320,-0.01396260,0.00817
 538,-0.22786298,-0.10033257,0.06687224,0.00022384,0.00000875,0.0000977
 4,0.00034631,0.00001094,-0.00015679,-0.00141178,-0.00043993,0.00049702
 ,0.00144598,0.00015242,-0.00036825,0.00488536,0.00262428,-0.00085538,0
 .24905302,0.00236059,-0.00220746,0.00062980,0.01944913,0.01062876,-0.0
 0769350,-0.10337886,-0.10498432,0.03858640,-0.00008513,-0.00011616,-0.
 00010964,0.00025309,0.00011166,0.00017293,0.00103275,0.00029201,-0.000
 15006,-0.00054283,0.00115327,-0.00033183,-0.00771640,-0.00548713,0.002
 10913,0.10921727,0.11251682,-0.00012393,0.00014767,0.00117289,-0.00246
 309,-0.00126872,-0.00091044,0.06784214,0.03800063,-0.07137500,-0.00046
 523,-0.00011480,0.00031865,0.00035900,0.00020660,-0.00003169,0.0000281
 1,0.00013312,0.00039667,-0.00014691,-0.00046556,-0.00004028,0.02542189
 ,0.01419692,-0.00859212,-0.07397763,-0.04244132,0.07291945,0.00173416,
 0.00007035,0.00039449,0.00243858,0.02281750,0.01171233,-0.05080906,-0.
 02624018,-0.01475939,-0.00031850,-0.00001671,-0.00001947,-0.00039482,-
 0.00079560,-0.00046477,0.00020265,-0.00024131,-0.00034702,-0.00180069,
 0.00145299,0.00021390,-0.00029698,-0.00402881,-0.00250717,-0.00342851,
 -0.02058961,-0.01647435,0.05267317,-0.00103334,0.00067614,0.00057814,0
 .00553964,-0.02142813,-0.00516915,-0.03393352,-0.19667761,-0.11422784,
 0.00012486,0.00017952,-0.00022372,0.00110557,0.00061454,-0.00017822,0.
 00002365,0.00019573,0.00032556,0.00212587,-0.00131202,-0.00162642,0.00
 062238,0.00778814,0.00479800,-0.00214650,-0.01190744,-0.00839453,0.027
 57138,0.22187112,0.00011747,0.00013185,0.00058950,0.00230310,0.0024601
 7,0.00441484,-0.01928034,-0.11121181,-0.12000346,-0.00006096,-0.000166
 12,-0.00033274,0.00050770,-0.00007500,-0.00011846,0.00014154,0.0001955
 5,0.00002791,-0.00071526,0.00033243,-0.00172275,-0.00590273,-0.0250133
 3,-0.02095832,0.00063804,0.00922810,0.00614186,0.02225145,0.12411817,0
 .13196162\\0.,0.00000005,0.00000008,-0.00000009,-0.00000030,0.00000011
 ,0.00000007,0.00000013,0.,0.,0.00000003,-0.00000006,0.00000001,0.00000
 003,-0.00000003,-0.00000010,0.00000004,0.,0.00000004,-0.00000002,-0.00
 000005,0.,0.00000002,-0.00000003,0.00000009,0.,0.,-0.00000004,0.000000
 03,-0.00000003\\\@
 Job cpu time:       0 days  0 hours  1 minutes 16.2 seconds.
 File lengths (MBytes):  RWF=    610 Int=      0 D2E=      0 Chk=      4 Scr=      1
 Normal termination of Gaussian 09 at Sat Jun 26 10:40:48 2021.
