 Entering Gaussian System, Link 0=/Local/ce_dana/g09/g09
 Initial command:
 /Local/ce_dana/g09/l1.exe "/storage/ce_dana/alongd/scratch/g09/Gau-50147.inp" -scrdir="/storage/ce_dana/alongd/scratch/g09/"
 Entering Link 1 = /Local/ce_dana/g09/l1.exe PID=     50148.
  
 Copyright (c) 1988,1990,1992,1993,1995,1998,2003,2009,2013,
            Gaussian, Inc.  All Rights Reserved.
  
 This is part of the Gaussian(R) 09 program.  It is based on
 the Gaussian(R) 03 system (copyright 2003, Gaussian, Inc.),
 the Gaussian(R) 98 system (copyright 1998, Gaussian, Inc.),
 the Gaussian(R) 94 system (copyright 1995, Gaussian, Inc.),
 the Gaussian 92(TM) system (copyright 1992, Gaussian, Inc.),
 the Gaussian 90(TM) system (copyright 1990, Gaussian, Inc.),
 the Gaussian 88(TM) system (copyright 1988, Gaussian, Inc.),
 the Gaussian 86(TM) system (copyright 1986, Carnegie Mellon
 University), and the Gaussian 82(TM) system (copyright 1983,
 Carnegie Mellon University). Gaussian is a federally registered
 trademark of Gaussian, Inc.
  
 This software contains proprietary and confidential information,
 including trade secrets, belonging to Gaussian, Inc.
  
 This software is provided under written license and may be
 used, copied, transmitted, or stored only in accord with that
 written license.
  
 The following legend is applicable only to US Government
 contracts under FAR:
  
                    RESTRICTED RIGHTS LEGEND
  
 Use, reproduction and disclosure by the US Government is
 subject to restrictions as set forth in subparagraphs (a)
 and (c) of the Commercial Computer Software - Restricted
 Rights clause in FAR 52.227-19.
  
 Gaussian, Inc.
 340 Quinnipiac St., Bldg. 40, Wallingford CT 06492
  
  
 ---------------------------------------------------------------
 Warning -- This program may not be used in any manner that
 competes with the business of Gaussian, Inc. or will provide
 assistance to any competitor of Gaussian, Inc.  The licensee
 of this program is prohibited from giving any competitor of
 Gaussian, Inc. access to this program.  By using this program,
 the user acknowledges that Gaussian, Inc. is engaged in the
 business of creating and licensing software in the field of
 computational chemistry and represents and warrants to the
 licensee that it is not a competitor of Gaussian, Inc. and that
 it will not use this program in any manner prohibited above.
 ---------------------------------------------------------------
  

 Cite this work as:
 Gaussian 09, Revision D.01,
 M. J. Frisch, G. W. Trucks, H. B. Schlegel, G. E. Scuseria, 
 M. A. Robb, J. R. Cheeseman, G. Scalmani, V. Barone, B. Mennucci, 
 G. A. Petersson, H. Nakatsuji, M. Caricato, X. Li, H. P. Hratchian, 
 A. F. Izmaylov, J. Bloino, G. Zheng, J. L. Sonnenberg, M. Hada, 
 M. Ehara, K. Toyota, R. Fukuda, J. Hasegawa, M. Ishida, T. Nakajima, 
 Y. Honda, O. Kitao, H. Nakai, T. Vreven, J. A. Montgomery, Jr., 
 J. E. Peralta, F. Ogliaro, M. Bearpark, J. J. Heyd, E. Brothers, 
 K. N. Kudin, V. N. Staroverov, T. Keith, R. Kobayashi, J. Normand, 
 K. Raghavachari, A. Rendell, J. C. Burant, S. S. Iyengar, J. Tomasi, 
 M. Cossi, N. Rega, J. M. Millam, M. Klene, J. E. Knox, J. B. Cross, 
 V. Bakken, C. Adamo, J. Jaramillo, R. Gomperts, R. E. Stratmann, 
 O. Yazyev, A. J. Austin, R. Cammi, C. Pomelli, J. W. Ochterski, 
 R. L. Martin, K. Morokuma, V. G. Zakrzewski, G. A. Voth, 
 P. Salvador, J. J. Dannenberg, S. Dapprich, A. D. Daniels, 
 O. Farkas, J. B. Foresman, J. V. Ortiz, J. Cioslowski, 
 and D. J. Fox, Gaussian, Inc., Wallingford CT, 2013.
 
 ******************************************
 Gaussian 09:  ES64L-G09RevD.01 24-Apr-2013
                26-Jun-2021 
 ******************************************
 %chk=check.chk
 %mem=25600mb
 %NProcShared=10
 Will use up to   10 processors via shared memory.
 ----------------------------------------------------------------------
 #P opt=(ts, calcfc, noeigentest, maxcycles=100, tight, maxstep=5) gues
 s=read cbs-qb3 scf=(tight, direct) integral=(grid=ultrafine, Acc2E=12)
  IOp(2/9=2000) scf=xqc
 ----------------------------------------------------------------------
 1/5=1,6=100,7=10,8=5,10=4,11=1,14=-1,18=20,26=4,38=1/1,3;
 2/9=2000,12=2,17=6,18=5,40=1/2;
 3/5=4,6=6,7=700,11=2,16=1,25=1,30=1,71=2,74=-5,75=-5,116=-2,140=1/1,2,3;
 4/5=1/1;
 5/5=2,8=3,13=1,32=2,38=6,87=12/2,8;
 8/6=4,10=90,11=11,87=12/1;
 11/6=1,8=1,9=11,15=111,16=1,87=12/1,2,10;
 10/6=1,13=1,87=12/2;
 6/7=2,8=2,9=2,10=2,28=1/1;
 7/10=1,18=20,25=1,87=12/1,2,3,16;
 1/5=1,6=100,7=10,8=5,10=4,11=1,14=-1,18=20,26=4/3(2);
 2/9=2000/2;
 99//99;
 2/9=2000/2;
 3/5=4,6=6,7=700,11=2,16=1,25=1,30=1,71=1,74=-5,75=-5/1,2,3;
 4/5=5,16=3,69=1/1;
 5/5=2,8=3,13=1,32=2,38=5,87=12/2,8;
 7/87=12/1,2,3,16;
 1/5=1,6=100,7=10,8=5,11=1,14=-1,18=20,26=4/3(-5);
 2/9=2000/2;
 6/7=2,8=2,9=2,10=2,19=2,28=1/1;
 99/9=1/99;
 Leave Link    1 at Sat Jun 26 10:41:14 2021, MaxMem=  3355443200 cpu:         0.1
 (Enter /Local/ce_dana/g09/l101.exe)
 ---
 TS0
 ---
 Symbolic Z-matrix:
 Charge =  0 Multiplicity = 2
 C                     1.36689   0.21298  -0.27659 
 C                     0.12263  -0.35285   0.31683 
 C                    -0.77654   0.70426   0.98028 
 H                     2.15902   0.60132   0.37038 
 H                     1.46201   0.38384  -1.35171 
 H                    -0.45555  -0.88465  -0.45561 
 H                     0.38616  -1.10736   1.08075 
 H                    -1.11273   1.45445   0.24849 
 H                    -1.66965   0.23887   1.42498 
 H                    -0.23785   1.23581   1.77976 
 
 NAtoms=     10 NQM=       10 NQMF=       0 NMMI=      0 NMMIF=      0
                NMic=       0 NMicF=      0.
                    Isotopes and Nuclear Properties:
 (Nuclear quadrupole moments (NQMom) in fm**2, nuclear magnetic moments (NMagM)
  in nuclear magnetons)

  Atom         1           2           3           4           5           6           7           8           9          10
 IAtWgt=          12          12          12           1           1           1           1           1           1           1
 AtmWgt=  12.0000000  12.0000000  12.0000000   1.0078250   1.0078250   1.0078250   1.0078250   1.0078250   1.0078250   1.0078250
 NucSpn=           0           0           0           1           1           1           1           1           1           1
 AtZEff=   0.0000000   0.0000000   0.0000000   0.0000000   0.0000000   0.0000000   0.0000000   0.0000000   0.0000000   0.0000000
 NQMom=    0.0000000   0.0000000   0.0000000   0.0000000   0.0000000   0.0000000   0.0000000   0.0000000   0.0000000   0.0000000
 NMagM=    0.0000000   0.0000000   0.0000000   2.7928460   2.7928460   2.7928460   2.7928460   2.7928460   2.7928460   2.7928460
 AtZNuc=   6.0000000   6.0000000   6.0000000   1.0000000   1.0000000   1.0000000   1.0000000   1.0000000   1.0000000   1.0000000
 Leave Link  101 at Sat Jun 26 10:41:14 2021, MaxMem=  3355443200 cpu:         0.6
 (Enter /Local/ce_dana/g09/l103.exe)

 GradGradGradGradGradGradGradGradGradGradGradGradGradGradGradGradGradGrad
 Berny optimization.
 Initialization pass.
                           ----------------------------
                           !    Initial Parameters    !
                           ! (Angstroms and Degrees)  !
 --------------------------                            --------------------------
 ! Name  Definition              Value          Derivative Info.                !
 --------------------------------------------------------------------------------
 ! R1    R(1,2)                  1.4901         calculate D2E/DX2 analytically  !
 ! R2    R(1,4)                  1.094          calculate D2E/DX2 analytically  !
 ! R3    R(1,5)                  1.0928         calculate D2E/DX2 analytically  !
 ! R4    R(2,3)                  1.5382         calculate D2E/DX2 analytically  !
 ! R5    R(2,6)                  1.1017         calculate D2E/DX2 analytically  !
 ! R6    R(2,7)                  1.1056         calculate D2E/DX2 analytically  !
 ! R7    R(3,8)                  1.1006         calculate D2E/DX2 analytically  !
 ! R8    R(3,9)                  1.1009         calculate D2E/DX2 analytically  !
 ! R9    R(3,10)                 1.1009         calculate D2E/DX2 analytically  !
 ! A1    A(2,1,4)              120.2568         calculate D2E/DX2 analytically  !
 ! A2    A(2,1,5)              121.5917         calculate D2E/DX2 analytically  !
 ! A3    A(4,1,5)              117.6002         calculate D2E/DX2 analytically  !
 ! A4    A(1,2,3)              113.5098         calculate D2E/DX2 analytically  !
 ! A5    A(1,2,6)              110.0165         calculate D2E/DX2 analytically  !
 ! A6    A(1,2,7)              109.5892         calculate D2E/DX2 analytically  !
 ! A7    A(3,2,6)              109.1082         calculate D2E/DX2 analytically  !
 ! A8    A(3,2,7)              108.078          calculate D2E/DX2 analytically  !
 ! A9    A(6,2,7)              106.2681         calculate D2E/DX2 analytically  !
 ! A10   A(2,3,8)              111.1131         calculate D2E/DX2 analytically  !
 ! A11   A(2,3,9)              110.9729         calculate D2E/DX2 analytically  !
 ! A12   A(2,3,10)             111.04           calculate D2E/DX2 analytically  !
 ! A13   A(8,3,9)              107.9937         calculate D2E/DX2 analytically  !
 ! A14   A(8,3,10)             107.6512         calculate D2E/DX2 analytically  !
 ! A15   A(9,3,10)             107.9224         calculate D2E/DX2 analytically  !
 ! D1    D(4,1,2,3)             69.5484         calculate D2E/DX2 analytically  !
 ! D2    D(4,1,2,6)           -167.8762         calculate D2E/DX2 analytically  !
 ! D3    D(4,1,2,7)            -51.3824         calculate D2E/DX2 analytically  !
 ! D4    D(5,1,2,3)           -101.7308         calculate D2E/DX2 analytically  !
 ! D5    D(5,1,2,6)             20.8447         calculate D2E/DX2 analytically  !
 ! D6    D(5,1,2,7)            137.3385         calculate D2E/DX2 analytically  !
 ! D7    D(1,2,3,8)             61.1904         calculate D2E/DX2 analytically  !
 ! D8    D(1,2,3,9)           -178.6342         calculate D2E/DX2 analytically  !
 ! D9    D(1,2,3,10)           -58.5976         calculate D2E/DX2 analytically  !
 ! D10   D(6,2,3,8)            -61.8854         calculate D2E/DX2 analytically  !
 ! D11   D(6,2,3,9)             58.29           calculate D2E/DX2 analytically  !
 ! D12   D(6,2,3,10)           178.3266         calculate D2E/DX2 analytically  !
 ! D13   D(7,2,3,8)           -177.0329         calculate D2E/DX2 analytically  !
 ! D14   D(7,2,3,9)            -56.8575         calculate D2E/DX2 analytically  !
 ! D15   D(7,2,3,10)            63.1791         calculate D2E/DX2 analytically  !
 --------------------------------------------------------------------------------
 Trust Radius=5.00D-02 FncErr=1.00D-07 GrdErr=1.00D-06
 Number of steps in this run=    100 maximum allowed number of steps=    100.
 Search for a saddle point of order  1.
 GradGradGradGradGradGradGradGradGradGradGradGradGradGradGradGradGradGrad

 Leave Link  103 at Sat Jun 26 10:41:15 2021, MaxMem=  3355443200 cpu:         0.0
 (Enter /Local/ce_dana/g09/l202.exe)
                          Input orientation:                          
 ---------------------------------------------------------------------
 Center     Atomic      Atomic             Coordinates (Angstroms)
 Number     Number       Type             X           Y           Z
 ---------------------------------------------------------------------
      1          6           0        1.366887    0.212976   -0.276592
      2          6           0        0.122631   -0.352854    0.316826
      3          6           0       -0.776538    0.704256    0.980276
      4          1           0        2.159016    0.601323    0.370380
      5          1           0        1.462013    0.383835   -1.351713
      6          1           0       -0.455548   -0.884648   -0.455608
      7          1           0        0.386160   -1.107356    1.080747
      8          1           0       -1.112731    1.454446    0.248493
      9          1           0       -1.669652    0.238867    1.424978
     10          1           0       -0.237854    1.235807    1.779761
 ---------------------------------------------------------------------
                    Distance matrix (angstroms):
                    1          2          3          4          5
     1  C    0.000000
     2  C    1.490128   0.000000
     3  C    2.532853   1.538230   0.000000
     4  H    1.094008   2.249486   3.000008   0.000000
     5  H    1.092761   2.262891   3.248377   1.870486   0.000000
     6  H    2.134969   1.101703   2.165505   3.118703   2.467609
     7  H    2.132480   1.105575   2.154971   2.562659   3.049258
     8  H    2.822316   2.190233   1.100599   3.383342   3.214992
     9  H    3.480888   2.188701   1.100908   3.987763   4.187882
    10  H    2.801779   2.189514   1.100865   2.852001   3.663541
                    6          7          8          9         10
     6  H    0.000000
     7  H    1.765916   0.000000
     8  H    2.529626   3.082556   0.000000
     9  H    2.504583   2.481365   1.780986   0.000000
    10  H    3.088785   2.523574   1.777075   1.780395   0.000000
 Stoichiometry    C3H7(2)
 Framework group  C1[X(C3H7)]
 Deg. of freedom    24
 Full point group                 C1      NOp   1
 Largest Abelian subgroup         C1      NOp   1
 Largest concise Abelian subgroup C1      NOp   1
                         Standard orientation:                         
 ---------------------------------------------------------------------
 Center     Atomic      Atomic             Coordinates (Angstroms)
 Number     Number       Type             X           Y           Z
 ---------------------------------------------------------------------
      1          6           0        1.317695   -0.244211    0.008083
      2          6           0        0.068097    0.565137   -0.054723
      3          6           0       -1.214723   -0.278367    0.040274
      4          1           0        1.590048   -0.903027   -0.821759
      5          1           0        1.911189   -0.310845    0.923207
      6          1           0        0.065343    1.317629    0.749950
      7          1           0        0.038691    1.128405   -1.005596
      8          1           0       -1.262138   -0.821554    0.996316
      9          1           0       -2.110600    0.357081   -0.034626
     10          1           0       -1.258943   -1.023044   -0.769296
 ---------------------------------------------------------------------
 Rotational constants (GHZ):     31.4519807      8.8240031      7.9206233
 Leave Link  202 at Sat Jun 26 10:41:15 2021, MaxMem=  3355443200 cpu:         0.0
 (Enter /Local/ce_dana/g09/l301.exe)
 Standard basis: 6-311G(2d,d,p) (5D, 7F)
 Ernie: Thresh=  0.10000D-02 Tol=  0.10000D-05 Strict=F.
 There are    99 symmetry adapted cartesian basis functions of A   symmetry.
 There are    96 symmetry adapted basis functions of A   symmetry.
    96 basis functions,   152 primitive gaussians,    99 cartesian basis functions
    13 alpha electrons       12 beta electrons
       nuclear repulsion energy        75.5270685726 Hartrees.
 IExCor=  402 DFT=T Ex+Corr=B3LYP ExCW=0 ScaHFX=  0.200000
 ScaDFX=  0.800000  0.720000  1.000000  0.810000 ScalE2=  1.000000  1.000000
 IRadAn=      5 IRanWt=     -1 IRanGd=            0 ICorTp=0 IEmpDi=  4
 NAtoms=   10 NActive=   10 NUniq=   10 SFac= 1.00D+00 NAtFMM=   60 NAOKFM=F Big=F
 Integral buffers will be    131072 words long.
 Raffenetti 2 integral format.
 Two-electron integral symmetry is turned on.
 Leave Link  301 at Sat Jun 26 10:41:15 2021, MaxMem=  3355443200 cpu:         0.1
 (Enter /Local/ce_dana/g09/l302.exe)
 NPDir=0 NMtPBC=     1 NCelOv=     1 NCel=       1 NClECP=     1 NCelD=      1
         NCelK=      1 NCelE2=     1 NClLst=     1 CellRange=     0.0.
 One-electron integrals computed using PRISM.
 NBasis=    96 RedAO= T EigKep=  3.19D-03  NBF=    96
 NBsUse=    96 1.00D-06 EigRej= -1.00D+00 NBFU=    96
 Precomputing XC quadrature grid using
 IXCGrd= 4 IRadAn=           5 IRanWt=          -1 IRanGd=           0 AccXCQ= 0.00D+00.
 Generated NRdTot=       0 NPtTot=           0 NUsed=           0 NTot=          32
 NSgBfM=    99    99    99    99    99 MxSgAt=    10 MxSgA2=    10.
 Leave Link  302 at Sat Jun 26 10:41:15 2021, MaxMem=  3355443200 cpu:         1.3
 (Enter /Local/ce_dana/g09/l303.exe)
 DipDrv:  MaxL=1.
 Leave Link  303 at Sat Jun 26 10:41:15 2021, MaxMem=  3355443200 cpu:         0.1
 (Enter /Local/ce_dana/g09/l401.exe)
 Initial guess from the checkpoint file:  "check.chk"
 B after Tr=     0.000000    0.000000    0.000000
         Rot=   -0.027362   -0.059107    0.993776   -0.090367 Ang=-183.14 deg.
 Guess basis will be translated and rotated to current coordinates.
 JPrj=2 DoOrth=T DoCkMO=T.
 Initial guess <Sx>= 0.0000 <Sy>= 0.0000 <Sz>= 0.5000 <S**2>= 0.7877 S= 0.5187
 Leave Link  401 at Sat Jun 26 10:41:15 2021, MaxMem=  3355443200 cpu:         0.4
 (Enter /Local/ce_dana/g09/l502.exe)
 UHF open shell SCF:
 Using DIIS extrapolation, IDIIS=  1040.
 Integral symmetry usage will be decided dynamically.
 Keep R1 and R2 ints in memory in canonical form, NReq=22641738.
 IVT=       37088 IEndB=       37088 NGot=  3355443200 MDV=  3333723121
 LenX=  3333723121 LenY=  3333712879
 Requested convergence on RMS density matrix=1.00D-08 within  64 cycles.
 Requested convergence on MAX density matrix=1.00D-06.
 Requested convergence on             energy=1.00D-06.
 No special actions if energy rises.
 FoFCou: FMM=F IPFlag=           0 FMFlag=           0 FMFlg1=           0
         NFxFlg=           0 DoJE=F BraDBF=F KetDBF=F FulRan=T
         wScrn=  0.000000 ICntrl=     600 IOpCl=  0 I1Cent=           0 NGrid=           0
         NMat0=    1 NMatS0=   4656 NMatT0=    0 NMatD0=    1 NMtDS0=    0 NMtDT0=    0
 Symmetry not used in FoFCou.

 Cycle   1  Pass 1  IDiag  1:
 E= -116.344216732883    
 DIIS: error= 7.42D-02 at cycle   1 NSaved=   1.
 NSaved= 1 IEnMin= 1 EnMin= -116.344216732883     IErMin= 1 ErrMin= 7.42D-02
 ErrMax= 7.42D-02  0.00D+00 EMaxC= 1.00D-01 BMatC= 2.37D+00 BMatP= 2.37D+00
 IDIUse=3 WtCom= 2.58D-01 WtEn= 7.42D-01
 Coeff-Com:  0.100D+01
 Coeff-En:   0.100D+01
 Coeff:      0.100D+01
 Gap=     2.678 Goal=   None    Shift=    0.000
 Gap=     2.860 Goal=   None    Shift=    0.000
 GapD=    2.678 DampG=2.000 DampE=0.500 DampFc=1.0000 IDamp=-1.
 RMSDP=2.01D-02 MaxDP=3.11D-01              OVMax= 7.01D-01

 Cycle   2  Pass 1  IDiag  1:
 E= -118.343237053743     Delta-E=       -1.999020320860 Rises=F Damp=F
 DIIS: error= 5.42D-02 at cycle   2 NSaved=   2.
 NSaved= 2 IEnMin= 2 EnMin= -118.343237053743     IErMin= 2 ErrMin= 5.42D-02
 ErrMax= 5.42D-02  0.00D+00 EMaxC= 1.00D-01 BMatC= 5.72D-01 BMatP= 2.37D+00
 IDIUse=3 WtCom= 4.58D-01 WtEn= 5.42D-01
 Coeff-Com:  0.214D+00 0.786D+00
 Coeff-En:   0.000D+00 0.100D+01
 Coeff:      0.980D-01 0.902D+00
 Gap=     0.365 Goal=   None    Shift=    0.000
 Gap=     0.260 Goal=   None    Shift=    0.000
 RMSDP=6.77D-03 MaxDP=1.87D-01 DE=-2.00D+00 OVMax= 2.27D-01

 Cycle   3  Pass 1  IDiag  1:
 E= -118.351508578248     Delta-E=       -0.008271524505 Rises=F Damp=F
 DIIS: error= 5.41D-02 at cycle   3 NSaved=   3.
 NSaved= 3 IEnMin= 3 EnMin= -118.351508578248     IErMin= 3 ErrMin= 5.41D-02
 ErrMax= 5.41D-02  0.00D+00 EMaxC= 1.00D-01 BMatC= 6.35D-01 BMatP= 5.72D-01
 IDIUse=2 WtCom= 0.00D+00 WtEn= 1.00D+00
 Coeff-En:   0.000D+00 0.487D+00 0.513D+00
 Coeff:      0.000D+00 0.487D+00 0.513D+00
 Gap=     0.294 Goal=   None    Shift=    0.000
 Gap=     0.292 Goal=   None    Shift=    0.000
 RMSDP=2.94D-03 MaxDP=1.15D-01 DE=-8.27D-03 OVMax= 1.69D-01

 Cycle   4  Pass 1  IDiag  1:
 E= -118.504635923231     Delta-E=       -0.153127344983 Rises=F Damp=F
 DIIS: error= 5.29D-03 at cycle   4 NSaved=   4.
 NSaved= 4 IEnMin= 4 EnMin= -118.504635923231     IErMin= 4 ErrMin= 5.29D-03
 ErrMax= 5.29D-03  0.00D+00 EMaxC= 1.00D-01 BMatC= 7.23D-03 BMatP= 5.72D-01
 IDIUse=3 WtCom= 9.47D-01 WtEn= 5.29D-02
 Coeff-Com: -0.416D-02 0.456D-01 0.104D+00 0.855D+00
 Coeff-En:   0.000D+00 0.000D+00 0.000D+00 0.100D+01
 Coeff:     -0.394D-02 0.432D-01 0.981D-01 0.863D+00
 Gap=     0.252 Goal=   None    Shift=    0.000
 Gap=     0.277 Goal=   None    Shift=    0.000
 RMSDP=6.02D-04 MaxDP=1.15D-02 DE=-1.53D-01 OVMax= 2.24D-02

 Cycle   5  Pass 1  IDiag  1:
 E= -118.506294252352     Delta-E=       -0.001658329121 Rises=F Damp=F
 DIIS: error= 3.19D-03 at cycle   5 NSaved=   5.
 NSaved= 5 IEnMin= 5 EnMin= -118.506294252352     IErMin= 5 ErrMin= 3.19D-03
 ErrMax= 3.19D-03  0.00D+00 EMaxC= 1.00D-01 BMatC= 2.87D-03 BMatP= 7.23D-03
 IDIUse=3 WtCom= 9.68D-01 WtEn= 3.19D-02
 Coeff-Com: -0.196D-02-0.322D-01-0.604D-02 0.442D+00 0.598D+00
 Coeff-En:   0.000D+00 0.000D+00 0.000D+00 0.897D-01 0.910D+00
 Coeff:     -0.190D-02-0.312D-01-0.585D-02 0.431D+00 0.608D+00
 Gap=     0.253 Goal=   None    Shift=    0.000
 Gap=     0.280 Goal=   None    Shift=    0.000
 RMSDP=2.28D-04 MaxDP=6.87D-03 DE=-1.66D-03 OVMax= 1.03D-02

 Cycle   6  Pass 1  IDiag  1:
 E= -118.507083152223     Delta-E=       -0.000788899871 Rises=F Damp=F
 DIIS: error= 7.88D-04 at cycle   6 NSaved=   6.
 NSaved= 6 IEnMin= 6 EnMin= -118.507083152223     IErMin= 6 ErrMin= 7.88D-04
 ErrMax= 7.88D-04  0.00D+00 EMaxC= 1.00D-01 BMatC= 1.53D-04 BMatP= 2.87D-03
 IDIUse=3 WtCom= 9.92D-01 WtEn= 7.88D-03
 Coeff-Com:  0.169D-03-0.120D-01-0.163D-01-0.417D-01 0.133D+00 0.937D+00
 Coeff-En:   0.000D+00 0.000D+00 0.000D+00 0.000D+00 0.000D+00 0.100D+01
 Coeff:      0.168D-03-0.119D-01-0.161D-01-0.414D-01 0.132D+00 0.937D+00
 Gap=     0.253 Goal=   None    Shift=    0.000
 Gap=     0.280 Goal=   None    Shift=    0.000
 RMSDP=8.12D-05 MaxDP=1.88D-03 DE=-7.89D-04 OVMax= 3.23D-03

 Cycle   7  Pass 1  IDiag  1:
 E= -118.507149068945     Delta-E=       -0.000065916721 Rises=F Damp=F
 DIIS: error= 2.08D-04 at cycle   7 NSaved=   7.
 NSaved= 7 IEnMin= 7 EnMin= -118.507149068945     IErMin= 7 ErrMin= 2.08D-04
 ErrMax= 2.08D-04  0.00D+00 EMaxC= 1.00D-01 BMatC= 1.41D-05 BMatP= 1.53D-04
 IDIUse=3 WtCom= 9.98D-01 WtEn= 2.08D-03
 Coeff-Com: -0.260D-04 0.165D-02-0.160D-02-0.640D-01-0.530D-01 0.176D+00
 Coeff-Com:  0.941D+00
 Coeff-En:   0.000D+00 0.000D+00 0.000D+00 0.000D+00 0.000D+00 0.000D+00
 Coeff-En:   0.100D+01
 Coeff:     -0.259D-04 0.164D-02-0.160D-02-0.639D-01-0.529D-01 0.175D+00
 Coeff:      0.941D+00
 Gap=     0.253 Goal=   None    Shift=    0.000
 Gap=     0.280 Goal=   None    Shift=    0.000
 RMSDP=3.27D-05 MaxDP=7.30D-04 DE=-6.59D-05 OVMax= 1.28D-03

 Cycle   8  Pass 1  IDiag  1:
 E= -118.507156057706     Delta-E=       -0.000006988761 Rises=F Damp=F
 DIIS: error= 7.07D-05 at cycle   8 NSaved=   8.
 NSaved= 8 IEnMin= 8 EnMin= -118.507156057706     IErMin= 8 ErrMin= 7.07D-05
 ErrMax= 7.07D-05  0.00D+00 EMaxC= 1.00D-01 BMatC= 1.66D-06 BMatP= 1.41D-05
 IDIUse=1 WtCom= 1.00D+00 WtEn= 0.00D+00
 Coeff-Com: -0.386D-04 0.161D-02 0.872D-03-0.174D-01-0.285D-01-0.235D-01
 Coeff-Com:  0.305D+00 0.762D+00
 Coeff:     -0.386D-04 0.161D-02 0.872D-03-0.174D-01-0.285D-01-0.235D-01
 Coeff:      0.305D+00 0.762D+00
 Gap=     0.253 Goal=   None    Shift=    0.000
 Gap=     0.280 Goal=   None    Shift=    0.000
 RMSDP=7.83D-06 MaxDP=2.32D-04 DE=-6.99D-06 OVMax= 3.14D-04

 Cycle   9  Pass 1  IDiag  1:
 E= -118.507156590758     Delta-E=       -0.000000533053 Rises=F Damp=F
 DIIS: error= 3.18D-05 at cycle   9 NSaved=   9.
 NSaved= 9 IEnMin= 9 EnMin= -118.507156590758     IErMin= 9 ErrMin= 3.18D-05
 ErrMax= 3.18D-05  0.00D+00 EMaxC= 1.00D-01 BMatC= 2.24D-07 BMatP= 1.66D-06
 IDIUse=1 WtCom= 1.00D+00 WtEn= 0.00D+00
 Coeff-Com: -0.252D-04 0.465D-03 0.418D-03-0.119D-02-0.656D-02-0.240D-01
 Coeff-Com:  0.409D-01 0.296D+00 0.694D+00
 Coeff:     -0.252D-04 0.465D-03 0.418D-03-0.119D-02-0.656D-02-0.240D-01
 Coeff:      0.409D-01 0.296D+00 0.694D+00
 Gap=     0.253 Goal=   None    Shift=    0.000
 Gap=     0.280 Goal=   None    Shift=    0.000
 RMSDP=2.36D-06 MaxDP=8.31D-05 DE=-5.33D-07 OVMax= 1.23D-04

 Cycle  10  Pass 1  IDiag  1:
 E= -118.507156648029     Delta-E=       -0.000000057270 Rises=F Damp=F
 DIIS: error= 1.10D-05 at cycle  10 NSaved=  10.
 NSaved=10 IEnMin=10 EnMin= -118.507156648029     IErMin=10 ErrMin= 1.10D-05
 ErrMax= 1.10D-05  0.00D+00 EMaxC= 1.00D-01 BMatC= 3.05D-08 BMatP= 2.24D-07
 IDIUse=1 WtCom= 1.00D+00 WtEn= 0.00D+00
 Coeff-Com: -0.145D-05-0.669D-04 0.128D-04 0.252D-02 0.214D-02-0.511D-02
 Coeff-Com: -0.365D-01-0.165D-01 0.270D+00 0.784D+00
 Coeff:     -0.145D-05-0.669D-04 0.128D-04 0.252D-02 0.214D-02-0.511D-02
 Coeff:     -0.365D-01-0.165D-01 0.270D+00 0.784D+00
 Gap=     0.253 Goal=   None    Shift=    0.000
 Gap=     0.280 Goal=   None    Shift=    0.000
 RMSDP=1.03D-06 MaxDP=2.24D-05 DE=-5.73D-08 OVMax= 4.09D-05

 Cycle  11  Pass 1  IDiag  1:
 E= -118.507156658061     Delta-E=       -0.000000010032 Rises=F Damp=F
 DIIS: error= 1.47D-06 at cycle  11 NSaved=  11.
 NSaved=11 IEnMin=11 EnMin= -118.507156658061     IErMin=11 ErrMin= 1.47D-06
 ErrMax= 1.47D-06  0.00D+00 EMaxC= 1.00D-01 BMatC= 6.87D-10 BMatP= 3.05D-08
 IDIUse=1 WtCom= 1.00D+00 WtEn= 0.00D+00
 Coeff-Com:  0.845D-06-0.223D-04-0.210D-04-0.143D-03 0.136D-03 0.208D-02
 Coeff-Com:  0.449D-03-0.175D-01-0.689D-01-0.413D-01 0.113D+01
 Coeff:      0.845D-06-0.223D-04-0.210D-04-0.143D-03 0.136D-03 0.208D-02
 Coeff:      0.449D-03-0.175D-01-0.689D-01-0.413D-01 0.113D+01
 Gap=     0.253 Goal=   None    Shift=    0.000
 Gap=     0.280 Goal=   None    Shift=    0.000
 RMSDP=2.54D-07 MaxDP=4.71D-06 DE=-1.00D-08 OVMax= 9.61D-06

 Cycle  12  Pass 1  IDiag  1:
 E= -118.507156658501     Delta-E=       -0.000000000441 Rises=F Damp=F
 DIIS: error= 3.30D-07 at cycle  12 NSaved=  12.
 NSaved=12 IEnMin=12 EnMin= -118.507156658501     IErMin=12 ErrMin= 3.30D-07
 ErrMax= 3.30D-07  0.00D+00 EMaxC= 1.00D-01 BMatC= 3.83D-11 BMatP= 6.87D-10
 IDIUse=1 WtCom= 1.00D+00 WtEn= 0.00D+00
 Coeff-Com:  0.255D-06 0.382D-05-0.143D-05-0.157D-03-0.115D-03 0.187D-03
 Coeff-Com:  0.224D-02 0.199D-02-0.117D-01-0.450D-01-0.511D-01 0.110D+01
 Coeff:      0.255D-06 0.382D-05-0.143D-05-0.157D-03-0.115D-03 0.187D-03
 Coeff:      0.224D-02 0.199D-02-0.117D-01-0.450D-01-0.511D-01 0.110D+01
 Gap=     0.253 Goal=   None    Shift=    0.000
 Gap=     0.280 Goal=   None    Shift=    0.000
 RMSDP=5.74D-08 MaxDP=1.28D-06 DE=-4.41D-10 OVMax= 1.87D-06

 Cycle  13  Pass 1  IDiag  1:
 E= -118.507156658527     Delta-E=       -0.000000000026 Rises=F Damp=F
 DIIS: error= 8.23D-08 at cycle  13 NSaved=  13.
 NSaved=13 IEnMin=13 EnMin= -118.507156658527     IErMin=13 ErrMin= 8.23D-08
 ErrMax= 8.23D-08  0.00D+00 EMaxC= 1.00D-01 BMatC= 2.00D-12 BMatP= 3.83D-11
 IDIUse=1 WtCom= 1.00D+00 WtEn= 0.00D+00
 Coeff-Com: -0.350D-08 0.133D-05 0.937D-06 0.304D-05-0.119D-04-0.118D-03
 Coeff-Com:  0.668D-04 0.110D-02 0.385D-02 0.111D-03-0.720D-01 0.383D-01
 Coeff-Com:  0.103D+01
 Coeff:     -0.350D-08 0.133D-05 0.937D-06 0.304D-05-0.119D-04-0.118D-03
 Coeff:      0.668D-04 0.110D-02 0.385D-02 0.111D-03-0.720D-01 0.383D-01
 Coeff:      0.103D+01
 Gap=     0.253 Goal=   None    Shift=    0.000
 Gap=     0.280 Goal=   None    Shift=    0.000
 RMSDP=1.49D-08 MaxDP=2.35D-07 DE=-2.58D-11 OVMax= 4.07D-07

 Cycle  14  Pass 1  IDiag  1:
 E= -118.507156658529     Delta-E=       -0.000000000002 Rises=F Damp=F
 DIIS: error= 2.05D-08 at cycle  14 NSaved=  14.
 NSaved=14 IEnMin=14 EnMin= -118.507156658529     IErMin=14 ErrMin= 2.05D-08
 ErrMax= 2.05D-08  0.00D+00 EMaxC= 1.00D-01 BMatC= 1.19D-13 BMatP= 2.00D-12
 IDIUse=1 WtCom= 1.00D+00 WtEn= 0.00D+00
 Coeff-Com: -0.131D-08 0.391D-07 0.237D-06 0.716D-05 0.226D-05-0.228D-04
 Coeff-Com: -0.867D-04 0.729D-04 0.936D-03 0.192D-02-0.756D-02-0.406D-01
 Coeff-Com:  0.130D+00 0.915D+00
 Coeff:     -0.131D-08 0.391D-07 0.237D-06 0.716D-05 0.226D-05-0.228D-04
 Coeff:     -0.867D-04 0.729D-04 0.936D-03 0.192D-02-0.756D-02-0.406D-01
 Coeff:      0.130D+00 0.915D+00
 Gap=     0.253 Goal=   None    Shift=    0.000
 Gap=     0.280 Goal=   None    Shift=    0.000
 RMSDP=3.48D-09 MaxDP=7.49D-08 DE=-1.76D-12 OVMax= 1.16D-07

 SCF Done:  E(UB3LYP) =  -118.507156659     A.U. after   14 cycles
            NFock= 14  Conv=0.35D-08     -V/T= 2.0057
 <Sx>= 0.0000 <Sy>= 0.0000 <Sz>= 0.5000 <S**2>= 0.7539 S= 0.5019
 <L.S>=  0.00000000000    
 KE= 1.178412865307D+02 PE=-4.249542959045D+02 EE= 1.130787841427D+02
 Annihilation of the first spin contaminant:
 S**2 before annihilation     0.7539,   after     0.7500
 Leave Link  502 at Sat Jun 26 10:41:24 2021, MaxMem=  3355443200 cpu:        82.5
 (Enter /Local/ce_dana/g09/l508.exe)
 QCSCF skips out because SCF is already converged.
 Leave Link  508 at Sat Jun 26 10:41:24 2021, MaxMem=  3355443200 cpu:         0.0
 (Enter /Local/ce_dana/g09/l801.exe)
 DoSCS=F DFT=T ScalE2(SS,OS)=  1.000000  1.000000
 Range of M.O.s used for correlation:     1    96
 NBasis=    96 NAE=    13 NBE=    12 NFC=     0 NFV=     0
 NROrb=     96 NOA=    13 NOB=    12 NVA=    83 NVB=    84

 **** Warning!!: The largest alpha MO coefficient is  0.10537953D+02


 **** Warning!!: The largest beta MO coefficient is  0.10655356D+02

 Leave Link  801 at Sat Jun 26 10:41:24 2021, MaxMem=  3355443200 cpu:         0.0
 (Enter /Local/ce_dana/g09/l1101.exe)
 Using compressed storage, NAtomX=    10.
 Will process     11 centers per pass.
 Leave Link 1101 at Sat Jun 26 10:41:24 2021, MaxMem=  3355443200 cpu:         4.5
 (Enter /Local/ce_dana/g09/l1102.exe)
 Symmetrizing basis deriv contribution to polar:
 IMax=3 JMax=2 DiffMx= 0.00D+00
 Leave Link 1102 at Sat Jun 26 10:41:25 2021, MaxMem=  3355443200 cpu:         0.1
 (Enter /Local/ce_dana/g09/l1110.exe)
 Forming Gx(P) for the SCF density, NAtomX=    10.
 Integral derivatives from FoFJK, PRISM(SPDF).
 Do as many integral derivatives as possible in FoFJK.
 G2DrvN: MDV=    3355443016.
 G2DrvN: will do    11 centers at a time, making    1 passes.
 Calling FoFCou, ICntrl=  3107 FMM=F I1Cent=   0 AccDes= 1.00D-12.
 FoFJK:  IHMeth= 1 ICntrl=    3107 DoSepK=F KAlg= 0 I1Cent=   0 FoldK=F
 IRaf=         0 NMat=   1 IRICut=       1 DoRegI=T DoRafI=F ISym2E= 0.
 FoFCou: FMM=F IPFlag=           0 FMFlag=      100000 FMFlg1=           0
         NFxFlg=           0 DoJE=F BraDBF=F KetDBF=F FulRan=T
         wScrn=  0.000000 ICntrl=    3107 IOpCl=  1 I1Cent=           0 NGrid=           0
         NMat0=    1 NMatS0=      1 NMatT0=    0 NMatD0=    1 NMtDS0=    0 NMtDT0=    0
 Symmetry not used in FoFCou.
 End of G2Drv F.D. properties file   721 does not exist.
 End of G2Drv F.D. properties file   722 does not exist.
 End of G2Drv F.D. properties file   788 does not exist.
 Leave Link 1110 at Sat Jun 26 10:41:37 2021, MaxMem=  3355443200 cpu:       120.6
 (Enter /Local/ce_dana/g09/l1002.exe)
 Minotr:  UHF open shell wavefunction.
          IDoAtm=1111111111
          Direct CPHF calculation.
          Differentiating once with respect to nuclear coordinates.
          Requested convergence is 1.0D-08 RMS, and 1.0D-07 maximum.
          Secondary convergence is 1.0D-12 RMS, and 1.0D-12 maximum.
          NewPWx=T KeepS1=F KeepF1=F KeepIn=T MapXYZ=F SortEE=F KeepMc=T.
          MDV=    3355442904 using IRadAn=       1.
 Generate precomputed XC quadrature information.
 Keep R1 and R2 ints in memory in canonical form, NReq=22605689.
 FoFCou: FMM=F IPFlag=           0 FMFlag=           0 FMFlg1=           0
         NFxFlg=           0 DoJE=F BraDBF=F KetDBF=F FulRan=T
         wScrn=  0.000000 ICntrl=     600 IOpCl=  0 I1Cent=           0 NGrid=           0
         NMat0=    1 NMatS0=   4656 NMatT0=    0 NMatD0=    1 NMtDS0=    0 NMtDT0=    0
 Symmetry not used in FoFCou.
          Solving linear equations simultaneously, MaxMat=       0.
          There are    33 degrees of freedom in the 1st order CPHF.  IDoFFX=6 NUNeed=     0.
     27 vectors produced by pass  0 Test12= 6.32D-15 3.03D-09 XBig12= 1.33D-01 1.38D-01.
 AX will form    27 AO Fock derivatives at one time.
     27 vectors produced by pass  1 Test12= 6.32D-15 3.03D-09 XBig12= 7.29D-03 2.07D-02.
     27 vectors produced by pass  2 Test12= 6.32D-15 3.03D-09 XBig12= 1.17D-04 1.91D-03.
     27 vectors produced by pass  3 Test12= 6.32D-15 3.03D-09 XBig12= 9.43D-07 1.42D-04.
     27 vectors produced by pass  4 Test12= 6.32D-15 3.03D-09 XBig12= 6.53D-09 1.16D-05.
     26 vectors produced by pass  5 Test12= 6.32D-15 3.03D-09 XBig12= 2.55D-11 8.18D-07.
     12 vectors produced by pass  6 Test12= 6.32D-15 3.03D-09 XBig12= 7.42D-14 4.63D-08.
 InvSVY:  IOpt=1 It=  1 EMax= 2.11D-15
 Solved reduced A of dimension   173 with    27 vectors.
 End of Minotr F.D. properties file   721 does not exist.
 End of Minotr F.D. properties file   722 does not exist.
 End of Minotr F.D. properties file   788 does not exist.
 Leave Link 1002 at Sat Jun 26 10:41:53 2021, MaxMem=  3355443200 cpu:       160.8
 (Enter /Local/ce_dana/g09/l601.exe)
 Copying SCF densities to generalized density rwf, IOpCl= 1 IROHF=0.

 **********************************************************************

            Population analysis using the SCF density.

 **********************************************************************

 Orbital symmetries:
 Alpha Orbitals:
       Occupied  (A) (A) (A) (A) (A) (A) (A) (A) (A) (A) (A) (A)
                 (A)
       Virtual   (A) (A) (A) (A) (A) (A) (A) (A) (A) (A) (A) (A)
                 (A) (A) (A) (A) (A) (A) (A) (A) (A) (A) (A) (A)
                 (A) (A) (A) (A) (A) (A) (A) (A) (A) (A) (A) (A)
                 (A) (A) (A) (A) (A) (A) (A) (A) (A) (A) (A) (A)
                 (A) (A) (A) (A) (A) (A) (A) (A) (A) (A) (A) (A)
                 (A) (A) (A) (A) (A) (A) (A) (A) (A) (A) (A) (A)
                 (A) (A) (A) (A) (A) (A) (A) (A) (A) (A) (A)
 Beta  Orbitals:
       Occupied  (A) (A) (A) (A) (A) (A) (A) (A) (A) (A) (A) (A)
       Virtual   (A) (A) (A) (A) (A) (A) (A) (A) (A) (A) (A) (A)
                 (A) (A) (A) (A) (A) (A) (A) (A) (A) (A) (A) (A)
                 (A) (A) (A) (A) (A) (A) (A) (A) (A) (A) (A) (A)
                 (A) (A) (A) (A) (A) (A) (A) (A) (A) (A) (A) (A)
                 (A) (A) (A) (A) (A) (A) (A) (A) (A) (A) (A) (A)
                 (A) (A) (A) (A) (A) (A) (A) (A) (A) (A) (A) (A)
                 (A) (A) (A) (A) (A) (A) (A) (A) (A) (A) (A) (A)
 The electronic state is 2-A.
 Alpha  occ. eigenvalues --  -10.17359 -10.17302 -10.16377  -0.78534  -0.67635
 Alpha  occ. eigenvalues --   -0.58179  -0.46633  -0.43415  -0.39915  -0.38282
 Alpha  occ. eigenvalues --   -0.35390  -0.33634  -0.20558
 Alpha virt. eigenvalues --    0.04764   0.08075   0.08261   0.09086   0.12241
 Alpha virt. eigenvalues --    0.13238   0.14751   0.20245   0.25201   0.29178
 Alpha virt. eigenvalues --    0.30232   0.32253   0.33453   0.36674   0.40875
 Alpha virt. eigenvalues --    0.46068   0.53663   0.55516   0.56924   0.57554
 Alpha virt. eigenvalues --    0.58440   0.59327   0.60746   0.61662   0.63177
 Alpha virt. eigenvalues --    0.69607   0.85007   0.89275   0.96074   1.06249
 Alpha virt. eigenvalues --    1.11678   1.23669   1.26024   1.39925   1.40378
 Alpha virt. eigenvalues --    1.44399   1.46559   1.46902   1.49634   1.51919
 Alpha virt. eigenvalues --    1.52972   1.59858   1.64731   1.69233   1.69649
 Alpha virt. eigenvalues --    1.71890   1.77485   1.79051   1.90451   1.94241
 Alpha virt. eigenvalues --    2.01010   2.05285   2.09035   2.11032   2.18075
 Alpha virt. eigenvalues --    2.24978   2.27794   2.37961   2.38385   2.45041
 Alpha virt. eigenvalues --    2.46550   2.50465   2.52087   2.54485   2.55172
 Alpha virt. eigenvalues --    2.59152   2.61884   2.66968   2.70802   2.71429
 Alpha virt. eigenvalues --    2.78948   2.83045   3.02820   3.27610   3.70606
 Alpha virt. eigenvalues --    3.77548   3.78388   3.80748   4.10732   4.22055
 Alpha virt. eigenvalues --   23.81136  23.84734  23.91886
  Beta  occ. eigenvalues --  -10.17388 -10.16231 -10.15935  -0.77527  -0.65802
  Beta  occ. eigenvalues --   -0.56786  -0.46198  -0.42822  -0.39331  -0.37275
  Beta  occ. eigenvalues --   -0.34879  -0.33392
  Beta virt. eigenvalues --   -0.05361   0.05085   0.08348   0.08781   0.09231
  Beta virt. eigenvalues --    0.12439   0.13316   0.14952   0.20797   0.25799
  Beta virt. eigenvalues --    0.29694   0.30453   0.32404   0.33861   0.37658
  Beta virt. eigenvalues --    0.43395   0.50236   0.54598   0.56043   0.57270
  Beta virt. eigenvalues --    0.57665   0.58977   0.59648   0.61074   0.62207
  Beta virt. eigenvalues --    0.63972   0.70997   0.86292   0.89482   0.96866
  Beta virt. eigenvalues --    1.08312   1.12725   1.24176   1.26972   1.40714
  Beta virt. eigenvalues --    1.41164   1.44629   1.46856   1.47246   1.49751
  Beta virt. eigenvalues --    1.52231   1.55835   1.60600   1.64908   1.69542
  Beta virt. eigenvalues --    1.71454   1.72562   1.78006   1.80062   1.91564
  Beta virt. eigenvalues --    1.96551   2.01491   2.05347   2.09411   2.12156
  Beta virt. eigenvalues --    2.18784   2.25352   2.28100   2.38141   2.38617
  Beta virt. eigenvalues --    2.45317   2.46888   2.50609   2.52304   2.55351
  Beta virt. eigenvalues --    2.56337   2.59498   2.62543   2.67392   2.71682
  Beta virt. eigenvalues --    2.72880   2.79942   2.86390   3.03297   3.28102
  Beta virt. eigenvalues --    3.72652   3.77659   3.78545   3.80870   4.11629
  Beta virt. eigenvalues --    4.22824  23.82419  23.84869  23.92156
          Condensed to atoms (all electrons):
               1          2          3          4          5          6
     1  C    5.232405   0.363554  -0.081536   0.401182   0.402933  -0.038827
     2  C    0.363554   4.875049   0.361046  -0.039717  -0.036304   0.407984
     3  C   -0.081536   0.361046   4.903614  -0.000462   0.002948  -0.039163
     4  H    0.401182  -0.039717  -0.000462   0.563331  -0.037532   0.007549
     5  H    0.402933  -0.036304   0.002948  -0.037532   0.556386  -0.010771
     6  H   -0.038827   0.407984  -0.039163   0.007549  -0.010771   0.601260
     7  H   -0.044402   0.406829  -0.044982  -0.007068   0.006711  -0.037048
     8  H    0.000535  -0.037355   0.398009  -0.000657   0.001819  -0.007641
     9  H    0.009569  -0.031165   0.391457  -0.000242  -0.000369  -0.004867
    10  H   -0.003302  -0.036836   0.400772   0.003818  -0.000438   0.009055
               7          8          9         10
     1  C   -0.044402   0.000535   0.009569  -0.003302
     2  C    0.406829  -0.037355  -0.031165  -0.036836
     3  C   -0.044982   0.398009   0.391457   0.400772
     4  H   -0.007068  -0.000657  -0.000242   0.003818
     5  H    0.006711   0.001819  -0.000369  -0.000438
     6  H   -0.037048  -0.007641  -0.004867   0.009055
     7  H    0.605869   0.009724  -0.004692  -0.007019
     8  H    0.009724   0.590528  -0.028330  -0.032164
     9  H   -0.004692  -0.028330   0.593409  -0.028856
    10  H   -0.007019  -0.032164  -0.028856   0.590655
          Atomic-Atomic Spin Densities.
               1          2          3          4          5          6
     1  C    1.177750  -0.052856  -0.040571   0.003231   0.003232  -0.002392
     2  C   -0.052856  -0.052546   0.021076  -0.001988  -0.002085   0.003406
     3  C   -0.040571   0.021076   0.106197   0.000203  -0.000499  -0.003866
     4  H    0.003231  -0.001988   0.000203  -0.053648   0.003819  -0.000346
     5  H    0.003232  -0.002085  -0.000499   0.003819  -0.054359   0.001041
     6  H   -0.002392   0.003406  -0.003866  -0.000346   0.001041   0.003286
     7  H   -0.014289   0.009975  -0.016561   0.000785  -0.000076   0.001650
     8  H    0.007642  -0.001531  -0.009075   0.000134  -0.000008   0.000435
     9  H    0.003042  -0.001473  -0.014908   0.000004   0.000041   0.000631
    10  H    0.002005   0.000384  -0.002814  -0.000148   0.000093   0.000035
               7          8          9         10
     1  C   -0.014289   0.007642   0.003042   0.002005
     2  C    0.009975  -0.001531  -0.001473   0.000384
     3  C   -0.016561  -0.009075  -0.014908  -0.002814
     4  H    0.000785   0.000134   0.000004  -0.000148
     5  H   -0.000076  -0.000008   0.000041   0.000093
     6  H    0.001650   0.000435   0.000631   0.000035
     7  H    0.041704   0.000921   0.003436   0.000717
     8  H    0.000921   0.000436   0.003259   0.001094
     9  H    0.003436   0.003259   0.017670   0.001072
    10  H    0.000717   0.001094   0.001072  -0.002246
 Mulliken charges and spin densities:
               1          2
     1  C   -0.242111   1.086795
     2  C   -0.233085  -0.077637
     3  C   -0.291702   0.039183
     4  H    0.109798  -0.047954
     5  H    0.114618  -0.048801
     6  H    0.112469   0.003881
     7  H    0.116079   0.028262
     8  H    0.105532   0.003306
     9  H    0.104086   0.012773
    10  H    0.104316   0.000192
 Sum of Mulliken charges =  -0.00000   1.00000
 Mulliken charges and spin densities with hydrogens summed into heavy atoms:
               1          2
     1  C   -0.017696   0.990040
     2  C   -0.004537  -0.045494
     3  C    0.022232   0.055454
 APT charges:
               1
     1  C   -0.723199
     2  C   -0.703073
     3  C   -0.959533
     4  H    0.345278
     5  H    0.397458
     6  H    0.332282
     7  H    0.330097
     8  H    0.298233
     9  H    0.386322
    10  H    0.296134
 Sum of APT charges =  -0.00000
 APT charges with hydrogens summed into heavy atoms:
               1
     1  C    0.019537
     2  C   -0.040695
     3  C    0.021157
 Electronic spatial extent (au):  <R**2>=            213.1635
 Charge=             -0.0000 electrons
 Dipole moment (field-independent basis, Debye):
    X=             -0.2270    Y=              0.0547    Z=              0.0250  Tot=              0.2349
 Quadrupole moment (field-independent basis, Debye-Ang):
   XX=            -22.0310   YY=            -21.5617   ZZ=            -20.5250
   XY=             -0.6285   XZ=              0.3690   YZ=              0.4209
 Traceless Quadrupole moment (field-independent basis, Debye-Ang):
   XX=             -0.6584   YY=             -0.1891   ZZ=              0.8476
   XY=             -0.6285   XZ=              0.3690   YZ=              0.4209
 Octapole moment (field-independent basis, Debye-Ang**2):
  XXX=             -1.7688  YYY=              0.7686  ZZZ=              0.1886  XYY=             -0.6233
  XXY=             -0.5609  XXZ=              1.0407  XZZ=              0.7573  YZZ=             -0.2354
  YYZ=             -0.4953  XYZ=              0.5640
 Hexadecapole moment (field-independent basis, Debye-Ang**3):
 XXXX=           -198.0813 YYYY=            -67.3412 ZZZZ=            -43.7193 XXXY=             -4.9294
 XXXZ=              3.2831 YYYX=             -0.1275 YYYZ=              1.4289 ZZZX=              0.5960
 ZZZY=              0.1974 XXYY=            -43.5389 XXZZ=            -38.3098 YYZZ=            -16.7793
 XXYZ=              0.7259 YYXZ=             -0.5444 ZZXY=             -0.1946
 N-N= 7.552706857262D+01 E-N=-4.249542961559D+02  KE= 1.178412865307D+02
  Exact polarizability:   0.000   0.000   0.000   0.000   0.000   0.000
 Approx polarizability:  48.321  -2.942  43.852   1.188   1.201  45.682
                          Isotropic Fermi Contact Couplings
        Atom                 a.u.       MegaHertz       Gauss      10(-4) cm-1
     1  C(13)              0.07259      81.60042      29.11706      27.21897
     2  C(13)             -0.02845     -31.98683     -11.41370     -10.66966
     3  C(13)              0.07362      82.76598      29.53296      27.60776
     4  H(1)              -0.01360     -60.77711     -21.68678     -20.27306
     5  H(1)              -0.01389     -62.06801     -22.14741     -20.70366
     6  H(1)               0.00196       8.74474       3.12034       2.91693
     7  H(1)               0.01478      66.05585      23.57037      22.03386
     8  H(1)              -0.00088      -3.94927      -1.40920      -1.31734
     9  H(1)               0.00294      13.13169       4.68571       4.38026
    10  H(1)              -0.00073      -3.25271      -1.16065      -1.08499
 --------------------------------------------------------
       Center         ----  Spin Dipole Couplings  ----
                      3XX-RR        3YY-RR        3ZZ-RR
 --------------------------------------------------------
     1   Atom       -0.033666      0.387179     -0.353513
     2   Atom        0.015228      0.000570     -0.015798
     3   Atom        0.060381     -0.023376     -0.037005
     4   Atom       -0.041453      0.018298      0.023155
     5   Atom       -0.006821     -0.033150      0.039971
     6   Atom        0.001802      0.004074     -0.005876
     7   Atom        0.003763     -0.000181     -0.003582
     8   Atom        0.007629     -0.005241     -0.002388
     9   Atom        0.008495     -0.002386     -0.006109
    10   Atom        0.006552     -0.002347     -0.004205
 --------------------------------------------------------
                        XY            XZ            YZ
 --------------------------------------------------------
     1   Atom        0.727444     -0.347129     -0.460379
     2   Atom       -0.004284     -0.004120     -0.006476
     3   Atom        0.036055     -0.000919     -0.000292
     4   Atom        0.007732     -0.041398      0.048631
     5   Atom        0.025696      0.053298     -0.024772
     6   Atom       -0.011206     -0.006362      0.005641
     7   Atom       -0.010945      0.007441     -0.007088
     8   Atom        0.004019     -0.007854     -0.005745
     9   Atom       -0.003753      0.000357     -0.000594
    10   Atom        0.005877      0.006975      0.005550
 --------------------------------------------------------


 ---------------------------------------------------------------------------------
              Anisotropic Spin Dipole Couplings in Principal Axis System
 ---------------------------------------------------------------------------------

       Atom             a.u.   MegaHertz   Gauss  10(-4) cm-1        Axes

              Baa    -0.5806   -77.911   -27.801   -25.988  0.8189 -0.5635  0.1094
     1 C(13)  Bbb    -0.5739   -77.009   -27.479   -25.687  0.1196  0.3538  0.9276
              Bcc     1.1545   154.920    55.279    51.676  0.5614  0.7465 -0.3571
 
              Baa    -0.0189    -2.534    -0.904    -0.845  0.1549  0.3426  0.9266
     2 C(13)  Bbb     0.0023     0.311     0.111     0.104  0.1849  0.9113 -0.3679
              Bcc     0.0166     2.223     0.793     0.742  0.9705 -0.2284 -0.0778
 
              Baa    -0.0370    -4.968    -1.773    -1.657  0.0683 -0.1595  0.9848
     3 C(13)  Bbb    -0.0367    -4.931    -1.760    -1.645 -0.3413  0.9239  0.1733
              Bcc     0.0738     9.899     3.532     3.302  0.9375  0.3480 -0.0087
 
              Baa    -0.0721   -38.487   -13.733   -12.838  0.7838 -0.3448  0.5165
     4 H(1)   Bbb    -0.0031    -1.633    -0.583    -0.545  0.5779  0.7094 -0.4034
              Bcc     0.0752    40.119    14.316    13.382 -0.2273  0.6147  0.7553
 
              Baa    -0.0728   -38.864   -13.868   -12.964 -0.6086  0.6646  0.4335
     5 H(1)   Bbb    -0.0024    -1.280    -0.457    -0.427  0.5920  0.7441 -0.3096
              Bcc     0.0752    40.144    14.324    13.391  0.5283 -0.0682  0.8463
 
              Baa    -0.0096    -5.111    -1.824    -1.705  0.6108  0.1831  0.7703
     6 H(1)   Bbb    -0.0077    -4.113    -1.468    -1.372  0.4674  0.7019 -0.5375
              Bcc     0.0173     9.224     3.292     3.077 -0.6391  0.6884  0.3432
 
              Baa    -0.0096    -5.147    -1.837    -1.717  0.4219  0.8030  0.4209
     7 H(1)   Bbb    -0.0082    -4.365    -1.558    -1.456 -0.5939 -0.1059  0.7975
              Bcc     0.0178     9.512     3.394     3.173  0.6850 -0.5864  0.4322
 
              Baa    -0.0100    -5.325    -1.900    -1.776  0.1444  0.7114  0.6878
     8 H(1)   Bbb    -0.0041    -2.164    -0.772    -0.722 -0.5714  0.6274 -0.5291
              Bcc     0.0140     7.489     2.672     2.498  0.8079  0.3166 -0.4971
 
              Baa    -0.0062    -3.311    -1.182    -1.105  0.0202  0.1729  0.9847
     9 H(1)   Bbb    -0.0035    -1.854    -0.662    -0.618  0.2994  0.9387 -0.1710
              Bcc     0.0097     5.166     1.843     1.723  0.9539 -0.2983  0.0328
 
              Baa    -0.0092    -4.893    -1.746    -1.632 -0.1712 -0.5287  0.8314
    10 H(1)   Bbb    -0.0046    -2.443    -0.872    -0.815 -0.5967  0.7271  0.3396
              Bcc     0.0137     7.336     2.618     2.447  0.7840  0.4380  0.4399
 

 ---------------------------------------------------------------------------------

 No NMR shielding tensors so no spin-rotation constants.
 Leave Link  601 at Sat Jun 26 10:41:53 2021, MaxMem=  3355443200 cpu:         1.6
 (Enter /Local/ce_dana/g09/l701.exe)
 Compute integral second derivatives.
 ... and contract with generalized density number  0.
 Leave Link  701 at Sat Jun 26 10:41:54 2021, MaxMem=  3355443200 cpu:         3.2
 (Enter /Local/ce_dana/g09/l702.exe)
 L702 exits ... SP integral derivatives will be done elsewhere.
 Leave Link  702 at Sat Jun 26 10:41:54 2021, MaxMem=  3355443200 cpu:         0.0
 (Enter /Local/ce_dana/g09/l703.exe)
 Compute integral second derivatives, UseDBF=F ICtDFT=           0.
 Integral derivatives from FoFJK, PRISM(SPDF).
 Calling FoFJK, ICntrl=    100147 FMM=F ISym2X=0 I1Cent= 0 IOpClX= 1 NMat=1 NMatS=1 NMatT=0.
 FoFJK:  IHMeth= 1 ICntrl=  100147 DoSepK=F KAlg= 0 I1Cent=   0 FoldK=F
 IRaf=         0 NMat=   1 IRICut=       1 DoRegI=T DoRafI=F ISym2E= 0.
 FoFCou: FMM=F IPFlag=           0 FMFlag=      100000 FMFlg1=         800
         NFxFlg=           0 DoJE=F BraDBF=F KetDBF=F FulRan=T
         wScrn=  0.000000 ICntrl=  100147 IOpCl=  1 I1Cent=           0 NGrid=           0
         NMat0=    1 NMatS0=      1 NMatT0=    0 NMatD0=    1 NMtDS0=    0 NMtDT0=    0
 Symmetry not used in FoFCou.
 Leave Link  703 at Sat Jun 26 10:42:05 2021, MaxMem=  3355443200 cpu:       112.7
 (Enter /Local/ce_dana/g09/l716.exe)
 Dipole        =-8.93278462D-02 2.15243296D-02 9.84815619D-03
 Polarizability= 0.00000000D+00 0.00000000D+00 0.00000000D+00
                 0.00000000D+00 0.00000000D+00 0.00000000D+00
 ***** Axes restored to original set *****
 -------------------------------------------------------------------
 Center     Atomic                   Forces (Hartrees/Bohr)
 Number     Number              X              Y              Z
 -------------------------------------------------------------------
      1        6           0.004837130    0.003557847   -0.002725253
      2        6           0.000616254   -0.007230944   -0.001294153
      3        6          -0.004530048    0.005728132    0.003146051
      4        1          -0.004348367   -0.002297402   -0.003900649
      5        1          -0.000291770   -0.001028706    0.006345061
      6        1           0.002217446    0.002076192    0.002953997
      7        1          -0.001080121    0.002731554   -0.002745502
      8        1           0.001480513   -0.003072378    0.003097344
      9        1           0.003391275    0.001705090   -0.001611722
     10        1          -0.002292312   -0.002169385   -0.003265173
 -------------------------------------------------------------------
 Cartesian Forces:  Max     0.007230944 RMS     0.003340817
 Force constants in Cartesian coordinates: 
                1             2             3             4             5 
      1  0.447142D+00
      2  0.181612D+00  0.153148D+00
      3  0.290684D-01 -0.198305D-01  0.586863D+00
      4 -0.175931D+00 -0.649853D-01  0.454451D-01  0.471564D+00
      5 -0.652916D-01 -0.731242D-01  0.253308D-01  0.460892D-01  0.467459D+00
      6  0.396400D-01  0.225678D-01 -0.106919D+00  0.575181D-01 -0.134929D-01
      7 -0.243901D-01  0.110101D-01  0.171691D-01 -0.101364D+00  0.469479D-01
      8 -0.216785D-03  0.114984D-01  0.300234D-02  0.315936D-01 -0.121222D+00
      9  0.151198D-01 -0.412043D-02 -0.984153D-02  0.183411D-01 -0.357760D-01
     10 -0.183567D+00 -0.818237D-01 -0.112883D+00 -0.121579D-01 -0.744877D-02
     11 -0.850177D-01 -0.543242D-01 -0.543262D-01 -0.526920D-02 -0.289466D-02
     12 -0.115377D+00 -0.521187D-01 -0.152713D+00  0.993125D-02  0.399901D-02
     13 -0.495073D-01 -0.205610D-01  0.165052D-01  0.315607D-02 -0.481767D-02
     14 -0.208706D-01 -0.252592D-01  0.444960D-01 -0.110405D-02  0.265886D-02
     15  0.196458D-01  0.409480D-01 -0.316342D+00 -0.399201D-02  0.125833D-02
     16 -0.190266D-01 -0.125270D-01 -0.196790D-01 -0.113445D+00 -0.605094D-01
     17 -0.758494D-02 -0.556389D-02 -0.911375D-02 -0.603129D-01 -0.102756D+00
     18  0.851813D-02  0.664523D-02  0.101537D-01 -0.906449D-01 -0.775302D-01
     19  0.313947D-02 -0.160582D-01  0.228644D-01 -0.592551D-01  0.309147D-01
     20 -0.753988D-03 -0.583397D-02  0.105773D-01  0.355572D-01 -0.150761D+00
     21  0.364037D-02  0.856380D-02 -0.126242D-01 -0.471258D-01  0.107773D+00
     22  0.145586D-02 -0.259801D-03 -0.137934D-02 -0.720145D-02  0.127399D-01
     23 -0.181420D-02  0.835088D-03  0.234804D-03  0.771114D-02 -0.158188D-01
     24 -0.641890D-03 -0.496961D-03  0.119106D-02  0.526995D-02 -0.105866D-01
     25 -0.129595D-02  0.317424D-02  0.244878D-02 -0.147742D-01 -0.817384D-02
     26  0.910678D-03 -0.179836D-02 -0.169016D-02  0.216064D-01  0.858018D-02
     27  0.164163D-02 -0.242492D-02 -0.343640D-03  0.109776D-01  0.576136D-02
     28  0.198003D-02  0.418561D-03  0.440164D-03  0.940733D-02  0.954948D-02
     29 -0.973008D-03  0.422095D-03  0.131934D-02 -0.108860D-01 -0.121212D-01
     30 -0.125520D-02  0.266624D-03  0.575685D-03 -0.572043D-02 -0.673665D-02
                6             7             8             9            10 
      6  0.523924D+00
      7  0.194524D-01  0.508797D+00
      8 -0.278179D-01  0.405204D-01  0.498350D+00
      9 -0.874086D-01  0.264123D-01 -0.303132D-01  0.524064D+00
     10 -0.176776D-01  0.105965D-02 -0.567063D-03 -0.688565D-03  0.192294D+00
     11 -0.674694D-02 -0.654194D-03  0.205803D-03  0.189780D-03  0.904204D-01
     12  0.957267D-02 -0.185738D-03  0.549083D-03  0.727898D-03  0.123255D+00
     13  0.230428D-01 -0.984106D-03 -0.831452D-03  0.483916D-03  0.439478D-02
     14  0.794546D-02 -0.116337D-03 -0.189191D-02  0.630193D-03  0.287761D-03
     15 -0.453087D-02  0.261581D-03  0.505146D-03 -0.268934D-03  0.354060D-02
     16 -0.898297D-01  0.100074D-01  0.104851D-01  0.152054D-01 -0.299254D-02
     17 -0.758906D-01 -0.104794D-01 -0.125631D-01 -0.184054D-01 -0.166105D-02
     18 -0.170221D+00 -0.679436D-02 -0.738404D-02 -0.108171D-01  0.287397D-02
     19 -0.419013D-01 -0.588542D-02  0.159948D-01 -0.133388D-01  0.100066D-02
     20  0.106819D+00  0.983001D-02 -0.191032D-01  0.153053D-01 -0.192259D-03
     21 -0.158125D+00  0.511647D-02 -0.112797D-01  0.897940D-02  0.610380D-03
     22 -0.119749D-01 -0.703150D-01  0.477750D-01 -0.493362D-01 -0.106252D-03
     23  0.142394D-01  0.481185D-01 -0.158523D+00  0.111676D+00  0.817613D-04
     24  0.103020D-01 -0.502349D-01  0.112412D+00 -0.161593D+00  0.103782D-04
     25  0.635912D-02 -0.206510D+00 -0.858793D-01  0.777214D-01  0.215428D-03
     26 -0.102128D-01 -0.869381D-01 -0.944633D-01  0.433452D-01  0.270823D-03
     27 -0.586016D-02  0.777760D-01  0.430004D-01 -0.873890D-01  0.274605D-03
     28  0.153710D-01 -0.110415D+00 -0.588744D-01 -0.899205D-01 -0.141064D-03
     29 -0.174107D-01 -0.582389D-01 -0.102288D+00 -0.825316D-01  0.632101D-03
     30 -0.107337D-01 -0.889729D-01 -0.826742D-01 -0.176453D+00  0.683671D-03
               11            12            13            14            15 
     11  0.517553D-01
     12  0.567892D-01  0.152575D+00
     13  0.296150D-02 -0.192804D-01  0.455033D-01
     14  0.418529D-02 -0.994045D-02  0.222705D-01  0.213076D-01
     15  0.387669D-02 -0.108230D-01 -0.218501D-01 -0.458738D-01  0.330290D+00
     16 -0.280920D-02  0.284947D-02  0.121296D-02  0.943274D-03  0.471057D-03
     17  0.188352D-03  0.114216D-02  0.627147D-03  0.178778D-03 -0.140302D-04
     18  0.759037D-03  0.990926D-04 -0.566672D-03  0.221535D-03  0.125680D-02
     19  0.440141D-03 -0.765663D-03 -0.302342D-02 -0.165117D-02  0.162325D-02
     20  0.620977D-03 -0.195194D-03 -0.669124D-03 -0.165517D-02 -0.304065D-03
     21 -0.700179D-03  0.846866D-03  0.173724D-02  0.218962D-02  0.281955D-03
     22  0.972676D-04  0.262755D-04 -0.206416D-03  0.289365D-03  0.218673D-03
     23  0.151652D-04 -0.778588D-04  0.492743D-03 -0.615444D-04 -0.244337D-03
     24  0.337900D-04 -0.863106D-04 -0.144436D-03 -0.788172D-04 -0.491542D-04
     25 -0.113612D-03 -0.130301D-03 -0.466627D-03 -0.567386D-04  0.185556D-03
     26  0.205671D-04 -0.117323D-04  0.496350D-03  0.368584D-03 -0.212859D-03
     27  0.107142D-03 -0.930857D-04 -0.105833D-04  0.286980D-03  0.609161D-04
     28 -0.554431D-04 -0.323105D-03 -0.792464D-04  0.799769D-05 -0.104409D-03
     29  0.227371D-03 -0.135593D-03  0.309781D-04  0.168649D-03  0.609409D-04
     30  0.176612D-04 -0.105968D-03  0.830871D-04  0.123239D-03  0.123745D-03
               16            17            18            19            20 
     16  0.129062D+00
     17  0.655023D-01  0.110613D+00
     18  0.949590D-01  0.886263D-01  0.184452D+00
     19 -0.466367D-02  0.113918D-01 -0.112773D-01  0.691694D-01
     20 -0.302753D-02  0.110640D-01 -0.100478D-01 -0.425926D-01  0.166493D+00
     21 -0.535700D-02  0.146116D-01 -0.159945D-01  0.404918D-01 -0.119686D+00
     22  0.760431D-03 -0.808018D-03  0.262429D-03 -0.169322D-02  0.287526D-02
     23 -0.715839D-03  0.432556D-03  0.130477D-03  0.296916D-02 -0.247277D-02
     24 -0.466521D-03  0.606513D-03  0.103797D-02  0.256910D-02 -0.270443D-02
     25  0.885348D-03  0.104151D-03  0.123169D-03  0.375272D-03 -0.986440D-04
     26 -0.752911D-03  0.954828D-03  0.447288D-03 -0.805448D-03  0.114179D-02
     27 -0.326338D-03  0.371145D-03 -0.110746D-03 -0.633008D-03 -0.629905D-04
     28 -0.180077D-02  0.322079D-02  0.254659D-02  0.836004D-03 -0.928296D-03
     29  0.341110D-02 -0.254942D-02 -0.186782D-02 -0.603264D-03  0.506001D-03
     30  0.217350D-02 -0.193398D-02  0.143987D-03  0.367566D-03  0.298196D-03
               21            22            23            24            25 
     21  0.175263D+00
     22  0.197930D-02  0.737301D-01
     23 -0.259415D-02 -0.565218D-01  0.173588D+00
     24 -0.162844D-03  0.532562D-01 -0.121913D+00  0.173682D+00
     25 -0.740663D-03  0.897566D-02  0.409671D-02 -0.380480D-02  0.225214D+00
     26  0.633626D-03 -0.173854D-01 -0.938241D-02  0.705971D-02  0.935605D-01
     27  0.604396D-03  0.177905D-01  0.895292D-02 -0.864056D-02 -0.884200D-01
     28 -0.352128D-03 -0.539965D-02 -0.441812D-02 -0.581303D-02 -0.126180D-01
     29  0.488062D-03  0.111983D-01  0.113878D-01  0.156672D-01 -0.661353D-02
     30  0.930899D-03 -0.108429D-01 -0.104048D-01 -0.156811D-01  0.625778D-02
               26            27            28            29            30 
     26  0.101627D+00
     27 -0.459369D-01  0.912985D-01
     28 -0.109629D-01 -0.190704D-01  0.118231D+00
     29 -0.704916D-02 -0.100552D-01  0.620423D-01  0.111296D+00
     30  0.657853D-02  0.104733D-01  0.972258D-01  0.944653D-01  0.190726D+00
 FormGI is forming the generalized inverse of G from B-inverse, IUseBI=4.
 Force constants in internal coordinates: 
                1             2             3             4             5 
      1  0.305943D+00
      2  0.393262D-02  0.336572D+00
      3  0.249428D-02  0.114270D-02  0.339041D+00
      4  0.194477D-01  0.634706D-03  0.322522D-03  0.265429D+00
      5  0.630424D-02 -0.690293D-03  0.941055D-03  0.666694D-02  0.315048D+00
      6  0.111025D-01  0.604763D-03 -0.343157D-03  0.746005D-02  0.372800D-02
      7 -0.750082D-04  0.418492D-04  0.228357D-03  0.588834D-02  0.626031D-03
      8  0.634972D-03 -0.409811D-04  0.505727D-04  0.515210D-02  0.676453D-03
      9  0.216279D-03  0.387368D-03 -0.370042D-04  0.607423D-02 -0.103425D-02
     10  0.730806D-02  0.474772D-02 -0.103232D-01 -0.136719D-02  0.352744D-02
     11  0.100295D-01 -0.110655D-01  0.351161D-02  0.168919D-02 -0.269705D-02
     12 -0.171308D-01  0.644324D-02  0.694238D-02 -0.298984D-03 -0.818996D-03
     13  0.109656D-01 -0.181223D-02  0.406580D-03  0.855141D-02 -0.446634D-02
     14  0.797827D-02  0.291273D-02 -0.108482D-02 -0.116041D-01  0.246477D-02
     15  0.872616D-02 -0.220950D-03  0.181401D-02 -0.118614D-01 -0.684289D-03
     16 -0.128175D-01 -0.956112D-03  0.246502D-03  0.956102D-02  0.205435D-02
     17 -0.149735D-01  0.526068D-03 -0.147351D-02  0.105222D-01 -0.174016D-02
     18 -0.106425D-02 -0.412289D-03  0.659581D-04 -0.569615D-02  0.277898D-02
     19 -0.320053D-02 -0.180794D-03  0.269669D-03  0.160621D-01 -0.123721D-02
     20  0.431433D-02  0.164681D-03  0.500773D-03  0.139360D-01 -0.735797D-03
     21 -0.260385D-02  0.811608D-03 -0.304689D-03  0.160167D-01  0.370163D-02
     22  0.221148D-04 -0.604088D-04 -0.364658D-03 -0.158821D-01  0.262876D-03
     23  0.174962D-02 -0.282970D-03 -0.766405D-04 -0.167863D-01 -0.937559D-03
     24 -0.212976D-03 -0.496081D-03 -0.519251D-04 -0.159287D-01 -0.114432D-02
     25 -0.770988D-03  0.814508D-03  0.576588D-03 -0.205774D-03 -0.272902D-02
     26 -0.368810D-02  0.464668D-03  0.373648D-03  0.961947D-02 -0.138158D-02
     27  0.474326D-02  0.152306D-02  0.885383D-03 -0.109358D-01  0.301340D-02
     28 -0.918764D-03 -0.744398D-03 -0.103140D-02 -0.357265D-03 -0.275563D-02
     29 -0.383588D-02 -0.109424D-02 -0.123434D-02  0.946798D-02 -0.140819D-02
     30  0.459549D-02 -0.358436D-04 -0.722602D-03 -0.110873D-01  0.298679D-02
     31 -0.511118D-03  0.103137D-02 -0.898899D-03  0.328224D-04  0.270496D-02
     32  0.267718D-03  0.944579D-03 -0.844066D-03  0.322378D-04  0.171798D-02
     33  0.114029D-02  0.968510D-03 -0.778728D-03 -0.120575D-03  0.224714D-02
     34 -0.893003D-02 -0.763238D-03  0.380999D-04  0.197062D-02  0.109721D-02
     35 -0.815119D-02 -0.850032D-03  0.929325D-04  0.197003D-02  0.110233D-03
     36 -0.727862D-02 -0.826102D-03  0.158271D-03  0.181722D-02  0.639391D-03
     37  0.705817D-02 -0.581652D-04  0.620987D-03 -0.194667D-02 -0.232591D-02
     38  0.783700D-02 -0.144959D-03  0.675819D-03 -0.194726D-02 -0.331289D-02
     39  0.870957D-02 -0.121029D-03  0.741158D-03 -0.210007D-02 -0.278373D-02
                6             7             8             9            10 
      6  0.305223D+00
      7 -0.843836D-03  0.319985D+00
      8  0.638647D-03  0.294000D-02  0.319088D+00
      9  0.598638D-03  0.311833D-02  0.294165D-02  0.319517D+00
     10 -0.147810D-02 -0.214269D-03 -0.280567D-03  0.848913D-03  0.756780D-01
     11  0.254954D-02  0.541935D-03  0.290328D-03 -0.305581D-03 -0.407308D-01
     12 -0.110177D-02 -0.295106D-03 -0.191775D-04 -0.527376D-03 -0.345521D-01
     13 -0.523083D-02 -0.238462D-02  0.630877D-02 -0.253873D-02 -0.468069D-02
     14 -0.312353D-03  0.639773D-03 -0.183333D-02 -0.250077D-03  0.854477D-02
     15  0.262430D-02 -0.346123D-03 -0.158114D-02  0.604479D-03 -0.385365D-02
     16 -0.183321D-02 -0.109755D-04 -0.189710D-02  0.293326D-02 -0.305642D-02
     17  0.267067D-02  0.289681D-02 -0.212239D-02  0.173356D-04  0.415626D-02
     18  0.264035D-02 -0.656357D-03  0.781594D-03 -0.642139D-03 -0.980788D-03
     19  0.400638D-02  0.135695D-04 -0.545543D-02 -0.560800D-02  0.267324D-03
     20 -0.983261D-03 -0.536918D-02  0.957359D-04 -0.549524D-02 -0.433544D-03
     21 -0.131117D-02 -0.551818D-02 -0.551067D-02  0.353315D-03  0.276361D-03
     22 -0.116226D-02  0.550565D-02  0.557556D-02  0.233415D-03  0.188909D-03
     23 -0.102050D-02  0.578452D-02  0.271616D-03  0.568190D-02 -0.222642D-03
     24  0.376720D-03  0.194188D-03  0.561882D-02  0.545511D-02 -0.813488D-04
     25  0.339220D-02  0.108355D-02 -0.191020D-03 -0.877694D-03 -0.351525D-03
     26 -0.294269D-02 -0.145226D-03  0.447701D-03  0.949274D-03 -0.125376D-02
     27  0.160939D-02 -0.772248D-03 -0.591199D-03  0.379626D-03  0.254884D-03
     28  0.373017D-02  0.853993D-03 -0.114689D-03 -0.959107D-03 -0.624246D-03
     29 -0.260472D-02 -0.374782D-03  0.524032D-03  0.867861D-03 -0.152648D-02
     30  0.194737D-02 -0.100180D-02 -0.514867D-03  0.298213D-03 -0.178371D-04
     31 -0.245445D-02 -0.216082D-03 -0.346626D-02  0.393784D-02  0.364850D-02
     32 -0.190480D-02  0.315185D-02 -0.391223D-05 -0.319230D-02  0.377537D-02
     33 -0.295672D-02 -0.384968D-02  0.348024D-02  0.262656D-03  0.356789D-02
     34  0.295972D-02  0.625668D-03 -0.407651D-02  0.384573D-02 -0.187168D-02
     35  0.350938D-02  0.399360D-02 -0.614161D-03 -0.328441D-02 -0.174480D-02
     36  0.245746D-02 -0.300793D-02  0.286999D-02  0.170547D-03 -0.195229D-02
     37 -0.629609D-03 -0.146255D-03 -0.286911D-02  0.305975D-02 -0.134209D-02
     38 -0.799504D-04  0.322168D-02  0.593237D-03 -0.407039D-02 -0.121521D-02
     39 -0.113187D-02 -0.377985D-02  0.407739D-02 -0.615439D-03 -0.142270D-02
               11            12            13            14            15 
     11  0.755031D-01
     12 -0.343457D-01  0.681572D-01
     13  0.318902D-02  0.136913D-02  0.113680D+00
     14 -0.646825D-02 -0.203687D-02 -0.380318D-01  0.494504D-01
     15  0.523579D-02 -0.134820D-02 -0.333217D-01 -0.132460D-02  0.450679D-01
     16  0.219611D-02  0.900011D-03 -0.362711D-01 -0.221899D-01  0.211961D-01
     17 -0.478880D-02  0.682222D-03 -0.364925D-01  0.225704D-01 -0.220405D-01
     18  0.515939D-03  0.429750D-03  0.251486D-01 -0.934458D-02 -0.840154D-02
     19 -0.198198D-03 -0.226774D-04 -0.597783D-02  0.448689D-02 -0.429275D-02
     20  0.120203D-02 -0.778717D-03  0.152905D-01 -0.313893D-02 -0.236338D-02
     21 -0.105742D-03 -0.165753D-03 -0.702723D-02 -0.384655D-02  0.449287D-02
     22 -0.545121D-03  0.329927D-03 -0.358766D-02  0.000000D+00  0.240514D-02
     23 -0.328507D-04  0.242577D-03  0.436489D-02  0.807062D-04  0.174033D-03
     24 -0.373232D-03  0.450455D-03 -0.323667D-02  0.256096D-02 -0.284740D-03
     25  0.596310D-03  0.942728D-04 -0.207394D-03  0.698070D-02 -0.680448D-02
     26  0.874744D-03  0.712401D-03  0.484447D-02 -0.118720D-01 -0.387826D-02
     27  0.813347D-03 -0.734575D-03 -0.618576D-02  0.467343D-02  0.115133D-01
     28  0.339386D-03  0.522139D-04  0.647249D-03  0.682624D-02 -0.694424D-02
     29  0.617821D-03  0.670342D-03  0.569912D-02 -0.120264D-01 -0.401802D-02
     30  0.556424D-03 -0.776634D-03 -0.533112D-02  0.451897D-02  0.113736D-01
     31 -0.352145D-02 -0.121540D-03 -0.263056D-02  0.104271D-01 -0.909455D-02
     32 -0.353752D-02 -0.241361D-03 -0.917043D-03  0.113227D-01 -0.105064D-01
     33 -0.327804D-02 -0.302142D-03  0.509648D-03  0.990324D-02 -0.945078D-02
     34  0.991568D-03  0.890126D-03 -0.560726D-02 -0.105415D-01  0.505145D-04
     35  0.975493D-03  0.770305D-03 -0.389374D-02 -0.964592D-02 -0.136132D-02
     36  0.123498D-02  0.709524D-03 -0.246705D-02 -0.110654D-01 -0.305710D-03
     37  0.179994D-02 -0.453796D-03  0.323932D-02  0.453634D-05  0.106914D-01
     38  0.178386D-02 -0.573617D-03  0.495284D-02  0.900135D-03  0.927957D-02
     39  0.204335D-02 -0.634398D-03  0.637953D-02 -0.519327D-03  0.103352D-01
               16            17            18            19            20 
     16  0.557499D-01
     17 -0.338878D-02  0.550110D-01
     18 -0.133095D-01 -0.138705D-01  0.195079D-01
     19 -0.361530D-02  0.116465D-01 -0.190593D-02  0.102452D+00
     20 -0.682749D-02 -0.700497D-02  0.324751D-02 -0.199252D-01  0.999352D-01
     21  0.119994D-01 -0.332474D-02 -0.195291D-02 -0.197811D-01 -0.195636D-01
     22  0.329469D-02 -0.156074D-02 -0.373463D-03 -0.396751D-01 -0.388375D-01
     23 -0.313022D-02 -0.308370D-02  0.135879D-02 -0.398197D-01  0.134874D-01
     24 -0.177796D-02  0.326930D-02 -0.350418D-03  0.132951D-01 -0.387359D-01
     25 -0.139018D-01  0.144243D-01 -0.426909D-03  0.451814D-02  0.220024D-04
     26  0.162707D-01  0.100028D-02 -0.688532D-02 -0.107200D-02 -0.354417D-03
     27 -0.321335D-03 -0.156145D-01  0.642966D-02 -0.329133D-02  0.381236D-03
     28 -0.142849D-01  0.139644D-01 -0.186264D-03  0.415455D-02  0.171339D-03
     29  0.158877D-01  0.540403D-03 -0.664468D-02 -0.143560D-02 -0.205080D-03
     30 -0.704369D-03 -0.160743D-01  0.667031D-02 -0.365493D-02  0.530573D-03
     31 -0.293788D-02  0.479003D-02 -0.543440D-03 -0.106914D-03 -0.481641D-02
     32 -0.576260D-02  0.590761D-02 -0.113816D-03  0.487190D-02 -0.267132D-03
     33 -0.456980D-02  0.315388D-02  0.307944D-03 -0.478925D-02  0.442231D-02
     34  0.952928D-02  0.353189D-02  0.393949D-02  0.944274D-03 -0.632314D-02
     35  0.670456D-02  0.464947D-02  0.436911D-02  0.592309D-02 -0.177386D-02
     36  0.789735D-02  0.189574D-02  0.479087D-02 -0.373806D-02  0.291558D-02
     37 -0.211199D-02 -0.780295D-02 -0.469341D-02 -0.115590D-02 -0.283037D-02
     38 -0.493671D-02 -0.668538D-02 -0.426379D-02  0.382292D-02  0.171892D-02
     39 -0.374391D-02 -0.943911D-02 -0.384203D-02 -0.583823D-02  0.640835D-02
               21            22            23            24            25 
     21  0.102367D+00
     22  0.132253D-01  0.506110D-01
     23 -0.398497D-01  0.932270D-02  0.511419D-01
     24 -0.397663D-01  0.907855D-02  0.933903D-02  0.504931D-01
     25 -0.442771D-02 -0.151780D-02 -0.756295D-05  0.140224D-02  0.101322D-01
     26  0.331642D-02  0.222051D-03 -0.920693D-03 -0.129235D-02 -0.287880D-02
     27  0.134788D-02  0.117531D-02  0.874195D-03 -0.400023D-03 -0.332950D-02
     28 -0.445215D-02 -0.134053D-02  0.732943D-04  0.139556D-02  0.746092D-02
     29  0.329199D-02  0.399325D-03 -0.839836D-03 -0.129903D-02 -0.555005D-02
     30  0.132345D-02  0.135259D-02  0.955052D-03 -0.406701D-03 -0.600074D-02
     31  0.489959D-02 -0.560418D-02  0.576872D-02 -0.110902D-03 -0.137599D-02
     32 -0.470737D-02  0.581556D-02 -0.225891D-04 -0.569955D-02 -0.260517D-03
     33  0.207812D-03  0.197463D-03 -0.577058D-02  0.572933D-02 -0.142277D-02
     34  0.583688D-02 -0.555860D-02  0.495431D-02  0.154312D-03  0.884971D-04
     35 -0.377009D-02  0.586114D-02 -0.836999D-03 -0.543434D-02  0.120397D-02
     36  0.114510D-02  0.243043D-03 -0.658499D-02  0.599454D-02  0.417255D-04
     37  0.364583D-02 -0.600512D-02  0.664072D-02 -0.253882D-03  0.135735D-03
     38 -0.596114D-02  0.541462D-02  0.849404D-03 -0.584253D-02  0.125121D-02
     39 -0.104595D-02 -0.203480D-03 -0.489859D-02  0.558635D-02  0.889634D-04
               26            27            28            29            30 
     26  0.128451D-01
     27 -0.464078D-02  0.125856D-01
     28 -0.555722D-02 -0.588747D-02  0.928570D-02
     29  0.101667D-01 -0.719876D-02 -0.373244D-02  0.119843D-01
     30 -0.731920D-02  0.100276D-01 -0.406269D-02 -0.538115D-02  0.119657D-01
     31  0.741976D-03  0.807905D-03 -0.141750D-02  0.700475D-03  0.766403D-03
     32  0.691267D-04  0.349255D-03 -0.220987D-03  0.108656D-03  0.388784D-03
     33  0.409350D-03  0.995279D-03 -0.130846D-02  0.523657D-03  0.110959D-02
     34  0.612108D-03 -0.690699D-03 -0.633243D-04  0.460287D-03 -0.842520D-03
     35 -0.607415D-04 -0.114935D-02  0.113318D-02 -0.131532D-03 -0.122014D-02
     36  0.279482D-03 -0.503325D-03  0.457130D-04  0.283469D-03 -0.499337D-03
     37 -0.308731D-03  0.255260D-03  0.146701D-03 -0.297765D-03  0.266226D-03
     38 -0.981580D-03 -0.203390D-03  0.134321D-02 -0.889583D-03 -0.111393D-03
     39 -0.641357D-03  0.442634D-03  0.255738D-03 -0.474582D-03  0.609409D-03
               31            32            33            34            35 
     31  0.137586D-01
     32  0.338427D-02  0.138046D-01
     33  0.329601D-02  0.330746D-02  0.136163D-01
     34  0.428576D-02 -0.633771D-02 -0.647147D-02  0.147373D-01
     35 -0.608858D-02  0.408262D-02 -0.646001D-02  0.411387D-02  0.142851D-01
     36 -0.617685D-02 -0.641452D-02  0.384882D-02  0.398012D-02  0.374245D-02
     37  0.389732D-02 -0.635433D-02 -0.613425D-02  0.320738D-02 -0.704427D-02
     38 -0.647702D-02  0.406601D-02 -0.612280D-02 -0.741609D-02  0.312694D-02
     39 -0.656528D-02 -0.643113D-02  0.418604D-02 -0.754985D-02 -0.741569D-02
               36            37            38            39 
     36  0.140058D-01
     37 -0.682419D-02  0.140355D-01
     38 -0.706187D-02  0.378385D-02  0.143269D-01
     39  0.320148D-02  0.400392D-02  0.413808D-02  0.147552D-01
 Leave Link  716 at Sat Jun 26 10:42:05 2021, MaxMem=  3355443200 cpu:         0.1
 (Enter /Local/ce_dana/g09/l103.exe)

 GradGradGradGradGradGradGradGradGradGradGradGradGradGradGradGradGradGrad
 Berny optimization.
 Red2BG is reusing G-inverse.
 Internal  Forces:  Max     0.006428889 RMS     0.002175088
 Search for a saddle point.
 Step number   1 out of a maximum of  100
 All quantities printed in internal units (Hartrees-Bohrs-Radians)
 Swapping is turned off.
 Second derivative matrix not updated -- analytic derivatives used.
 ITU=  0
     Eigenvalues ---   -0.00016   0.00266   0.00693   0.03865   0.04344
     Eigenvalues ---    0.04539   0.04560   0.07614   0.09957   0.10048
     Eigenvalues ---    0.11984   0.12476   0.13373   0.16057   0.18169
     Eigenvalues ---    0.27465   0.29925   0.31116   0.31743   0.31776
     Eigenvalues ---    0.32639   0.33218   0.33769   0.34098
 Eigenvectors required to have negative eigenvalues:
                          D4        D6        D5        D1        D3
   1                   -0.48108  -0.46963  -0.45909  -0.34461  -0.33315
                          D2        D8        D9        D7        A2
   1                   -0.32262   0.02495   0.02260   0.02094   0.01905
 RFO step:  Lambda0=1.426162870D-06 Lambda=-6.00677757D-04.
 Linear search not attempted -- option 19 set.
 Iteration  1 RMS(Cart)=  0.01593855 RMS(Int)=  0.00035699
 Iteration  2 RMS(Cart)=  0.00031943 RMS(Int)=  0.00007802
 Iteration  3 RMS(Cart)=  0.00000013 RMS(Int)=  0.00007802
 ITry= 1 IFail=0 DXMaxC= 6.60D-02 DCOld= 1.00D+10 DXMaxT= 5.00D-02 DXLimC= 3.00D+00 Rises=F
 Variable       Old X    -DE/DX   Delta X   Delta X   Delta X     New X
                                 (Linear)    (Quad)   (Total)
    R1        2.81593   0.00036   0.00000   0.00090   0.00090   2.81683
    R2        2.06738  -0.00627   0.00000  -0.01874  -0.01874   2.04864
    R3        2.06502  -0.00643   0.00000  -0.01932  -0.01932   2.04570
    R4        2.90683   0.00324   0.00000   0.01507   0.01507   2.92191
    R5        2.08192  -0.00424   0.00000  -0.01392  -0.01392   2.06800
    R6        2.08923  -0.00402   0.00000  -0.01283  -0.01283   2.07640
    R7        2.07983  -0.00461   0.00000  -0.01467  -0.01467   2.06516
    R8        2.08042  -0.00412   0.00000  -0.01299  -0.01299   2.06742
    R9        2.08033  -0.00454   0.00000  -0.01426  -0.01426   2.06607
    A1        2.09888   0.00018   0.00000   0.00184   0.00156   2.10043
    A2        2.12218   0.00018   0.00000   0.00273   0.00245   2.12463
    A3        2.05251  -0.00033   0.00000   0.00111   0.00083   2.05334
    A4        1.98112   0.00014   0.00000  -0.00121  -0.00121   1.97991
    A5        1.92015  -0.00009   0.00000   0.00079   0.00079   1.92094
    A6        1.91269   0.00008   0.00000   0.00317   0.00317   1.91586
    A7        1.90430  -0.00006   0.00000  -0.00189  -0.00189   1.90241
    A8        1.88632  -0.00010   0.00000  -0.00340  -0.00340   1.88292
    A9        1.85473   0.00002   0.00000   0.00273   0.00273   1.85745
   A10        1.93929   0.00003   0.00000  -0.00216  -0.00217   1.93712
   A11        1.93684  -0.00006   0.00000  -0.00331  -0.00331   1.93353
   A12        1.93801   0.00009   0.00000  -0.00203  -0.00203   1.93598
   A13        1.88485   0.00006   0.00000   0.00383   0.00383   1.88868
   A14        1.87887  -0.00007   0.00000   0.00238   0.00238   1.88125
   A15        1.88360  -0.00005   0.00000   0.00170   0.00170   1.88530
    D1        1.21385   0.00012   0.00000  -0.01270  -0.01269   1.20116
    D2       -2.92999   0.00008   0.00000  -0.01542  -0.01542  -2.94541
    D3       -0.89679   0.00010   0.00000  -0.00980  -0.00979  -0.90658
    D4       -1.77554  -0.00006   0.00000  -0.05742  -0.05743  -1.83297
    D5        0.36381  -0.00010   0.00000  -0.06015  -0.06016   0.30365
    D6        2.39701  -0.00008   0.00000  -0.05453  -0.05453   2.34248
    D7        1.06797  -0.00009   0.00000  -0.00303  -0.00303   1.06494
    D8       -3.11776  -0.00004   0.00000  -0.00185  -0.00185  -3.11961
    D9       -1.02272  -0.00009   0.00000  -0.00325  -0.00325  -1.02597
   D10       -1.08010  -0.00003   0.00000  -0.00181  -0.00181  -1.08191
   D11        1.01735   0.00002   0.00000  -0.00062  -0.00062   1.01673
   D12        3.11239  -0.00002   0.00000  -0.00202  -0.00202   3.11036
   D13       -3.08981   0.00003   0.00000  -0.00222  -0.00222  -3.09203
   D14       -0.99235   0.00008   0.00000  -0.00104  -0.00104  -0.99339
   D15        1.10268   0.00004   0.00000  -0.00244  -0.00244   1.10025
         Item               Value     Threshold  Converged?
 Maximum Force            0.006429     0.000015     NO 
 RMS     Force            0.002175     0.000010     NO 
 Maximum Displacement     0.066026     0.000060     NO 
 RMS     Displacement     0.015932     0.000040     NO 
 Predicted change in Energy=-3.007524D-04
 Lowest energy point so far.  Saving SCF results.
 GradGradGradGradGradGradGradGradGradGradGradGradGradGradGradGradGradGrad

 Leave Link  103 at Sat Jun 26 10:42:05 2021, MaxMem=  3355443200 cpu:         0.1
 (Enter /Local/ce_dana/g09/l202.exe)
                          Input orientation:                          
 ---------------------------------------------------------------------
 Center     Atomic      Atomic             Coordinates (Angstroms)
 Number     Number       Type             X           Y           Z
 ---------------------------------------------------------------------
      1          6           0        1.365957    0.221242   -0.279390
      2          6           0        0.123480   -0.351023    0.312778
      3          6           0       -0.780721    0.707036    0.986344
      4          1           0        2.146713    0.615506    0.361106
      5          1           0        1.480820    0.348896   -1.348223
      6          1           0       -0.452612   -0.874194   -0.456624
      7          1           0        0.384874   -1.102898    1.070197
      8          1           0       -1.112967    1.455700    0.262880
      9          1           0       -1.666740    0.238176    1.424579
     10          1           0       -0.244419    1.228212    1.783902
 ---------------------------------------------------------------------
                    Distance matrix (angstroms):
                    1          2          3          4          5
     1  C    0.000000
     2  C    1.490604   0.000000
     3  C    2.538957   1.546207   0.000000
     4  H    1.084094   2.242763   2.994857   0.000000
     5  H    1.082540   2.256365   3.270020   1.853726   0.000000
     6  H    2.130396   1.094336   2.165664   3.105541   2.455414
     7  H    2.130084   1.098784   2.154415   2.561211   3.026146
     8  H    2.821880   2.189871   1.092833   3.367653   3.247830
     9  H    3.478656   2.188183   1.094034   3.976905   4.196168
    10  H    2.804367   2.189414   1.093318   2.849082   3.682370
                    6          7          8          9         10
     6  H    0.000000
     7  H    1.756380   0.000000
     8  H    2.526294   3.072737   0.000000
     9  H    2.500080   2.476527   1.771602   0.000000
    10  H    3.079515   2.517828   1.766248   1.769826   0.000000
 Stoichiometry    C3H7(2)
 Framework group  C1[X(C3H7)]
 Deg. of freedom    24
 Full point group                 C1      NOp   1
 RotChk:  IX=0 Diff= 1.66D-02
 Largest Abelian subgroup         C1      NOp   1
 Largest concise Abelian subgroup C1      NOp   1
                         Standard orientation:                         
 ---------------------------------------------------------------------
 Center     Atomic      Atomic             Coordinates (Angstroms)
 Number     Number       Type             X           Y           Z
 ---------------------------------------------------------------------
      1          6           0        1.317670   -0.250862    0.010625
      2          6           0        0.072181    0.565113   -0.058952
[...]
 Alpha virt. eigenvalues --    1.62000   1.63315   1.65779   1.67784   1.69230
 Alpha virt. eigenvalues --    1.71032   1.73420   1.75562   1.77893   1.82436
 Alpha virt. eigenvalues --    1.86722   1.87474   1.93482   2.71366   2.74868
 Alpha virt. eigenvalues --    2.79254   2.84709   2.87195   2.90108   2.95158
 Alpha virt. eigenvalues --    3.01615   3.09491   3.14687   3.15576   3.19193
 Alpha virt. eigenvalues --    3.23564   3.26912   3.27707   3.29785   3.32843
 Alpha virt. eigenvalues --    3.38362   3.40793   3.42416   3.45942   3.50046
 Alpha virt. eigenvalues --    3.53184   3.56140   3.59622   3.61617   3.65675
 Alpha virt. eigenvalues --    3.69717   3.71373   3.71435   3.77580   3.80789
 Alpha virt. eigenvalues --    3.88443   3.91016   3.95883   4.02612   4.03680
 Alpha virt. eigenvalues --    4.08134   4.15250   4.20669   4.21892   4.28341
 Alpha virt. eigenvalues --    4.33262   4.34327   4.35777   4.39357   4.40258
 Alpha virt. eigenvalues --    4.49299   4.50795   4.54430   4.55919   4.56395
 Alpha virt. eigenvalues --    4.62377   4.65565   4.70638   4.71457   4.75071
 Alpha virt. eigenvalues --    4.83339   4.84306   4.90708   4.93951   4.95099
 Alpha virt. eigenvalues --    4.98233   5.08138   5.38030   5.40133   5.64289
 Alpha virt. eigenvalues --    5.83881   5.99007   6.04775   6.06896   6.13618
 Alpha virt. eigenvalues --    6.16749  25.29564  25.44283  25.54745
  Beta  occ. eigenvalues --  -11.22494 -11.21149 -11.20205  -1.03813  -0.88677
  Beta  occ. eigenvalues --   -0.76904  -0.62648  -0.58376  -0.54501  -0.50424
  Beta  occ. eigenvalues --   -0.48835  -0.47391
  Beta virt. eigenvalues --    0.04472   0.05830   0.06117   0.06140   0.08695
  Beta virt. eigenvalues --    0.08929   0.09597   0.10165   0.14153   0.15940
  Beta virt. eigenvalues --    0.17159   0.17924   0.18308   0.19013   0.20126
  Beta virt. eigenvalues --    0.20966   0.21968   0.22712   0.23154   0.24962
  Beta virt. eigenvalues --    0.29720   0.30561   0.31220   0.33233   0.36890
  Beta virt. eigenvalues --    0.38213   0.41198   0.44422   0.45876   0.56026
  Beta virt. eigenvalues --    0.56651   0.57800   0.60553   0.64305   0.68624
  Beta virt. eigenvalues --    0.70531   0.71477   0.72061   0.74722   0.76693
  Beta virt. eigenvalues --    0.78378   0.79517   0.80048   0.80876   0.81587
  Beta virt. eigenvalues --    0.82938   0.84675   0.87049   0.92897   0.95832
  Beta virt. eigenvalues --    0.97681   0.99331   1.05269   1.08227   1.13118
  Beta virt. eigenvalues --    1.16002   1.19776   1.22381   1.28035   1.30628
  Beta virt. eigenvalues --    1.33645   1.35494   1.37060   1.40026   1.42220
  Beta virt. eigenvalues --    1.44414   1.47718   1.50410   1.50961   1.54268
  Beta virt. eigenvalues --    1.60242   1.62794   1.63468   1.66285   1.68212
  Beta virt. eigenvalues --    1.69810   1.71452   1.73786   1.75868   1.78949
  Beta virt. eigenvalues --    1.82704   1.87278   1.87946   1.93715   2.72038
  Beta virt. eigenvalues --    2.75106   2.79767   2.85599   2.87763   2.90387
  Beta virt. eigenvalues --    2.96178   3.02894   3.11942   3.15825   3.19046
  Beta virt. eigenvalues --    3.20663   3.24222   3.27677   3.29999   3.31841
  Beta virt. eigenvalues --    3.34708   3.39547   3.42085   3.43973   3.47210
  Beta virt. eigenvalues --    3.50886   3.54158   3.57890   3.60976   3.64163
  Beta virt. eigenvalues --    3.66233   3.70440   3.71811   3.73357   3.78808
  Beta virt. eigenvalues --    3.82386   3.89567   3.92956   3.97510   4.02661
  Beta virt. eigenvalues --    4.03901   4.08565   4.15529   4.20759   4.22427
  Beta virt. eigenvalues --    4.28778   4.33517   4.34645   4.36063   4.39527
  Beta virt. eigenvalues --    4.40626   4.49753   4.51261   4.54811   4.56429
  Beta virt. eigenvalues --    4.56644   4.62504   4.65704   4.71021   4.71781
  Beta virt. eigenvalues --    4.75584   4.83682   4.84778   4.91089   4.94239
  Beta virt. eigenvalues --    4.95360   4.98448   5.08492   5.38255   5.40531
  Beta virt. eigenvalues --    5.64780   5.84039   5.99412   6.05081   6.06964
  Beta virt. eigenvalues --    6.13747   6.16810  25.30457  25.44682  25.55029
          Condensed to atoms (all electrons):
               1          2          3          4          5          6
     1  C    5.293229   0.197016   0.049196   0.405945   0.422449  -0.047590
     2  C    0.197016   4.632174   0.251970  -0.021859  -0.021563   0.460156
     3  C    0.049196   0.251970   4.730769  -0.000839  -0.000334  -0.032895
     4  H    0.405945  -0.021859  -0.000839   0.580381  -0.030737   0.005856
     5  H    0.422449  -0.021563  -0.000334  -0.030737   0.563353  -0.008522
     6  H   -0.047590   0.460156  -0.032895   0.005856  -0.008522   0.636475
     7  H   -0.052070   0.468454  -0.050282  -0.006733   0.005066  -0.044049
     8  H   -0.004137  -0.029106   0.430809   0.000082  -0.000235  -0.006091
     9  H   -0.003584  -0.016635   0.404326   0.000209  -0.000274  -0.003343
    10  H   -0.011921  -0.031621   0.437226  -0.000676   0.000821   0.004176
               7          8          9         10
     1  C   -0.052070  -0.004137  -0.003584  -0.011921
     2  C    0.468454  -0.029106  -0.016635  -0.031621
     3  C   -0.050282   0.430809   0.404326   0.437226
     4  H   -0.006733   0.000082   0.000209  -0.000676
     5  H    0.005066  -0.000235  -0.000274   0.000821
     6  H   -0.044049  -0.006091  -0.003343   0.004176
     7  H    0.656033   0.004925  -0.001569  -0.007531
     8  H    0.004925   0.624905  -0.033553  -0.037512
     9  H   -0.001569  -0.033553   0.637070  -0.033754
    10  H   -0.007531  -0.037512  -0.033754   0.626277
          Atomic-Atomic Spin Densities.
               1          2          3          4          5          6
     1  C    1.325086  -0.087352  -0.021526   0.021814   0.014944  -0.003226
     2  C   -0.087352  -0.062384   0.007732  -0.017995  -0.004063   0.002672
     3  C   -0.021526   0.007732   0.083908   0.002650  -0.002720  -0.002903
     4  H    0.021814  -0.017995   0.002650  -0.094631   0.005230  -0.000376
     5  H    0.014944  -0.004063  -0.002720   0.005230  -0.097785   0.002140
     6  H   -0.003226   0.002672  -0.002903  -0.000376   0.002140   0.006542
     7  H   -0.020617   0.008131  -0.016241   0.003675  -0.001407   0.002467
     8  H    0.001431   0.000787  -0.000170   0.000072  -0.000564  -0.000002
     9  H    0.002251   0.000674  -0.004636  -0.000328   0.000087   0.000159
    10  H   -0.002343   0.002859   0.001589  -0.000620   0.000291  -0.000194
               7          8          9         10
     1  C   -0.020617   0.001431   0.002251  -0.002343
     2  C    0.008131   0.000787   0.000674   0.002859
     3  C   -0.016241  -0.000170  -0.004636   0.001589
     4  H    0.003675   0.000072  -0.000328  -0.000620
     5  H   -0.001407  -0.000564   0.000087   0.000291
     6  H    0.002467  -0.000002   0.000159  -0.000194
     7  H    0.055100  -0.000483   0.003860  -0.001562
     8  H   -0.000483  -0.006500   0.000099  -0.000265
     9  H    0.003860   0.000099   0.005794  -0.000815
    10  H   -0.001562  -0.000265  -0.000815  -0.005549
 Mulliken charges and spin densities:
               1          2
     1  C   -0.248534   1.230464
     2  C    0.111015  -0.148938
     3  C   -0.219946   0.047682
     4  H    0.068370  -0.080509
     5  H    0.069976  -0.083846
     6  H    0.035827   0.007280
     7  H    0.027757   0.032924
     8  H    0.049913  -0.005595
     9  H    0.051107   0.007146
    10  H    0.054515  -0.006608
 Sum of Mulliken charges =  -0.00000   1.00000
 Mulliken charges and spin densities with hydrogens summed into heavy atoms:
               1          2
     1  C   -0.110188   1.066109
     2  C    0.174599  -0.108734
     3  C   -0.064411   0.042625
 Electronic spatial extent (au):  <R**2>=            213.3801
 Charge=             -0.0000 electrons
 Dipole moment (field-independent basis, Debye):
    X=             -0.1940    Y=              0.0666    Z=              0.0230  Tot=              0.2064
 Quadrupole moment (field-independent basis, Debye-Ang):
   XX=            -22.0658   YY=            -21.5927   ZZ=            -20.5380
   XY=             -0.5904   XZ=              0.3885   YZ=              0.5017
 Traceless Quadrupole moment (field-independent basis, Debye-Ang):
   XX=             -0.6670   YY=             -0.1939   ZZ=              0.8608
   XY=             -0.5904   XZ=              0.3885   YZ=              0.5017
 Octapole moment (field-independent basis, Debye-Ang**2):
  XXX=             -2.0405  YYY=              0.8554  ZZZ=              0.1620  XYY=             -0.7704
  XXY=             -0.4462  XXZ=              1.1672  XZZ=              0.5876  YZZ=             -0.1949
  YYZ=             -0.5674  XYZ=              0.6688
 Hexadecapole moment (field-independent basis, Debye-Ang**3):
 XXXX=           -198.8254 YYYY=            -66.9751 ZZZZ=            -42.5143 XXXY=             -5.0498
 XXXZ=              3.8494 YYYX=             -0.0776 YYYZ=              1.7955 ZZZX=              0.6379
 ZZZY=              0.4133 XXYY=            -43.5369 XXZZ=            -38.2666 YYZZ=            -16.4646
 XXYZ=              0.9466 YYXZ=             -0.6721 ZZXY=             -0.0854
 N-N= 7.560698700544D+01 E-N=-4.244900129143D+02  KE= 1.175660228754D+02
 Leave Link  601 at Sat Jun 26 10:44:57 2021, MaxMem=  3355443200 cpu:         0.2
 (Enter /Local/ce_dana/g09/l9999.exe)

 Test job not archived.
 1\1\GINC-TECH-WN096\SP\UMP2-FC\CBSB3\C3H7(2)\ALONGD\26-Jun-2021\0\\#P 
 Geom=AllCheck Guess=TCheck SCRF=Check Test MP2/CBSB3 CBSExtrap=(NMin=1
 0,MinPop)\\TS0\\0,2\C,0,1.3657313526,0.2217918182,-0.279566455\C,0,0.1
 234723002,-0.3508105031,0.3126974105\C,0,-0.7808735902,0.7070430502,0.
 9866446644\H,0,2.1465976106,0.6166686112,0.3608721226\H,0,1.4817067528
 ,0.3468453763,-1.3488792874\H,0,-0.4527310128,-0.8740231539,-0.4567988
 707\H,0,0.3851065074,-1.1028458116,1.0700696608\H,0,-1.1126726881,1.45
 63364702,0.2634017243\H,0,-1.6672500414,0.2380066684,1.4242388118\H,0,
 -0.2447031911,1.2276394743,1.7848682187\\Version=ES64L-G09RevD.01\Stat
 e=2-A\HF=-117.6714161\MP2=-118.1644194\E2(CBS)=-0.5417928\CBS-Int=-0.5
 243622\OIii=4.6609588\PUHF=-117.6748906\PMP2-0=-118.1666301\S2=0.76345
 3\S2-1=0.753615\S2A=0.750119\RMSD=4.266e-09\PG=C01 [X(C3H7)]\\@


 A ROPE OVER THE TOP OF A FENCE HAS THE SAME LENGTH ON EACH SIDE.
 WEIGHS 1/3 POUND PER FOOT.  ON ONE END HANGS A MONKEY HOLDING A
 BANANA, AND ON THE OTHER END A WEIGHT EQUAL TO THE WEIGHT
 OF THE MONKEY.  THE BANANA WEIGHS TWO OUNCES PER INCH.
 THE ROPE IS AS LONG AS THE AGE OF THE MONKEY, 
 AND THE WEIGHT OF THE MONKEY (IN OUNCES) IS AS MUCH
 AS THE AGE OF THE MONKEY'S MOTHER.  THE COMBINED AGES OF MONKEY
 AND MOTHER ARE THIRTY YEARS.  HALF THE WEIGHT OF THE MONKEY,
  PLUS THE WEIGHT OF THE BANANA, IS ONE FOURTH AS MUCH AS THE WEIGHT
 OF THE WEIGHT AND THE ROPE.
 THE MONKEY'S MOTHER IS HALF AS OLD AS THE MONKEY WILL BE
 WHEN IT IS 3 TIMES AS OLD AS ITS MOTHER WAS WHEN
 SHE WAS HALF AS OLD AS THE MONKEY WILL BE WHEN IT IS
 AS OLD AS ITS MOTHER WILL BE WHEN SHE IS 4 TIMES AS
 OLD AS THE MONKEY WAS WHEN IT WAS TWICE AS OLD AS 
 ITS MOTHER WAS WHEN SHE WAS ONE THIRD AS OLD AS THE
 MONKEY WAS WHEN IT WAS AS OLD AS ITS MOTHER WAS WHEN 
 SHE WAS 3 TIMES AS OLD AS THE MONKEY WAS WHEN IT WAS AS OLD AS ITS
 MOTHER WAS WHEN SHE WAS 3 TIMES AS OLD AS THE MONKEY 
 WAS WHEN IT WAS ONE FOURTH WAS OLD AS IT IS NOW.

 HOW LONG IS THE BANANA?
 Diagonal vibrational polarizability:
        0.0000000       0.0000000       0.0000000
    1 imaginary frequencies ignored.

 Complete Basis Set (CBS) Extrapolation:
 M. R. Nyden and G. A. Petersson, JCP 75, 1843 (1981)
 G. A. Petersson and M. A. Al-Laham, JCP 94, 6081 (1991)
 G. A. Petersson, T. Tensfeldt, and J. A. Montgomery, JCP 94, 6091 (1991)
 J. A. Montgomery, J. W. Ochterski, and G. A. Petersson, JCP 101, 5900 (1994)

 Temperature=               298.150000 Pressure=                       1.000000
 E(ZPE)=                      0.086928 E(Thermal)=                     0.091180
 E(SCF)=                   -117.671416 DE(MP2)=                       -0.493003
 DE(CBS)=                    -0.048790 DE(MP34)=                      -0.047043
 DE(CCSD)=                   -0.012868 DE(Int)=                        0.017431
 DE(Empirical)=              -0.027115
 CBS-QB3 (0 K)=            -118.195877 CBS-QB3 Energy=              -118.191625
 CBS-QB3 Enthalpy=         -118.190681 CBS-QB3 Free Energy=         -118.221829

 Test job not archived.
 1\1\GINC-TECH-WN096\Mixed\CBS-QB3\CBS-QB3\C3H7(2)\ALONGD\26-Jun-2021\0
 \\#P opt=(ts, calcfc, noeigentest, maxcycles=100, tight, maxstep=5) gu
 ess=read cbs-qb3 scf=(tight, direct) integral=(grid=ultrafine, Acc2E=1
 2) IOp(2/9=2000) scf=xqc\\TS0\\0,2\C,0,1.3657313526,0.2217918182,-0.27
 9566455\C,0,0.1234723002,-0.3508105031,0.3126974105\C,0,-0.7808735902,
 0.7070430502,0.9866446644\H,0,2.1465976106,0.6166686112,0.3608721226\H
 ,0,1.4817067528,0.3468453763,-1.3488792874\H,0,-0.4527310128,-0.874023
 1539,-0.4567988707\H,0,0.3851065074,-1.1028458116,1.0700696608\H,0,-1.
 1126726881,1.4563364702,0.2634017243\H,0,-1.6672500414,0.2380066684,1.
 4242388118\H,0,-0.2447031911,1.2276394743,1.7848682187\\Version=ES64L-
 G09RevD.01\State=2-A\HF/CbsB3=-117.6714161\E2(CBS)/CbsB3=-0.5417928\CB
 S-Int/CbsB3=0.0174305\OIii/CbsB3=4.6609588\MP2/CbsB4=-118.0649992\MP4(
 SDQ)/CbsB4=-118.1120425\MP4(SDQ)/6-31+G(d')=-118.0537485\QCISD(T)/6-31
 +G(d')=-118.0666165\CBSQB3=-118.1958772\FreqCoord=2.5808582276,0.41912
 57949,-0.5283040359,0.2333288323,-0.6629357755,0.5909124682,-1.4756372
 299,1.336117729,1.8644882062,4.0564816015,1.1653347898,0.6819494807,2.
 800019972,0.6554427718,-2.5490124395,-0.8555376261,-1.6516643947,-0.86
 32247635,0.7277458311,-2.0840765508,2.022138602,-2.102646656,2.7520770
 861,0.4977571218,-3.1506459733,0.449767421,2.6914213022,-0.4624220149,
 2.3199023963,3.3729121167\PG=C01 [X(C3H7)]\NImag=1\\0.45154759,0.19062
 897,0.15057651,0.02872890,-0.00187677,0.61467682,-0.17485465,-0.064897
 69,0.04512246,0.47039967,-0.06687107,-0.07402573,0.02468703,0.05246813
 ,0.46963012,0.03878276,0.02079188,-0.10753578,0.06908588,-0.01677821,0
 .53417520,-0.02381456,0.01085189,0.01731246,-0.09858842,0.04233622,0.0
 1661658,0.51551569,-0.00023298,0.01161548,0.00323734,0.02702589,-0.116
 70747,-0.02502123,0.05103469,0.50395416,0.01503996,-0.00393561,-0.0099
 6762,0.01548976,-0.03290143,-0.08644637,0.03441832,-0.03902919,0.53614
 227,-0.19090772,-0.08949036,-0.12102782,-0.01207250,-0.00746244,-0.017
 60955,0.00109097,-0.00054251,-0.00071421,0.19908575,-0.09161501,-0.056
 15103,-0.06097554,-0.00543289,-0.00317205,-0.00699428,-0.00062399,0.00
 032047,0.00024375,0.09788965,0.05373867,-0.12262069,-0.05946166,-0.158
 31976,0.01003992,0.00433888,0.00980100,-0.00020896,0.00049664,0.000767
 12,0.13087556,0.06414567,0.15817853,-0.04824025,-0.02131389,0.02530194
 ,0.00279872,-0.00389395,0.02308390,-0.00125887,-0.00085109,0.00063974,
 0.00488366,0.00211419,-0.01978851,0.04431888,-0.02142994,-0.01980285,0
 .03397485,-0.00170275,0.00326955,0.00849483,-0.00001984,-0.00203534,0.
 00056405,0.00063229,0.00408162,-0.01029355,0.02282363,0.01557334,0.027
 53405,0.03161886,-0.33815205,-0.00374011,0.00050480,-0.00409540,0.0003
 1038,0.00063353,-0.00031160,0.00403894,0.00326900,-0.01100127,-0.03030
 860,-0.03540815,0.35197389,-0.01893500,-0.01265508,-0.01991723,-0.1168
 7515,-0.06381800,-0.09589239,0.01008877,0.01051324,0.01546572,-0.00298
 391,-0.00278640,0.00292353,0.00123136,0.00099244,0.00042616,0.13240393
 ,-0.00767741,-0.00578146,-0.00937168,-0.06393583,-0.10385497,-0.080563
 75,-0.01042080,-0.01233333,-0.01827802,-0.00176989,0.00027531,0.001186
 48,0.00068551,0.00017926,0.00003571,0.06894345,0.11144687,0.00889430,0
 .00691342,0.01036033,-0.09708014,-0.08213305,-0.17719423,-0.00669381,-
 0.00723316,-0.01078640,0.00287013,0.00083898,0.00004211,-0.00057474,0.
 00018464,0.00125215,0.10107650,0.09287492,0.19144648,0.00296805,-0.016
 30095,0.02297682,-0.05834458,0.03287616,-0.04417817,-0.00592332,0.0161
 4727,-0.01314995,0.00096384,0.00051036,-0.00078470,-0.00295328,-0.0015
 5269,0.00148753,-0.00469733,0.01168322,-0.01140748,0.06848035,-0.00093
 460,-0.00584855,0.01053621,0.03795590,-0.15619470,0.11365964,0.0099255
 1,-0.01913287,0.01499522,-0.00023098,0.00067868,-0.00019581,-0.0005773
 9,-0.00176249,-0.00028256,-0.00310647,0.01122819,-0.01017695,-0.044832
 56,0.17182362,0.00397047,0.00856525,-0.01240186,-0.04978864,0.11416784
 ,-0.16252493,0.00536472,-0.01172106,0.00905922,0.00060076,-0.00068008,
 0.00082386,0.00165377,0.00214103,0.00020496,-0.00542476,0.01503249,-0.
 01613260,0.04276100,-0.12608355,0.17972300,0.00147667,-0.00028462,-0.0
 0134466,-0.00724460,0.01282386,-0.01182772,-0.07009233,0.05092691,-0.0
 5233008,-0.00011872,0.00010457,0.00001642,-0.00020036,0.00030144,0.000
 18047,0.00077382,-0.00082648,0.00023411,-0.00172680,0.00287010,0.00200
 835,0.07337436,-0.00181823,0.00086515,0.00024598,0.00764123,-0.0156573
 7,0.01389930,0.05123659,-0.16593930,0.11948061,0.00009003,0.00000175,-
 0.00007745,0.00046671,-0.00008180,-0.00020669,-0.00073056,0.00040932,0
 .00013424,0.00292515,-0.00245236,-0.00260842,-0.05962435,0.18083983,-0
 .00070322,-0.00047192,0.00119306,0.00550147,-0.01098533,0.01042001,-0.
 05300524,0.11985075,-0.16610270,0.00000927,0.00003886,-0.00008679,-0.0
 0012604,-0.00009645,-0.00004471,-0.00051009,0.00062515,0.00102161,0.00
 261057,-0.00274498,-0.00029138,0.05595972,-0.12940564,0.17821284,-0.00
 121372,0.00307678,0.00247390,-0.01469503,-0.00811160,0.00623609,-0.214
 14641,-0.09214967,0.08120145,0.00021586,-0.00009026,-0.00013667,-0.000
 51356,-0.00003820,0.00018710,0.00089131,0.00007072,0.00012714,0.000375
 23,-0.00010484,-0.00075784,0.00917817,0.00428578,-0.00389044,0.2326433
 5,0.00088808,-0.00186761,-0.00178062,0.02167757,0.00865434,-0.01010709
 ,-0.09279549,-0.09693545,0.04595076,0.00026722,-0.00000452,0.00000059,
 0.00052546,0.00040211,-0.00022511,-0.00077686,0.00097923,0.00044454,-0
 .00083168,0.00115129,0.00068481,-0.01780442,-0.00955934,0.00700430,0.0
 9978770,0.10427675,0.00159622,-0.00239503,-0.00042682,0.01110786,0.005
 75173,-0.00583943,0.08131681,0.04586802,-0.08765233,0.00026899,0.00009
 402,-0.00009181,0.00003871,0.00028788,0.00004184,-0.00033395,0.0003825
 9,-0.00012207,-0.00065610,-0.00002388,0.00060778,0.01800747,0.00901731
 ,-0.00852944,-0.09183268,-0.04856703,0.09135119,0.00197359,0.00038494,
 0.00037324,0.00947655,0.00965268,0.01570262,-0.11287153,-0.06187174,-0
 .09606071,-0.00015722,-0.00007023,-0.00031589,-0.00006628,-0.00000637,
 -0.00011592,-0.00189780,0.00324749,0.00255398,0.00085783,-0.00096468,-
 0.00038783,-0.00542021,-0.00447235,-0.00584600,-0.01273520,-0.01093758
 ,-0.01951334,0.12084027,-0.00093780,0.00042010,0.00132320,-0.01079957,
 -0.01194171,-0.01738109,-0.06152479,-0.10280636,-0.08709014,0.00061700
 ,0.00023111,-0.00013978,0.00002081,0.00017662,0.00006062,0.00342425,-0
 .00254842,-0.00184758,-0.00062429,0.00050920,0.00050169,0.01151298,0.0
 1157413,0.01618525,-0.00672642,-0.00709681,-0.01041562,0.06503784,0.11
 148215,-0.00122276,0.00025158,0.00057368,-0.00573846,-0.00665226,-0.01
 076008,-0.09543125,-0.08708164,-0.18470158,0.00068794,0.00001961,-0.00
 011298,0.00007982,0.00015088,0.00013218,0.00218650,-0.00192388,0.00011
 262,0.00034047,0.00031665,0.00093194,-0.01090406,-0.01047924,-0.015792
 49,0.00639195,0.00659483,0.01066109,0.10360985,0.09880346,0.19895561\\
 0.,-0.00000007,-0.00000006,-0.00000002,-0.00000006,0.00000007,-0.00000
 002,0.00000012,-0.00000002,0.,0.,-0.00000011,-0.00000005,-0.00000024,-
 0.00000004,-0.00000001,-0.00000012,0.00000018,0.00000004,0.00000009,0.
 00000019,0.,-0.00000003,-0.00000012,0.00000004,0.00000013,0.00000005,0
 .00000003,0.00000019,-0.00000012\\\@
 Job cpu time:       0 days  0 hours  1 minutes 17.1 seconds.
 File lengths (MBytes):  RWF=    611 Int=      0 D2E=      0 Chk=      4 Scr=      1
 Normal termination of Gaussian 09 at Sat Jun 26 10:44:57 2021.
