 Entering Gaussian System, Link 0=/Local/ce_dana/g09/g09
 Initial command:
 /Local/ce_dana/g09/l1.exe "/storage/ce_dana/alongd/scratch/g09/Gau-58449.inp" -scrdir="/storage/ce_dana/alongd/scratch/g09/"
 Entering Link 1 = /Local/ce_dana/g09/l1.exe PID=     58450.
  
 Copyright (c) 1988,1990,1992,1993,1995,1998,2003,2009,2013,
            Gaussian, Inc.  All Rights Reserved.
  
 This is part of the Gaussian(R) 09 program.  It is based on
 the Gaussian(R) 03 system (copyright 2003, Gaussian, Inc.),
 the Gaussian(R) 98 system (copyright 1998, Gaussian, Inc.),
 the Gaussian(R) 94 system (copyright 1995, Gaussian, Inc.),
 the Gaussian 92(TM) system (copyright 1992, Gaussian, Inc.),
 the Gaussian 90(TM) system (copyright 1990, Gaussian, Inc.),
 the Gaussian 88(TM) system (copyright 1988, Gaussian, Inc.),
 the Gaussian 86(TM) system (copyright 1986, Carnegie Mellon
 University), and the Gaussian 82(TM) system (copyright 1983,
 Carnegie Mellon University). Gaussian is a federally registered
 trademark of Gaussian, Inc.
  
 This software contains proprietary and confidential information,
 including trade secrets, belonging to Gaussian, Inc.
  
 This software is provided under written license and may be
 used, copied, transmitted, or stored only in accord with that
 written license.
  
 The following legend is applicable only to US Government
 contracts under FAR:
  
                    RESTRICTED RIGHTS LEGEND
  
 Use, reproduction and disclosure by the US Government is
 subject to restrictions as set forth in subparagraphs (a)
 and (c) of the Commercial Computer Software - Restricted
 Rights clause in FAR 52.227-19.
  
 Gaussian, Inc.
 340 Quinnipiac St., Bldg. 40, Wallingford CT 06492
  
  
 ---------------------------------------------------------------
 Warning -- This program may not be used in any manner that
 competes with the business of Gaussian, Inc. or will provide
 assistance to any competitor of Gaussian, Inc.  The licensee
 of this program is prohibited from giving any competitor of
 Gaussian, Inc. access to this program.  By using this program,
 the user acknowledges that Gaussian, Inc. is engaged in the
 business of creating and licensing software in the field of
 computational chemistry and represents and warrants to the
 licensee that it is not a competitor of Gaussian, Inc. and that
 it will not use this program in any manner prohibited above.
 ---------------------------------------------------------------
  

 Cite this work as:
 Gaussian 09, Revision D.01,
 M. J. Frisch, G. W. Trucks, H. B. Schlegel, G. E. Scuseria, 
 M. A. Robb, J. R. Cheeseman, G. Scalmani, V. Barone, B. Mennucci, 
 G. A. Petersson, H. Nakatsuji, M. Caricato, X. Li, H. P. Hratchian, 
 A. F. Izmaylov, J. Bloino, G. Zheng, J. L. Sonnenberg, M. Hada, 
 M. Ehara, K. Toyota, R. Fukuda, J. Hasegawa, M. Ishida, T. Nakajima, 
 Y. Honda, O. Kitao, H. Nakai, T. Vreven, J. A. Montgomery, Jr., 
 J. E. Peralta, F. Ogliaro, M. Bearpark, J. J. Heyd, E. Brothers, 
 K. N. Kudin, V. N. Staroverov, T. Keith, R. Kobayashi, J. Normand, 
 K. Raghavachari, A. Rendell, J. C. Burant, S. S. Iyengar, J. Tomasi, 
 M. Cossi, N. Rega, J. M. Millam, M. Klene, J. E. Knox, J. B. Cross, 
 V. Bakken, C. Adamo, J. Jaramillo, R. Gomperts, R. E. Stratmann, 
 O. Yazyev, A. J. Austin, R. Cammi, C. Pomelli, J. W. Ochterski, 
 R. L. Martin, K. Morokuma, V. G. Zakrzewski, G. A. Voth, 
 P. Salvador, J. J. Dannenberg, S. Dapprich, A. D. Daniels, 
 O. Farkas, J. B. Foresman, J. V. Ortiz, J. Cioslowski, 
 and D. J. Fox, Gaussian, Inc., Wallingford CT, 2013.
 
 ******************************************
 Gaussian 09:  ES64L-G09RevD.01 24-Apr-2013
                26-Jun-2021 
 ******************************************
 %chk=check.chk
 %mem=25600mb
 %NProcShared=10
 Will use up to   10 processors via shared memory.
 ----------------------------------------------------------------------
 #P opt=(ts, calcfc, noeigentest, maxcycles=100, tight, maxstep=5) gues
 s=read cbs-qb3 scf=(tight, direct) integral=(grid=ultrafine, Acc2E=12)
  IOp(2/9=2000) scf=xqc
 ----------------------------------------------------------------------
 1/5=1,6=100,7=10,8=5,10=4,11=1,14=-1,18=20,26=4,38=1/1,3;
 2/9=2000,12=2,17=6,18=5,40=1/2;
 3/5=4,6=6,7=700,11=2,16=1,25=1,30=1,71=2,74=-5,75=-5,116=-2,140=1/1,2,3;
 4/5=1/1;
 5/5=2,8=3,13=1,32=2,38=6,87=12/2,8;
 8/6=4,10=90,11=11,87=12/1;
 11/6=1,8=1,9=11,15=111,16=1,87=12/1,2,10;
 10/6=1,13=1,87=12/2;
 6/7=2,8=2,9=2,10=2,28=1/1;
 7/10=1,18=20,25=1,87=12/1,2,3,16;
 1/5=1,6=100,7=10,8=5,10=4,11=1,14=-1,18=20,26=4/3(2);
 2/9=2000/2;
 99//99;
 2/9=2000/2;
 3/5=4,6=6,7=700,11=2,16=1,25=1,30=1,71=1,74=-5,75=-5/1,2,3;
 4/5=5,16=3,69=1/1;
 5/5=2,8=3,13=1,32=2,38=5,87=12/2,8;
 7/87=12/1,2,3,16;
 1/5=1,6=100,7=10,8=5,11=1,14=-1,18=20,26=4/3(-5);
 2/9=2000/2;
 6/7=2,8=2,9=2,10=2,19=2,28=1/1;
 99/9=1/99;
 Leave Link    1 at Sat Jun 26 11:00:24 2021, MaxMem=  3355443200 cpu:         0.1
 (Enter /Local/ce_dana/g09/l101.exe)
 ---
 TS0
 ---
 Symbolic Z-matrix:
 Charge =  0 Multiplicity = 2
 C                     0.29801  -0.41334  -0.36361 
 C                    -0.19748  -0.62832   1.03365 
 C                    -1.47626  -0.745     1.39074 
 H                     0.97745  -1.2249   -0.67054 
 H                    -0.5303   -0.36675  -1.08574 
 H                     0.8729    0.52394  -0.4381 
 H                     0.57208  -0.69228   1.81309 
 H                     1.73438   4.51311  -1.90394 
 H                    -2.28297  -0.68922   0.65237 
 H                    -1.76652  -0.90075   2.43273 
 
 Add virtual bond connecting atoms H8         and H6         Dist= 8.19D+00.
 NAtoms=     10 NQM=       10 NQMF=       0 NMMI=      0 NMMIF=      0
                NMic=       0 NMicF=      0.
                    Isotopes and Nuclear Properties:
 (Nuclear quadrupole moments (NQMom) in fm**2, nuclear magnetic moments (NMagM)
  in nuclear magnetons)

  Atom         1           2           3           4           5           6           7           8           9          10
 IAtWgt=          12          12          12           1           1           1           1           1           1           1
 AtmWgt=  12.0000000  12.0000000  12.0000000   1.0078250   1.0078250   1.0078250   1.0078250   1.0078250   1.0078250   1.0078250
 NucSpn=           0           0           0           1           1           1           1           1           1           1
 AtZEff=   0.0000000   0.0000000   0.0000000   0.0000000   0.0000000   0.0000000   0.0000000   0.0000000   0.0000000   0.0000000
 NQMom=    0.0000000   0.0000000   0.0000000   0.0000000   0.0000000   0.0000000   0.0000000   0.0000000   0.0000000   0.0000000
 NMagM=    0.0000000   0.0000000   0.0000000   2.7928460   2.7928460   2.7928460   2.7928460   2.7928460   2.7928460   2.7928460
 AtZNuc=   6.0000000   6.0000000   6.0000000   1.0000000   1.0000000   1.0000000   1.0000000   1.0000000   1.0000000   1.0000000
 Leave Link  101 at Sat Jun 26 11:00:25 2021, MaxMem=  3355443200 cpu:         0.8
 (Enter /Local/ce_dana/g09/l103.exe)

 GradGradGradGradGradGradGradGradGradGradGradGradGradGradGradGradGradGrad
 Berny optimization.
 Initialization pass.
                           ----------------------------
                           !    Initial Parameters    !
                           ! (Angstroms and Degrees)  !
 --------------------------                            --------------------------
 ! Name  Definition              Value          Derivative Info.                !
 --------------------------------------------------------------------------------
 ! R1    R(1,2)                  1.498          calculate D2E/DX2 analytically  !
 ! R2    R(1,4)                  1.102          calculate D2E/DX2 analytically  !
 ! R3    R(1,5)                  1.0999         calculate D2E/DX2 analytically  !
 ! R4    R(1,6)                  1.1021         calculate D2E/DX2 analytically  !
 ! R5    R(2,3)                  1.3328         calculate D2E/DX2 analytically  !
 ! R6    R(2,7)                  1.0972         calculate D2E/DX2 analytically  !
 ! R7    R(3,9)                  1.095          calculate D2E/DX2 analytically  !
 ! R8    R(3,10)                 1.0928         calculate D2E/DX2 analytically  !
 ! R9    R(6,8)                  4.3364         calculate D2E/DX2 analytically  !
 ! A1    A(2,1,4)              110.9792         calculate D2E/DX2 analytically  !
 ! A2    A(2,1,5)              111.6772         calculate D2E/DX2 analytically  !
 ! A3    A(2,1,6)              110.9551         calculate D2E/DX2 analytically  !
 ! A4    A(4,1,5)              108.2186         calculate D2E/DX2 analytically  !
 ! A5    A(4,1,6)              106.6107         calculate D2E/DX2 analytically  !
 ! A6    A(5,1,6)              108.2065         calculate D2E/DX2 analytically  !
 ! A7    A(1,2,3)              125.4376         calculate D2E/DX2 analytically  !
 ! A8    A(1,2,7)              116.0395         calculate D2E/DX2 analytically  !
 ! A9    A(3,2,7)              118.5229         calculate D2E/DX2 analytically  !
 ! A10   A(2,3,9)              121.4476         calculate D2E/DX2 analytically  !
 ! A11   A(2,3,10)             121.5187         calculate D2E/DX2 analytically  !
 ! A12   A(9,3,10)             117.0338         calculate D2E/DX2 analytically  !
 ! A13   A(1,6,8)              155.3483         calculate D2E/DX2 analytically  !
 ! D1    D(4,1,2,3)           -121.2016         calculate D2E/DX2 analytically  !
 ! D2    D(4,1,2,7)             58.7932         calculate D2E/DX2 analytically  !
 ! D3    D(5,1,2,3)             -0.3553         calculate D2E/DX2 analytically  !
 ! D4    D(5,1,2,7)            179.6395         calculate D2E/DX2 analytically  !
 ! D5    D(6,1,2,3)            120.4589         calculate D2E/DX2 analytically  !
 ! D6    D(6,1,2,7)            -59.5462         calculate D2E/DX2 analytically  !
 ! D7    D(2,1,6,8)           -118.8557         calculate D2E/DX2 analytically  !
 ! D8    D(4,1,6,8)            120.1918         calculate D2E/DX2 analytically  !
 ! D9    D(5,1,6,8)              3.9876         calculate D2E/DX2 analytically  !
 ! D10   D(1,2,3,9)              0.0346         calculate D2E/DX2 analytically  !
 ! D11   D(1,2,3,10)          -179.9806         calculate D2E/DX2 analytically  !
 ! D12   D(7,2,3,9)           -179.9602         calculate D2E/DX2 analytically  !
 ! D13   D(7,2,3,10)             0.0247         calculate D2E/DX2 analytically  !
 --------------------------------------------------------------------------------
 Trust Radius=5.00D-02 FncErr=1.00D-07 GrdErr=1.00D-06
 Number of steps in this run=    100 maximum allowed number of steps=    100.
 Search for a saddle point of order  1.
 GradGradGradGradGradGradGradGradGradGradGradGradGradGradGradGradGradGrad

 Leave Link  103 at Sat Jun 26 11:00:25 2021, MaxMem=  3355443200 cpu:         0.0
 (Enter /Local/ce_dana/g09/l202.exe)
                          Input orientation:                          
 ---------------------------------------------------------------------
 Center     Atomic      Atomic             Coordinates (Angstroms)
 Number     Number       Type             X           Y           Z
 ---------------------------------------------------------------------
      1          6           0        0.298010   -0.413343   -0.363607
      2          6           0       -0.197475   -0.628320    1.033651
      3          6           0       -1.476255   -0.744999    1.390744
      4          1           0        0.977454   -1.224898   -0.670543
      5          1           0       -0.530304   -0.366751   -1.085737
      6          1           0        0.872895    0.523935   -0.438097
      7          1           0        0.572077   -0.692284    1.813093
      8          1           0        1.734381    4.513113   -1.903941
      9          1           0       -2.282972   -0.689224    0.652371
     10          1           0       -1.766515   -0.900750    2.432732
 ---------------------------------------------------------------------
                    Distance matrix (angstroms):
                    1          2          3          4          5
     1  C    0.000000
     2  C    1.498015   0.000000
     3  C    2.517093   1.332819   0.000000
     4  H    1.102032   2.154215   3.240354   0.000000
     5  H    1.099885   2.161249   2.677845   1.783854   0.000000
     6  H    1.102058   2.153933   3.236257   1.767309   1.783739
     7  H    2.211548   1.097193   2.092085   2.572247   3.118402
     8  H    5.357776   6.228631   6.986478   5.917684   5.441629
     9  H    2.787434   2.120939   1.095033   3.559133   2.489348
    10  H    3.509892   2.119795   1.092817   4.155088   3.767359
                    6          7          8          9         10
     6  H    0.000000
     7  H    2.576342   0.000000
     8  H    4.336404   6.501035   0.000000
     9  H    3.552516   3.081978   7.052529   0.000000
    10  H    4.151852   2.428255   7.770001   1.865786   0.000000
 Stoichiometry    C3H7(2)
 Framework group  C1[X(C3H7)]
 Deg. of freedom    24
 Full point group                 C1      NOp   1
 Largest Abelian subgroup         C1      NOp   1
 Largest concise Abelian subgroup C1      NOp   1
                         Standard orientation:                         
 ---------------------------------------------------------------------
 Center     Atomic      Atomic             Coordinates (Angstroms)
 Number     Number       Type             X           Y           Z
 ---------------------------------------------------------------------
      1          6           0       -0.889436   -0.611417    0.211271
      2          6           0        0.364773   -0.114854   -0.440216
      3          6           0        1.363647    0.510431    0.182420
      4          1           0       -1.004817   -1.698012    0.068187
      5          1           0       -0.895617   -0.404243    1.291451
      6          1           0       -1.779240   -0.138634   -0.235111
      7          1           0        0.448652   -0.290369   -1.520027
      8          1           0       -5.385314    2.269799   -0.226261
      9          1           0        1.330307    0.709776    1.258640
     10          1           0        2.252126    0.846722   -0.357730
 ---------------------------------------------------------------------
 Rotational constants (GHZ):     19.8085834      6.0029458      5.5229422
 Leave Link  202 at Sat Jun 26 11:00:25 2021, MaxMem=  3355443200 cpu:         0.0
 (Enter /Local/ce_dana/g09/l301.exe)
 Standard basis: 6-311G(2d,d,p) (5D, 7F)
 Ernie: Thresh=  0.10000D-02 Tol=  0.10000D-05 Strict=F.
 There are    99 symmetry adapted cartesian basis functions of A   symmetry.
 There are    96 symmetry adapted basis functions of A   symmetry.
    96 basis functions,   152 primitive gaussians,    99 cartesian basis functions
    13 alpha electrons       12 beta electrons
       nuclear repulsion energy        72.6241896332 Hartrees.
 IExCor=  402 DFT=T Ex+Corr=B3LYP ExCW=0 ScaHFX=  0.200000
 ScaDFX=  0.800000  0.720000  1.000000  0.810000 ScalE2=  1.000000  1.000000
 IRadAn=      5 IRanWt=     -1 IRanGd=            0 ICorTp=0 IEmpDi=  4
 NAtoms=   10 NActive=   10 NUniq=   10 SFac= 1.00D+00 NAtFMM=   60 NAOKFM=F Big=F
 Integral buffers will be    131072 words long.
 Raffenetti 2 integral format.
 Two-electron integral symmetry is turned on.
 Leave Link  301 at Sat Jun 26 11:00:25 2021, MaxMem=  3355443200 cpu:         0.1
 (Enter /Local/ce_dana/g09/l302.exe)
 NPDir=0 NMtPBC=     1 NCelOv=     1 NCel=       1 NClECP=     1 NCelD=      1
         NCelK=      1 NCelE2=     1 NClLst=     1 CellRange=     0.0.
 One-electron integrals computed using PRISM.
 NBasis=    96 RedAO= T EigKep=  2.45D-03  NBF=    96
 NBsUse=    96 1.00D-06 EigRej= -1.00D+00 NBFU=    96
 Precomputing XC quadrature grid using
 IXCGrd= 4 IRadAn=           5 IRanWt=          -1 IRanGd=           0 AccXCQ= 0.00D+00.
 Generated NRdTot=       0 NPtTot=           0 NUsed=           0 NTot=          32
 NSgBfM=    99    99    99    99    99 MxSgAt=    10 MxSgA2=    10.
 Leave Link  302 at Sat Jun 26 11:00:26 2021, MaxMem=  3355443200 cpu:         1.2
 (Enter /Local/ce_dana/g09/l303.exe)
 DipDrv:  MaxL=1.
 Leave Link  303 at Sat Jun 26 11:00:26 2021, MaxMem=  3355443200 cpu:         0.1
 (Enter /Local/ce_dana/g09/l401.exe)
 Initial guess from the checkpoint file:  "check.chk"
 B after Tr=     0.000000    0.000000   -0.000000
         Rot=   -0.026084   -0.262594    0.843090   -0.468576 Ang=-182.99 deg.
 Guess basis will be translated and rotated to current coordinates.
 JPrj=2 DoOrth=T DoCkMO=T.
 Initial guess <Sx>= 0.0000 <Sy>= 0.0000 <Sz>= 0.5000 <S**2>= 0.8455 S= 0.5466
 Leave Link  401 at Sat Jun 26 11:00:26 2021, MaxMem=  3355443200 cpu:         0.4
 (Enter /Local/ce_dana/g09/l502.exe)
 UHF open shell SCF:
 Using DIIS extrapolation, IDIIS=  1040.
 Integral symmetry usage will be decided dynamically.
 Keep R1 and R2 ints in memory in canonical form, NReq=22641738.
 IVT=       37088 IEndB=       37088 NGot=  3355443200 MDV=  3333723121
 LenX=  3333723121 LenY=  3333712879
 Requested convergence on RMS density matrix=1.00D-08 within  64 cycles.
 Requested convergence on MAX density matrix=1.00D-06.
 Requested convergence on             energy=1.00D-06.
 No special actions if energy rises.
 FoFCou: FMM=F IPFlag=           0 FMFlag=           0 FMFlg1=           0
         NFxFlg=           0 DoJE=F BraDBF=F KetDBF=F FulRan=T
         wScrn=  0.000000 ICntrl=     600 IOpCl=  0 I1Cent=           0 NGrid=           0
         NMat0=    1 NMatS0=   4656 NMatT0=    0 NMatD0=    1 NMtDS0=    0 NMtDT0=    0
 Symmetry not used in FoFCou.

 Cycle   1  Pass 1  IDiag  1:
 E= -115.598290590519    
 DIIS: error= 4.86D-02 at cycle   1 NSaved=   1.
 NSaved= 1 IEnMin= 1 EnMin= -115.598290590519     IErMin= 1 ErrMin= 4.86D-02
 ErrMax= 4.86D-02  0.00D+00 EMaxC= 1.00D-01 BMatC= 3.01D+00 BMatP= 3.01D+00
 IDIUse=3 WtCom= 5.14D-01 WtEn= 4.86D-01
 Coeff-Com:  0.100D+01
 Coeff-En:   0.100D+01
 Coeff:      0.100D+01
 Gap=     2.369 Goal=   None    Shift=    0.000
 Gap=     2.549 Goal=   None    Shift=    0.000
 GapD=    2.369 DampG=2.000 DampE=0.500 DampFc=1.0000 IDamp=-1.
 RMSDP=2.10D-02 MaxDP=3.00D-01              OVMax= 7.50D-01

 Cycle   2  Pass 1  IDiag  1:
 E= -117.978425742879     Delta-E=       -2.380135152360 Rises=F Damp=F
 DIIS: error= 5.39D-02 at cycle   2 NSaved=   2.
 NSaved= 2 IEnMin= 2 EnMin= -117.978425742879     IErMin= 1 ErrMin= 4.86D-02
 ErrMax= 5.39D-02  0.00D+00 EMaxC= 1.00D-01 BMatC= 6.44D-01 BMatP= 3.01D+00
 IDIUse=3 WtCom= 4.61D-01 WtEn= 5.39D-01
 Coeff-Com:  0.177D+00 0.823D+00
 Coeff-En:   0.000D+00 0.100D+01
 Coeff:      0.818D-01 0.918D+00
 Gap=    -0.358 Goal=   None    Shift=    0.000
 Gap=    -0.539 Goal=   None    Shift=    0.000
 RMSDP=1.03D-02 MaxDP=3.33D-01 DE=-2.38D+00 OVMax= 9.54D-01

 Cycle   3  Pass 1  IDiag  1:
 E= -117.265378824753     Delta-E=        0.713046918127 Rises=F Damp=F
 DIIS: error= 1.14D-01 at cycle   3 NSaved=   3.
 NSaved= 3 IEnMin= 2 EnMin= -117.978425742879     IErMin= 1 ErrMin= 4.86D-02
 ErrMax= 1.14D-01  0.00D+00 EMaxC= 1.00D-01 BMatC= 2.31D+00 BMatP= 6.44D-01
 IDIUse=2 WtCom= 0.00D+00 WtEn= 1.00D+00
 Coeff-En:   0.000D+00 0.678D+00 0.322D+00
 Coeff:      0.000D+00 0.678D+00 0.322D+00
 Gap=     0.122 Goal=   None    Shift=    0.000
 Gap=     0.282 Goal=   None    Shift=    0.000
 RMSDP=4.95D-03 MaxDP=1.83D-01 DE= 7.13D-01 OVMax= 1.85D-01

 Cycle   4  Pass 1  IDiag  1:
 E= -117.834820255724     Delta-E=       -0.569441430972 Rises=F Damp=F
 DIIS: error= 3.01D-02 at cycle   4 NSaved=   4.
 NSaved= 4 IEnMin= 2 EnMin= -117.978425742879     IErMin= 4 ErrMin= 3.01D-02
 ErrMax= 3.01D-02  0.00D+00 EMaxC= 1.00D-01 BMatC= 2.62D-01 BMatP= 6.44D-01
 IDIUse=3 WtCom= 6.99D-01 WtEn= 3.01D-01
 Coeff-Com:  0.185D-02 0.272D+00-0.153D+00 0.879D+00
 Coeff-En:   0.000D+00 0.555D+00 0.000D+00 0.445D+00
 Coeff:      0.129D-02 0.358D+00-0.107D+00 0.748D+00
 Gap=    -0.283 Goal=   None    Shift=    0.000
 Gap=    -0.101 Goal=   None    Shift=    0.000
 RMSDP=9.87D-03 MaxDP=3.01D-01 DE=-5.69D-01 OVMax= 1.00D+00

 Cycle   5  Pass 1  IDiag  1:
 E= -118.055003431050     Delta-E=       -0.220183175326 Rises=F Damp=F
 DIIS: error= 6.83D-02 at cycle   5 NSaved=   5.
 NSaved= 5 IEnMin= 5 EnMin= -118.055003431050     IErMin= 4 ErrMin= 3.01D-02
 ErrMax= 6.83D-02  0.00D+00 EMaxC= 1.00D-01 BMatC= 2.82D-01 BMatP= 2.62D-01
 IDIUse=3 WtCom= 3.17D-01 WtEn= 6.83D-01
 Coeff-Com: -0.192D-02 0.159D+00-0.122D+00 0.772D+00 0.193D+00
 Coeff-En:   0.000D+00 0.000D+00 0.000D+00 0.412D+00 0.588D+00
 Coeff:     -0.610D-03 0.504D-01-0.387D-01 0.526D+00 0.463D+00
 Gap=     0.250 Goal=   None    Shift=    0.000
 Gap=    -0.059 Goal=   None    Shift=    0.000
 RMSDP=4.73D-03 MaxDP=2.45D-01 DE=-2.20D-01 OVMax= 9.99D-01

 Cycle   6  Pass 1  IDiag  1:
 E= -118.433152770975     Delta-E=       -0.378149339925 Rises=F Damp=F
 DIIS: error= 3.24D-02 at cycle   6 NSaved=   6.
 NSaved= 6 IEnMin= 6 EnMin= -118.433152770975     IErMin= 4 ErrMin= 3.01D-02
 ErrMax= 3.24D-02  0.00D+00 EMaxC= 1.00D-01 BMatC= 2.80D-02 BMatP= 2.62D-01
 IDIUse=3 WtCom= 6.76D-01 WtEn= 3.24D-01
 Coeff-Com:  0.269D-03-0.303D-01-0.547D-01 0.247D+00 0.241D+00 0.597D+00
 Coeff-En:   0.000D+00 0.000D+00 0.000D+00 0.000D+00 0.000D+00 0.100D+01
 Coeff:      0.182D-03-0.205D-01-0.370D-01 0.167D+00 0.162D+00 0.728D+00
 Gap=     0.292 Goal=   None    Shift=    0.000
 Gap=     0.140 Goal=   None    Shift=    0.000
 RMSDP=1.35D-03 MaxDP=1.19D-01 DE=-3.78D-01 OVMax= 8.48D-02

 Cycle   7  Pass 1  IDiag  1:
 E= -118.444103963285     Delta-E=       -0.010951192310 Rises=F Damp=F
 DIIS: error= 8.67D-03 at cycle   7 NSaved=   7.
 NSaved= 7 IEnMin= 7 EnMin= -118.444103963285     IErMin= 7 ErrMin= 8.67D-03
 ErrMax= 8.67D-03  0.00D+00 EMaxC= 1.00D-01 BMatC= 5.42D-03 BMatP= 2.80D-02
 IDIUse=3 WtCom= 9.13D-01 WtEn= 8.67D-02
 Coeff-Com: -0.370D-03 0.255D-01-0.176D-01 0.121D+00 0.729D-01 0.270D+00
 Coeff-Com:  0.528D+00
 Coeff-En:   0.000D+00 0.000D+00 0.000D+00 0.000D+00 0.000D+00 0.000D+00
 Coeff-En:   0.100D+01
 Coeff:     -0.338D-03 0.233D-01-0.160D-01 0.111D+00 0.665D-01 0.247D+00
 Coeff:      0.569D+00
 Gap=     0.267 Goal=   None    Shift=    0.000
 Gap=     0.160 Goal=   None    Shift=    0.000
 RMSDP=3.74D-04 MaxDP=1.68D-02 DE=-1.10D-02 OVMax= 2.53D-02

 Cycle   8  Pass 1  IDiag  1:
 E= -118.445317759092     Delta-E=       -0.001213795807 Rises=F Damp=F
 DIIS: error= 4.97D-03 at cycle   8 NSaved=   8.
 NSaved= 8 IEnMin= 8 EnMin= -118.445317759092     IErMin= 8 ErrMin= 4.97D-03
 ErrMax= 4.97D-03  0.00D+00 EMaxC= 1.00D-01 BMatC= 1.77D-03 BMatP= 5.42D-03
 IDIUse=3 WtCom= 9.50D-01 WtEn= 4.97D-02
 Coeff-Com: -0.761D-03 0.131D-01 0.142D-01-0.916D-02 0.779D-03-0.141D+00
 Coeff-Com:  0.272D+00 0.851D+00
 Coeff-En:   0.000D+00 0.000D+00 0.000D+00 0.000D+00 0.000D+00 0.000D+00
 Coeff-En:   0.119D+00 0.881D+00
 Coeff:     -0.723D-03 0.124D-01 0.135D-01-0.871D-02 0.740D-03-0.134D+00
 Coeff:      0.264D+00 0.852D+00
 Gap=     0.273 Goal=   None    Shift=    0.000
 Gap=     0.207 Goal=   None    Shift=    0.000
 RMSDP=2.72D-04 MaxDP=1.70D-02 DE=-1.21D-03 OVMax= 1.62D-02

 Cycle   9  Pass 1  IDiag  1:
 E= -118.445846420740     Delta-E=       -0.000528661648 Rises=F Damp=F
 DIIS: error= 1.81D-03 at cycle   9 NSaved=   9.
 NSaved= 9 IEnMin= 9 EnMin= -118.445846420740     IErMin= 9 ErrMin= 1.81D-03
 ErrMax= 1.81D-03  0.00D+00 EMaxC= 1.00D-01 BMatC= 3.79D-04 BMatP= 1.77D-03
 IDIUse=3 WtCom= 9.82D-01 WtEn= 1.81D-02
 Coeff-Com: -0.273D-03-0.258D-03 0.122D-02 0.489D-03-0.292D-03-0.112D+00
 Coeff-Com:  0.307D-01 0.477D+00 0.603D+00
 Coeff-En:   0.000D+00 0.000D+00 0.000D+00 0.000D+00 0.000D+00 0.000D+00
 Coeff-En:   0.000D+00 0.000D+00 0.100D+01
 Coeff:     -0.268D-03-0.253D-03 0.120D-02 0.481D-03-0.287D-03-0.110D+00
 Coeff:      0.302D-01 0.468D+00 0.611D+00
 Gap=     0.273 Goal=   None    Shift=    0.000
 Gap=     0.209 Goal=   None    Shift=    0.000
 RMSDP=9.89D-05 MaxDP=4.37D-03 DE=-5.29D-04 OVMax= 6.63D-03

 Cycle  10  Pass 1  IDiag  1:
 E= -118.445955642188     Delta-E=       -0.000109221448 Rises=F Damp=F
 DIIS: error= 3.52D-04 at cycle  10 NSaved=  10.
 NSaved=10 IEnMin=10 EnMin= -118.445955642188     IErMin=10 ErrMin= 3.52D-04
 ErrMax= 3.52D-04  0.00D+00 EMaxC= 1.00D-01 BMatC= 1.18D-05 BMatP= 3.79D-04
 IDIUse=3 WtCom= 9.96D-01 WtEn= 3.52D-03
 Coeff-Com: -0.326D-05-0.726D-03-0.749D-03 0.428D-03-0.109D-02-0.886D-03
 Coeff-Com: -0.236D-01-0.250D-01 0.134D+00 0.918D+00
 Coeff-En:   0.000D+00 0.000D+00 0.000D+00 0.000D+00 0.000D+00 0.000D+00
 Coeff-En:   0.000D+00 0.000D+00 0.000D+00 0.100D+01
 Coeff:     -0.325D-05-0.723D-03-0.746D-03 0.427D-03-0.108D-02-0.883D-03
 Coeff:     -0.235D-01-0.249D-01 0.133D+00 0.918D+00
 Gap=     0.273 Goal=   None    Shift=    0.000
 Gap=     0.211 Goal=   None    Shift=    0.000
 RMSDP=2.17D-05 MaxDP=4.89D-04 DE=-1.09D-04 OVMax= 1.81D-03

 Cycle  11  Pass 1  IDiag  1:
 E= -118.445960932297     Delta-E=       -0.000005290109 Rises=F Damp=F
 DIIS: error= 1.40D-04 at cycle  11 NSaved=  11.
 NSaved=11 IEnMin=11 EnMin= -118.445960932297     IErMin=11 ErrMin= 1.40D-04
 ErrMax= 1.40D-04  0.00D+00 EMaxC= 1.00D-01 BMatC= 1.48D-06 BMatP= 1.18D-05
 IDIUse=3 WtCom= 9.99D-01 WtEn= 1.40D-03
 Coeff-Com:  0.448D-05-0.456D-03-0.170D-03 0.237D-03 0.328D-04 0.184D-01
 Coeff-Com: -0.396D-02-0.681D-01-0.689D-01 0.644D-01 0.106D+01
 Coeff-En:   0.000D+00 0.000D+00 0.000D+00 0.000D+00 0.000D+00 0.000D+00
 Coeff-En:   0.000D+00 0.000D+00 0.000D+00 0.000D+00 0.100D+01
 Coeff:      0.447D-05-0.455D-03-0.170D-03 0.237D-03 0.328D-04 0.184D-01
 Coeff:     -0.396D-02-0.680D-01-0.688D-01 0.643D-01 0.106D+01
 Gap=     0.273 Goal=   None    Shift=    0.000
 Gap=     0.211 Goal=   None    Shift=    0.000
 RMSDP=1.20D-05 MaxDP=4.41D-04 DE=-5.29D-06 OVMax= 1.02D-03

 Cycle  12  Pass 1  IDiag  1:
 E= -118.445962204213     Delta-E=       -0.000001271916 Rises=F Damp=F
 DIIS: error= 5.31D-05 at cycle  12 NSaved=  12.
 NSaved=12 IEnMin=12 EnMin= -118.445962204213     IErMin=12 ErrMin= 5.31D-05
 ErrMax= 5.31D-05  0.00D+00 EMaxC= 1.00D-01 BMatC= 1.77D-07 BMatP= 1.48D-06
 IDIUse=1 WtCom= 1.00D+00 WtEn= 0.00D+00
 Coeff-Com:  0.802D-05-0.151D-03-0.256D-04 0.124D-04 0.340D-04-0.281D-03
 Coeff-Com:  0.167D-02 0.558D-02-0.523D-02-0.879D-01-0.799D-01 0.117D+01
 Coeff:      0.802D-05-0.151D-03-0.256D-04 0.124D-04 0.340D-04-0.281D-03
 Coeff:      0.167D-02 0.558D-02-0.523D-02-0.879D-01-0.799D-01 0.117D+01
 Gap=     0.273 Goal=   None    Shift=    0.000
 Gap=     0.211 Goal=   None    Shift=    0.000
 RMSDP=6.08D-06 MaxDP=1.29D-04 DE=-1.27D-06 OVMax= 6.23D-04

 Cycle  13  Pass 1  IDiag  1:
 E= -118.445962507584     Delta-E=       -0.000000303371 Rises=F Damp=F
 DIIS: error= 3.11D-05 at cycle  13 NSaved=  13.
 NSaved=13 IEnMin=13 EnMin= -118.445962507584     IErMin=13 ErrMin= 3.11D-05
 ErrMax= 3.11D-05  0.00D+00 EMaxC= 1.00D-01 BMatC= 4.53D-08 BMatP= 1.77D-07
 IDIUse=1 WtCom= 1.00D+00 WtEn= 0.00D+00
 Coeff-Com:  0.273D-05-0.816D-05 0.130D-04-0.124D-03-0.389D-05-0.515D-02
 Coeff-Com:  0.840D-03 0.193D-01 0.218D-01-0.207D-01-0.323D+00 0.809D-01
 Coeff-Com:  0.123D+01
 Coeff:      0.273D-05-0.816D-05 0.130D-04-0.124D-03-0.389D-05-0.515D-02
 Coeff:      0.840D-03 0.193D-01 0.218D-01-0.207D-01-0.323D+00 0.809D-01
 Coeff:      0.123D+01
 Gap=     0.273 Goal=   None    Shift=    0.000
 Gap=     0.211 Goal=   None    Shift=    0.000
 RMSDP=4.47D-06 MaxDP=1.02D-04 DE=-3.03D-07 OVMax= 4.93D-04

 Cycle  14  Pass 1  IDiag  1:
 E= -118.445962608827     Delta-E=       -0.000000101243 Rises=F Damp=F
 DIIS: error= 9.82D-06 at cycle  14 NSaved=  14.
 NSaved=14 IEnMin=14 EnMin= -118.445962608827     IErMin=14 ErrMin= 9.82D-06
 ErrMax= 9.82D-06  0.00D+00 EMaxC= 1.00D-01 BMatC= 5.92D-09 BMatP= 4.53D-08
 IDIUse=1 WtCom= 1.00D+00 WtEn= 0.00D+00
 Coeff-Com: -0.414D-06 0.103D-04-0.934D-05-0.307D-04 0.229D-04 0.783D-03
 Coeff-Com: -0.492D-03-0.403D-02-0.165D-02 0.268D-01 0.600D-01-0.265D+00
 Coeff-Com: -0.153D+00 0.134D+01
 Coeff:     -0.414D-06 0.103D-04-0.934D-05-0.307D-04 0.229D-04 0.783D-03
 Coeff:     -0.492D-03-0.403D-02-0.165D-02 0.268D-01 0.600D-01-0.265D+00
 Coeff:     -0.153D+00 0.134D+01
 Gap=     0.273 Goal=   None    Shift=    0.000
 Gap=     0.211 Goal=   None    Shift=    0.000
 RMSDP=1.80D-06 MaxDP=3.76D-05 DE=-1.01D-07 OVMax= 1.92D-04

 Cycle  15  Pass 1  IDiag  1:
 E= -118.445962620062     Delta-E=       -0.000000011235 Rises=F Damp=F
 DIIS: error= 3.34D-06 at cycle  15 NSaved=  15.
 NSaved=15 IEnMin=15 EnMin= -118.445962620062     IErMin=15 ErrMin= 3.34D-06
 ErrMax= 3.34D-06  0.00D+00 EMaxC= 1.00D-01 BMatC= 1.05D-09 BMatP= 5.92D-09
 IDIUse=1 WtCom= 1.00D+00 WtEn= 0.00D+00
 Coeff-Com: -0.238D-06 0.742D-05 0.984D-06-0.295D-04 0.117D-04 0.302D-03
 Coeff-Com: -0.999D-04-0.154D-02-0.130D-02 0.678D-02 0.272D-01-0.545D-01
 Coeff-Com: -0.928D-01 0.237D+00 0.879D+00
 Coeff:     -0.238D-06 0.742D-05 0.984D-06-0.295D-04 0.117D-04 0.302D-03
 Coeff:     -0.999D-04-0.154D-02-0.130D-02 0.678D-02 0.272D-01-0.545D-01
 Coeff:     -0.928D-01 0.237D+00 0.879D+00
 Gap=     0.273 Goal=   None    Shift=    0.000
 Gap=     0.211 Goal=   None    Shift=    0.000
 RMSDP=2.16D-07 MaxDP=4.83D-06 DE=-1.12D-08 OVMax= 1.82D-05

 Cycle  16  Pass 1  IDiag  1:
 E= -118.445962620421     Delta-E=       -0.000000000360 Rises=F Damp=F
 DIIS: error= 2.08D-06 at cycle  16 NSaved=  16.
 NSaved=16 IEnMin=16 EnMin= -118.445962620421     IErMin=16 ErrMin= 2.08D-06
 ErrMax= 2.08D-06  0.00D+00 EMaxC= 1.00D-01 BMatC= 3.64D-10 BMatP= 1.05D-09
 IDIUse=1 WtCom= 1.00D+00 WtEn= 0.00D+00
 Coeff-Com:  0.587D-07-0.467D-07 0.879D-06-0.144D-04 0.742D-05-0.248D-03
 Coeff-Com:  0.922D-04 0.945D-03 0.651D-03-0.280D-02-0.127D-01 0.302D-01
 Coeff-Com:  0.367D-01-0.156D+00-0.109D+00 0.121D+01
 Coeff:      0.587D-07-0.467D-07 0.879D-06-0.144D-04 0.742D-05-0.248D-03
 Coeff:      0.922D-04 0.945D-03 0.651D-03-0.280D-02-0.127D-01 0.302D-01
 Coeff:      0.367D-01-0.156D+00-0.109D+00 0.121D+01
 Gap=     0.273 Goal=   None    Shift=    0.000
 Gap=     0.211 Goal=   None    Shift=    0.000
 RMSDP=9.99D-08 MaxDP=4.66D-06 DE=-3.60D-10 OVMax= 4.06D-06

 Cycle  17  Pass 1  IDiag  1:
 E= -118.445962620539     Delta-E=       -0.000000000117 Rises=F Damp=F
 DIIS: error= 8.81D-07 at cycle  17 NSaved=  17.
 NSaved=17 IEnMin=17 EnMin= -118.445962620539     IErMin=17 ErrMin= 8.81D-07
 ErrMax= 8.81D-07  0.00D+00 EMaxC= 1.00D-01 BMatC= 6.23D-11 BMatP= 3.64D-10
 IDIUse=1 WtCom= 1.00D+00 WtEn= 0.00D+00
 Coeff-Com: -0.795D-07 0.792D-06 0.495D-06-0.423D-05 0.805D-06-0.482D-04
 Coeff-Com:  0.966D-05 0.158D-03 0.165D-03 0.156D-03-0.228D-02-0.208D-02
 Coeff-Com:  0.840D-02 0.983D-02-0.819D-01-0.305D+00 0.137D+01
 Coeff:     -0.795D-07 0.792D-06 0.495D-06-0.423D-05 0.805D-06-0.482D-04
 Coeff:      0.966D-05 0.158D-03 0.165D-03 0.156D-03-0.228D-02-0.208D-02
 Coeff:      0.840D-02 0.983D-02-0.819D-01-0.305D+00 0.137D+01
 Gap=     0.273 Goal=   None    Shift=    0.000
 Gap=     0.211 Goal=   None    Shift=    0.000
 RMSDP=5.53D-08 MaxDP=2.79D-06 DE=-1.17D-10 OVMax= 2.38D-06

 Cycle  18  Pass 1  IDiag  1:
 E= -118.445962620562     Delta-E=       -0.000000000023 Rises=F Damp=F
 DIIS: error= 2.01D-07 at cycle  18 NSaved=  18.
 NSaved=18 IEnMin=18 EnMin= -118.445962620562     IErMin=18 ErrMin= 2.01D-07
 ErrMax= 2.01D-07  0.00D+00 EMaxC= 1.00D-01 BMatC= 4.08D-12 BMatP= 6.23D-11
 IDIUse=1 WtCom= 1.00D+00 WtEn= 0.00D+00
 Coeff-Com: -0.255D-07 0.146D-06-0.167D-07-0.649D-06 0.282D-06 0.114D-04
 Coeff-Com: -0.610D-05-0.592D-04-0.172D-04 0.431D-03 0.814D-03-0.431D-02
 Coeff-Com: -0.208D-02 0.214D-01 0.147D-02-0.215D+00 0.246D+00 0.951D+00
 Coeff:     -0.255D-07 0.146D-06-0.167D-07-0.649D-06 0.282D-06 0.114D-04
 Coeff:     -0.610D-05-0.592D-04-0.172D-04 0.431D-03 0.814D-03-0.431D-02
 Coeff:     -0.208D-02 0.214D-01 0.147D-02-0.215D+00 0.246D+00 0.951D+00
 Gap=     0.273 Goal=   None    Shift=    0.000
 Gap=     0.211 Goal=   None    Shift=    0.000
 RMSDP=1.41D-08 MaxDP=6.56D-07 DE=-2.34D-11 OVMax= 5.55D-07

 Cycle  19  Pass 1  IDiag  1:
 E= -118.445962620564     Delta-E=       -0.000000000002 Rises=F Damp=F
 DIIS: error= 4.58D-08 at cycle  19 NSaved=  19.
 NSaved=19 IEnMin=19 EnMin= -118.445962620564     IErMin=19 ErrMin= 4.58D-08
 ErrMax= 4.58D-08  0.00D+00 EMaxC= 1.00D-01 BMatC= 2.13D-13 BMatP= 4.08D-12
 IDIUse=1 WtCom= 1.00D+00 WtEn= 0.00D+00
 Coeff-Com:  0.600D-09 0.420D-07-0.450D-07-0.321D-07 0.465D-07 0.581D-05
 Coeff-Com: -0.203D-05-0.255D-04-0.177D-04 0.918D-04 0.384D-03-0.797D-03
 Coeff-Com: -0.126D-02 0.388D-02 0.937D-02-0.174D-01-0.843D-01 0.168D+00
 Coeff-Com:  0.922D+00
 Coeff:      0.600D-09 0.420D-07-0.450D-07-0.321D-07 0.465D-07 0.581D-05
 Coeff:     -0.203D-05-0.255D-04-0.177D-04 0.918D-04 0.384D-03-0.797D-03
 Coeff:     -0.126D-02 0.388D-02 0.937D-02-0.174D-01-0.843D-01 0.168D+00
 Coeff:      0.922D+00
 Gap=     0.273 Goal=   None    Shift=    0.000
 Gap=     0.211 Goal=   None    Shift=    0.000
 RMSDP=3.32D-09 MaxDP=1.57D-07 DE=-1.65D-12 OVMax= 1.33D-07

 SCF Done:  E(UB3LYP) =  -118.445962621     A.U. after   19 cycles
            NFock= 19  Conv=0.33D-08     -V/T= 2.0056
 <Sx>= 0.0000 <Sy>= 0.0000 <Sz>= 0.5000 <S**2>= 0.7500 S= 0.5000
 <L.S>=  0.00000000000    
 KE= 1.177822750856D+02 PE=-4.190185047886D+02 EE= 1.101660774492D+02
 Annihilation of the first spin contaminant:
 S**2 before annihilation     0.7500,   after     0.7500
 Leave Link  502 at Sat Jun 26 11:00:37 2021, MaxMem=  3355443200 cpu:       101.3
 (Enter /Local/ce_dana/g09/l508.exe)
 QCSCF skips out because SCF is already converged.
 Leave Link  508 at Sat Jun 26 11:00:37 2021, MaxMem=  3355443200 cpu:         0.0
 (Enter /Local/ce_dana/g09/l801.exe)
 DoSCS=F DFT=T ScalE2(SS,OS)=  1.000000  1.000000
 Range of M.O.s used for correlation:     1    96
 NBasis=    96 NAE=    13 NBE=    12 NFC=     0 NFV=     0
 NROrb=     96 NOA=    13 NOB=    12 NVA=    83 NVB=    84
 Leave Link  801 at Sat Jun 26 11:00:37 2021, MaxMem=  3355443200 cpu:         0.0
 (Enter /Local/ce_dana/g09/l1101.exe)
 Using compressed storage, NAtomX=    10.
 Will process     11 centers per pass.
 Leave Link 1101 at Sat Jun 26 11:00:37 2021, MaxMem=  3355443200 cpu:         3.9
 (Enter /Local/ce_dana/g09/l1102.exe)
 Symmetrizing basis deriv contribution to polar:
 IMax=3 JMax=2 DiffMx= 0.00D+00
 Leave Link 1102 at Sat Jun 26 11:00:37 2021, MaxMem=  3355443200 cpu:         0.1
 (Enter /Local/ce_dana/g09/l1110.exe)
 Forming Gx(P) for the SCF density, NAtomX=    10.
 Integral derivatives from FoFJK, PRISM(SPDF).
 Do as many integral derivatives as possible in FoFJK.
 G2DrvN: MDV=    3355443016.
 G2DrvN: will do    11 centers at a time, making    1 passes.
 Calling FoFCou, ICntrl=  3107 FMM=F I1Cent=   0 AccDes= 1.00D-12.
 FoFJK:  IHMeth= 1 ICntrl=    3107 DoSepK=F KAlg= 0 I1Cent=   0 FoldK=F
 IRaf=         0 NMat=   1 IRICut=       1 DoRegI=T DoRafI=F ISym2E= 0.
 FoFCou: FMM=F IPFlag=           0 FMFlag=      100000 FMFlg1=           0
         NFxFlg=           0 DoJE=F BraDBF=F KetDBF=F FulRan=T
         wScrn=  0.000000 ICntrl=    3107 IOpCl=  1 I1Cent=           0 NGrid=           0
         NMat0=    1 NMatS0=      1 NMatT0=    0 NMatD0=    1 NMtDS0=    0 NMtDT0=    0
 Symmetry not used in FoFCou.
 End of G2Drv F.D. properties file   721 does not exist.
 End of G2Drv F.D. properties file   722 does not exist.
 End of G2Drv F.D. properties file   788 does not exist.
 Leave Link 1110 at Sat Jun 26 11:00:48 2021, MaxMem=  3355443200 cpu:       108.5
 (Enter /Local/ce_dana/g09/l1002.exe)
 Minotr:  UHF open shell wavefunction.
          IDoAtm=1111111111
          Direct CPHF calculation.
          Differentiating once with respect to nuclear coordinates.
          Requested convergence is 1.0D-08 RMS, and 1.0D-07 maximum.
          Secondary convergence is 1.0D-12 RMS, and 1.0D-12 maximum.
          NewPWx=T KeepS1=F KeepF1=F KeepIn=T MapXYZ=F SortEE=F KeepMc=T.
          MDV=    3355442904 using IRadAn=       1.
 Generate precomputed XC quadrature information.
 Keep R1 and R2 ints in memory in canonical form, NReq=22605745.
 FoFCou: FMM=F IPFlag=           0 FMFlag=           0 FMFlg1=           0
         NFxFlg=           0 DoJE=F BraDBF=F KetDBF=F FulRan=T
         wScrn=  0.000000 ICntrl=     600 IOpCl=  0 I1Cent=           0 NGrid=           0
         NMat0=    1 NMatS0=   4656 NMatT0=    0 NMatD0=    1 NMtDS0=    0 NMtDT0=    0
 Symmetry not used in FoFCou.
          Solving linear equations simultaneously, MaxMat=       0.
          There are    33 degrees of freedom in the 1st order CPHF.  IDoFFX=6 NUNeed=     0.
     27 vectors produced by pass  0 Test12= 6.32D-15 3.03D-09 XBig12= 1.35D-01 8.87D-02.
 AX will form    27 AO Fock derivatives at one time.
     27 vectors produced by pass  1 Test12= 6.32D-15 3.03D-09 XBig12= 1.79D-02 3.74D-02.
     27 vectors produced by pass  2 Test12= 6.32D-15 3.03D-09 XBig12= 1.23D-04 1.68D-03.
     27 vectors produced by pass  3 Test12= 6.32D-15 3.03D-09 XBig12= 2.08D-07 8.00D-05.
     25 vectors produced by pass  4 Test12= 6.32D-15 3.03D-09 XBig12= 2.41D-10 2.51D-06.
     13 vectors produced by pass  5 Test12= 6.32D-15 3.03D-09 XBig12= 4.12D-13 1.02D-07.
      2 vectors produced by pass  6 Test12= 6.32D-15 3.03D-09 XBig12= 2.04D-15 7.88D-09.
 InvSVY:  IOpt=1 It=  1 EMax= 1.67D-15
 Solved reduced A of dimension   148 with    27 vectors.
 End of Minotr F.D. properties file   721 does not exist.
 End of Minotr F.D. properties file   722 does not exist.
 End of Minotr F.D. properties file   788 does not exist.
 Leave Link 1002 at Sat Jun 26 11:01:01 2021, MaxMem=  3355443200 cpu:       124.1
 (Enter /Local/ce_dana/g09/l601.exe)
 Copying SCF densities to generalized density rwf, IOpCl= 1 IROHF=0.

 **********************************************************************

            Population analysis using the SCF density.

 **********************************************************************

 Orbital symmetries:
 Alpha Orbitals:
       Occupied  (A) (A) (A) (A) (A) (A) (A) (A) (A) (A) (A) (A)
                 (A)
       Virtual   (A) (A) (A) (A) (A) (A) (A) (A) (A) (A) (A) (A)
                 (A) (A) (A) (A) (A) (A) (A) (A) (A) (A) (A) (A)
                 (A) (A) (A) (A) (A) (A) (A) (A) (A) (A) (A) (A)
                 (A) (A) (A) (A) (A) (A) (A) (A) (A) (A) (A) (A)
                 (A) (A) (A) (A) (A) (A) (A) (A) (A) (A) (A) (A)
                 (A) (A) (A) (A) (A) (A) (A) (A) (A) (A) (A) (A)
                 (A) (A) (A) (A) (A) (A) (A) (A) (A) (A) (A)
 Beta  Orbitals:
       Occupied  (A) (A) (A) (A) (A) (A) (A) (A) (A) (A) (A) (A)
       Virtual   (A) (A) (A) (A) (A) (A) (A) (A) (A) (A) (A) (A)
                 (A) (A) (A) (A) (A) (A) (A) (A) (A) (A) (A) (A)
                 (A) (A) (A) (A) (A) (A) (A) (A) (A) (A) (A) (A)
                 (A) (A) (A) (A) (A) (A) (A) (A) (A) (A) (A) (A)
                 (A) (A) (A) (A) (A) (A) (A) (A) (A) (A) (A) (A)
                 (A) (A) (A) (A) (A) (A) (A) (A) (A) (A) (A) (A)
                 (A) (A) (A) (A) (A) (A) (A) (A) (A) (A) (A) (A)
 The electronic state is 2-A.
 Alpha  occ. eigenvalues --  -10.17485 -10.16893 -10.16008  -0.78703  -0.68582
 Alpha  occ. eigenvalues --   -0.55315  -0.46754  -0.42310  -0.41421  -0.37373
 Alpha  occ. eigenvalues --   -0.34735  -0.32240  -0.25934
 Alpha virt. eigenvalues --    0.01368   0.05228   0.07599   0.08556   0.11544
 Alpha virt. eigenvalues --    0.12607   0.13849   0.23295   0.24949   0.29422
 Alpha virt. eigenvalues --    0.31076   0.32124   0.33443   0.37952   0.42140
 Alpha virt. eigenvalues --    0.43816   0.46956   0.51730   0.54779   0.57350
 Alpha virt. eigenvalues --    0.58654   0.59729   0.61895   0.66532   0.69257
 Alpha virt. eigenvalues --    0.79064   0.84596   0.87110   0.96415   1.05783
 Alpha virt. eigenvalues --    1.11301   1.19342   1.25248   1.25249   1.25266
 Alpha virt. eigenvalues --    1.36822   1.38087   1.40596   1.45072   1.47726
 Alpha virt. eigenvalues --    1.50555   1.51654   1.56843   1.58858   1.60992
 Alpha virt. eigenvalues --    1.71945   1.73523   1.74408   1.83003   1.86713
 Alpha virt. eigenvalues --    2.00101   2.00534   2.04487   2.10447   2.11418
 Alpha virt. eigenvalues --    2.15088   2.17584   2.25155   2.32389   2.32948
 Alpha virt. eigenvalues --    2.36952   2.43840   2.45748   2.47481   2.52857
 Alpha virt. eigenvalues --    2.55186   2.60389   2.66158   2.68443   2.78181
 Alpha virt. eigenvalues --    2.84391   2.88724   3.04662   3.14869   3.45379
 Alpha virt. eigenvalues --    3.69920   3.76548   3.81593   3.95068   4.29172
 Alpha virt. eigenvalues --   23.69394  23.90622  24.26119
  Beta  occ. eigenvalues --  -10.17485 -10.16892 -10.16008  -0.78703  -0.68581
  Beta  occ. eigenvalues --   -0.55315  -0.46754  -0.42309  -0.41420  -0.37373
  Beta  occ. eigenvalues --   -0.34735  -0.25934
  Beta virt. eigenvalues --   -0.04824   0.01371   0.05252   0.07599   0.08575
  Beta virt. eigenvalues --    0.11645   0.12624   0.13850   0.23329   0.29419
  Beta virt. eigenvalues --    0.30836   0.32124   0.33415   0.37929   0.38661
  Beta virt. eigenvalues --    0.42151   0.43867   0.46962   0.51730   0.54793
  Beta virt. eigenvalues --    0.57354   0.58694   0.59732   0.61896   0.66537
  Beta virt. eigenvalues --    0.69257   0.79064   0.84597   0.87110   0.96416
  Beta virt. eigenvalues --    1.05783   1.11301   1.19343   1.36823   1.38087
  Beta virt. eigenvalues --    1.40596   1.45072   1.47724   1.48369   1.48370
  Beta virt. eigenvalues --    1.49465   1.50561   1.51655   1.56843   1.58859
  Beta virt. eigenvalues --    1.60992   1.71946   1.73524   1.74409   1.83012
  Beta virt. eigenvalues --    1.86716   2.00125   2.00540   2.04518   2.10564
  Beta virt. eigenvalues --    2.11422   2.17512   2.25152   2.32360   2.32931
  Beta virt. eigenvalues --    2.36888   2.43127   2.44861   2.45892   2.47504
  Beta virt. eigenvalues --    2.53060   2.55187   2.60391   2.66160   2.68444
  Beta virt. eigenvalues --    2.78182   2.84391   2.88724   3.04663   3.14870
  Beta virt. eigenvalues --    3.45379   3.69920   3.76547   3.81593   3.95068
  Beta virt. eigenvalues --    4.29172  23.69394  23.90622  24.26119
          Condensed to atoms (all electrons):
               1          2          3          4          5          6
     1  C    4.823382   0.369795  -0.064819   0.397436   0.406317   0.397309
     2  C    0.369795   4.902548   0.657070  -0.035567  -0.038976  -0.035529
     3  C   -0.064819   0.657070   4.842484   0.000770  -0.005126   0.000600
     4  H    0.397436  -0.035567   0.000770   0.585558  -0.027829  -0.032956
     5  H    0.406317  -0.038976  -0.005126  -0.027829   0.573958  -0.027758
     6  H    0.397309  -0.035529   0.000600  -0.032956  -0.027758   0.585065
     7  H   -0.047400   0.407570  -0.038772  -0.002849   0.007069  -0.002709
     8  H   -0.000015  -0.000001  -0.000000  -0.000002  -0.000000   0.000223
     9  H   -0.012096  -0.040434   0.407958   0.000196   0.005586   0.000198
    10  H    0.007509  -0.033307   0.406892  -0.000411   0.000005  -0.000409
               7          8          9         10
     1  C   -0.047400  -0.000015  -0.012096   0.007509
     2  C    0.407570  -0.000001  -0.040434  -0.033307
     3  C   -0.038772  -0.000000   0.407958   0.406892
     4  H   -0.002849  -0.000002   0.000196  -0.000411
     5  H    0.007069  -0.000000   0.005586   0.000005
     6  H   -0.002709   0.000223   0.000198  -0.000409
     7  H    0.583057  -0.000000   0.008528  -0.012298
     8  H   -0.000000   0.999620  -0.000000  -0.000000
     9  H    0.008528  -0.000000   0.575479  -0.042226
    10  H   -0.012298  -0.000000  -0.042226   0.569757
          Atomic-Atomic Spin Densities.
               1          2          3          4          5          6
     1  C    0.000742  -0.000102  -0.000017  -0.000065  -0.000011   0.000039
     2  C   -0.000102  -0.000070   0.000019  -0.000022  -0.000018   0.000166
     3  C   -0.000017   0.000019   0.000049   0.000006   0.000007  -0.000006
     4  H   -0.000065  -0.000022   0.000006  -0.000036  -0.000015   0.000154
     5  H   -0.000011  -0.000018   0.000007  -0.000015  -0.000052   0.000078
     6  H    0.000039   0.000166  -0.000006   0.000154   0.000078  -0.001001
     7  H    0.000003  -0.000008   0.000005  -0.000006  -0.000002   0.000010
     8  H   -0.000023   0.000000   0.000000  -0.000001  -0.000000   0.000190
     9  H   -0.000001   0.000002  -0.000001   0.000000   0.000001  -0.000002
    10  H    0.000001  -0.000003   0.000003  -0.000000  -0.000000   0.000002
               7          8          9         10
     1  C    0.000003  -0.000023  -0.000001   0.000001
     2  C   -0.000008   0.000000   0.000002  -0.000003
     3  C    0.000005   0.000000  -0.000001   0.000003
     4  H   -0.000006  -0.000001   0.000000  -0.000000
     5  H   -0.000002  -0.000000   0.000001  -0.000000
     6  H    0.000010   0.000190  -0.000002   0.000002
     7  H    0.000004  -0.000000   0.000001  -0.000003
     8  H   -0.000000   0.999606  -0.000000   0.000000
     9  H    0.000001  -0.000000  -0.000001  -0.000000
    10  H   -0.000003   0.000000  -0.000000   0.000000
 Mulliken charges and spin densities:
               1          2
     1  C   -0.277419   0.000566
     2  C   -0.153171  -0.000037
     3  C   -0.207057   0.000066
     4  H    0.115652   0.000015
     5  H    0.106753  -0.000012
     6  H    0.115966  -0.000371
     7  H    0.097803   0.000003
     8  H    0.000174   0.999772
     9  H    0.096810  -0.000002
    10  H    0.104489  -0.000001
 Sum of Mulliken charges =  -0.00000   1.00000
 Mulliken charges and spin densities with hydrogens summed into heavy atoms:
               1          2
     1  C    0.061126   0.999970
     2  C   -0.055368  -0.000034
     3  C   -0.005758   0.000063
 APT charges:
               1
     1  C   -0.948229
     2  C   -0.537884
     3  C   -0.617744
     4  H    0.379163
     5  H    0.282748
     6  H    0.335244
     7  H    0.340500
     8  H    0.001036
     9  H    0.300507
    10  H    0.464659
 Sum of APT charges =  -0.00000
 APT charges with hydrogens summed into heavy atoms:
               1
     1  C    0.049962
     2  C   -0.197384
     3  C    0.147422
 Electronic spatial extent (au):  <R**2>=            328.5525
 Charge=             -0.0000 electrons
 Dipole moment (field-independent basis, Debye):
    X=             -0.3378    Y=             -0.1782    Z=             -0.0689  Tot=              0.3880
 Quadrupole moment (field-independent basis, Debye-Ang):
   XX=            -21.3667   YY=            -22.6240   ZZ=            -20.5629
   XY=              0.9613   XZ=             -0.1222   YZ=              0.4947
 Traceless Quadrupole moment (field-independent basis, Debye-Ang):
   XX=              0.1512   YY=             -1.1061   ZZ=              0.9550
   XY=              0.9613   XZ=             -0.1222   YZ=              0.4947
 Octapole moment (field-independent basis, Debye-Ang**2):
  XXX=              8.9834  YYY=             -5.9947  ZZZ=              0.5251  XYY=              1.8695
  XXY=              1.3445  XXZ=             -1.0824  XZZ=              3.6339  YZZ=             -1.0123
  YYZ=              0.1419  XYZ=              0.1922
 Hexadecapole moment (field-independent basis, Debye-Ang**3):
 XXXX=           -404.9584 YYYY=           -108.1372 ZZZZ=            -54.4246 XXXY=             23.6061
 XXXZ=             -3.6321 YYYX=             20.5412 YYYZ=              1.4183 ZZZX=             -2.4000
 ZZZY=              2.4668 XXYY=            -86.4616 XXZZ=            -77.5640 YYZZ=            -28.6195
 XXYZ=             -0.2860 YYXZ=             -0.5249 ZZXY=              7.2169
 N-N= 7.262418963321D+01 E-N=-4.190185030540D+02  KE= 1.177822750856D+02
  Exact polarizability:   0.000   0.000   0.000   0.000   0.000   0.000
 Approx polarizability:  57.644  14.016  40.919   7.602   6.938  48.016
                          Isotropic Fermi Contact Couplings
        Atom                 a.u.       MegaHertz       Gauss      10(-4) cm-1
     1  C(13)              0.00002       0.01854       0.00662       0.00618
     2  C(13)             -0.00000      -0.00088      -0.00031      -0.00029
     3  C(13)              0.00001       0.00678       0.00242       0.00226
     4  H(1)              -0.00000      -0.00078      -0.00028      -0.00026
     5  H(1)              -0.00000      -0.01028      -0.00367      -0.00343
     6  H(1)              -0.00000      -0.01649      -0.00588      -0.00550
     7  H(1)               0.00000       0.00184       0.00066       0.00061
     8  H(1)               0.29698    1327.46663     473.67309     442.79521
     9  H(1)              -0.00000      -0.00221      -0.00079      -0.00074
    10  H(1)               0.00000       0.00037       0.00013       0.00012
 --------------------------------------------------------
       Center         ----  Spin Dipole Couplings  ----
                      3XX-RR        3YY-RR        3ZZ-RR
 --------------------------------------------------------
     1   Atom        0.001227     -0.000175     -0.001052
     2   Atom        0.000976     -0.000376     -0.000601
     3   Atom        0.000758     -0.000298     -0.000459
     4   Atom        0.000459      0.000261     -0.000720
     5   Atom        0.000952     -0.000263     -0.000689
     6   Atom        0.001965     -0.000142     -0.001822
     7   Atom        0.000765     -0.000290     -0.000475
     8   Atom        0.000007     -0.000000     -0.000006
     9   Atom        0.000724     -0.000361     -0.000364
    10   Atom        0.000602     -0.000285     -0.000318
 --------------------------------------------------------
                        XY            XZ            YZ
 --------------------------------------------------------
     1   Atom       -0.001507      0.000331     -0.000206
     2   Atom       -0.000620     -0.000070      0.000034
     3   Atom       -0.000335      0.000077     -0.000034
     4   Atom       -0.001062      0.000086     -0.000068
     5   Atom       -0.001124      0.000640     -0.000375
     6   Atom       -0.002530      0.000006     -0.000002
     7   Atom       -0.000571     -0.000291      0.000126
     8   Atom       -0.000009      0.000000     -0.000000
     9   Atom       -0.000267      0.000254     -0.000057
    10   Atom       -0.000170     -0.000019      0.000002
 --------------------------------------------------------


 ---------------------------------------------------------------------------------
              Anisotropic Spin Dipole Couplings in Principal Axis System
 ---------------------------------------------------------------------------------

       Atom             a.u.   MegaHertz   Gauss  10(-4) cm-1        Axes

              Baa    -0.0011    -0.153    -0.054    -0.051  0.5455  0.8297 -0.1181
     1 C(13)  Bbb    -0.0011    -0.147    -0.053    -0.049 -0.0347  0.1632  0.9860
              Bcc     0.0022     0.300     0.107     0.100  0.8374 -0.5338  0.1178
 
              Baa    -0.0006    -0.083    -0.030    -0.028  0.3238  0.8740 -0.3623
     2 C(13)  Bbb    -0.0006    -0.081    -0.029    -0.027  0.1687  0.3235  0.9311
              Bcc     0.0012     0.164     0.058     0.055  0.9310 -0.3626 -0.0427
 
              Baa    -0.0005    -0.063    -0.022    -0.021 -0.0146  0.1728  0.9849
     3 C(13)  Bbb    -0.0004    -0.053    -0.019    -0.018  0.2857  0.9446 -0.1615
              Bcc     0.0009     0.115     0.041     0.039  0.9582 -0.2790  0.0632
 
              Baa    -0.0007    -0.388    -0.139    -0.130 -0.2665 -0.2216  0.9380
     4 H(1)   Bbb    -0.0007    -0.376    -0.134    -0.125  0.6195  0.7061  0.3429
              Bcc     0.0014     0.764     0.273     0.255  0.7383 -0.6725  0.0509
 
              Baa    -0.0009    -0.499    -0.178    -0.166  0.5478  0.8169 -0.1805
     5 H(1)   Bbb    -0.0009    -0.483    -0.172    -0.161 -0.1412  0.3030  0.9425
              Bcc     0.0018     0.981     0.350     0.327  0.8246 -0.4908  0.2813
 
              Baa    -0.0018    -0.976    -0.348    -0.326  0.5476  0.8208 -0.1627
     6 H(1)   Bbb    -0.0018    -0.972    -0.347    -0.324  0.0893  0.1360  0.9867
              Bcc     0.0037     1.948     0.695     0.650  0.8320 -0.5548  0.0011
 
              Baa    -0.0005    -0.288    -0.103    -0.096  0.3979  0.5282  0.7501
     7 H(1)   Bbb    -0.0005    -0.287    -0.103    -0.096  0.1888  0.7530 -0.6304
              Bcc     0.0011     0.576     0.206     0.192  0.8978 -0.3925 -0.1998
 
              Baa    -0.0000    -0.003    -0.001    -0.001 -0.0442 -0.0646  0.9969
     8 H(1)   Bbb    -0.0000    -0.003    -0.001    -0.001  0.5527  0.8297  0.0783
              Bcc     0.0000     0.007     0.002     0.002  0.8322 -0.5545  0.0010
 
              Baa    -0.0004    -0.226    -0.081    -0.075  0.2961  0.8392 -0.4561
     9 H(1)   Bbb    -0.0004    -0.223    -0.080    -0.074 -0.0761  0.4967  0.8646
              Bcc     0.0008     0.450     0.160     0.150  0.9521 -0.2213  0.2109
 
              Baa    -0.0003    -0.170    -0.061    -0.057  0.1094  0.4957  0.8616
    10 H(1)   Bbb    -0.0003    -0.168    -0.060    -0.056  0.1470  0.8492 -0.5072
              Bcc     0.0006     0.338     0.121     0.113  0.9831 -0.1822 -0.0201
 

 ---------------------------------------------------------------------------------

 No NMR shielding tensors so no spin-rotation constants.
 Leave Link  601 at Sat Jun 26 11:01:01 2021, MaxMem=  3355443200 cpu:         2.3
 (Enter /Local/ce_dana/g09/l701.exe)
 Compute integral second derivatives.
 ... and contract with generalized density number  0.
 Leave Link  701 at Sat Jun 26 11:01:02 2021, MaxMem=  3355443200 cpu:         4.4
 (Enter /Local/ce_dana/g09/l702.exe)
 L702 exits ... SP integral derivatives will be done elsewhere.
 Leave Link  702 at Sat Jun 26 11:01:02 2021, MaxMem=  3355443200 cpu:         0.1
 (Enter /Local/ce_dana/g09/l703.exe)
 Compute integral second derivatives, UseDBF=F ICtDFT=           0.
 Integral derivatives from FoFJK, PRISM(SPDF).
 Calling FoFJK, ICntrl=    100147 FMM=F ISym2X=0 I1Cent= 0 IOpClX= 1 NMat=1 NMatS=1 NMatT=0.
 FoFJK:  IHMeth= 1 ICntrl=  100147 DoSepK=F KAlg= 0 I1Cent=   0 FoldK=F
 IRaf=         0 NMat=   1 IRICut=       1 DoRegI=T DoRafI=F ISym2E= 0.
 FoFCou: FMM=F IPFlag=           0 FMFlag=      100000 FMFlg1=         800
         NFxFlg=           0 DoJE=F BraDBF=F KetDBF=F FulRan=T
         wScrn=  0.000000 ICntrl=  100147 IOpCl=  1 I1Cent=           0 NGrid=           0
         NMat0=    1 NMatS0=      1 NMatT0=    0 NMatD0=    1 NMtDS0=    0 NMtDT0=    0
 Symmetry not used in FoFCou.
 Leave Link  703 at Sat Jun 26 11:01:13 2021, MaxMem=  3355443200 cpu:       106.4
 (Enter /Local/ce_dana/g09/l716.exe)
 Dipole        =-1.32884579D-01-7.00982263D-02-2.70920557D-02
 Polarizability= 0.00000000D+00 0.00000000D+00 0.00000000D+00
                 0.00000000D+00 0.00000000D+00 0.00000000D+00
 ***** Axes restored to original set *****
 -------------------------------------------------------------------
 Center     Atomic                   Forces (Hartrees/Bohr)
 Number     Number              X              Y              Z
 -------------------------------------------------------------------
      1        6           0.001364313    0.000683488   -0.004479622
      2        6          -0.000810537   -0.000869374    0.005793663
      3        6          -0.001307695   -0.000128768    0.000231242
      4        1          -0.002384972    0.003002970    0.000826193
      5        1           0.003489114   -0.000182632    0.003052652
      6        1          -0.001970182   -0.003378641   -0.000033676
      7        1          -0.003520269    0.000384500   -0.003928726
      8        1           0.000001766    0.000004060   -0.000001005
      9        1           0.004012529   -0.000340684    0.004221963
     10        1           0.001125933    0.000825083   -0.005682683
 -------------------------------------------------------------------
 Cartesian Forces:  Max     0.005793663 RMS     0.002630749
 Force constants in Cartesian coordinates: 
                1             2             3             4             5 
      1  0.543020D+00
      2 -0.212388D-02  0.509628D+00
      3  0.284707D-01  0.341494D-02  0.497797D+00
      4 -0.984762D-01 -0.673834D-02  0.395365D-01  0.824007D+00
      5 -0.583708D-02 -0.745640D-01  0.206717D-01  0.418807D-01  0.161969D+00
      6  0.328125D-01  0.201806D-01 -0.208921D+00 -0.434367D-01 -0.576748D-01
      7 -0.111869D-01 -0.230727D-02  0.944999D-02 -0.512661D+00 -0.392581D-01
      8 -0.560197D-02  0.689155D-02  0.283723D-02 -0.392771D-01 -0.555835D-01
      9  0.338727D-01  0.415585D-02 -0.964571D-02  0.107798D+00  0.176033D-01
     10 -0.136830D+00  0.111998D+00  0.361893D-01 -0.986639D-02  0.611577D-02
     11  0.111639D+00 -0.178485D+00 -0.479066D-01 -0.473925D-02  0.635886D-02
     12  0.379031D-01 -0.491632D-01 -0.651044D-01  0.221934D-01 -0.231010D-01
     13 -0.192569D+00  0.769763D-02 -0.122244D+00  0.911031D-02 -0.345363D-03
     14  0.729894D-02 -0.491249D-01  0.626965D-02  0.396841D-02 -0.105539D-02
     15 -0.119311D+00  0.647356D-02 -0.151221D+00 -0.254646D-01  0.132006D-02
     16 -0.110339D+00 -0.107720D+00  0.305941D-02 -0.910920D-02 -0.876520D-02
     17 -0.107807D+00 -0.221750D+00  0.113932D-01 -0.229241D-02 -0.123931D-02
     18  0.471454D-02  0.129428D-01 -0.481391D-01  0.194519D-01  0.277333D-01
     19  0.860642D-02 -0.791027D-03  0.848766D-02 -0.177595D+00  0.910555D-02
     20  0.316340D-02  0.211748D-02  0.318973D-02  0.965800D-02 -0.442316D-01
     21 -0.207671D-01  0.159434D-02 -0.180153D-01 -0.124884D+00  0.122317D-01
     22  0.000000D+00 -0.154289D-05  0.000000D+00  0.000000D+00  0.000000D+00
     23  0.000000D+00 -0.255814D-05  0.385869D-05  0.171233D-05  0.000000D+00
     24  0.000000D+00  0.000000D+00  0.000000D+00  0.000000D+00  0.000000D+00
     25  0.143242D-02  0.755021D-03 -0.185829D-02 -0.201260D-01  0.176505D-02
     26  0.297730D-03 -0.786662D-02 -0.136718D-02 -0.218512D-02  0.585667D-02
     27  0.162317D-02 -0.119255D-02  0.150929D-02  0.602620D-02  0.181259D-03
     28 -0.365766D-02 -0.767959D-03 -0.109259D-02 -0.528327D-02 -0.466112D-02
     29 -0.102865D-02  0.131560D-01  0.149350D-02 -0.276651D-03  0.248940D-02
     30  0.681841D-03  0.159327D-02  0.174036D-02 -0.121993D-02  0.103401D-02
                6             7             8             9            10 
      6  0.562333D+00
      7  0.107613D+00  0.805571D+00
      8  0.175846D-01  0.451798D-01  0.121412D+00
      9 -0.139033D+00 -0.576236D-01 -0.717661D-01  0.620077D+00
     10  0.543135D-02  0.139445D-02  0.131974D-05  0.188005D-02  0.148622D+00
     11  0.152345D-02 -0.833276D-03 -0.148546D-03  0.540629D-03 -0.122745D+00
     12 -0.875099D-02 -0.777907D-03  0.722052D-03 -0.351397D-02 -0.461151D-01
     13  0.710146D-02  0.154832D-02 -0.585255D-04  0.128521D-02 -0.142064D-01
     14  0.328694D-02  0.309897D-03 -0.436120D-03 -0.275589D-03  0.175639D-01
     15 -0.219372D-01 -0.139231D-02 -0.401337D-03  0.205877D-02  0.699787D-02
     16  0.347514D-02  0.130217D-02 -0.333800D-03  0.182340D-02  0.105508D-01
     17  0.126082D-02  0.117466D-02  0.206567D-04  0.597385D-03 -0.123206D-01
     18 -0.193368D-02 -0.496716D-03  0.154127D-03 -0.353079D-02 -0.496267D-02
     19 -0.120899D+00 -0.212672D-01  0.177741D-02 -0.242069D-01  0.418166D-03
     20  0.124750D-01 -0.245296D-02  0.642973D-02 -0.148093D-02 -0.352004D-03
     21 -0.183313D+00  0.718031D-02  0.203105D-03  0.773691D-02  0.252236D-03
     22  0.000000D+00  0.000000D+00  0.000000D+00  0.000000D+00  0.000000D+00
     23 -0.323945D-05 -0.119689D-05  0.000000D+00  0.000000D+00  0.000000D+00
     24  0.134331D-05  0.000000D+00  0.000000D+00  0.000000D+00  0.000000D+00
     25 -0.234517D-01 -0.191304D+00  0.831212D-02 -0.123843D+00  0.174317D-03
     26 -0.142802D-02  0.890541D-02 -0.377968D-01  0.122102D-01  0.104670D-02
     27  0.683874D-02 -0.128317D+00  0.119713D-01 -0.177150D+00  0.115939D-03
     28  0.313546D-01 -0.733961D-01 -0.999925D-02  0.590146D-01 -0.257311D-03
     29  0.279458D-02 -0.107170D-01 -0.407891D-01  0.384144D-01 -0.130808D-02
     30 -0.528388D-02  0.643639D-01  0.386950D-01 -0.296998D+00  0.211128D-03
               11            12            13            14            15 
     11  0.194920D+00
     12  0.527549D-01  0.705850D-01
     13 -0.549409D-03 -0.116399D-01  0.207624D+00
     14 -0.466300D-03  0.161728D-01 -0.804179D-02  0.471494D-01
     15  0.784683D-03  0.603064D-02  0.132776D+00 -0.814237D-02  0.167409D+00
     16  0.171450D-01 -0.151917D-02 -0.120810D-01 -0.204549D-01  0.205836D-02
     17 -0.219817D-01  0.733704D-03  0.164777D-02  0.224012D-02 -0.974637D-03
     18 -0.713231D-02  0.586673D-04 -0.928108D-02 -0.181542D-01  0.118131D-02
     19  0.248969D-03 -0.839689D-03  0.108745D-03 -0.467630D-03  0.276066D-02
     20  0.261944D-03  0.529511D-03 -0.468511D-03  0.169240D-02  0.989564D-03
     21 -0.682157D-03  0.662025D-03  0.270170D-02  0.101869D-02 -0.449681D-02
     22  0.000000D+00  0.000000D+00  0.000000D+00  0.000000D+00  0.000000D+00
     23  0.000000D+00  0.000000D+00  0.000000D+00  0.000000D+00  0.000000D+00
     24  0.000000D+00  0.000000D+00  0.000000D+00  0.000000D+00  0.000000D+00
     25 -0.734296D-04  0.142869D-03  0.247098D-03 -0.179316D-03  0.140015D-02
     26  0.183163D-03 -0.829955D-03  0.781360D-04  0.188092D-03  0.353597D-04
     27  0.494192D-04 -0.738120D-04 -0.615110D-03 -0.682446D-04  0.390749D-03
     28 -0.928254D-04  0.652309D-03  0.217569D-03  0.237534D-05  0.174539D-03
     29 -0.642069D-03  0.218090D-02  0.400086D-04 -0.187206D-03 -0.851129D-04
     30  0.675268D-04  0.106840D-03 -0.852479D-04 -0.107887D-03  0.584460D-03
               16            17            18            19            20 
     16  0.119418D+00
     17  0.119663D+00  0.242481D+00
     18 -0.956199D-02 -0.135230D-01  0.520757D-01
     19  0.381417D-03 -0.169886D-04 -0.806382D-03  0.192694D+00
     20  0.281419D-03  0.267124D-03 -0.738986D-03 -0.914783D-02  0.296137D-01
     21  0.265234D-03  0.607864D-03  0.637007D-03  0.133124D+00 -0.153278D-01
     22  0.000000D+00  0.168953D-05  0.000000D+00  0.000000D+00  0.000000D+00
     23  0.000000D+00  0.701972D-05 -0.353972D-05  0.000000D+00  0.000000D+00
     24  0.000000D+00 -0.248266D-05  0.000000D+00  0.000000D+00  0.000000D+00
     25  0.268056D-03  0.707787D-04  0.697199D-04 -0.438161D-02 -0.113678D-02
     26 -0.102810D-02 -0.146289D-03  0.848782D-03 -0.110902D-02  0.113170D-01
     27 -0.158790D-03 -0.557406D-04  0.145710D-03  0.191970D-02  0.151854D-02
     28 -0.390599D-03 -0.121064D-03  0.873301D-03  0.103489D-02  0.455239D-03
     29  0.121276D-02  0.101935D-03 -0.212705D-02  0.400573D-03 -0.746789D-02
     30  0.557926D-03 -0.371009D-04 -0.495279D-03  0.460790D-03 -0.115465D-02
               21            22            23            24            25 
     21  0.194631D+00
     22  0.000000D+00  0.000000D+00
     23  0.000000D+00  0.000000D+00 -0.302408D-05
     24  0.000000D+00  0.000000D+00  0.116449D-05  0.000000D+00
     25  0.204592D-02  0.000000D+00  0.000000D+00  0.000000D+00  0.206436D+00
     26  0.153254D-02  0.000000D+00  0.000000D+00  0.000000D+00 -0.894397D-02
     27  0.103738D-02  0.000000D+00  0.000000D+00  0.000000D+00  0.138995D+00
     28  0.820489D-04  0.000000D+00  0.000000D+00  0.000000D+00  0.725372D-02
     29 -0.117860D-02  0.000000D+00  0.000000D+00  0.000000D+00 -0.569524D-03
     30  0.112062D-02  0.000000D+00  0.000000D+00  0.000000D+00  0.649960D-02
               26            27            28            29            30 
     26  0.268255D-01
     27 -0.133641D-01  0.180663D+00
     28  0.293822D-02 -0.195889D-01  0.744788D-01
     29  0.143911D-02  0.960193D-03  0.122466D-01  0.319000D-01
     30  0.236244D-02 -0.133610D-01 -0.714700D-01 -0.424528D-01  0.312586D+00
 FormGI is forming the generalized inverse of G from B-inverse, IUseBI=4.
 Force constants in internal coordinates: 
                1             2             3             4             5 
      1  0.305902D+00
      2  0.813368D-02  0.316614D+00
      3  0.513411D-02  0.278193D-02  0.322268D+00
      4  0.818959D-02  0.401479D-02  0.279066D-02  0.316539D+00
      5  0.163731D-01 -0.957157D-03  0.886495D-03 -0.979067D-03  0.613189D+00
      6  0.614293D-02  0.585058D-03 -0.647015D-03  0.578086D-03  0.779533D-02
      7  0.413913D-03 -0.893470D-04  0.678763D-03 -0.863923D-04  0.737798D-02
      8 -0.544965D-03  0.254671D-03 -0.237657D-03  0.253560D-03  0.592099D-02
      9 -0.216775D-05  0.000000D+00  0.000000D+00  0.383502D-05  0.197075D-05
     10  0.103954D-01  0.220652D-02 -0.325743D-02 -0.587747D-02  0.159770D-02
     11  0.104573D-01 -0.297133D-02  0.191975D-02 -0.531385D-02 -0.290485D-02
     12  0.118518D-01 -0.582565D-02 -0.534584D-02  0.309091D-02  0.227662D-02
     13 -0.783162D-02  0.347092D-02  0.373645D-02 -0.195623D-02  0.121621D-03
     14 -0.149234D-01  0.525248D-02 -0.156606D-02  0.576951D-02 -0.120619D-02
     15 -0.120398D-01 -0.164560D-02  0.473916D-02  0.492157D-02  0.121641D-03
     16  0.193735D-01  0.304735D-02 -0.538768D-02  0.300412D-02  0.130512D-01
     17  0.528055D-02 -0.133586D-02  0.482346D-02 -0.129691D-02 -0.243290D-01
     18 -0.246540D-01 -0.171153D-02  0.564217D-03 -0.170718D-02  0.112778D-01
     19 -0.427060D-02 -0.375109D-03  0.100789D-02 -0.367900D-03  0.968190D-02
     20  0.449786D-02  0.458702D-03 -0.136970D-03  0.452107D-03  0.117490D-01
     21 -0.227258D-03 -0.836266D-04 -0.870915D-03 -0.841739D-04 -0.214309D-01
     22  0.156567D-05  0.487744D-05  0.808656D-05  0.477219D-05 -0.392602D-05
     23 -0.287909D-02 -0.668602D-05 -0.376472D-02  0.530216D-02  0.564699D-03
     24 -0.286866D-02 -0.523218D-03 -0.376951D-02  0.582236D-02  0.568904D-03
     25  0.148112D-02  0.391350D-02  0.586641D-04 -0.489403D-02 -0.161592D-03
     26  0.149155D-02  0.339697D-02  0.538733D-04 -0.437384D-02 -0.157386D-03
     27  0.147053D-02 -0.424026D-02  0.371487D-02 -0.114006D-03 -0.416859D-03
     28  0.148096D-02 -0.475679D-02  0.371008D-02  0.406192D-03 -0.412654D-03
     29 -0.802742D-03  0.370989D-02 -0.339209D-02 -0.131270D-03  0.153274D-02
     30 -0.109608D-01  0.110459D-02  0.463792D-02  0.162573D-02 -0.971459D-03
     31  0.117612D-01 -0.481522D-02 -0.124641D-02 -0.149427D-02 -0.553776D-03
     32  0.271846D-04 -0.912977D-03 -0.142333D-04  0.918391D-03 -0.109508D-04
     33  0.226582D-04 -0.106518D-02 -0.117081D-04  0.106923D-02  0.000000D+00
     34  0.150554D-04 -0.384793D-03 -0.952200D-05  0.386406D-03 -0.136009D-04
     35  0.105289D-04 -0.536998D-03 -0.699679D-05  0.537247D-03 -0.339471D-05
                6             7             8             9            10 
      6  0.327796D+00
      7 -0.218259D-03  0.333934D+00
      8  0.947434D-03  0.203269D-02  0.338752D+00
      9  0.000000D+00  0.000000D+00  0.000000D+00 -0.320428D-05
     10 -0.416003D-03 -0.150751D-03  0.506605D-03 -0.110170D-05  0.630640D-01
     11  0.282438D-02  0.129208D-02 -0.779087D-03  0.000000D+00 -0.118050D-01
     12 -0.791853D-03 -0.288709D-03  0.666632D-03  0.000000D+00 -0.240545D-01
     13 -0.742136D-03 -0.440335D-03  0.143183D-03  0.000000D+00 -0.189947D-01
     14  0.128498D-04  0.109924D-03 -0.681021D-03  0.000000D+00 -0.262127D-01
     15 -0.103557D-02 -0.593156D-03  0.131900D-03  0.000000D+00  0.165097D-01
     16 -0.129296D-01 -0.530234D-02  0.490634D-02  0.122828D-05  0.647562D-02
     17  0.609017D-02 -0.310074D-03 -0.164075D-02  0.000000D+00 -0.534661D-02
     18  0.683941D-02  0.561241D-02 -0.326560D-02  0.000000D+00 -0.112920D-02
     19  0.422982D-02  0.635814D-02 -0.116083D-01  0.000000D+00 -0.359838D-03
     20 -0.319737D-02 -0.123552D-01  0.526031D-02  0.000000D+00  0.760486D-03
     21 -0.103244D-02  0.599703D-02  0.634796D-02  0.000000D+00 -0.401047D-03
     22  0.000000D+00 -0.123167D-04  0.000000D+00  0.691123D-05  0.417549D-05
     23 -0.487173D-03 -0.121297D-03 -0.331242D-04  0.000000D+00 -0.505448D-02
     24 -0.489863D-03 -0.120636D-03 -0.334158D-04  0.000000D+00 -0.744843D-02
     25  0.210572D-03  0.967167D-04 -0.328968D-04  0.000000D+00  0.628957D-02
     26  0.207881D-03  0.973770D-04 -0.331884D-04  0.000000D+00  0.389562D-02
     27  0.272357D-03  0.236293D-04  0.639079D-04  0.000000D+00  0.264161D-02
     28  0.269666D-03  0.242896D-04  0.636163D-04  0.000000D+00  0.247663D-03
     29 -0.109307D-02 -0.436642D-03  0.343684D-03  0.000000D+00  0.218303D-01
     30 -0.137665D-03 -0.155250D-03 -0.231712D-03  0.000000D+00 -0.246083D-01
     31  0.123079D-02  0.593659D-03 -0.113803D-03  0.000000D+00  0.277856D-02
     32 -0.341105D-05 -0.150884D-05 -0.182162D-05  0.000000D+00 -0.264185D-02
     33 -0.307389D-05 -0.126870D-05 -0.291230D-05  0.000000D+00 -0.448551D-02
     34  0.000000D+00 -0.189077D-05 -0.161258D-05  0.000000D+00 -0.193595D-03
     35  0.000000D+00 -0.165063D-05 -0.270326D-05  0.000000D+00 -0.203726D-02
               11            12            13            14            15 
     11  0.664090D-01
     12 -0.286385D-01  0.969393D-01
     13 -0.196480D-01  0.194270D-01  0.307562D-01
     14  0.175112D-01 -0.328633D-01 -0.549959D-02  0.491942D-01
     15 -0.264085D-01 -0.327688D-01 -0.475382D-02  0.341603D-03  0.497502D-01
     16 -0.104917D-01  0.893524D-02  0.102594D-02 -0.691609D-02  0.876559D-03
     17  0.123781D-01 -0.780255D-02 -0.202166D-02  0.500289D-02 -0.239602D-02
     18 -0.188645D-02 -0.113248D-02  0.995779D-03  0.191319D-02  0.151939D-02
     19  0.240990D-03 -0.463383D-03  0.442222D-04  0.463318D-03  0.104779D-03
     20 -0.361489D-03  0.986535D-03 -0.246592D-03 -0.814058D-03 -0.396107D-03
     21  0.120457D-03 -0.522678D-03  0.202487D-03  0.350735D-03  0.291180D-03
     22 -0.529538D-05  0.207338D-04  0.366426D-05 -0.563385D-05 -0.185289D-04
     23 -0.527647D-02  0.421519D-02 -0.671148D-02  0.122348D-01  0.126742D-02
     24 -0.552001D-02  0.709282D-02 -0.589515D-02  0.121952D-01  0.245529D-03
     25  0.692613D-02 -0.724780D-02  0.592218D-02 -0.938466D-03 -0.114336D-01
     26  0.668260D-02 -0.437016D-02  0.673850D-02 -0.978058D-03 -0.124555D-01
     27 -0.117190D-02 -0.156461D-02 -0.127554D-03 -0.112595D-01  0.112874D-01
     28 -0.141544D-02  0.131302D-02  0.688773D-03 -0.112991D-01  0.102655D-01
     29 -0.222696D-01  0.612937D-03 -0.221726D-04 -0.705512D-02  0.733095D-02
     30 -0.232037D-02 -0.555183D-02  0.153077D-01  0.130462D-01  0.595602D-02
     31  0.245953D-01  0.492627D-02 -0.152882D-01 -0.598306D-02 -0.132852D-01
     32 -0.334406D-03  0.315440D-02  0.580238D-03 -0.190635D-04 -0.738464D-03
     33 -0.531763D-03  0.535239D-02  0.112512D-02 -0.415259D-04 -0.141995D-02
     34 -0.860109D-04  0.212002D-03 -0.254405D-03  0.212948D-04  0.306712D-03
     35 -0.283369D-03  0.240999D-02  0.290478D-03 -0.116763D-05 -0.374777D-03
               16            17            18            19            20 
     16  0.113053D+00
     17 -0.552883D-01  0.899594D-01
     18 -0.577646D-01 -0.346711D-01  0.924357D-01
     19 -0.765239D-02 -0.202567D-02  0.967806D-02  0.798520D-01
     20  0.922058D-02 -0.109431D-02 -0.812627D-02 -0.444994D-01  0.798245D-01
     21 -0.156819D-02  0.311997D-02 -0.155179D-02 -0.353525D-01 -0.353250D-01
     22 -0.152495D-04  0.113564D-04  0.389357D-05 -0.701859D-05  0.289863D-05
     23  0.871093D-03 -0.145242D-02  0.581067D-03  0.219349D-04  0.485879D-04
     24  0.872149D-03 -0.144585D-02  0.574037D-03  0.255303D-04  0.469905D-04
     25 -0.516181D-03  0.736813D-03 -0.220953D-03 -0.583740D-05  0.131371D-04
     26 -0.515125D-03  0.743385D-03 -0.227982D-03 -0.224199D-05  0.115397D-04
     27 -0.388334D-03  0.743728D-03 -0.355676D-03 -0.280061D-04 -0.566805D-04
     28 -0.387278D-03  0.750300D-03 -0.362705D-03 -0.244107D-04 -0.582779D-04
     29  0.516933D-02 -0.557808D-02  0.408695D-03 -0.161584D-03  0.356209D-03
     30 -0.354372D-02  0.230384D-02  0.123991D-02  0.254034D-03 -0.629611D-03
     31 -0.161949D-02  0.327105D-02 -0.165154D-02 -0.870641D-04  0.270935D-03
     32  0.000000D+00  0.952381D-05 -0.990908D-05 -0.104446D-04  0.142604D-05
     33  0.121347D-04  0.207490D-05 -0.138065D-04  0.696944D-05  0.000000D+00
     34  0.000000D+00 -0.294898D-05  0.343332D-05 -0.135488D-04  0.270394D-05
     35  0.106535D-04 -0.103979D-04  0.000000D+00  0.386523D-05  0.200992D-05
               21            22            23            24            25 
     21  0.706776D-01
     22  0.412224D-05 -0.372789D-04
     23 -0.707438D-04 -0.128980D-04  0.121426D-01
     24 -0.721873D-04 -0.736444D-05  0.863460D-02  0.131402D-01
     25 -0.767537D-05 -0.895846D-05 -0.352196D-02 -0.781217D-02  0.131192D-01
     26 -0.911885D-05 -0.342492D-05 -0.702993D-02 -0.330656D-02  0.882896D-02
     27  0.844224D-04 -0.218591D-04 -0.259666D-02 -0.636651D-02 -0.173296D-02
     28  0.829790D-04 -0.163255D-04 -0.610463D-02 -0.186090D-02 -0.602318D-02
     29 -0.194747D-03  0.559048D-05  0.232641D-02  0.161730D-02  0.217154D-02
     30  0.375669D-03 -0.794015D-05 -0.161097D-02 -0.104467D-02 -0.707780D-03
     31 -0.183841D-03  0.000000D+00 -0.713421D-03 -0.571003D-03 -0.146117D-02
     32  0.518172D-05 -0.693268D-05 -0.502286D-03  0.233192D-02 -0.181927D-02
     33 -0.331930D-05  0.364572D-05 -0.152531D-02  0.387593D-02 -0.355829D-02
     34  0.644093D-05 -0.125917D-04  0.308509D-02 -0.227547D-02  0.256790D-02
     35 -0.206009D-05 -0.201325D-05  0.206206D-02 -0.731463D-03  0.828885D-03
               26            27            28            29            30 
     26  0.125523D-01
     27 -0.550281D-02  0.107715D-01
     28 -0.177944D-02  0.700164D-02  0.112454D-01
     29  0.146243D-02 -0.327120D-02 -0.398031D-02  0.149933D-01
     30 -0.141480D-03  0.146100D-02  0.202730D-02 -0.750741D-02  0.174782D-01
     31 -0.131875D-02  0.180995D-02  0.195237D-02 -0.748364D-02 -0.996699D-02
     32  0.101494D-02 -0.808410D-03  0.202580D-02 -0.835814D-03  0.568518D-03
     33  0.184295D-02 -0.203147D-02  0.336977D-02 -0.140013D-02  0.991915D-03
     34 -0.279265D-02  0.304662D-02 -0.231393D-02 -0.110405D-03 -0.106266D-04
     35 -0.196464D-02  0.182356D-02 -0.969962D-03 -0.674722D-03  0.412771D-03
               31            32            33            34            35 
     31  0.174527D-01
     32  0.268555D-03  0.185148D-01
     33  0.406685D-03  0.753980D-03  0.210389D-01
     34  0.122688D-03  0.156166D-01 -0.476938D-02  0.210983D-01
     35  0.260818D-03 -0.214431D-02  0.155156D-01  0.712378D-03  0.183722D-01
 Leave Link  716 at Sat Jun 26 11:01:13 2021, MaxMem=  3355443200 cpu:         0.1
 (Enter /Local/ce_dana/g09/l103.exe)

 GradGradGradGradGradGradGradGradGradGradGradGradGradGradGradGradGradGrad
 Berny optimization.
 Red2BG is reusing G-inverse.
 Internal  Forces:  Max     0.005835098 RMS     0.002176407
 Search for a saddle point.
 Step number   1 out of a maximum of  100
 All quantities printed in internal units (Hartrees-Bohrs-Radians)
 Swapping is turned off.
 Second derivative matrix not updated -- analytic derivatives used.
 ITU=  0
     Eigenvalues ---   -0.00004  -0.00000   0.00000   0.00233   0.01918
     Eigenvalues ---    0.03156   0.03871   0.04830   0.05286   0.08847
     Eigenvalues ---    0.10332   0.10922   0.11571   0.13256   0.14290
     Eigenvalues ---    0.17526   0.30834   0.31361   0.32050   0.32885
     Eigenvalues ---    0.33347   0.33569   0.34014   0.61784
 Eigenvectors required to have negative eigenvalues:
                          A13       R9        D8        D9        D7
   1                   -0.98138   0.18907  -0.01846  -0.01843  -0.01815
                          D5        D1        D3        D6        D2
   1                   -0.00533  -0.00513  -0.00491  -0.00486  -0.00466
 Eigenvalue     2 is  -1.95D-06 should be greater than     0.000000 Eigenvector:
                          R9        A13       D8        D9        D7
   1                   -0.97448  -0.18354  -0.07461  -0.07461  -0.07457
                          D5        D1        D3        D6        D2
   1                   -0.00092  -0.00088  -0.00085  -0.00084  -0.00080
 RFO step:  Lambda0=1.736374771D-06 Lambda=-4.81718161D-04.
 Linear search not attempted -- option 19 set.
 Maximum step size (   0.050) exceeded in Quadratic search.
    -- Step size scaled by   0.238
 Iteration  1 RMS(Cart)=  0.03118839 RMS(Int)=  0.00047418
 Iteration  2 RMS(Cart)=  0.00068618 RMS(Int)=  0.00000012
 Iteration  3 RMS(Cart)=  0.00000023 RMS(Int)=  0.00000003
 ITry= 1 IFail=0 DXMaxC= 7.99D-02 DCOld= 1.00D+10 DXMaxT= 5.00D-02 DXLimC= 3.00D+00 Rises=F
 Variable       Old X    -DE/DX   Delta X   Delta X   Delta X     New X
                                 (Linear)    (Quad)   (Total)
    R1        2.83084   0.00078   0.00000   0.00108   0.00108   2.83192
    R2        2.08254  -0.00391   0.00000  -0.00288  -0.00288   2.07966
    R3        2.07848  -0.00464   0.00000  -0.00336  -0.00336   2.07512
    R4        2.08259  -0.00389   0.00000  -0.00289  -0.00289   2.07970
    R5        2.51866  -0.00404   0.00000  -0.00156  -0.00156   2.51711
    R6        2.07339  -0.00528   0.00000  -0.00383  -0.00383   2.06956
    R7        2.06931  -0.00582   0.00000  -0.00407  -0.00407   2.06524
    R8        2.06512  -0.00584   0.00000  -0.00398  -0.00398   2.06115
    R9        8.19462   0.00000   0.00000   0.01229   0.01229   8.20690
    A1        1.93695   0.00025   0.00000   0.00032   0.00032   1.93728
    A2        1.94913  -0.00017   0.00000  -0.00052  -0.00052   1.94861
    A3        1.93653   0.00037   0.00000   0.00041   0.00041   1.93695
    A4        1.88877  -0.00006   0.00000  -0.00008  -0.00008   1.88869
    A5        1.86071  -0.00027   0.00000  -0.00006  -0.00006   1.86064
    A6        1.88856  -0.00012   0.00000  -0.00006  -0.00006   1.88850
    A7        2.18930  -0.00012   0.00000  -0.00058  -0.00058   2.18872
    A8        2.02527  -0.00021   0.00000  -0.00048  -0.00048   2.02479
    A9        2.06861   0.00033   0.00000   0.00106   0.00106   2.06968
   A10        2.11966   0.00026   0.00000   0.00059   0.00059   2.12025
   A11        2.12090   0.00033   0.00000   0.00060   0.00060   2.12150
   A12        2.04262  -0.00058   0.00000  -0.00119  -0.00119   2.04144
   A13        2.71134   0.00001   0.00000  -0.04760  -0.04760   2.66374
    D1       -2.11537   0.00004   0.00000   0.00119   0.00119  -2.11417
    D2        1.02614   0.00005   0.00000   0.00125   0.00125   1.02739
    D3       -0.00620   0.00001   0.00000   0.00095   0.00095  -0.00525
    D4        3.13530   0.00002   0.00000   0.00101   0.00101   3.13631
    D5        2.10241  -0.00001   0.00000   0.00080   0.00080   2.10321
    D6       -1.03928  -0.00000   0.00000   0.00086   0.00086  -1.03841
    D7       -2.07442   0.00013   0.00000  -0.00078  -0.00078  -2.07520
    D8        2.09774  -0.00021   0.00000  -0.00137  -0.00137   2.09637
    D9        0.06960   0.00007   0.00000  -0.00121  -0.00121   0.06839
   D10        0.00060  -0.00000   0.00000  -0.00010  -0.00010   0.00050
   D11       -3.14125   0.00001   0.00000  -0.00004  -0.00004  -3.14129
   D12       -3.14090  -0.00001   0.00000  -0.00016  -0.00016  -3.14106
   D13        0.00043  -0.00000   0.00000  -0.00010  -0.00010   0.00033
         Item               Value     Threshold  Converged?
 Maximum Force            0.005835     0.000015     NO 
 RMS     Force            0.002176     0.000010     NO 
 Maximum Displacement     0.079888     0.000060     NO 
 RMS     Displacement     0.031484     0.000040     NO 
 Predicted change in Energy=-1.005874D-04
 Lowest energy point so far.  Saving SCF results.
 GradGradGradGradGradGradGradGradGradGradGradGradGradGradGradGradGradGrad

 Leave Link  103 at Sat Jun 26 11:01:13 2021, MaxMem=  3355443200 cpu:         0.1
 (Enter /Local/ce_dana/g09/l202.exe)
                          Input orientation:                          
 ---------------------------------------------------------------------
 Center     Atomic      Atomic             Coordinates (Angstroms)
 Number     Number       Type             X           Y           Z
 ---------------------------------------------------------------------
[...]
 Alpha  occ. eigenvalues --   -0.49992  -0.49017  -0.36018
 Alpha virt. eigenvalues --    0.04127   0.05828   0.06079   0.06820   0.07949
 Alpha virt. eigenvalues --    0.09236   0.09525   0.11474   0.14014   0.15146
 Alpha virt. eigenvalues --    0.16522   0.17357   0.17825   0.18803   0.20402
 Alpha virt. eigenvalues --    0.20937   0.21664   0.23000   0.23213   0.24160
 Alpha virt. eigenvalues --    0.30256   0.30454   0.31242   0.33171   0.38713
 Alpha virt. eigenvalues --    0.40298   0.47366   0.50064   0.51711   0.56534
 Alpha virt. eigenvalues --    0.57490   0.60041   0.62599   0.68031   0.68268
 Alpha virt. eigenvalues --    0.70744   0.71186   0.71638   0.71700   0.71702
 Alpha virt. eigenvalues --    0.72570   0.74036   0.74814   0.78716   0.79913
 Alpha virt. eigenvalues --    0.82693   0.82717   0.86235   0.86769   0.88168
 Alpha virt. eigenvalues --    0.93070   0.94666   0.96348   1.00703   1.05110
 Alpha virt. eigenvalues --    1.10668   1.12567   1.13051   1.20315   1.21017
 Alpha virt. eigenvalues --    1.28704   1.30784   1.32851   1.36229   1.36421
 Alpha virt. eigenvalues --    1.41014   1.43742   1.45845   1.49657   1.55931
 Alpha virt. eigenvalues --    1.56671   1.62080   1.65803   1.66797   1.68673
 Alpha virt. eigenvalues --    1.71489   1.74859   1.76197   1.77774   1.81186
 Alpha virt. eigenvalues --    1.87278   1.96632   2.13440   2.62354   2.69166
 Alpha virt. eigenvalues --    2.70255   2.81071   2.86130   2.92490   2.99430
 Alpha virt. eigenvalues --    3.00556   3.07645   3.10302   3.12393   3.17755
 Alpha virt. eigenvalues --    3.17989   3.19058   3.19459   3.27609   3.34991
 Alpha virt. eigenvalues --    3.35843   3.43267   3.44972   3.47414   3.47886
 Alpha virt. eigenvalues --    3.50469   3.52279   3.56357   3.57547   3.60806
 Alpha virt. eigenvalues --    3.63590   3.65625   3.74866   3.76379   3.76667
 Alpha virt. eigenvalues --    3.79644   3.85456   3.95483   3.98086   3.98086
 Alpha virt. eigenvalues --    3.98158   3.99431   4.05018   4.05132   4.13940
 Alpha virt. eigenvalues --    4.14827   4.19364   4.25124   4.29704   4.30407
 Alpha virt. eigenvalues --    4.37399   4.41081   4.45519   4.50756   4.57070
 Alpha virt. eigenvalues --    4.59037   4.59313   4.62601   4.70426   4.71831
 Alpha virt. eigenvalues --    4.81480   4.85180   4.86143   4.92342   5.02747
 Alpha virt. eigenvalues --    5.07664   5.14316   5.19527   5.54630   5.60556
 Alpha virt. eigenvalues --    5.86888   5.95461   6.07385   6.07936   6.11020
 Alpha virt. eigenvalues --    6.46169  25.16433  25.50682  25.96292
  Beta  occ. eigenvalues --  -11.23325 -11.22119 -11.21674  -1.06441  -0.93309
  Beta  occ. eigenvalues --   -0.75723  -0.63892  -0.58380  -0.56648  -0.52407
  Beta  occ. eigenvalues --   -0.49017  -0.36018
  Beta virt. eigenvalues --    0.01934   0.04321   0.05966   0.06101   0.07617
  Beta virt. eigenvalues --    0.08037   0.09385   0.11474   0.13935   0.14694
  Beta virt. eigenvalues --    0.15665   0.16670   0.17361   0.17830   0.18889
  Beta virt. eigenvalues --    0.20423   0.20938   0.21667   0.23001   0.23225
  Beta virt. eigenvalues --    0.24171   0.30258   0.30472   0.31243   0.33171
  Beta virt. eigenvalues --    0.38714   0.40301   0.47382   0.51591   0.56502
  Beta virt. eigenvalues --    0.57388   0.60041   0.61987   0.62671   0.68034
  Beta virt. eigenvalues --    0.68278   0.70747   0.71191   0.72567   0.73864
  Beta virt. eigenvalues --    0.74741   0.78671   0.79909   0.81435   0.81435
  Beta virt. eigenvalues --    0.81610   0.82693   0.82722   0.86254   0.86770
  Beta virt. eigenvalues --    0.88168   0.93071   0.94666   0.96349   1.00704
  Beta virt. eigenvalues --    1.05111   1.10668   1.12567   1.13051   1.20315
  Beta virt. eigenvalues --    1.21017   1.28704   1.30784   1.32851   1.36229
  Beta virt. eigenvalues --    1.36421   1.41015   1.43742   1.45845   1.49658
  Beta virt. eigenvalues --    1.55932   1.56671   1.62080   1.65803   1.66798
  Beta virt. eigenvalues --    1.68673   1.71489   1.74859   1.76197   1.77774
  Beta virt. eigenvalues --    1.81186   1.87278   1.96632   2.13441   2.69127
  Beta virt. eigenvalues --    2.70218   2.74806   2.81073   2.86131   2.92490
  Beta virt. eigenvalues --    2.99430   3.00556   3.07645   3.10302   3.12393
  Beta virt. eigenvalues --    3.17755   3.17989   3.19058   3.19459   3.27609
  Beta virt. eigenvalues --    3.34991   3.35843   3.43267   3.44972   3.47414
  Beta virt. eigenvalues --    3.47886   3.50469   3.52279   3.56357   3.57547
  Beta virt. eigenvalues --    3.60806   3.63590   3.65625   3.74866   3.76379
  Beta virt. eigenvalues --    3.76668   3.79644   3.85456   3.95490   3.99416
  Beta virt. eigenvalues --    4.05014   4.05130   4.06999   4.06999   4.07078
  Beta virt. eigenvalues --    4.13940   4.14827   4.19364   4.25124   4.29705
  Beta virt. eigenvalues --    4.30407   4.37399   4.41081   4.45519   4.50756
  Beta virt. eigenvalues --    4.57070   4.59037   4.59313   4.62601   4.70426
  Beta virt. eigenvalues --    4.71831   4.81480   4.85180   4.86143   4.92342
  Beta virt. eigenvalues --    5.02747   5.07664   5.14316   5.19527   5.54630
  Beta virt. eigenvalues --    5.60556   5.86888   5.95461   6.07385   6.07936
  Beta virt. eigenvalues --    6.11020   6.46169  25.16433  25.50682  25.96292
          Condensed to atoms (all electrons):
               1          2          3          4          5          6
     1  C    4.651469   0.254989   0.047923   0.432442   0.428428   0.431800
     2  C    0.254989   4.677284   0.644970  -0.032761  -0.054661  -0.032922
     3  C    0.047923   0.644970   4.950177  -0.001279  -0.005671  -0.000821
     4  H    0.432442  -0.032761  -0.001279   0.648211  -0.028038  -0.059309
     5  H    0.428428  -0.054661  -0.005671  -0.028038   0.614889  -0.028056
     6  H    0.431800  -0.032922  -0.000821  -0.059309  -0.028056   0.649424
     7  H   -0.045482   0.416556  -0.050399  -0.002770   0.003426  -0.002950
     8  H   -0.000013   0.000002  -0.000002   0.000000  -0.000001   0.000049
     9  H   -0.003619  -0.042495   0.418272  -0.000036   0.001080  -0.000053
    10  H    0.004241  -0.009317   0.406081  -0.000573   0.000514  -0.000574
               7          8          9         10
     1  C   -0.045482  -0.000013  -0.003619   0.004241
     2  C    0.416556   0.000002  -0.042495  -0.009317
     3  C   -0.050399  -0.000002   0.418272   0.406081
     4  H   -0.002770   0.000000  -0.000036  -0.000573
     5  H    0.003426  -0.000001   0.001080   0.000514
     6  H   -0.002950   0.000049  -0.000053  -0.000574
     7  H    0.567836  -0.000000   0.004148  -0.005751
     8  H   -0.000000   0.999918   0.000000  -0.000000
     9  H    0.004148   0.000000   0.564399  -0.028157
    10  H   -0.005751  -0.000000  -0.028157   0.557971
          Atomic-Atomic Spin Densities.
               1          2          3          4          5          6
     1  C    0.000018   0.000005   0.000000  -0.000002   0.000002  -0.000027
     2  C    0.000005   0.000012  -0.000005  -0.000002   0.000002  -0.000017
     3  C    0.000000  -0.000005   0.000005  -0.000000  -0.000001   0.000005
     4  H   -0.000002  -0.000002  -0.000000   0.000000  -0.000001   0.000005
     5  H    0.000002   0.000002  -0.000001  -0.000001   0.000000  -0.000003
     6  H   -0.000027  -0.000017   0.000005   0.000005  -0.000003   0.000048
     7  H    0.000002   0.000003  -0.000002  -0.000000   0.000000  -0.000006
     8  H   -0.000011  -0.000002   0.000000   0.000000  -0.000002   0.000056
     9  H    0.000000  -0.000000   0.000000   0.000000   0.000000  -0.000000
    10  H    0.000000   0.000002  -0.000001  -0.000000   0.000000  -0.000001
               7          8          9         10
     1  C    0.000002  -0.000011   0.000000   0.000000
     2  C    0.000003  -0.000002  -0.000000   0.000002
     3  C   -0.000002   0.000000   0.000000  -0.000001
     4  H   -0.000000   0.000000   0.000000  -0.000000
     5  H    0.000000  -0.000002   0.000000   0.000000
     6  H   -0.000006   0.000056  -0.000000  -0.000001
     7  H    0.000002  -0.000001   0.000000   0.000001
     8  H   -0.000001   0.999918  -0.000000  -0.000000
     9  H    0.000000  -0.000000  -0.000000   0.000000
    10  H    0.000001  -0.000000   0.000000   0.000000
 Mulliken charges and spin densities:
               1          2
     1  C   -0.202178  -0.000012
     2  C    0.178356  -0.000003
     3  C   -0.409252   0.000001
     4  H    0.044113  -0.000000
     5  H    0.068090  -0.000002
     6  H    0.043412   0.000059
     7  H    0.115387  -0.000001
     8  H    0.000046   0.999958
     9  H    0.086460  -0.000000
    10  H    0.075564  -0.000000
 Sum of Mulliken charges =  -0.00000   1.00000
 Mulliken charges and spin densities with hydrogens summed into heavy atoms:
               1          2
     1  C   -0.046516   1.000003
     2  C    0.293743  -0.000004
     3  C   -0.247227   0.000001
 Electronic spatial extent (au):  <R**2>=            425.4046
 Charge=             -0.0000 electrons
 Dipole moment (field-independent basis, Debye):
    X=             -0.2842    Y=             -0.2940    Z=             -0.0522  Tot=              0.4122
 Quadrupole moment (field-independent basis, Debye-Ang):
   XX=            -22.3130   YY=            -22.0425   ZZ=            -20.6072
   XY=              1.3284   XZ=             -0.3844   YZ=              0.7175
 Traceless Quadrupole moment (field-independent basis, Debye-Ang):
   XX=             -0.6587   YY=             -0.3883   ZZ=              1.0470
   XY=              1.3284   XZ=             -0.3844   YZ=              0.7175
 Octapole moment (field-independent basis, Debye-Ang**2):
  XXX=              8.4720  YYY=             -5.6418  ZZZ=              0.5438  XYY=              4.9336
  XXY=              1.7048  XXZ=             -1.3151  XZZ=              4.1980  YZZ=             -0.8520
  YYZ=              0.4855  XYZ=              0.0076
 Hexadecapole moment (field-independent basis, Debye-Ang**3):
 XXXX=           -585.2439 YYYY=           -144.1184 ZZZZ=            -52.5893 XXXY=             28.7274
 XXXZ=             -3.9449 YYYX=             24.6047 YYYZ=              1.4916 ZZZX=             -3.6470
 ZZZY=              2.9622 XXYY=           -119.1166 XXZZ=           -106.3251 YYZZ=            -34.0918
 XXYZ=             -0.4704 YYXZ=             -1.1247 ZZXY=              8.6213
 N-N= 7.229638765171D+01 E-N=-4.176106299378D+02  KE= 1.174702926495D+02
 Leave Link  601 at Sat Jun 26 11:13:49 2021, MaxMem=  3355443200 cpu:         0.2
 (Enter /Local/ce_dana/g09/l9999.exe)

 Test job not archived.
 1\1\GINC-TECH-WN036\SP\UMP2-FC\CBSB3\C3H7(2)\ALONGD\26-Jun-2021\0\\#P 
 Geom=AllCheck Guess=TCheck SCRF=Check Test MP2/CBSB3 CBSExtrap=(NMin=1
 0,MinPop)\\TS0\\0,2\C,0,0.3076146098,-0.7224858573,-0.2797364925\C,0,-
 0.2444993834,-0.8217561235,1.1118864547\C,0,-1.5341125792,-0.778160759
 7,1.4316205904\H,0,0.8884277117,-1.6151627956,-0.5374321582\H,0,-0.487
 8241171,-0.6076174793,-1.0198313352\H,0,0.9879602146,0.131323947,-0.37
 33532353\H,0,0.4892721571,-0.9384616437,1.9078569004\H,0,1.9673204027,
 6.2475349279,-2.5149627187\H,0,-2.3044572301,-0.6630161356,0.674574856
 2\H,0,-1.868405786,-0.8557190802,2.4600431382\\Version=ES64L-G09RevD.0
 1\State=2-A\HF=-117.6132683\MP2=-118.1127169\E2(CBS)=-0.5476342\CBS-In
 t=-0.5300049\OIii=4.5603534\PUHF=-117.6132683\PMP2-0=-118.1127169\S2=0
 .75\S2-1=0.75\S2A=0.75\RMSD=8.463e-09\PG=C01 [X(C3H7)]\\@


     ON THE SURVIVAL OF THE FITTEST -
 "STRONG REPRESENTATIVES FROM EACH PAST ERA THRIVE TODAY,
 SUCH AS PROGRAMMING IN THE THIRTY YEAR OLD LANGUAGE KNOWN
 AS FORTRAN, AND EVEN IN THE ANCIENT SCRIPT KNOWN AS DIRECT
 MACHINE CODE. SOME PEOPLE MIGHT LOOK ON SUCH RELICS AS LIVING
 FOSSILS; OTHERS WOULD POINT OUT THAT EVEN A VERY OLD SPECIES
 MIGHT STILL BE FILLING A PARTICULAR ECOLOGICAL NICHE."
     -- ALAN KAY, SCI.AM. SEPTEMBER 1984
 Diagonal vibrational polarizability:
        0.0000000       0.0000000       0.0000000
    1 imaginary frequencies ignored.

 Complete Basis Set (CBS) Extrapolation:
 M. R. Nyden and G. A. Petersson, JCP 75, 1843 (1981)
 G. A. Petersson and M. A. Al-Laham, JCP 94, 6081 (1991)
 G. A. Petersson, T. Tensfeldt, and J. A. Montgomery, JCP 94, 6091 (1991)
 J. A. Montgomery, J. W. Ochterski, and G. A. Petersson, JCP 101, 5900 (1994)

 Temperature=               298.150000 Pressure=                       1.000000
 E(ZPE)=                      0.078531 E(Thermal)=                     0.084510
 E(SCF)=                   -117.613268 DE(MP2)=                       -0.499449
 DE(CBS)=                    -0.048186 DE(MP34)=                      -0.039657
 DE(CCSD)=                   -0.015252 DE(Int)=                        0.017629
 DE(Empirical)=              -0.026404
 CBS-QB3 (0 K)=            -118.146056 CBS-QB3 Energy=              -118.140077
 CBS-QB3 Enthalpy=         -118.139132 CBS-QB3 Free Energy=         -118.180188

 Test job not archived.
 1\1\GINC-TECH-WN036\Mixed\CBS-QB3\CBS-QB3\C3H7(2)\ALONGD\26-Jun-2021\0
 \\#P opt=(ts, calcfc, noeigentest, maxcycles=100, tight, maxstep=5) gu
 ess=read cbs-qb3 scf=(tight, direct) integral=(grid=ultrafine, Acc2E=1
 2) IOp(2/9=2000) scf=xqc\\TS0\\0,2\C,0,0.3076146098,-0.7224858573,-0.2
 797364925\C,0,-0.2444993834,-0.8217561235,1.1118864547\C,0,-1.53411257
 92,-0.7781607597,1.4316205904\H,0,0.8884277117,-1.6151627956,-0.537432
 1582\H,0,-0.4878241171,-0.6076174793,-1.0198313352\H,0,0.9879602146,0.
 131323947,-0.3733532353\H,0,0.4892721571,-0.9384616437,1.9078569004\H,
 0,1.9673204027,6.2475349279,-2.5149627187\H,0,-2.3044572301,-0.6630161
 356,0.6745748562\H,0,-1.868405786,-0.8557190802,2.4600431382\\Version=
 ES64L-G09RevD.01\State=2-A\HF/CbsB3=-117.6132683\E2(CBS)/CbsB3=-0.5476
 342\CBS-Int/CbsB3=0.0176292\OIii/CbsB3=4.5603534\MP2/CbsB4=-118.010787
 3\MP4(SDQ)/CbsB4=-118.0504445\MP4(SDQ)/6-31+G(d')=-118.0008437\QCISD(T
 )/6-31+G(d')=-118.0160956\CBSQB3=-118.1460557\FreqCoord=0.5813073671,-
 1.3653004052,-0.5286253602,-0.4620368743,-1.5528940214,2.1011608903,-2
 .8990526318,-1.4705107232,2.7053708421,1.6788850639,-3.0522153437,-1.0
 155995941,-0.9218539823,-1.1482306295,-1.9272019253,1.8669742357,0.248
 1662946,-0.7055353656,0.9245903814,-1.7734354927,3.6053270425,3.717696
 7767,11.8061300193,-4.7525907727,-4.3547930497,-1.252918918,1.27476173
 43,-3.5307752407,-1.6170747082,4.6488078063\PG=C01 [X(C3H7)]\NImag=1\\
 0.55403398,-0.00513698,0.52412693,0.03630038,0.00014405,0.50029772,-0.
 10167846,-0.00234353,0.04286803,0.84595716,-0.00169876,-0.07305374,0.0
 1006647,-0.03666163,0.15533175,0.03599468,0.01045806,-0.20535504,-0.03
 295901,-0.03744932,0.56827076,-0.01294937,0.00027603,0.00962279,-0.532
 32741,0.01809782,0.10018283,0.83021565,-0.00206039,0.00775447,0.000991
 81,0.01806174,-0.05180254,0.00213639,-0.03596060,0.11144802,0.03448676
 ,-0.00042739,-0.00867148,0.10058025,0.00211476,-0.13421560,-0.05806625
 ,-0.04729308,0.64345446,-0.11467871,0.11165535,0.02647272,-0.00999134,
 0.00875836,0.00513089,0.00120679,-0.00013146,0.00205361,0.12427908,0.1
 1125782,-0.21565244,-0.04625128,-0.00227715,0.00513262,0.00037268,-0.0
 0100848,0.00000118,0.00018210,-0.12200461,0.23513116,0.02820545,-0.047
 97874,-0.05953298,0.01937563,-0.02604933,-0.00715229,-0.00052298,0.000
 69539,-0.00353264,-0.03526229,0.05145130,0.06409282,-0.19024610,0.0203
 2659,-0.12970257,0.00993846,-0.00142105,0.00859466,0.00157340,-0.00023
 238,0.00120500,-0.01205677,0.00040283,-0.01021294,0.20458298,0.0200638
 3,-0.05027632,0.01828967,0.00169599,-0.00109542,0.00157547,0.00001914,
 -0.00047145,-0.00031866,0.01917874,-0.00198057,0.01852423,-0.02223332,
 0.04838516,-0.12692257,0.01813123,-0.16342279,-0.02458485,0.00346454,-
 0.02283611,-0.00145742,-0.00016510,0.00215147,0.00604928,0.00023210,0.
 00535653,0.13994963,-0.02067886,0.18041746,-0.14158158,-0.12418474,0.0
 0771941,-0.01080999,-0.00803925,0.00358654,0.00130320,-0.00039738,0.00
 203394,0.01100552,0.01356747,-0.00171989,-0.01405181,-0.01838504,0.002
 40690,0.15384237,-0.12413394,-0.20041618,0.01495871,-0.00012387,0.0010
 8886,0.00059914,0.00095050,-0.00003900,0.00025292,-0.01679361,-0.02252
 765,0.00145093,0.00327510,0.00360789,-0.00121863,0.13692169,0.21817740
 ,0.00968105,0.01647632,-0.04785984,0.02251520,0.02513025,-0.00228673,-
 0.00037700,0.00002698,-0.00358854,-0.00496133,-0.00537470,0.00010398,-
 0.01204107,-0.01776199,0.00176055,-0.01471346,-0.01648689,0.05147732,0
 .00926831,-0.00130842,0.00979984,-0.17486689,0.01964783,-0.12797304,-0
 .02063083,0.00393698,-0.02537149,0.00040789,0.00023764,-0.00080980,-0.
 00016364,-0.00016893,0.00302196,0.00042616,-0.00009577,-0.00091376,0.1
 8903137,0.00148207,0.00225825,0.00142796,0.02004654,-0.04458926,0.0220
 9579,0.00091615,0.00638181,0.00135637,-0.00035933,0.00025306,0.0006491
 7,-0.00016121,0.00182453,0.00041959,0.00029435,0.00023259,-0.00062782,
 -0.02245663,0.02971134,-0.01988868,0.00312255,-0.01867115,-0.13221695,
 0.02233770,-0.19874440,0.00677795,-0.00047932,0.00753866,0.00017105,-0
 .00069946,0.00065121,0.00293942,0.00042474,-0.00444688,0.00030621,0.00
 059561,0.00065195,0.13994541,-0.02535145,0.21079522,0.00000005,0.00000
 003,0.,0.,0.,0.,0.,0.,0.,0.,0.,0.,0.,0.,0.,-0.00000008,-0.00000014,0.0
 0000004,0.,0.,0.,0.00000005,0.00000027,0.00000025,-0.00000002,-0.00000
 003,-0.00000004,-0.00000002,0.,0.,0.00000003,-0.00000004,-0.00000004,0
 .00000001,0.,-0.00000002,0.,-0.00000031,-0.00000076,0.00000016,0.,0.,0
 .,0.00000012,0.00000061,-0.00000009,-0.00000008,0.00000001,0.00000001,
 0.00000001,0.,0.,0.,0.,0.00000001,0.00000001,0.,0.,0.00000001,0.,0.000
 00011,0.00000022,-0.00000006,0.,0.,0.,-0.00000005,-0.00000016,0.000000
 06,0.00149198,-0.00037160,-0.00199439,-0.01957227,0.00375974,-0.024524
 59,-0.18885428,0.02119836,-0.13198339,0.00027690,-0.00008556,0.0000534
 4,0.00020966,-0.00013301,0.00138955,0.00015932,0.00004491,0.00016354,-
 0.00454878,0.00074157,0.00205711,0.,0.,0.,0.20285700,-0.00069742,-0.00
 816851,-0.00081215,0.00092394,0.00572572,0.00133714,0.02161022,-0.0381
 9759,0.02239825,0.00107945,0.00005572,-0.00086885,0.00005652,0.0001966
 1,-0.00010220,-0.00109890,0.00001679,0.00085489,0.00075214,0.01169698,
 0.00089790,0.,0.,0.,-0.02409447,0.02703248,0.00149109,-0.00101173,0.00
 157584,0.00564258,-0.00038647,0.00659158,-0.13636526,0.02264713,-0.192
 95973,0.00008929,0.00003098,-0.00004187,-0.00061963,0.00001365,0.00042
 478,-0.00011905,-0.00002939,0.00011535,0.00194547,0.00090426,0.0010206
 8,0.,0.,0.,0.14730091,-0.02479030,0.19757440,-0.00366007,0.00108728,-0
 .00108622,-0.00664926,-0.00244306,0.03196705,-0.07953714,-0.00441487,0
 .07506157,-0.00044935,-0.00008994,0.00089338,0.00021381,-0.00003741,0.
 00014753,-0.00029311,-0.00004488,0.00064680,0.00107642,-0.00050351,-0.
 00009151,0.,0.,0.,0.00798047,0.00146852,-0.01936539,0.08131823,0.00092
 351,0.01342729,0.00118477,0.00067801,0.00326205,-0.00112533,-0.0049007
 7,-0.03507491,0.02173472,-0.00138285,-0.00041305,0.00212588,-0.0000130
 8,-0.00019041,-0.00008266,0.00132211,-0.00013994,-0.00223721,-0.000544
 85,-0.00776930,-0.00084828,0.,0.,0.,-0.00105995,0.00164182,0.00262186,
 0.00497787,0.02525644,0.00065192,0.00108574,0.00163971,-0.00122088,0.0
 0077138,-0.00427218,0.08020534,0.02143979,-0.31017659,0.00025678,0.000
 05627,0.00005525,-0.00011250,-0.00006827,0.00059500,0.00049928,-0.0001
 2262,-0.00037400,0.00035541,-0.00087386,0.00120472,0.,0.,0.,0.00753784
 ,0.00108531,-0.01430104,-0.08817319,-0.02337375,0.32562913\\-0.0000001
 2,-0.00000006,-0.00000006,0.00000004,-0.00000003,-0.00000012,0.0000001
 7,0.00000003,0.00000012,-0.00000018,-0.00000005,-0.00000022,-0.0000002
 6,0.00000010,-0.00000003,0.,0.00000006,-0.00000015,0.00000024,-0.00000
 012,-0.00000004,0.,-0.00000005,0.00000001,-0.00000007,0.00000012,0.000
 00017,0.00000020,0.,0.00000031\\\@
 Job cpu time:       0 days  0 hours  1 minutes 26.4 seconds.
 File lengths (MBytes):  RWF=    577 Int=      0 D2E=      0 Chk=      4 Scr=      1
 Normal termination of Gaussian 09 at Sat Jun 26 11:13:49 2021.
