 Entering Gaussian System, Link 0=/Local/ce_dana/g09/g09
 Initial command:
 /Local/ce_dana/g09/l1.exe "/storage/ce_dana/alongd/scratch/g09/Gau-5107.inp" -scrdir="/storage/ce_dana/alongd/scratch/g09/"
 Entering Link 1 = /Local/ce_dana/g09/l1.exe PID=      5112.
  
 Copyright (c) 1988,1990,1992,1993,1995,1998,2003,2009,2013,
            Gaussian, Inc.  All Rights Reserved.
  
 This is part of the Gaussian(R) 09 program.  It is based on
 the Gaussian(R) 03 system (copyright 2003, Gaussian, Inc.),
 the Gaussian(R) 98 system (copyright 1998, Gaussian, Inc.),
 the Gaussian(R) 94 system (copyright 1995, Gaussian, Inc.),
 the Gaussian 92(TM) system (copyright 1992, Gaussian, Inc.),
 the Gaussian 90(TM) system (copyright 1990, Gaussian, Inc.),
 the Gaussian 88(TM) system (copyright 1988, Gaussian, Inc.),
 the Gaussian 86(TM) system (copyright 1986, Carnegie Mellon
 University), and the Gaussian 82(TM) system (copyright 1983,
 Carnegie Mellon University). Gaussian is a federally registered
 trademark of Gaussian, Inc.
  
 This software contains proprietary and confidential information,
 including trade secrets, belonging to Gaussian, Inc.
  
 This software is provided under written license and may be
 used, copied, transmitted, or stored only in accord with that
 written license.
  
 The following legend is applicable only to US Government
 contracts under FAR:
  
                    RESTRICTED RIGHTS LEGEND
  
 Use, reproduction and disclosure by the US Government is
 subject to restrictions as set forth in subparagraphs (a)
 and (c) of the Commercial Computer Software - Restricted
 Rights clause in FAR 52.227-19.
  
 Gaussian, Inc.
 340 Quinnipiac St., Bldg. 40, Wallingford CT 06492
  
  
 ---------------------------------------------------------------
 Warning -- This program may not be used in any manner that
 competes with the business of Gaussian, Inc. or will provide
 assistance to any competitor of Gaussian, Inc.  The licensee
 of this program is prohibited from giving any competitor of
 Gaussian, Inc. access to this program.  By using this program,
 the user acknowledges that Gaussian, Inc. is engaged in the
 business of creating and licensing software in the field of
 computational chemistry and represents and warrants to the
 licensee that it is not a competitor of Gaussian, Inc. and that
 it will not use this program in any manner prohibited above.
 ---------------------------------------------------------------
  

 Cite this work as:
 Gaussian 09, Revision D.01,
 M. J. Frisch, G. W. Trucks, H. B. Schlegel, G. E. Scuseria, 
 M. A. Robb, J. R. Cheeseman, G. Scalmani, V. Barone, B. Mennucci, 
 G. A. Petersson, H. Nakatsuji, M. Caricato, X. Li, H. P. Hratchian, 
 A. F. Izmaylov, J. Bloino, G. Zheng, J. L. Sonnenberg, M. Hada, 
 M. Ehara, K. Toyota, R. Fukuda, J. Hasegawa, M. Ishida, T. Nakajima, 
 Y. Honda, O. Kitao, H. Nakai, T. Vreven, J. A. Montgomery, Jr., 
 J. E. Peralta, F. Ogliaro, M. Bearpark, J. J. Heyd, E. Brothers, 
 K. N. Kudin, V. N. Staroverov, T. Keith, R. Kobayashi, J. Normand, 
 K. Raghavachari, A. Rendell, J. C. Burant, S. S. Iyengar, J. Tomasi, 
 M. Cossi, N. Rega, J. M. Millam, M. Klene, J. E. Knox, J. B. Cross, 
 V. Bakken, C. Adamo, J. Jaramillo, R. Gomperts, R. E. Stratmann, 
 O. Yazyev, A. J. Austin, R. Cammi, C. Pomelli, J. W. Ochterski, 
 R. L. Martin, K. Morokuma, V. G. Zakrzewski, G. A. Voth, 
 P. Salvador, J. J. Dannenberg, S. Dapprich, A. D. Daniels, 
 O. Farkas, J. B. Foresman, J. V. Ortiz, J. Cioslowski, 
 and D. J. Fox, Gaussian, Inc., Wallingford CT, 2013.
 
 ******************************************
 Gaussian 09:  ES64L-G09RevD.01 24-Apr-2013
                26-Jun-2021 
 ******************************************
 %chk=check.chk
 %mem=25600mb
 %NProcShared=10
 Will use up to   10 processors via shared memory.
 ----------------------------------------------------------------------
 #P opt=(ts, calcfc, noeigentest, maxcycles=100, tight, maxstep=5) gues
 s=read cbs-qb3 scf=(tight, direct) integral=(grid=ultrafine, Acc2E=12)
  IOp(2/9=2000) scf=xqc
 ----------------------------------------------------------------------
 1/5=1,6=100,7=10,8=5,10=4,11=1,14=-1,18=20,26=4,38=1/1,3;
 2/9=2000,12=2,17=6,18=5,40=1/2;
 3/5=4,6=6,7=700,11=2,16=1,25=1,30=1,71=2,74=-5,75=-5,116=-2,140=1/1,2,3;
 4/5=1/1;
 5/5=2,8=3,13=1,32=2,38=6,87=12/2,8;
 8/6=4,10=90,11=11,87=12/1;
 11/6=1,8=1,9=11,15=111,16=1,87=12/1,2,10;
 10/6=1,13=1,87=12/2;
 6/7=2,8=2,9=2,10=2,28=1/1;
 7/10=1,18=20,25=1,87=12/1,2,3,16;
 1/5=1,6=100,7=10,8=5,10=4,11=1,14=-1,18=20,26=4/3(2);
 2/9=2000/2;
 99//99;
 2/9=2000/2;
 3/5=4,6=6,7=700,11=2,16=1,25=1,30=1,71=1,74=-5,75=-5/1,2,3;
 4/5=5,16=3,69=1/1;
 5/5=2,8=3,13=1,32=2,38=5,87=12/2,8;
 7/87=12/1,2,3,16;
 1/5=1,6=100,7=10,8=5,11=1,14=-1,18=20,26=4/3(-5);
 2/9=2000/2;
 6/7=2,8=2,9=2,10=2,19=2,28=1/1;
 99/9=1/99;
 Leave Link    1 at Sat Jun 26 11:16:01 2021, MaxMem=  3355443200 cpu:         0.1
 (Enter /Local/ce_dana/g09/l101.exe)
 ---
 TS0
 ---
 Symbolic Z-matrix:
 Charge =  0 Multiplicity = 2
 C                     0.56715  -0.69494  -0.17772 
 C                    -0.82327  -1.28438   0.04485 
 C                    -1.44861  -0.35196  -0.9896 
 H                    -0.90312  -2.35123  -0.20754 
 H                     1.30279  -1.30683  -0.7136 
 H                     0.98336  -0.05399   0.60882 
 H                    -1.21033  -1.14664   1.06434 
 H                    -0.13185   0.09087  -1.09099 
 H                    -1.76069  -0.78568  -1.94735 
 H                    -2.08009   0.46717  -0.62491 
 
 Add virtual bond connecting atoms H8         and C1         Dist= 2.63D+00.
 Add virtual bond connecting atoms H8         and C3         Dist= 2.63D+00.
 NAtoms=     10 NQM=       10 NQMF=       0 NMMI=      0 NMMIF=      0
                NMic=       0 NMicF=      0.
                    Isotopes and Nuclear Properties:
 (Nuclear quadrupole moments (NQMom) in fm**2, nuclear magnetic moments (NMagM)
  in nuclear magnetons)

  Atom         1           2           3           4           5           6           7           8           9          10
 IAtWgt=          12          12          12           1           1           1           1           1           1           1
 AtmWgt=  12.0000000  12.0000000  12.0000000   1.0078250   1.0078250   1.0078250   1.0078250   1.0078250   1.0078250   1.0078250
 NucSpn=           0           0           0           1           1           1           1           1           1           1
 AtZEff=   0.0000000   0.0000000   0.0000000   0.0000000   0.0000000   0.0000000   0.0000000   0.0000000   0.0000000   0.0000000
 NQMom=    0.0000000   0.0000000   0.0000000   0.0000000   0.0000000   0.0000000   0.0000000   0.0000000   0.0000000   0.0000000
 NMagM=    0.0000000   0.0000000   0.0000000   2.7928460   2.7928460   2.7928460   2.7928460   2.7928460   2.7928460   2.7928460
 AtZNuc=   6.0000000   6.0000000   6.0000000   1.0000000   1.0000000   1.0000000   1.0000000   1.0000000   1.0000000   1.0000000
 Leave Link  101 at Sat Jun 26 11:16:02 2021, MaxMem=  3355443200 cpu:         0.6
 (Enter /Local/ce_dana/g09/l103.exe)

 GradGradGradGradGradGradGradGradGradGradGradGradGradGradGradGradGradGrad
 Berny optimization.
 Initialization pass.
                           ----------------------------
                           !    Initial Parameters    !
                           ! (Angstroms and Degrees)  !
 --------------------------                            --------------------------
 ! Name  Definition              Value          Derivative Info.                !
 --------------------------------------------------------------------------------
 ! R1    R(1,2)                  1.5265         calculate D2E/DX2 analytically  !
 ! R2    R(1,5)                  1.0967         calculate D2E/DX2 analytically  !
 ! R3    R(1,6)                  1.0967         calculate D2E/DX2 analytically  !
 ! R4    R(1,8)                  1.3929         calculate D2E/DX2 analytically  !
 ! R5    R(2,3)                  1.5266         calculate D2E/DX2 analytically  !
 ! R6    R(2,4)                  1.0992         calculate D2E/DX2 analytically  !
 ! R7    R(2,7)                  1.0992         calculate D2E/DX2 analytically  !
 ! R8    R(3,8)                  1.3929         calculate D2E/DX2 analytically  !
 ! R9    R(3,9)                  1.0967         calculate D2E/DX2 analytically  !
 ! R10   R(3,10)                 1.0967         calculate D2E/DX2 analytically  !
 ! A1    A(2,1,5)              117.8252         calculate D2E/DX2 analytically  !
 ! A2    A(2,1,6)              117.8266         calculate D2E/DX2 analytically  !
 ! A3    A(2,1,8)               81.7409         calculate D2E/DX2 analytically  !
 ! A4    A(5,1,6)              114.9578         calculate D2E/DX2 analytically  !
 ! A5    A(5,1,8)              109.3302         calculate D2E/DX2 analytically  !
 ! A6    A(6,1,8)              109.3287         calculate D2E/DX2 analytically  !
 ! A7    A(1,2,3)               92.2043         calculate D2E/DX2 analytically  !
 ! A8    A(1,2,4)              114.0456         calculate D2E/DX2 analytically  !
 ! A9    A(1,2,7)              114.0538         calculate D2E/DX2 analytically  !
 ! A10   A(3,2,4)              114.0451         calculate D2E/DX2 analytically  !
 ! A11   A(3,2,7)              114.0613         calculate D2E/DX2 analytically  !
 ! A12   A(4,2,7)              107.9997         calculate D2E/DX2 analytically  !
 ! A13   A(2,3,8)               81.7361         calculate D2E/DX2 analytically  !
 ! A14   A(2,3,9)              117.825          calculate D2E/DX2 analytically  !
 ! A15   A(2,3,10)             117.8222         calculate D2E/DX2 analytically  !
 ! A16   A(8,3,9)              109.339          calculate D2E/DX2 analytically  !
 ! A17   A(8,3,10)             109.3334         calculate D2E/DX2 analytically  !
 ! A18   A(9,3,10)             114.9565         calculate D2E/DX2 analytically  !
 ! A19   A(1,8,3)              104.3187         calculate D2E/DX2 analytically  !
 ! D1    D(5,1,2,3)           -107.5515         calculate D2E/DX2 analytically  !
 ! D2    D(5,1,2,4)             10.0733         calculate D2E/DX2 analytically  !
 ! D3    D(5,1,2,7)            134.8032         calculate D2E/DX2 analytically  !
 ! D4    D(6,1,2,3)            107.554          calculate D2E/DX2 analytically  !
 ! D5    D(6,1,2,4)           -134.8212         calculate D2E/DX2 analytically  !
 ! D6    D(6,1,2,7)            -10.0912         calculate D2E/DX2 analytically  !
 ! D7    D(8,1,2,3)              0.0022         calculate D2E/DX2 analytically  !
 ! D8    D(8,1,2,4)            117.6269         calculate D2E/DX2 analytically  !
 ! D9    D(8,1,2,7)           -117.6431         calculate D2E/DX2 analytically  !
 ! D10   D(2,1,8,3)             -0.0024         calculate D2E/DX2 analytically  !
 ! D11   D(5,1,8,3)            116.6724         calculate D2E/DX2 analytically  !
 ! D12   D(6,1,8,3)           -116.6788         calculate D2E/DX2 analytically  !
 ! D13   D(1,2,3,8)             -0.0022         calculate D2E/DX2 analytically  !
 ! D14   D(1,2,3,9)            107.559          calculate D2E/DX2 analytically  !
 ! D15   D(1,2,3,10)          -107.5569         calculate D2E/DX2 analytically  !
 ! D16   D(4,2,3,8)           -117.6274         calculate D2E/DX2 analytically  !
 ! D17   D(4,2,3,9)            -10.0662         calculate D2E/DX2 analytically  !
 ! D18   D(4,2,3,10)           134.8179         calculate D2E/DX2 analytically  !
 ! D19   D(7,2,3,8)            117.6368         calculate D2E/DX2 analytically  !
 ! D20   D(7,2,3,9)           -134.802          calculate D2E/DX2 analytically  !
 ! D21   D(7,2,3,10)            10.0821         calculate D2E/DX2 analytically  !
 ! D22   D(2,3,8,1)              0.0024         calculate D2E/DX2 analytically  !
 ! D23   D(9,3,8,1)           -116.6707         calculate D2E/DX2 analytically  !
 ! D24   D(10,3,8,1)           116.6726         calculate D2E/DX2 analytically  !
 --------------------------------------------------------------------------------
 Trust Radius=5.00D-02 FncErr=1.00D-07 GrdErr=1.00D-06
 Number of steps in this run=    100 maximum allowed number of steps=    100.
 Search for a saddle point of order  1.
 GradGradGradGradGradGradGradGradGradGradGradGradGradGradGradGradGradGrad

 Leave Link  103 at Sat Jun 26 11:16:03 2021, MaxMem=  3355443200 cpu:         0.0
 (Enter /Local/ce_dana/g09/l202.exe)
                          Input orientation:                          
 ---------------------------------------------------------------------
 Center     Atomic      Atomic             Coordinates (Angstroms)
 Number     Number       Type             X           Y           Z
 ---------------------------------------------------------------------
      1          6           0        0.567145   -0.694936   -0.177721
      2          6           0       -0.823270   -1.284382    0.044851
      3          6           0       -1.448612   -0.351963   -0.989600
      4          1           0       -0.903121   -2.351232   -0.207537
      5          1           0        1.302791   -1.306834   -0.713596
      6          1           0        0.983363   -0.053992    0.608816
      7          1           0       -1.210328   -1.146644    1.064337
      8          1           0       -0.131851    0.090869   -1.090987
      9          1           0       -1.760688   -0.785675   -1.947346
     10          1           0       -2.080089    0.467174   -0.624910
 ---------------------------------------------------------------------
                    Distance matrix (angstroms):
                    1          2          3          4          5
     1  C    0.000000
     2  C    1.526512   0.000000
     3  C    2.200012   1.526613   0.000000
     4  H    2.214924   1.099202   2.215008   0.000000
     5  H    1.096702   2.257406   2.925436   2.492571   0.000000
     6  H    1.096671   2.257396   2.925444   3.082623   1.849438
     7  H    2.214985   1.099153   2.215165   1.778503   3.082608
     8  H    1.392889   1.912983   1.392925   2.709096   2.038184
     9  H    2.925511   2.257501   1.096711   2.492654   3.343449
    10  H    2.925462   2.257459   1.096698   3.082672   3.820844
                    6          7          8          9         10
     6  H    0.000000
     7  H    2.492723   0.000000
     8  H    2.038141   2.709238   0.000000
     9  H    3.820882   3.082763   2.038330   0.000000
    10  H    3.343416   2.492879   2.038250   1.849455   0.000000
 Stoichiometry    C3H7(2)
 Framework group  C1[X(C3H7)]
 Deg. of freedom    24
 Full point group                 C1      NOp   1
 Largest Abelian subgroup         C1      NOp   1
 Largest concise Abelian subgroup C1      NOp   1
                         Standard orientation:                         
 ---------------------------------------------------------------------
 Center     Atomic      Atomic             Coordinates (Angstroms)
 Number     Number       Type             X           Y           Z
 ---------------------------------------------------------------------
      1          6           0        1.099976   -0.333178    0.000001
      2          6           0        0.000059    0.725322   -0.000027
      3          6           0       -1.100036   -0.333138   -0.000004
      4          1           0        0.000083    1.371287    0.889340
      5          1           0        1.671642   -0.477374    0.924750
      6          1           0        1.671672   -0.477404   -0.924688
      7          1           0        0.000183    1.371523   -0.889162
      8          1           0       -0.000023   -1.187661   -0.000033
      9          1           0       -1.671806   -0.477188    0.924715
     10          1           0       -1.671744   -0.477218   -0.924741
 ---------------------------------------------------------------------
 Rotational constants (GHZ):     25.0856840     11.1445914      9.1205008
 Leave Link  202 at Sat Jun 26 11:16:03 2021, MaxMem=  3355443200 cpu:         0.0
 (Enter /Local/ce_dana/g09/l301.exe)
 Standard basis: 6-311G(2d,d,p) (5D, 7F)
 Ernie: Thresh=  0.10000D-02 Tol=  0.10000D-05 Strict=F.
 There are    99 symmetry adapted cartesian basis functions of A   symmetry.
 There are    96 symmetry adapted basis functions of A   symmetry.
    96 basis functions,   152 primitive gaussians,    99 cartesian basis functions
    13 alpha electrons       12 beta electrons
       nuclear repulsion energy        77.3232653458 Hartrees.
 IExCor=  402 DFT=T Ex+Corr=B3LYP ExCW=0 ScaHFX=  0.200000
 ScaDFX=  0.800000  0.720000  1.000000  0.810000 ScalE2=  1.000000  1.000000
 IRadAn=      5 IRanWt=     -1 IRanGd=            0 ICorTp=0 IEmpDi=  4
 NAtoms=   10 NActive=   10 NUniq=   10 SFac= 1.00D+00 NAtFMM=   60 NAOKFM=F Big=F
 Integral buffers will be    131072 words long.
 Raffenetti 2 integral format.
 Two-electron integral symmetry is turned on.
 Leave Link  301 at Sat Jun 26 11:16:03 2021, MaxMem=  3355443200 cpu:         0.1
 (Enter /Local/ce_dana/g09/l302.exe)
 NPDir=0 NMtPBC=     1 NCelOv=     1 NCel=       1 NClECP=     1 NCelD=      1
         NCelK=      1 NCelE2=     1 NClLst=     1 CellRange=     0.0.
 One-electron integrals computed using PRISM.
 NBasis=    96 RedAO= T EigKep=  2.26D-03  NBF=    96
 NBsUse=    96 1.00D-06 EigRej= -1.00D+00 NBFU=    96
 Precomputing XC quadrature grid using
 IXCGrd= 4 IRadAn=           5 IRanWt=          -1 IRanGd=           0 AccXCQ= 0.00D+00.
 Generated NRdTot=       0 NPtTot=           0 NUsed=           0 NTot=          32
 NSgBfM=    99    99    99    99    99 MxSgAt=    10 MxSgA2=    10.
 Leave Link  302 at Sat Jun 26 11:16:03 2021, MaxMem=  3355443200 cpu:         1.1
 (Enter /Local/ce_dana/g09/l303.exe)
 DipDrv:  MaxL=1.
 Leave Link  303 at Sat Jun 26 11:16:04 2021, MaxMem=  3355443200 cpu:         0.1
 (Enter /Local/ce_dana/g09/l401.exe)
 Initial guess from the checkpoint file:  "check.chk"
 B after Tr=     0.000000   -0.000000   -0.000000
         Rot=   -0.376397    0.033904   -0.179832    0.908205 Ang= 224.22 deg.
 Guess basis will be translated and rotated to current coordinates.
 JPrj=2 DoOrth=T DoCkMO=T.
 Initial guess <Sx>= 0.0000 <Sy>= 0.0000 <Sz>= 0.5000 <S**2>= 0.7500 S= 0.5000
 Leave Link  401 at Sat Jun 26 11:16:04 2021, MaxMem=  3355443200 cpu:         0.3
 (Enter /Local/ce_dana/g09/l502.exe)
 UHF open shell SCF:
 Using DIIS extrapolation, IDIIS=  1040.
 Integral symmetry usage will be decided dynamically.
 Keep R1 and R2 ints in memory in canonical form, NReq=22641738.
 IVT=       37088 IEndB=       37088 NGot=  3355443200 MDV=  3333723121
 LenX=  3333723121 LenY=  3333712879
 Requested convergence on RMS density matrix=1.00D-08 within  64 cycles.
 Requested convergence on MAX density matrix=1.00D-06.
 Requested convergence on             energy=1.00D-06.
 No special actions if energy rises.
 FoFCou: FMM=F IPFlag=           0 FMFlag=           0 FMFlg1=           0
         NFxFlg=           0 DoJE=F BraDBF=F KetDBF=F FulRan=T
         wScrn=  0.000000 ICntrl=     600 IOpCl=  0 I1Cent=           0 NGrid=           0
         NMat0=    1 NMatS0=   4656 NMatT0=    0 NMatD0=    1 NMtDS0=    0 NMtDT0=    0
 Symmetry not used in FoFCou.

 Cycle   1  Pass 1  IDiag  1:
 E= -117.104783529072    
 DIIS: error= 6.09D-02 at cycle   1 NSaved=   1.
 NSaved= 1 IEnMin= 1 EnMin= -117.104783529072     IErMin= 1 ErrMin= 6.09D-02
 ErrMax= 6.09D-02  0.00D+00 EMaxC= 1.00D-01 BMatC= 1.79D+00 BMatP= 1.79D+00
 IDIUse=3 WtCom= 3.91D-01 WtEn= 6.09D-01
 Coeff-Com:  0.100D+01
 Coeff-En:   0.100D+01
 Coeff:      0.100D+01
 Gap=     2.421 Goal=   None    Shift=    0.000
 Gap=     2.493 Goal=   None    Shift=    0.000
 GapD=    2.421 DampG=2.000 DampE=0.500 DampFc=1.0000 IDamp=-1.
 RMSDP=1.70D-02 MaxDP=3.24D-01              OVMax= 9.13D-01

 Cycle   2  Pass 1  IDiag  1:
 E= -118.375226145565     Delta-E=       -1.270442616493 Rises=F Damp=F
 DIIS: error= 2.97D-02 at cycle   2 NSaved=   2.
 NSaved= 2 IEnMin= 2 EnMin= -118.375226145565     IErMin= 2 ErrMin= 2.97D-02
 ErrMax= 2.97D-02  0.00D+00 EMaxC= 1.00D-01 BMatC= 1.70D-01 BMatP= 1.79D+00
 IDIUse=3 WtCom= 7.03D-01 WtEn= 2.97D-01
 Coeff-Com:  0.554D-01 0.945D+00
 Coeff-En:   0.000D+00 0.100D+01
 Coeff:      0.390D-01 0.961D+00
 Gap=     0.282 Goal=   None    Shift=    0.000
 Gap=     0.211 Goal=   None    Shift=    0.000
 RMSDP=3.98D-03 MaxDP=6.22D-02 DE=-1.27D+00 OVMax= 1.26D-01

 Cycle   3  Pass 1  IDiag  1:
 E= -118.399426296560     Delta-E=       -0.024200150994 Rises=F Damp=F
 DIIS: error= 3.09D-02 at cycle   3 NSaved=   3.
 NSaved= 3 IEnMin= 3 EnMin= -118.399426296560     IErMin= 2 ErrMin= 2.97D-02
 ErrMax= 3.09D-02  0.00D+00 EMaxC= 1.00D-01 BMatC= 1.57D-01 BMatP= 1.70D-01
 IDIUse=3 WtCom= 6.91D-01 WtEn= 3.09D-01
 Coeff-Com: -0.255D-01 0.501D+00 0.524D+00
 Coeff-En:   0.000D+00 0.322D+00 0.678D+00
 Coeff:     -0.176D-01 0.446D+00 0.572D+00
 Gap=     0.213 Goal=   None    Shift=    0.000
 Gap=     0.269 Goal=   None    Shift=    0.000
 RMSDP=1.89D-03 MaxDP=3.78D-02 DE=-2.42D-02 OVMax= 7.19D-02

 Cycle   4  Pass 1  IDiag  1:
 E= -118.437247538185     Delta-E=       -0.037821241625 Rises=F Damp=F
 DIIS: error= 6.21D-03 at cycle   4 NSaved=   4.
 NSaved= 4 IEnMin= 4 EnMin= -118.437247538185     IErMin= 4 ErrMin= 6.21D-03
 ErrMax= 6.21D-03  0.00D+00 EMaxC= 1.00D-01 BMatC= 8.46D-03 BMatP= 1.57D-01
 IDIUse=3 WtCom= 9.38D-01 WtEn= 6.21D-02
 Coeff-Com: -0.322D-02-0.270D-01 0.153D+00 0.878D+00
 Coeff-En:   0.000D+00 0.000D+00 0.000D+00 0.100D+01
 Coeff:     -0.302D-02-0.254D-01 0.143D+00 0.885D+00
 Gap=     0.220 Goal=   None    Shift=    0.000
 Gap=     0.258 Goal=   None    Shift=    0.000
 RMSDP=5.33D-04 MaxDP=1.22D-02 DE=-3.78D-02 OVMax= 2.53D-02

 Cycle   5  Pass 1  IDiag  1:
 E= -118.439918017200     Delta-E=       -0.002670479015 Rises=F Damp=F
 DIIS: error= 1.41D-03 at cycle   5 NSaved=   5.
 NSaved= 5 IEnMin= 5 EnMin= -118.439918017200     IErMin= 5 ErrMin= 1.41D-03
 ErrMax= 1.41D-03  0.00D+00 EMaxC= 1.00D-01 BMatC= 6.84D-04 BMatP= 8.46D-03
 IDIUse=3 WtCom= 9.86D-01 WtEn= 1.41D-02
 Coeff-Com:  0.268D-02-0.679D-01-0.392D-01 0.205D+00 0.900D+00
 Coeff-En:   0.000D+00 0.000D+00 0.000D+00 0.000D+00 0.100D+01
 Coeff:      0.264D-02-0.670D-01-0.387D-01 0.202D+00 0.901D+00
 Gap=     0.222 Goal=   None    Shift=    0.000
 Gap=     0.262 Goal=   None    Shift=    0.000
 RMSDP=2.29D-04 MaxDP=5.44D-03 DE=-2.67D-03 OVMax= 1.18D-02

 Cycle   6  Pass 1  IDiag  1:
 E= -118.440176840041     Delta-E=       -0.000258822841 Rises=F Damp=F
 DIIS: error= 9.71D-04 at cycle   6 NSaved=   6.
 NSaved= 6 IEnMin= 6 EnMin= -118.440176840041     IErMin= 6 ErrMin= 9.71D-04
 ErrMax= 9.71D-04  0.00D+00 EMaxC= 1.00D-01 BMatC= 2.67D-04 BMatP= 6.84D-04
 IDIUse=3 WtCom= 9.90D-01 WtEn= 9.71D-03
 Coeff-Com:  0.177D-02-0.329D-01-0.378D-01 0.348D-02 0.489D+00 0.576D+00
 Coeff-En:   0.000D+00 0.000D+00 0.000D+00 0.000D+00 0.000D+00 0.100D+01
 Coeff:      0.176D-02-0.326D-01-0.374D-01 0.344D-02 0.484D+00 0.580D+00
 Gap=     0.222 Goal=   None    Shift=    0.000
 Gap=     0.263 Goal=   None    Shift=    0.000
 RMSDP=9.15D-05 MaxDP=1.96D-03 DE=-2.59D-04 OVMax= 5.15D-03

 Cycle   7  Pass 1  IDiag  1:
 E= -118.440253742910     Delta-E=       -0.000076902869 Rises=F Damp=F
 DIIS: error= 2.79D-04 at cycle   7 NSaved=   7.
 NSaved= 7 IEnMin= 7 EnMin= -118.440253742910     IErMin= 7 ErrMin= 2.79D-04
 ErrMax= 2.79D-04  0.00D+00 EMaxC= 1.00D-01 BMatC= 2.31D-05 BMatP= 2.67D-04
 IDIUse=3 WtCom= 9.97D-01 WtEn= 2.79D-03
 Coeff-Com:  0.316D-03-0.219D-02-0.895D-02-0.359D-01 0.433D-01 0.240D+00
 Coeff-Com:  0.764D+00
 Coeff-En:   0.000D+00 0.000D+00 0.000D+00 0.000D+00 0.000D+00 0.000D+00
 Coeff-En:   0.100D+01
 Coeff:      0.315D-03-0.219D-02-0.893D-02-0.358D-01 0.432D-01 0.239D+00
 Coeff:      0.764D+00
 Gap=     0.222 Goal=   None    Shift=    0.000
 Gap=     0.263 Goal=   None    Shift=    0.000
 RMSDP=3.55D-05 MaxDP=7.15D-04 DE=-7.69D-05 OVMax= 1.79D-03

 Cycle   8  Pass 1  IDiag  1:
 E= -118.440261856928     Delta-E=       -0.000008114018 Rises=F Damp=F
 DIIS: error= 7.56D-05 at cycle   8 NSaved=   8.
 NSaved= 8 IEnMin= 8 EnMin= -118.440261856928     IErMin= 8 ErrMin= 7.56D-05
 ErrMax= 7.56D-05  0.00D+00 EMaxC= 1.00D-01 BMatC= 2.46D-06 BMatP= 2.31D-05
 IDIUse=1 WtCom= 1.00D+00 WtEn= 0.00D+00
 Coeff-Com: -0.102D-03 0.300D-02 0.126D-02-0.122D-01-0.430D-01 0.124D-01
 Coeff-Com:  0.280D+00 0.759D+00
 Coeff:     -0.102D-03 0.300D-02 0.126D-02-0.122D-01-0.430D-01 0.124D-01
 Coeff:      0.280D+00 0.759D+00
 Gap=     0.222 Goal=   None    Shift=    0.000
 Gap=     0.263 Goal=   None    Shift=    0.000
 RMSDP=1.33D-05 MaxDP=3.27D-04 DE=-8.11D-06 OVMax= 5.22D-04

 Cycle   9  Pass 1  IDiag  1:
 E= -118.440262739124     Delta-E=       -0.000000882196 Rises=F Damp=F
 DIIS: error= 4.71D-05 at cycle   9 NSaved=   9.
 NSaved= 9 IEnMin= 9 EnMin= -118.440262739124     IErMin= 9 ErrMin= 4.71D-05
 ErrMax= 4.71D-05  0.00D+00 EMaxC= 1.00D-01 BMatC= 4.19D-07 BMatP= 2.46D-06
 IDIUse=1 WtCom= 1.00D+00 WtEn= 0.00D+00
 Coeff-Com: -0.656D-04 0.158D-02 0.156D-02-0.103D-02-0.233D-01-0.251D-01
 Coeff-Com:  0.241D-01 0.317D+00 0.705D+00
 Coeff:     -0.656D-04 0.158D-02 0.156D-02-0.103D-02-0.233D-01-0.251D-01
 Coeff:      0.241D-01 0.317D+00 0.705D+00
 Gap=     0.222 Goal=   None    Shift=    0.000
 Gap=     0.263 Goal=   None    Shift=    0.000
 RMSDP=4.26D-06 MaxDP=8.72D-05 DE=-8.82D-07 OVMax= 1.38D-04

 Cycle  10  Pass 1  IDiag  1:
 E= -118.440262877389     Delta-E=       -0.000000138265 Rises=F Damp=F
 DIIS: error= 1.73D-05 at cycle  10 NSaved=  10.
 NSaved=10 IEnMin=10 EnMin= -118.440262877389     IErMin=10 ErrMin= 1.73D-05
 ErrMax= 1.73D-05  0.00D+00 EMaxC= 1.00D-01 BMatC= 5.65D-08 BMatP= 4.19D-07
 IDIUse=1 WtCom= 1.00D+00 WtEn= 0.00D+00
 Coeff-Com: -0.736D-05-0.139D-03 0.275D-03 0.266D-02 0.218D-02-0.125D-01
 Coeff-Com: -0.609D-01-0.677D-01 0.249D+00 0.888D+00
 Coeff:     -0.736D-05-0.139D-03 0.275D-03 0.266D-02 0.218D-02-0.125D-01
 Coeff:     -0.609D-01-0.677D-01 0.249D+00 0.888D+00
 Gap=     0.222 Goal=   None    Shift=    0.000
 Gap=     0.263 Goal=   None    Shift=    0.000
 RMSDP=1.95D-06 MaxDP=3.71D-05 DE=-1.38D-07 OVMax= 7.68D-05

 Cycle  11  Pass 1  IDiag  1:
 E= -118.440262900941     Delta-E=       -0.000000023552 Rises=F Damp=F
 DIIS: error= 2.30D-06 at cycle  11 NSaved=  11.
 NSaved=11 IEnMin=11 EnMin= -118.440262900941     IErMin=11 ErrMin= 2.30D-06
 ErrMax= 2.30D-06  0.00D+00 EMaxC= 1.00D-01 BMatC= 1.18D-09 BMatP= 5.65D-08
 IDIUse=1 WtCom= 1.00D+00 WtEn= 0.00D+00
 Coeff-Com:  0.257D-05-0.105D-03-0.579D-04 0.362D-03 0.156D-02 0.253D-03
 Coeff-Com: -0.864D-02-0.244D-01-0.129D-01 0.100D+00 0.944D+00
 Coeff:      0.257D-05-0.105D-03-0.579D-04 0.362D-03 0.156D-02 0.253D-03
 Coeff:     -0.864D-02-0.244D-01-0.129D-01 0.100D+00 0.944D+00
 Gap=     0.222 Goal=   None    Shift=    0.000
 Gap=     0.263 Goal=   None    Shift=    0.000
 RMSDP=3.05D-07 MaxDP=5.92D-06 DE=-2.36D-08 OVMax= 1.18D-05

 Cycle  12  Pass 1  IDiag  1:
 E= -118.440262901553     Delta-E=       -0.000000000612 Rises=F Damp=F
 DIIS: error= 5.85D-07 at cycle  12 NSaved=  12.
 NSaved=12 IEnMin=12 EnMin= -118.440262901553     IErMin=12 ErrMin= 5.85D-07
 ErrMax= 5.85D-07  0.00D+00 EMaxC= 1.00D-01 BMatC= 6.55D-11 BMatP= 1.18D-09
 IDIUse=1 WtCom= 1.00D+00 WtEn= 0.00D+00
 Coeff-Com:  0.256D-06 0.116D-04-0.969D-05-0.155D-03-0.182D-03 0.693D-03
 Coeff-Com:  0.360D-02 0.431D-02-0.127D-01-0.509D-01-0.340D-01 0.109D+01
 Coeff:      0.256D-06 0.116D-04-0.969D-05-0.155D-03-0.182D-03 0.693D-03
 Coeff:      0.360D-02 0.431D-02-0.127D-01-0.509D-01-0.340D-01 0.109D+01
 Gap=     0.222 Goal=   None    Shift=    0.000
 Gap=     0.263 Goal=   None    Shift=    0.000
 RMSDP=1.03D-07 MaxDP=2.15D-06 DE=-6.12D-10 OVMax= 5.29D-06

 Cycle  13  Pass 1  IDiag  1:
 E= -118.440262901602     Delta-E=       -0.000000000048 Rises=F Damp=F
 DIIS: error= 2.08D-07 at cycle  13 NSaved=  13.
 NSaved=13 IEnMin=13 EnMin= -118.440262901602     IErMin=13 ErrMin= 2.08D-07
 ErrMax= 2.08D-07  0.00D+00 EMaxC= 1.00D-01 BMatC= 7.32D-12 BMatP= 6.55D-11
 IDIUse=1 WtCom= 1.00D+00 WtEn= 0.00D+00
 Coeff-Com: -0.160D-06 0.100D-04 0.416D-05-0.444D-04-0.160D-03 0.579D-04
 Coeff-Com:  0.114D-02 0.253D-02-0.246D-03-0.149D-01-0.822D-01 0.184D+00
 Coeff-Com:  0.910D+00
 Coeff:     -0.160D-06 0.100D-04 0.416D-05-0.444D-04-0.160D-03 0.579D-04
 Coeff:      0.114D-02 0.253D-02-0.246D-03-0.149D-01-0.822D-01 0.184D+00
 Coeff:      0.910D+00
 Gap=     0.222 Goal=   None    Shift=    0.000
 Gap=     0.263 Goal=   None    Shift=    0.000
 RMSDP=2.54D-08 MaxDP=4.89D-07 DE=-4.83D-11 OVMax= 1.19D-06

 Cycle  14  Pass 1  IDiag  1:
 E= -118.440262901605     Delta-E=       -0.000000000003 Rises=F Damp=F
 DIIS: error= 5.99D-08 at cycle  14 NSaved=  14.
 NSaved=14 IEnMin=14 EnMin= -118.440262901605     IErMin=14 ErrMin= 5.99D-08
 ErrMax= 5.99D-08  0.00D+00 EMaxC= 1.00D-01 BMatC= 6.59D-13 BMatP= 7.32D-12
 IDIUse=1 WtCom= 1.00D+00 WtEn= 0.00D+00
 Coeff-Com: -0.436D-07 0.998D-06 0.836D-06 0.552D-06-0.151D-04-0.224D-04
 Coeff-Com:  0.358D-05 0.201D-03 0.692D-03 0.119D-03-0.135D-01-0.412D-01
 Coeff-Com:  0.218D+00 0.836D+00
 Coeff:     -0.436D-07 0.998D-06 0.836D-06 0.552D-06-0.151D-04-0.224D-04
 Coeff:      0.358D-05 0.201D-03 0.692D-03 0.119D-03-0.135D-01-0.412D-01
 Coeff:      0.218D+00 0.836D+00
 Gap=     0.222 Goal=   None    Shift=    0.000
 Gap=     0.263 Goal=   None    Shift=    0.000
 RMSDP=6.47D-09 MaxDP=1.07D-07 DE=-3.30D-12 OVMax= 2.68D-07

 SCF Done:  E(UB3LYP) =  -118.440262902     A.U. after   14 cycles
            NFock= 14  Conv=0.65D-08     -V/T= 2.0054
 <Sx>= 0.0000 <Sy>= 0.0000 <Sz>= 0.5000 <S**2>= 0.7588 S= 0.5044
 <L.S>=  0.00000000000    
 KE= 1.178037145146D+02 PE=-4.284184617778D+02 EE= 1.148512190158D+02
 Annihilation of the first spin contaminant:
 S**2 before annihilation     0.7588,   after     0.7500
 Leave Link  502 at Sat Jun 26 11:16:13 2021, MaxMem=  3355443200 cpu:        75.0
 (Enter /Local/ce_dana/g09/l508.exe)
 QCSCF skips out because SCF is already converged.
 Leave Link  508 at Sat Jun 26 11:16:13 2021, MaxMem=  3355443200 cpu:         0.0
 (Enter /Local/ce_dana/g09/l801.exe)
 DoSCS=F DFT=T ScalE2(SS,OS)=  1.000000  1.000000
 Range of M.O.s used for correlation:     1    96
 NBasis=    96 NAE=    13 NBE=    12 NFC=     0 NFV=     0
 NROrb=     96 NOA=    13 NOB=    12 NVA=    83 NVB=    84
 Leave Link  801 at Sat Jun 26 11:16:13 2021, MaxMem=  3355443200 cpu:         0.1
 (Enter /Local/ce_dana/g09/l1101.exe)
 Using compressed storage, NAtomX=    10.
 Will process     11 centers per pass.
 Leave Link 1101 at Sat Jun 26 11:16:14 2021, MaxMem=  3355443200 cpu:         3.4
 (Enter /Local/ce_dana/g09/l1102.exe)
 Symmetrizing basis deriv contribution to polar:
 IMax=3 JMax=2 DiffMx= 0.00D+00
 Leave Link 1102 at Sat Jun 26 11:16:14 2021, MaxMem=  3355443200 cpu:         0.1
 (Enter /Local/ce_dana/g09/l1110.exe)
 Forming Gx(P) for the SCF density, NAtomX=    10.
 Integral derivatives from FoFJK, PRISM(SPDF).
 Do as many integral derivatives as possible in FoFJK.
 G2DrvN: MDV=    3355443016.
 G2DrvN: will do    11 centers at a time, making    1 passes.
 Calling FoFCou, ICntrl=  3107 FMM=F I1Cent=   0 AccDes= 1.00D-12.
 FoFJK:  IHMeth= 1 ICntrl=    3107 DoSepK=F KAlg= 0 I1Cent=   0 FoldK=F
 IRaf=         0 NMat=   1 IRICut=       1 DoRegI=T DoRafI=F ISym2E= 0.
 FoFCou: FMM=F IPFlag=           0 FMFlag=      100000 FMFlg1=           0
         NFxFlg=           0 DoJE=F BraDBF=F KetDBF=F FulRan=T
         wScrn=  0.000000 ICntrl=    3107 IOpCl=  1 I1Cent=           0 NGrid=           0
         NMat0=    1 NMatS0=      1 NMatT0=    0 NMatD0=    1 NMtDS0=    0 NMtDT0=    0
 Symmetry not used in FoFCou.
 End of G2Drv F.D. properties file   721 does not exist.
 End of G2Drv F.D. properties file   722 does not exist.
 End of G2Drv F.D. properties file   788 does not exist.
 Leave Link 1110 at Sat Jun 26 11:16:25 2021, MaxMem=  3355443200 cpu:       103.9
 (Enter /Local/ce_dana/g09/l1002.exe)
 Minotr:  UHF open shell wavefunction.
          IDoAtm=1111111111
          Direct CPHF calculation.
          Differentiating once with respect to nuclear coordinates.
          Requested convergence is 1.0D-08 RMS, and 1.0D-07 maximum.
          Secondary convergence is 1.0D-12 RMS, and 1.0D-12 maximum.
          NewPWx=T KeepS1=F KeepF1=F KeepIn=T MapXYZ=F SortEE=F KeepMc=T.
          MDV=    3355442904 using IRadAn=       1.
 Generate precomputed XC quadrature information.
 Keep R1 and R2 ints in memory in canonical form, NReq=22605689.
 FoFCou: FMM=F IPFlag=           0 FMFlag=           0 FMFlg1=           0
         NFxFlg=           0 DoJE=F BraDBF=F KetDBF=F FulRan=T
         wScrn=  0.000000 ICntrl=     600 IOpCl=  0 I1Cent=           0 NGrid=           0
         NMat0=    1 NMatS0=   4656 NMatT0=    0 NMatD0=    1 NMtDS0=    0 NMtDT0=    0
 Symmetry not used in FoFCou.
          Solving linear equations simultaneously, MaxMat=       0.
          There are    33 degrees of freedom in the 1st order CPHF.  IDoFFX=6 NUNeed=     0.
     27 vectors produced by pass  0 Test12= 6.32D-15 3.03D-09 XBig12= 1.71D-01 2.30D-01.
 AX will form    27 AO Fock derivatives at one time.
     27 vectors produced by pass  1 Test12= 6.32D-15 3.03D-09 XBig12= 9.13D-03 4.63D-02.
     27 vectors produced by pass  2 Test12= 6.32D-15 3.03D-09 XBig12= 1.97D-04 4.47D-03.
     27 vectors produced by pass  3 Test12= 6.32D-15 3.03D-09 XBig12= 1.94D-06 3.59D-04.
     27 vectors produced by pass  4 Test12= 6.32D-15 3.03D-09 XBig12= 1.29D-08 2.08D-05.
     27 vectors produced by pass  5 Test12= 6.32D-15 3.03D-09 XBig12= 6.11D-11 2.08D-06.
     16 vectors produced by pass  6 Test12= 6.32D-15 3.03D-09 XBig12= 2.32D-13 1.08D-07.
      3 vectors produced by pass  7 Test12= 6.32D-15 3.03D-09 XBig12= 8.00D-16 5.08D-09.
 InvSVY:  IOpt=1 It=  1 EMax= 2.78D-15
 Solved reduced A of dimension   181 with    27 vectors.
 End of Minotr F.D. properties file   721 does not exist.
 End of Minotr F.D. properties file   722 does not exist.
 End of Minotr F.D. properties file   788 does not exist.
 Leave Link 1002 at Sat Jun 26 11:16:41 2021, MaxMem=  3355443200 cpu:       149.5
 (Enter /Local/ce_dana/g09/l601.exe)
 Copying SCF densities to generalized density rwf, IOpCl= 1 IROHF=0.

 **********************************************************************

            Population analysis using the SCF density.

 **********************************************************************

 Orbital symmetries:
 Alpha Orbitals:
       Occupied  (A) (A) (A) (A) (A) (A) (A) (A) (A) (A) (A) (A)
                 (A)
       Virtual   (A) (A) (A) (A) (A) (A) (A) (A) (A) (A) (A) (A)
                 (A) (A) (A) (A) (A) (A) (A) (A) (A) (A) (A) (A)
                 (A) (A) (A) (A) (A) (A) (A) (A) (A) (A) (A) (A)
                 (A) (A) (A) (A) (A) (A) (A) (A) (A) (A) (A) (A)
                 (A) (A) (A) (A) (A) (A) (A) (A) (A) (A) (A) (A)
                 (A) (A) (A) (A) (A) (A) (A) (A) (A) (A) (A) (A)
                 (A) (A) (A) (A) (A) (A) (A) (A) (A) (A) (A)
 Beta  Orbitals:
       Occupied  (A) (A) (A) (A) (A) (A) (A) (A) (A) (A) (A) (A)
       Virtual   (A) (A) (A) (A) (A) (A) (A) (A) (A) (A) (A) (A)
                 (A) (A) (A) (A) (A) (A) (A) (A) (A) (A) (A) (A)
                 (A) (A) (A) (A) (A) (A) (A) (A) (A) (A) (A) (A)
                 (A) (A) (A) (A) (A) (A) (A) (A) (A) (A) (A) (A)
                 (A) (A) (A) (A) (A) (A) (A) (A) (A) (A) (A) (A)
                 (A) (A) (A) (A) (A) (A) (A) (A) (A) (A) (A) (A)
                 (A) (A) (A) (A) (A) (A) (A) (A) (A) (A) (A) (A)
 The electronic state is 2-A.
 Alpha  occ. eigenvalues --  -10.17581 -10.17580 -10.17164  -0.80789  -0.65270
 Alpha  occ. eigenvalues --   -0.59136  -0.47135  -0.46913  -0.40222  -0.35404
 Alpha  occ. eigenvalues --   -0.34546  -0.33120  -0.17458
 Alpha virt. eigenvalues --    0.04761   0.06985   0.08881   0.08947   0.11015
 Alpha virt. eigenvalues --    0.12952   0.16612   0.19714   0.21183   0.25267
 Alpha virt. eigenvalues --    0.28588   0.34759   0.35465   0.38983   0.42352
 Alpha virt. eigenvalues --    0.43678   0.48623   0.51483   0.53210   0.55405
 Alpha virt. eigenvalues --    0.59017   0.59937   0.60281   0.61326   0.61973
 Alpha virt. eigenvalues --    0.73955   0.80056   0.93079   1.01774   1.01926
 Alpha virt. eigenvalues --    1.19283   1.22437   1.32112   1.33666   1.39700
 Alpha virt. eigenvalues --    1.41280   1.46728   1.47286   1.52129   1.56347
 Alpha virt. eigenvalues --    1.56608   1.63448   1.63726   1.64252   1.70106
 Alpha virt. eigenvalues --    1.70128   1.82443   1.85094   1.86511   1.89274
 Alpha virt. eigenvalues --    1.98449   2.09232   2.12719   2.12946   2.13178
 Alpha virt. eigenvalues --    2.22514   2.27813   2.29927   2.33257   2.35429
 Alpha virt. eigenvalues --    2.42601   2.45108   2.47111   2.59471   2.60828
 Alpha virt. eigenvalues --    2.61134   2.65051   2.65512   2.69310   2.90154
 Alpha virt. eigenvalues --    2.90880   2.91848   3.10450   3.44466   3.47889
 Alpha virt. eigenvalues --    3.57090   3.71034   3.90892   4.04841   4.47043
 Alpha virt. eigenvalues --   23.79858  23.80967  23.85628
  Beta  occ. eigenvalues --  -10.17227 -10.16565 -10.16564  -0.79166  -0.63149
  Beta  occ. eigenvalues --   -0.58058  -0.46674  -0.45010  -0.39490  -0.34765
  Beta  occ. eigenvalues --   -0.34280  -0.31312
  Beta virt. eigenvalues --   -0.04987   0.05057   0.07231   0.09181   0.09462
  Beta virt. eigenvalues --    0.12339   0.13351   0.16730   0.20392   0.21559
  Beta virt. eigenvalues --    0.25543   0.28886   0.35481   0.35684   0.41039
  Beta virt. eigenvalues --    0.42581   0.44145   0.49883   0.53274   0.53714
  Beta virt. eigenvalues --    0.56921   0.59346   0.60641   0.60786   0.62080
  Beta virt. eigenvalues --    0.63192   0.74824   0.81582   0.94155   1.02790
  Beta virt. eigenvalues --    1.03388   1.20149   1.22514   1.34019   1.34555
  Beta virt. eigenvalues --    1.39846   1.41619   1.47480   1.47996   1.52502
  Beta virt. eigenvalues --    1.56901   1.57904   1.63974   1.64274   1.64817
  Beta virt. eigenvalues --    1.70373   1.70393   1.83123   1.86669   1.86728
  Beta virt. eigenvalues --    1.90886   1.99783   2.09337   2.13236   2.13812
  Beta virt. eigenvalues --    2.14523   2.23306   2.28521   2.30051   2.34940
  Beta virt. eigenvalues --    2.36942   2.43840   2.45369   2.47230   2.59942
  Beta virt. eigenvalues --    2.60849   2.61621   2.65500   2.66016   2.69369
  Beta virt. eigenvalues --    2.90620   2.91556   2.91906   3.11681   3.46805
  Beta virt. eigenvalues --    3.48763   3.57779   3.72217   3.91400   4.05799
  Beta virt. eigenvalues --    4.47941  23.80996  23.81953  23.85741
          Condensed to atoms (all electrons):
               1          2          3          4          5          6
     1  C    5.390305   0.337157  -0.339581  -0.033052   0.376769   0.376767
     2  C    0.337157   4.987762   0.337168   0.404335  -0.030797  -0.030797
     3  C   -0.339581   0.337168   5.390356  -0.033054   0.015892   0.015891
     4  H   -0.033052   0.404335  -0.033054   0.573565  -0.009962   0.004815
     5  H    0.376769  -0.030797   0.015892  -0.009962   0.550506  -0.024088
     6  H    0.376767  -0.030797   0.015891   0.004815  -0.024088   0.550499
     7  H   -0.033045   0.404337  -0.033028  -0.031894   0.004814  -0.009956
     8  H    0.201259  -0.117687   0.201224   0.010703  -0.007639  -0.007638
     9  H    0.015893  -0.030791   0.376754  -0.009957  -0.001159  -0.000740
    10  H    0.015892  -0.030797   0.376750   0.004814  -0.000740  -0.001159
               7          8          9         10
     1  C   -0.033045   0.201259   0.015893   0.015892
     2  C    0.404337  -0.117687  -0.030791  -0.030797
     3  C   -0.033028   0.201224   0.376754   0.376750
     4  H   -0.031894   0.010703  -0.009957   0.004814
     5  H    0.004814  -0.007639  -0.001159  -0.000740
     6  H   -0.009956  -0.007638  -0.000740  -0.001159
     7  H    0.573514   0.010701   0.004811  -0.009953
     8  H    0.010701   0.622715  -0.007632  -0.007632
     9  H    0.004811  -0.007632   0.550508  -0.024088
    10  H   -0.009953  -0.007632  -0.024088   0.550512
          Atomic-Atomic Spin Densities.
               1          2          3          4          5          6
     1  C    0.945382  -0.009627  -0.329906  -0.000251  -0.031659  -0.031662
     2  C   -0.009627  -0.051051  -0.009618   0.002692  -0.000974  -0.000974
     3  C   -0.329906  -0.009618   0.945442  -0.000254   0.017255   0.017255
     4  H   -0.000251   0.002692  -0.000254  -0.000450   0.000317  -0.000163
     5  H   -0.031659  -0.000974   0.017255   0.000317   0.000577   0.008777
     6  H   -0.031662  -0.000974   0.017255  -0.000163   0.008777   0.000582
     7  H   -0.000252   0.002692  -0.000251  -0.000118  -0.000163   0.000318
     8  H    0.006473   0.015818   0.006442  -0.001154   0.001312   0.001312
     9  H    0.017256  -0.000974  -0.031670   0.000318  -0.001315  -0.000623
    10  H    0.017256  -0.000974  -0.031670  -0.000162  -0.000623  -0.001315
               7          8          9         10
     1  C   -0.000252   0.006473   0.017256   0.017256
     2  C    0.002692   0.015818  -0.000974  -0.000974
     3  C   -0.000251   0.006442  -0.031670  -0.031670
     4  H   -0.000118  -0.001154   0.000318  -0.000162
     5  H   -0.000163   0.001312  -0.001315  -0.000623
     6  H    0.000318   0.001312  -0.000623  -0.001315
     7  H   -0.000452  -0.001154  -0.000163   0.000317
     8  H   -0.001154  -0.120313   0.001312   0.001314
     9  H   -0.000163   0.001312   0.000595   0.008780
    10  H    0.000317   0.001314   0.008780   0.000592
 Mulliken charges and spin densities:
               1          2
     1  C   -0.308363   0.583009
     2  C   -0.229890  -0.052989
     3  C   -0.308373   0.583025
     4  H    0.119687   0.000775
     5  H    0.126403  -0.006495
     6  H    0.126406  -0.006492
     7  H    0.119700   0.000773
     8  H    0.101627  -0.088638
     9  H    0.126402  -0.006484
    10  H    0.126400  -0.006485
 Sum of Mulliken charges =  -0.00000   1.00000
 Mulliken charges and spin densities with hydrogens summed into heavy atoms:
               1          2
     1  C    0.046073   0.481384
     2  C    0.009498  -0.051441
     3  C   -0.055570   0.570057
 APT charges:
               1
     1  C   -0.804365
     2  C   -0.669439
     3  C   -0.804397
     4  H    0.346838
     5  H    0.375003
     6  H    0.375003
     7  H    0.346891
     8  H    0.084446
     9  H    0.375022
    10  H    0.374997
 Sum of APT charges =  -0.00000
 APT charges with hydrogens summed into heavy atoms:
               1
     1  C    0.030087
     2  C    0.024290
     3  C   -0.054378
 Electronic spatial extent (au):  <R**2>=            195.3738
 Charge=             -0.0000 electrons
 Dipole moment (field-independent basis, Debye):
    X=              0.0001    Y=              0.3476    Z=             -0.0000  Tot=              0.3476
 Quadrupole moment (field-independent basis, Debye-Ang):
   XX=            -21.7143   YY=            -22.7362   ZZ=            -20.0938
   XY=             -0.0001   XZ=             -0.0002   YZ=             -0.0001
 Traceless Quadrupole moment (field-independent basis, Debye-Ang):
   XX=             -0.1995   YY=             -1.2214   ZZ=              1.4210
   XY=             -0.0001   XZ=             -0.0002   YZ=             -0.0001
 Octapole moment (field-independent basis, Debye-Ang**2):
  XXX=             -0.0004  YYY=              3.2285  ZZZ=              0.0002  XYY=              0.0009
  XXY=             -0.9795  XXZ=              0.0002  XZZ=              0.0002  YZZ=              0.5928
  YYZ=             -0.0006  XYZ=             -0.0001
 Hexadecapole moment (field-independent basis, Debye-Ang**3):
 XXXX=           -158.2193 YYYY=            -81.8364 ZZZZ=            -43.5110 XXXY=             -0.0006
 XXXZ=             -0.0009 YYYX=             -0.0003 YYYZ=             -0.0014 ZZZX=             -0.0001
 ZZZY=             -0.0000 XXYY=            -40.9890 XXZZ=            -29.0280 YYZZ=            -19.8156
 XXYZ=             -0.0001 YYXZ=             -0.0003 ZZXY=             -0.0002
 N-N= 7.732326534577D+01 E-N=-4.284184615608D+02  KE= 1.178037145146D+02
  Exact polarizability:   0.000   0.000   0.000   0.000   0.000   0.000
 Approx polarizability:  66.531   0.001  45.415  -0.000   0.000  46.705
                          Isotropic Fermi Contact Couplings
        Atom                 a.u.       MegaHertz       Gauss      10(-4) cm-1
     1  C(13)              0.25373     285.24215     101.78149      95.14654
     2  C(13)             -0.02144     -24.10463      -8.60113      -8.04044
     3  C(13)              0.25385     285.37073     101.82737      95.18943
     4  H(1)               0.00047       2.10270       0.75030       0.70139
     5  H(1)              -0.00222      -9.90501      -3.53435      -3.30396
     6  H(1)              -0.00221      -9.89976      -3.53248      -3.30220
     7  H(1)               0.00047       2.10153       0.74988       0.70100
     8  H(1)              -0.03485    -155.77132     -55.58308     -51.95972
     9  H(1)              -0.00221      -9.88253      -3.52633      -3.29646
    10  H(1)              -0.00221      -9.88605      -3.52759      -3.29763
 --------------------------------------------------------
       Center         ----  Spin Dipole Couplings  ----
                      3XX-RR        3YY-RR        3ZZ-RR
 --------------------------------------------------------
     1   Atom        0.241702      0.093902     -0.335604
     2   Atom       -0.008855      0.024752     -0.015898
     3   Atom        0.241628      0.093970     -0.335598
     4   Atom       -0.001213      0.008660     -0.007447
     5   Atom        0.002131     -0.022774      0.020643
     6   Atom        0.002134     -0.022773      0.020639
     7   Atom       -0.001213      0.008660     -0.007447
     8   Atom        0.134981     -0.032110     -0.102871
     9   Atom        0.002134     -0.022773      0.020640
    10   Atom        0.002130     -0.022773      0.020643
 --------------------------------------------------------
                        XY            XZ            YZ
 --------------------------------------------------------
     1   Atom        0.481051     -0.000001     -0.000002
     2   Atom       -0.000002     -0.000002     -0.000003
     3   Atom       -0.481042      0.000027     -0.000022
     4   Atom        0.000000      0.000000      0.007719
     5   Atom        0.012524      0.033819     -0.011778
     6   Atom        0.012523     -0.033821      0.011782
     7   Atom       -0.000000      0.000000     -0.007716
     8   Atom        0.000001     -0.000002      0.000004
     9   Atom       -0.012527     -0.033820     -0.011771
    10   Atom       -0.012527      0.033820      0.011772
 --------------------------------------------------------


 ---------------------------------------------------------------------------------
              Anisotropic Spin Dipole Couplings in Principal Axis System
 ---------------------------------------------------------------------------------

       Atom             a.u.   MegaHertz   Gauss  10(-4) cm-1        Axes

              Baa    -0.3356   -45.035   -16.070   -15.022 -0.0000  0.0000  1.0000
     1 C(13)  Bbb    -0.3189   -42.792   -15.269   -14.274 -0.6512  0.7589 -0.0001
              Bcc     0.6545    87.827    31.339    29.296  0.7589  0.6512 -0.0000
 
              Baa    -0.0159    -2.133    -0.761    -0.712  0.0003  0.0001  1.0000
     2 C(13)  Bbb    -0.0089    -1.188    -0.424    -0.396  1.0000  0.0001 -0.0003
              Bcc     0.0248     3.322     1.185     1.108 -0.0001  1.0000 -0.0001
 
              Baa    -0.3356   -45.034   -16.069   -15.022 -0.0001 -0.0000  1.0000
     3 C(13)  Bbb    -0.3189   -42.790   -15.269   -14.273  0.6513  0.7588  0.0001
              Bcc     0.6545    87.824    31.338    29.295  0.7588 -0.6513  0.0000
 
              Baa    -0.0105    -5.629    -2.008    -1.877  0.0000 -0.3729  0.9279
     4 H(1)   Bbb    -0.0012    -0.647    -0.231    -0.216  1.0000 -0.0000 -0.0000
              Bcc     0.0118     6.276     2.239     2.093  0.0000  0.9279  0.3729
 
              Baa    -0.0403   -21.529    -7.682    -7.181 -0.5605  0.6980  0.4456
     5 H(1)   Bbb    -0.0061    -3.280    -1.170    -1.094  0.5696  0.7156 -0.4044
              Bcc     0.0465    24.809     8.852     8.275  0.6011 -0.0271  0.7987
 
              Baa    -0.0404   -21.530    -7.682    -7.182 -0.5605  0.6980 -0.4457
     6 H(1)   Bbb    -0.0061    -3.279    -1.170    -1.094  0.5696  0.7156  0.4044
              Bcc     0.0465    24.810     8.853     8.276 -0.6012  0.0272  0.7987
 
              Baa    -0.0105    -5.627    -2.008    -1.877 -0.0000  0.3728  0.9279
     7 H(1)   Bbb    -0.0012    -0.647    -0.231    -0.216  1.0000  0.0000  0.0000
              Bcc     0.0118     6.275     2.239     2.093 -0.0000  0.9279 -0.3728
 
              Baa    -0.1029   -54.887   -19.585   -18.308  0.0000 -0.0001  1.0000
     8 H(1)   Bbb    -0.0321   -17.132    -6.113    -5.715 -0.0000  1.0000  0.0001
              Bcc     0.1350    72.019    25.698    24.023  1.0000  0.0000 -0.0000
 
              Baa    -0.0403   -21.527    -7.682    -7.181  0.5606  0.6980  0.4456
     9 H(1)   Bbb    -0.0061    -3.281    -1.171    -1.094 -0.5695  0.7156 -0.4045
              Bcc     0.0465    24.809     8.852     8.275 -0.6012 -0.0270  0.7986
 
              Baa    -0.0403   -21.528    -7.682    -7.181  0.5606  0.6980 -0.4456
    10 H(1)   Bbb    -0.0061    -3.281    -1.171    -1.094 -0.5695  0.7156  0.4045
              Bcc     0.0465    24.809     8.852     8.275  0.6012  0.0270  0.7987
 

 ---------------------------------------------------------------------------------

 No NMR shielding tensors so no spin-rotation constants.
 Leave Link  601 at Sat Jun 26 11:16:41 2021, MaxMem=  3355443200 cpu:         2.2
 (Enter /Local/ce_dana/g09/l701.exe)
 Compute integral second derivatives.
 ... and contract with generalized density number  0.
 Leave Link  701 at Sat Jun 26 11:16:42 2021, MaxMem=  3355443200 cpu:         4.8
 (Enter /Local/ce_dana/g09/l702.exe)
 L702 exits ... SP integral derivatives will be done elsewhere.
 Leave Link  702 at Sat Jun 26 11:16:42 2021, MaxMem=  3355443200 cpu:         0.1
 (Enter /Local/ce_dana/g09/l703.exe)
 Compute integral second derivatives, UseDBF=F ICtDFT=           0.
 Integral derivatives from FoFJK, PRISM(SPDF).
 Calling FoFJK, ICntrl=    100147 FMM=F ISym2X=0 I1Cent= 0 IOpClX= 1 NMat=1 NMatS=1 NMatT=0.
 FoFJK:  IHMeth= 1 ICntrl=  100147 DoSepK=F KAlg= 0 I1Cent=   0 FoldK=F
 IRaf=         0 NMat=   1 IRICut=       1 DoRegI=T DoRafI=F ISym2E= 0.
 FoFCou: FMM=F IPFlag=           0 FMFlag=      100000 FMFlg1=         800
         NFxFlg=           0 DoJE=F BraDBF=F KetDBF=F FulRan=T
         wScrn=  0.000000 ICntrl=  100147 IOpCl=  1 I1Cent=           0 NGrid=           0
         NMat0=    1 NMatS0=      1 NMatT0=    0 NMatD0=    1 NMtDS0=    0 NMtDT0=    0
 Symmetry not used in FoFCou.
 Leave Link  703 at Sat Jun 26 11:16:52 2021, MaxMem=  3355443200 cpu:        93.9
 (Enter /Local/ce_dana/g09/l716.exe)
 Dipole        = 5.26165938D-05 1.36772475D-01-5.46262622D-06
 Polarizability= 0.00000000D+00 0.00000000D+00 0.00000000D+00
                 0.00000000D+00 0.00000000D+00 0.00000000D+00
 ***** Axes restored to original set *****
 -------------------------------------------------------------------
 Center     Atomic                   Forces (Hartrees/Bohr)
 Number     Number              X              Y              Z
 -------------------------------------------------------------------
      1        6           0.009553796   -0.000739885    0.002993774
      2        6          -0.003475876   -0.006923094    0.005649447
      3        6          -0.008727791    0.002350030   -0.004318510
      4        1           0.000371965    0.004892472    0.001140157
      5        1          -0.003891632    0.003554385    0.002689652
      6        1          -0.002156446   -0.003212687   -0.004449269
      7        1           0.001761584   -0.000595105   -0.004654393
      8        1           0.001149883    0.002286373   -0.001895469
      9        1           0.001846266    0.002579904    0.005001204
     10        1           0.003568250   -0.004192393   -0.002156594
 -------------------------------------------------------------------
 Cartesian Forces:  Max     0.009553796 RMS     0.004055914
 Force constants in Cartesian coordinates: 
                1             2             3             4             5 
      1  0.493568D+00
      2  0.349494D-01  0.323538D+00
      3 -0.522375D-01  0.244757D+00  0.328493D+00
      4 -0.172854D+00 -0.383636D-01  0.144077D-01  0.385814D+00
      5 -0.558135D-01 -0.835354D-01 -0.120666D-01  0.245607D-01  0.561492D+00
      6  0.309398D-01 -0.785159D-02 -0.671362D-01 -0.711933D-01  0.272539D-01
      7 -0.944373D-01  0.784137D-01 -0.100791D+00 -0.742713D-01  0.512458D-01
      8 -0.825797D-02  0.419638D-01 -0.272524D-01  0.338016D-01 -0.116844D+00
      9 -0.186928D-01 -0.631316D-02  0.167676D-01 -0.301399D-01  0.453477D-01
     10 -0.278988D-02 -0.280885D-01 -0.102463D-01 -0.476590D-01 -0.153559D-01
     11 -0.597455D-03 -0.647969D-02 -0.203447D-02 -0.160646D-01 -0.280003D+00
     12  0.710750D-03  0.265091D-02 -0.734740D-03 -0.259588D-02 -0.607251D-01
     13 -0.162094D+00  0.956289D-01  0.935936D-01 -0.126000D-01  0.135479D-01
     14  0.959008D-01 -0.127464D+00 -0.932992D-01 -0.127374D-01  0.960845D-02
     15  0.871517D-01 -0.795456D-01 -0.971550D-01  0.152630D-02 -0.480563D-02
     16 -0.821087D-01 -0.629346D-01 -0.669456D-01 -0.759204D-02 -0.130977D-01
     17 -0.600854D-01 -0.124451D+00 -0.116924D+00 -0.119714D-02 -0.815870D-02
     18 -0.634603D-01 -0.131432D+00 -0.180198D+00  0.575032D-02  0.764728D-02
     19 -0.113522D-01  0.711880D-02  0.260134D-01 -0.764288D-01  0.117142D-01
     20 -0.402776D-02  0.672079D-03  0.907097D-02  0.124189D-01 -0.555963D-01
     21 -0.423194D-03  0.437751D-03  0.682434D-03  0.809032D-01 -0.331586D-01
     22  0.329222D-01 -0.819034D-01  0.922190D-01  0.106176D-01 -0.166616D-01
     23 -0.780794D-03 -0.199199D-01 -0.750254D-02 -0.166642D-01 -0.232799D-01
     24  0.153715D-01 -0.271019D-01  0.174615D-02  0.170980D-01  0.229474D-01
     25 -0.729532D-03 -0.206614D-03  0.455267D-02 -0.250256D-02 -0.211895D-02
     26 -0.181607D-02 -0.156678D-02  0.233449D-02  0.643701D-02  0.871941D-02
     27 -0.920936D-03  0.283980D-02 -0.152544D-02 -0.230292D-02 -0.977241D-02
     28 -0.124253D-03 -0.461408D-02 -0.565660D-03 -0.252353D-02  0.197891D-02
     29  0.528738D-03 -0.275747D-02  0.291675D-02  0.780871D-02 -0.124028D-01
     30  0.156101D-02  0.155823D-02 -0.939182D-03 -0.134535D-01  0.173321D-01
                6             7             8             9            10 
      6  0.541147D+00
      7 -0.466685D-01  0.248121D+00
      8  0.411305D-01 -0.188263D+00  0.406530D+00
      9 -0.132288D+00  0.998884D-01  0.112174D+00  0.490769D+00
     10 -0.229711D-02 -0.108479D-02  0.158251D-01  0.593611D-02  0.517661D-01
     11 -0.589741D-01  0.250745D-03 -0.141419D-01 -0.432835D-02  0.178474D-01
     12 -0.651771D-01  0.130524D-04  0.205693D-01  0.522351D-02  0.384062D-02
     13  0.108410D-01 -0.991317D-04 -0.210783D-02 -0.167461D-02  0.172297D-02
     14  0.924194D-02 -0.122905D-02 -0.136231D-02  0.367458D-02  0.153959D-02
     15 -0.468001D-02  0.349450D-02  0.136733D-02 -0.235886D-02 -0.905297D-03
     16 -0.171942D-01 -0.325894D-03  0.120841D-02  0.205026D-02 -0.315710D-02
     17 -0.987578D-02 -0.320945D-02 -0.310709D-02  0.952950D-03 -0.311089D-02
     18  0.808192D-02  0.233433D-03  0.411550D-02 -0.387992D-03  0.228939D-02
     19  0.806007D-01  0.444485D-02 -0.453281D-02 -0.164999D-01  0.938351D-03
     20 -0.349071D-01 -0.529947D-02  0.241314D-02  0.168698D-01  0.111733D-01
     21 -0.260897D+00  0.490031D-02 -0.407739D-02 -0.168464D-01  0.226433D-02
     22  0.170978D-01  0.864754D-01  0.479213D-01 -0.178260D-01 -0.401295D-03
     23  0.229489D-01 -0.331938D-01 -0.380426D-01  0.183708D-02 -0.876152D-03
     24 -0.124197D-01  0.590156D-01  0.214342D-01 -0.336860D-01  0.937208D-03
     25 -0.412707D-02 -0.503571D-01 -0.256516D-01 -0.764258D-01  0.723407D-03
     26  0.202008D-01 -0.172864D-01 -0.908198D-01 -0.102298D+00 -0.132751D-02
     27 -0.138866D-01 -0.663331D-01 -0.946149D-01 -0.245528D+00  0.604796D-03
     28  0.200099D-02 -0.118465D+00  0.130056D+00  0.533843D-01 -0.586906D-04
     29 -0.916726D-02  0.118570D+00 -0.186589D+00 -0.679160D-01  0.237353D-02
     30  0.725576D-02  0.462475D-01 -0.748456D-01 -0.816649D-01 -0.242371D-02
               11            12            13            14            15 
     11  0.303514D+00
     12  0.626622D-01  0.672094D-01
     13 -0.123686D-03  0.109644D-03  0.170480D+00
     14  0.130247D-02  0.462931D-03 -0.999059D-01  0.129521D+00
     15  0.591364D-04  0.123263D-02 -0.969517D-01  0.889632D-01  0.104055D+00
     16 -0.306584D-03 -0.444518D-03  0.952083D-02  0.104669D-01  0.158545D-01
     17 -0.282846D-03  0.102314D-03 -0.842602D-02 -0.623707D-02 -0.116910D-01
     18  0.124645D-02  0.373087D-03 -0.596662D-02 -0.432175D-02 -0.616908D-02
     19  0.128371D-03 -0.240139D-02 -0.302950D-02 -0.343772D-02  0.203799D-02
     20 -0.324952D-02 -0.290969D-01 -0.443505D-03 -0.416044D-03  0.734791D-03
     21 -0.167114D-02 -0.637876D-02 -0.721509D-03  0.478265D-03  0.379161D-03
     22 -0.652086D-03  0.103151D-02 -0.322796D-02  0.829479D-02 -0.110846D-01
     23 -0.118152D-02  0.162363D-02  0.152517D-02 -0.608716D-02  0.607645D-02
     24  0.106706D-02 -0.175174D-02  0.108177D-02 -0.485026D-02  0.423920D-02
     25  0.272677D-03 -0.436704D-03 -0.100453D-02  0.109648D-02 -0.112609D-02
     26  0.175125D-02 -0.667637D-03 -0.765020D-05  0.861392D-03 -0.555030D-03
     27 -0.106440D-03  0.178244D-02 -0.317954D-03 -0.247847D-03  0.235057D-03
     28 -0.754803D-03  0.172928D-03  0.331335D-03  0.115498D-04  0.263250D-05
     29 -0.122912D-02  0.241822D-02  0.312617D-03  0.273642D-03 -0.603696D-03
     30  0.207961D-02 -0.177877D-02  0.637447D-05 -0.101865D-03  0.222267D-03
               16            17            18            19            20 
     16  0.854711D-01
     17  0.662844D-01  0.133818D+00
     18  0.692978D-01  0.129492D+00  0.184810D+00
     19  0.182750D-02  0.104813D-02 -0.139716D-02  0.833783D-01
     20 -0.712157D-04  0.142567D-02  0.835753D-04 -0.126804D-01  0.568863D-01
     21  0.225785D-03  0.352800D-03  0.100431D-02 -0.875973D-01  0.342959D-01
     22 -0.302078D-02  0.756862D-02 -0.543329D-02 -0.250439D-03 -0.102309D-02
     23 -0.167287D-02  0.611982D-02 -0.622213D-02 -0.798542D-03 -0.236553D-02
     24 -0.243124D-02  0.857247D-02 -0.817512D-02  0.594099D-03  0.148939D-02
     25  0.354069D-03  0.175802D-03  0.489228D-04 -0.134293D-03 -0.343179D-03
     26  0.551336D-04  0.288924D-03 -0.900070D-04  0.232710D-02 -0.149760D-02
     27 -0.125447D-03 -0.635399D-03  0.184049D-03 -0.245844D-02  0.173839D-02
     28 -0.968979D-03  0.951969D-03 -0.136245D-02  0.606366D-03  0.296430D-03
     29  0.681186D-04  0.583733D-03 -0.519815D-03 -0.887177D-03  0.172774D-02
     30 -0.287365D-03 -0.346771D-03  0.477146D-03  0.110799D-02 -0.278803D-03
               21            22            23            24            25 
     21  0.282288D+00
     22  0.498849D-03 -0.106505D+00
     23  0.930855D-03  0.460325D-01  0.812133D-01
     24 -0.720681D-03 -0.815845D-01 -0.178106D-01  0.478397D-01
     25  0.438174D-03 -0.677475D-02 -0.367710D-02 -0.125701D-01  0.521258D-01
     26  0.279992D-02 -0.261169D-02 -0.324250D-02 -0.716255D-02  0.224322D-01
     27 -0.143369D-02  0.290089D-02  0.135860D-02  0.494959D-02  0.735984D-01
     28 -0.488723D-03 -0.983521D-02  0.101058D-01  0.248765D-02  0.829950D-02
     29 -0.388370D-03 -0.696533D-02  0.678600D-02  0.141477D-02  0.802031D-02
     30  0.192242D-02  0.218047D-02 -0.324022D-02 -0.202127D-02  0.160476D-01
               26            27            28            29            30 
     26  0.913294D-01
     27  0.101106D+00  0.260583D+00
     28 -0.820213D-02 -0.464530D-02  0.122739D+00
     29 -0.582366D-02 -0.166540D-02 -0.129830D+00  0.199431D+00
     30 -0.156674D-01 -0.536065D-02 -0.509864D-01  0.735108D-01  0.818872D-01
 FormGI is forming the generalized inverse of G from B-inverse, IUseBI=4.
 Leave Link  716 at Sat Jun 26 11:16:52 2021, MaxMem=  3355443200 cpu:         0.1
 (Enter /Local/ce_dana/g09/l103.exe)

 GradGradGradGradGradGradGradGradGradGradGradGradGradGradGradGradGradGrad
 Berny optimization.
 Red2BG is reusing G-inverse.
 Internal  Forces:  Max     0.005913129 RMS     0.002018519
 Search for a saddle point.
 Step number   1 out of a maximum of  100
 All quantities printed in internal units (Hartrees-Bohrs-Radians)
 Swapping is turned off.
 Second derivative matrix not updated -- analytic derivatives used.
 ITU=  0
     Eigenvalues ---   -0.11466   0.00091   0.00718   0.02448   0.02448
     Eigenvalues ---    0.02580   0.03194   0.04200   0.04918   0.05727
     Eigenvalues ---    0.06994   0.07022   0.07376   0.08619   0.09228
     Eigenvalues ---    0.16610   0.23374   0.26380   0.31692   0.32559
     Eigenvalues ---    0.32819   0.32908   0.32932   0.33060
 Eigenvectors required to have negative eigenvalues:
                          R8        R4        A3        A13       R5
   1                    0.66655  -0.66652   0.17081  -0.17080  -0.07766
                          R1        D5        D3        D18       D20
   1                    0.07764   0.05370  -0.05369   0.05368  -0.05367
 RFO step:  Lambda0=7.168624722D-11 Lambda=-7.70389415D-04.
 Linear search not attempted -- option 19 set.
 Maximum step size (   0.050) exceeded in Quadratic search.
    -- Step size scaled by   0.842
 Iteration  1 RMS(Cart)=  0.00471415 RMS(Int)=  0.00002961
 Iteration  2 RMS(Cart)=  0.00002236 RMS(Int)=  0.00001318
 Iteration  3 RMS(Cart)=  0.00000000 RMS(Int)=  0.00001318
 ITry= 1 IFail=0 DXMaxC= 1.08D-02 DCOld= 1.00D+10 DXMaxT= 5.00D-02 DXLimC= 3.00D+00 Rises=F
 Variable       Old X    -DE/DX   Delta X   Delta X   Delta X     New X
                                 (Linear)    (Quad)   (Total)
    R1        2.88469   0.00270   0.00000   0.00810   0.00809   2.89278
    R2        2.07247  -0.00591   0.00000  -0.01553  -0.01553   2.05694
    R3        2.07241  -0.00589   0.00000  -0.01547  -0.01547   2.05693
    R4        2.63218   0.00236   0.00000   0.01876   0.01877   2.65095
    R5        2.88488   0.00265   0.00000   0.00794   0.00793   2.89281
    R6        2.07719  -0.00504   0.00000  -0.01335  -0.01335   2.06384
    R7        2.07710  -0.00501   0.00000  -0.01327  -0.01327   2.06383
    R8        2.63225   0.00236   0.00000   0.01870   0.01872   2.65096
    R9        2.07248  -0.00591   0.00000  -0.01554  -0.01554   2.05694
   R10        2.07246  -0.00590   0.00000  -0.01552  -0.01552   2.05694
    A1        2.05644   0.00015   0.00000   0.00132   0.00130   2.05774
    A2        2.05646   0.00015   0.00000   0.00130   0.00128   2.05774
    A3        1.42665   0.00011   0.00000   0.00162   0.00162   1.42827
    A4        2.00639  -0.00012   0.00000   0.00484   0.00480   2.01119
    A5        1.90817  -0.00016   0.00000  -0.00699  -0.00700   1.90117
    A6        1.90815  -0.00016   0.00000  -0.00699  -0.00699   1.90116
    A7        1.60927  -0.00014   0.00000   0.00351   0.00349   1.61276
    A8        1.99047   0.00004   0.00000  -0.00188  -0.00187   1.98860
    A9        1.99061   0.00004   0.00000  -0.00199  -0.00198   1.98863
   A10        1.99046   0.00004   0.00000  -0.00188  -0.00187   1.98860
   A11        1.99074   0.00003   0.00000  -0.00210  -0.00209   1.98865
   A12        1.88495  -0.00001   0.00000   0.00374   0.00374   1.88869
   A13        1.42656   0.00012   0.00000   0.00169   0.00169   1.42825
   A14        2.05643   0.00014   0.00000   0.00132   0.00131   2.05774
   A15        2.05639   0.00015   0.00000   0.00136   0.00134   2.05773
   A16        1.90833  -0.00017   0.00000  -0.00712  -0.00712   1.90120
   A17        1.90823  -0.00017   0.00000  -0.00705  -0.00706   1.90117
   A18        2.00637  -0.00012   0.00000   0.00486   0.00482   2.01119
   A19        1.82070  -0.00009   0.00000  -0.00682  -0.00680   1.81391
    D1       -1.87713   0.00012   0.00000   0.00702   0.00703  -1.87010
    D2        0.17581   0.00011   0.00000   0.00622   0.00622   0.18204
    D3        2.35276   0.00015   0.00000   0.00811   0.00812   2.36088
    D4        1.87717  -0.00013   0.00000  -0.00710  -0.00711   1.87006
    D5       -2.35307  -0.00015   0.00000  -0.00791  -0.00792  -2.36099
    D6       -0.17613  -0.00010   0.00000  -0.00602  -0.00602  -0.18214
    D7        0.00004  -0.00000   0.00000  -0.00004  -0.00005  -0.00001
    D8        2.05298  -0.00002   0.00000  -0.00085  -0.00085   2.05213
    D9       -2.05326   0.00003   0.00000   0.00104   0.00105  -2.05221
   D10       -0.00004   0.00000   0.00000   0.00005   0.00005   0.00001
   D11        2.03632   0.00019   0.00000   0.00187   0.00185   2.03817
   D12       -2.03643  -0.00019   0.00000  -0.00174  -0.00172  -2.03815
   D13       -0.00004   0.00000   0.00000   0.00004   0.00005   0.00001
   D14        1.87726  -0.00012   0.00000  -0.00713  -0.00714   1.87012
   D15       -1.87722   0.00013   0.00000   0.00714   0.00715  -1.87007
   D16       -2.05298   0.00002   0.00000   0.00085   0.00086  -2.05213
   D17       -0.17569  -0.00011   0.00000  -0.00632  -0.00633  -0.18201
   D18        2.35302   0.00014   0.00000   0.00795   0.00796   2.36098
   D19        2.05315  -0.00002   0.00000  -0.00095  -0.00095   2.05220
   D20       -2.35274  -0.00015   0.00000  -0.00813  -0.00814  -2.36087
   D21        0.17597   0.00011   0.00000   0.00615   0.00615   0.18212
   D22        0.00004  -0.00000   0.00000  -0.00005  -0.00005  -0.00001
   D23       -2.03629  -0.00019   0.00000  -0.00189  -0.00187  -2.03816
   D24        2.03632   0.00019   0.00000   0.00183   0.00181   2.03813
         Item               Value     Threshold  Converged?
 Maximum Force            0.005913     0.000015     NO 
 RMS     Force            0.002019     0.000010     NO 
 Maximum Displacement     0.010756     0.000060     NO 
 RMS     Displacement     0.004727     0.000040     NO 
 Predicted change in Energy=-3.767296D-04
 Lowest energy point so far.  Saving SCF results.
 GradGradGradGradGradGradGradGradGradGradGradGradGradGradGradGradGradGrad

 Leave Link  103 at Sat Jun 26 11:16:52 2021, MaxMem=  3355443200 cpu:         0.1
 (Enter /Local/ce_dana/g09/l202.exe)
                          Input orientation:                          
 ---------------------------------------------------------------------
 Center     Atomic      Atomic             Coordinates (Angstroms)
 Number     Number       Type             X           Y           Z
 ---------------------------------------------------------------------
      1          6           0        0.570470   -0.698061   -0.173984
      2          6           0       -0.824829   -1.287523    0.047367
      3          6           0       -1.454304   -0.353595   -0.989415
      4          1           0       -0.903400   -2.347156   -0.205153
      5          1           0        1.299380   -1.302370   -0.710924
      6          1           0        0.981812   -0.057034    0.603626
      7          1           0       -1.209059   -1.148566    1.060188
      8          1           0       -0.129517    0.095564   -1.094902
      9          1           0       -1.758852   -0.782101   -1.942535
     10          1           0       -2.076363    0.463225   -0.627961
 ---------------------------------------------------------------------
                    Distance matrix (angstroms):
                    1          2          3          4          5
     1  C    0.000000
     2  C    1.530791   0.000000
     3  C    2.209818   1.530809   0.000000
     4  H    2.211963   1.092136   2.211978   0.000000
     5  H    1.088486   2.255546   2.925834   2.489904   0.000000
     6  H    1.088483   2.255544   2.925814   3.074541   1.838409
     7  H    2.211982   1.092131   2.212012   1.769501   3.074534
     8  H    1.402823   1.923841   1.402830   2.712458   2.035535
     9  H    2.925846   2.255562   1.088487   2.489918   3.337713
    10  H    2.925817   2.255554   1.088486   3.074549   3.810492
                    6          7          8          9         10
     6  H    0.000000
     7  H    2.489942   0.000000
     8  H    2.035519   2.712506   0.000000
     9  H    3.810498   3.074559   2.035561   0.000000
    10  H    3.337651   2.489967   2.035538   1.838411   0.000000
 Stoichiometry    C3H7(2)
 Framework group  C1[X(C3H7)]
 Deg. of freedom    24
 Full point group                 C1      NOp   1
 RotChk:  IX=0 Diff= 9.12D-05
 Largest Abelian subgroup         C1      NOp   1
 Largest concise Abelian subgroup C1      NOp   1
                         Standard orientation:                         
 ---------------------------------------------------------------------
 Center     Atomic      Atomic             Coordinates (Angstroms)
 Number     Number       Type             X           Y           Z
 ---------------------------------------------------------------------
      1          6           0        1.104904   -0.332043    0.000003
      2          6           0        0.000011    0.727453   -0.000009
      3          6           0       -1.104914   -0.332037    0.000002
      4          1           0        0.000014    1.367723    0.884760
      5          1           0        1.668842   -0.479829    0.919206
      6          1           0        1.668819   -0.479873   -0.919204
      7          1           0        0.000031    1.367765   -0.884741
      8          1           0       -0.000004   -1.196388    0.000021
      9          1           0       -1.668871   -0.479796    0.919199
     10          1           0       -1.668832   -0.479840   -0.919211
 ---------------------------------------------------------------------
 Rotational constants (GHZ):     25.1202109     11.1045286      9.0795134
 Leave Link  202 at Sat Jun 26 11:16:52 2021, MaxMem=  3355443200 cpu:         0.0
 (Enter /Local/ce_dana/g09/l301.exe)
 Standard basis: 6-311G(2d,d,p) (5D, 7F)
 Ernie: Thresh=  0.10000D-02 Tol=  0.10000D-05 Strict=F.
 There are    99 symmetry adapted cartesian basis functions of A   symmetry.
 There are    96 symmetry adapted basis functions of A   symmetry.
    96 basis functions,   152 primitive gaussians,    99 cartesian basis functions
    13 alpha electrons       12 beta electrons
       nuclear repulsion energy        77.3206980372 Hartrees.
 IExCor=  402 DFT=T Ex+Corr=B3LYP ExCW=0 ScaHFX=  0.200000
 ScaDFX=  0.800000  0.720000  1.000000  0.810000 ScalE2=  1.000000  1.000000
 IRadAn=      5 IRanWt=     -1 IRanGd=            0 ICorTp=0 IEmpDi=  4
 NAtoms=   10 NActive=   10 NUniq=   10 SFac= 1.00D+00 NAtFMM=   60 NAOKFM=F Big=F
 Integral buffers will be    131072 words long.
 Raffenetti 2 integral format.
 Two-electron integral symmetry is turned on.
 Leave Link  301 at Sat Jun 26 11:16:53 2021, MaxMem=  3355443200 cpu:         0.1
 (Enter /Local/ce_dana/g09/l302.exe)
 NPDir=0 NMtPBC=     1 NCelOv=     1 NCel=       1 NClECP=     1 NCelD=      1
         NCelK=      1 NCelE2=     1 NClLst=     1 CellRange=     0.0.
 One-electron integrals computed using PRISM.
 NBasis=    96 RedAO= T EigKep=  2.27D-03  NBF=    96
 NBsUse=    96 1.00D-06 EigRej= -1.00D+00 NBFU=    96
 Precomputing XC quadrature grid using
 IXCGrd= 4 IRadAn=           5 IRanWt=          -1 IRanGd=           0 AccXCQ= 0.00D+00.
 Generated NRdTot=       0 NPtTot=           0 NUsed=           0 NTot=          32
 NSgBfM=    99    99    99    99    99 MxSgAt=    10 MxSgA2=    10.
 Leave Link  302 at Sat Jun 26 11:16:53 2021, MaxMem=  3355443200 cpu:         1.4
 (Enter /Local/ce_dana/g09/l303.exe)
 DipDrv:  MaxL=1.
 Leave Link  303 at Sat Jun 26 11:16:53 2021, MaxMem=  3355443200 cpu:         0.1
 (Enter /Local/ce_dana/g09/l401.exe)
 Initial guess from the checkpoint file:  "check.chk"
 B after Tr=    -0.000000    0.000000    0.000000
         Rot=    1.000000    0.000013   -0.000005   -0.000020 Ang=   0.00 deg.
 Guess basis will be translated and rotated to current coordinates.
 JPrj=2 DoOrth=T DoCkMO=T.
 Initial guess <Sx>= 0.0000 <Sy>= 0.0000 <Sz>= 0.5000 <S**2>= 0.7589 S= 0.5045
 Leave Link  401 at Sat Jun 26 11:16:53 2021, MaxMem=  3355443200 cpu:         0.2
 (Enter /Local/ce_dana/g09/l502.exe)
 UHF open shell SCF:
 Using DIIS extrapolation, IDIIS=  1040.
 Integral symmetry usage will be decided dynamically.
 Keep R1 and R2 ints in memory in canonical form, NReq=22641738.
 IVT=       37088 IEndB=       37088 NGot=  3355443200 MDV=  3333723121
 LenX=  3333723121 LenY=  3333712879
 Requested convergence on RMS density matrix=1.00D-08 within  64 cycles.
 Requested convergence on MAX density matrix=1.00D-06.
 Requested convergence on             energy=1.00D-06.
 No special actions if energy rises.
 FoFCou: FMM=F IPFlag=           0 FMFlag=           0 FMFlg1=           0
         NFxFlg=           0 DoJE=F BraDBF=F KetDBF=F FulRan=T
         wScrn=  0.000000 ICntrl=     600 IOpCl=  0 I1Cent=           0 NGrid=           0
         NMat0=    1 NMatS0=   4656 NMatT0=    0 NMatD0=    1 NMtDS0=    0 NMtDT0=    0
 Symmetry not used in FoFCou.

 Cycle   1  Pass 1  IDiag  1:
 E= -118.440541123533    
 DIIS: error= 1.05D-03 at cycle   1 NSaved=   1.
 NSaved= 1 IEnMin= 1 EnMin= -118.440541123533     IErMin= 1 ErrMin= 1.05D-03
 ErrMax= 1.05D-03  0.00D+00 EMaxC= 1.00D-01 BMatC= 3.34D-04 BMatP= 3.34D-04
 IDIUse=3 WtCom= 9.89D-01 WtEn= 1.05D-02
 Coeff-Com:  0.100D+01
 Coeff-En:   0.100D+01
 Coeff:      0.100D+01
 Gap=     0.566 Goal=   None    Shift=    0.000
 Gap=     0.731 Goal=   None    Shift=    0.000
 GapD=    0.566 DampG=2.000 DampE=1.000 DampFc=2.0000 IDamp=-1.
 RMSDP=1.17D-04 MaxDP=3.12D-03              OVMax= 3.96D-03

 Cycle   2  Pass 1  IDiag  1:
 E= -118.440629747974     Delta-E=       -0.000088624441 Rises=F Damp=F
 DIIS: error= 2.70D-04 at cycle   2 NSaved=   2.
 NSaved= 2 IEnMin= 2 EnMin= -118.440629747974     IErMin= 2 ErrMin= 2.70D-04
 ErrMax= 2.70D-04  0.00D+00 EMaxC= 1.00D-01 BMatC= 2.58D-05 BMatP= 3.34D-04
 IDIUse=3 WtCom= 9.97D-01 WtEn= 2.70D-03
 Coeff-Com:  0.114D+00 0.886D+00
 Coeff-En:   0.000D+00 0.100D+01
 Coeff:      0.114D+00 0.886D+00
 Gap=     0.223 Goal=   None    Shift=    0.000
 Gap=     0.262 Goal=   None    Shift=    0.000
 RMSDP=4.14D-05 MaxDP=9.43D-04 DE=-8.86D-05 OVMax= 1.67D-03

 Cycle   3  Pass 1  IDiag  1:
 E= -118.440633448505     Delta-E=       -0.000003700531 Rises=F Damp=F
 DIIS: error= 2.51D-04 at cycle   3 NSaved=   3.
 NSaved= 3 IEnMin= 3 EnMin= -118.440633448505     IErMin= 3 ErrMin= 2.51D-04
 ErrMax= 2.51D-04  0.00D+00 EMaxC= 1.00D-01 BMatC= 1.33D-05 BMatP= 2.58D-05
 IDIUse=3 WtCom= 9.97D-01 WtEn= 2.51D-03
 Coeff-Com:  0.278D-02 0.412D+00 0.586D+00
 Coeff-En:   0.000D+00 0.297D+00 0.703D+00
 Coeff:      0.278D-02 0.411D+00 0.586D+00
 Gap=     0.223 Goal=   None    Shift=    0.000
 Gap=     0.262 Goal=   None    Shift=    0.000
 RMSDP=2.32D-05 MaxDP=6.74D-04 DE=-3.70D-06 OVMax= 6.36D-04

 Cycle   4  Pass 1  IDiag  1:
 E= -118.440636886806     Delta-E=       -0.000003438301 Rises=F Damp=F
 DIIS: error= 6.59D-05 at cycle   4 NSaved=   4.
 NSaved= 4 IEnMin= 4 EnMin= -118.440636886806     IErMin= 4 ErrMin= 6.59D-05
 ErrMax= 6.59D-05  0.00D+00 EMaxC= 1.00D-01 BMatC= 6.57D-07 BMatP= 1.33D-05
 IDIUse=1 WtCom= 1.00D+00 WtEn= 0.00D+00
 Coeff-Com: -0.665D-02 0.116D+00 0.242D+00 0.649D+00
 Coeff:     -0.665D-02 0.116D+00 0.242D+00 0.649D+00
 Gap=     0.223 Goal=   None    Shift=    0.000
 Gap=     0.262 Goal=   None    Shift=    0.000
 RMSDP=4.35D-06 MaxDP=7.43D-05 DE=-3.44D-06 OVMax= 1.23D-04

 Cycle   5  Pass 1  IDiag  1:
 E= -118.440637049484     Delta-E=       -0.000000162678 Rises=F Damp=F
 DIIS: error= 1.21D-05 at cycle   5 NSaved=   5.
 NSaved= 5 IEnMin= 5 EnMin= -118.440637049484     IErMin= 5 ErrMin= 1.21D-05
 ErrMax= 1.21D-05  0.00D+00 EMaxC= 1.00D-01 BMatC= 2.73D-08 BMatP= 6.57D-07
 IDIUse=1 WtCom= 1.00D+00 WtEn= 0.00D+00
 Coeff-Com: -0.188D-02 0.530D-02 0.285D-01 0.190D+00 0.778D+00
 Coeff:     -0.188D-02 0.530D-02 0.285D-01 0.190D+00 0.778D+00
 Gap=     0.223 Goal=   None    Shift=    0.000
 Gap=     0.262 Goal=   None    Shift=    0.000
 RMSDP=1.16D-06 MaxDP=2.30D-05 DE=-1.63D-07 OVMax= 5.52D-05

 Cycle   6  Pass 1  IDiag  1:
 E= -118.440637058378     Delta-E=       -0.000000008894 Rises=F Damp=F
 DIIS: error= 4.42D-06 at cycle   6 NSaved=   6.
 NSaved= 6 IEnMin= 6 EnMin= -118.440637058378     IErMin= 6 ErrMin= 4.42D-06
 ErrMax= 4.42D-06  0.00D+00 EMaxC= 1.00D-01 BMatC= 3.12D-09 BMatP= 2.73D-08
 IDIUse=1 WtCom= 1.00D+00 WtEn= 0.00D+00
 Coeff-Com:  0.933D-04-0.102D-01-0.159D-01-0.155D-01 0.228D+00 0.814D+00
 Coeff:      0.933D-04-0.102D-01-0.159D-01-0.155D-01 0.228D+00 0.814D+00
 Gap=     0.223 Goal=   None    Shift=    0.000
 Gap=     0.262 Goal=   None    Shift=    0.000
 RMSDP=5.25D-07 MaxDP=1.50D-05 DE=-8.89D-09 OVMax= 1.89D-05

 Cycle   7  Pass 1  IDiag  1:
 E= -118.440637059465     Delta-E=       -0.000000001086 Rises=F Damp=F
 DIIS: error= 2.27D-06 at cycle   7 NSaved=   7.
 NSaved= 7 IEnMin= 7 EnMin= -118.440637059465     IErMin= 7 ErrMin= 2.27D-06
 ErrMax= 2.27D-06  0.00D+00 EMaxC= 1.00D-01 BMatC= 7.06D-10 BMatP= 3.12D-09
 IDIUse=1 WtCom= 1.00D+00 WtEn= 0.00D+00
 Coeff-Com:  0.303D-03-0.469D-02-0.979D-02-0.347D-01-0.112D-01 0.331D+00
 Coeff-Com:  0.729D+00
 Coeff:      0.303D-03-0.469D-02-0.979D-02-0.347D-01-0.112D-01 0.331D+00
 Coeff:      0.729D+00
 Gap=     0.223 Goal=   None    Shift=    0.000
 Gap=     0.262 Goal=   None    Shift=    0.000
 RMSDP=1.80D-07 MaxDP=3.42D-06 DE=-1.09D-09 OVMax= 6.69D-06

 Cycle   8  Pass 1  IDiag  1:
 E= -118.440637059696     Delta-E=       -0.000000000231 Rises=F Damp=F
 DIIS: error= 7.85D-07 at cycle   8 NSaved=   8.
 NSaved= 8 IEnMin= 8 EnMin= -118.440637059696     IErMin= 8 ErrMin= 7.85D-07
 ErrMax= 7.85D-07  0.00D+00 EMaxC= 1.00D-01 BMatC= 7.66D-11 BMatP= 7.06D-10
 IDIUse=1 WtCom= 1.00D+00 WtEn= 0.00D+00
 Coeff-Com:  0.917D-04 0.359D-03-0.176D-03-0.874D-02-0.432D-01-0.539D-01
 Coeff-Com:  0.232D+00 0.873D+00
 Coeff:      0.917D-04 0.359D-03-0.176D-03-0.874D-02-0.432D-01-0.539D-01
 Coeff:      0.232D+00 0.873D+00
 Gap=     0.223 Goal=   None    Shift=    0.000
 Gap=     0.262 Goal=   None    Shift=    0.000
 RMSDP=7.53D-08 MaxDP=1.60D-06 DE=-2.31D-10 OVMax= 3.31D-06

 Cycle   9  Pass 1  IDiag  1:
 E= -118.440637059728     Delta-E=       -0.000000000032 Rises=F Damp=F
 DIIS: error= 1.17D-07 at cycle   9 NSaved=   9.
 NSaved= 9 IEnMin= 9 EnMin= -118.440637059728     IErMin= 9 ErrMin= 1.17D-07
 ErrMax= 1.17D-07  0.00D+00 EMaxC= 1.00D-01 BMatC= 4.94D-12 BMatP= 7.66D-11
 IDIUse=1 WtCom= 1.00D+00 WtEn= 0.00D+00
 Coeff-Com: -0.656D-05 0.355D-03 0.523D-03 0.945D-03-0.631D-02-0.287D-01
 Coeff-Com: -0.671D-02 0.140D+00 0.900D+00
 Coeff:     -0.656D-05 0.355D-03 0.523D-03 0.945D-03-0.631D-02-0.287D-01
 Coeff:     -0.671D-02 0.140D+00 0.900D+00
 Gap=     0.223 Goal=   None    Shift=    0.000
 Gap=     0.262 Goal=   None    Shift=    0.000
 RMSDP=2.07D-08 MaxDP=5.61D-07 DE=-3.22D-11 OVMax= 9.38D-07

 Cycle  10  Pass 1  IDiag  1:
 E= -118.440637059730     Delta-E=       -0.000000000002 Rises=F Damp=F
 DIIS: error= 1.40D-07 at cycle  10 NSaved=  10.
 NSaved=10 IEnMin=10 EnMin= -118.440637059730     IErMin= 9 ErrMin= 1.17D-07
 ErrMax= 1.40D-07  0.00D+00 EMaxC= 1.00D-01 BMatC= 4.57D-12 BMatP= 4.94D-12
 IDIUse=1 WtCom= 1.00D+00 WtEn= 0.00D+00
 Coeff-Com: -0.277D-04 0.150D-03 0.392D-03 0.286D-02 0.645D-02-0.548D-02
 Coeff-Com: -0.621D-01-0.127D+00 0.605D+00 0.579D+00
 Coeff:     -0.277D-04 0.150D-03 0.392D-03 0.286D-02 0.645D-02-0.548D-02
 Coeff:     -0.621D-01-0.127D+00 0.605D+00 0.579D+00
 Gap=     0.223 Goal=   None    Shift=    0.000
 Gap=     0.262 Goal=   None    Shift=    0.000
[...]
 Alpha virt. eigenvalues --    0.09468   0.10112   0.13501   0.14319   0.16062
 Alpha virt. eigenvalues --    0.16719   0.18095   0.18782   0.19201   0.20181
 Alpha virt. eigenvalues --    0.21275   0.21295   0.22143   0.23156   0.26887
 Alpha virt. eigenvalues --    0.28411   0.34624   0.34890   0.34931   0.37432
 Alpha virt. eigenvalues --    0.39068   0.40356   0.46277   0.53466   0.53564
 Alpha virt. eigenvalues --    0.60245   0.60394   0.63695   0.65112   0.65204
 Alpha virt. eigenvalues --    0.72202   0.72274   0.72711   0.74793   0.76634
 Alpha virt. eigenvalues --    0.77097   0.77965   0.78551   0.79338   0.81933
 Alpha virt. eigenvalues --    0.84810   0.89406   0.93154   0.97039   0.97789
 Alpha virt. eigenvalues --    1.07634   1.08124   1.13015   1.15870   1.16545
 Alpha virt. eigenvalues --    1.16941   1.20648   1.28657   1.33039   1.37014
 Alpha virt. eigenvalues --    1.39445   1.40405   1.40688   1.42773   1.49313
 Alpha virt. eigenvalues --    1.50228   1.51498   1.53398   1.56819   1.58891
 Alpha virt. eigenvalues --    1.62653   1.63076   1.64352   1.64454   1.68514
 Alpha virt. eigenvalues --    1.70247   1.72056   1.73411   1.78655   1.81898
 Alpha virt. eigenvalues --    1.82078   1.83683   1.83736   2.65531   2.69494
 Alpha virt. eigenvalues --    2.89926   2.91818   2.94409   2.95839   2.97992
 Alpha virt. eigenvalues --    2.98454   3.07753   3.09474   3.20671   3.23296
 Alpha virt. eigenvalues --    3.25000   3.25590   3.27827   3.33957   3.40553
 Alpha virt. eigenvalues --    3.41690   3.41845   3.45132   3.46468   3.50029
 Alpha virt. eigenvalues --    3.53313   3.59573   3.62105   3.64631   3.66334
 Alpha virt. eigenvalues --    3.69525   3.71191   3.72003   3.75975   3.80310
 Alpha virt. eigenvalues --    3.81973   3.84514   3.89672   4.04363   4.08596
 Alpha virt. eigenvalues --    4.12806   4.18285   4.18888   4.19125   4.22903
 Alpha virt. eigenvalues --    4.27994   4.37538   4.41577   4.43851   4.44645
 Alpha virt. eigenvalues --    4.45666   4.47039   4.48564   4.53116   4.60586
 Alpha virt. eigenvalues --    4.64310   4.66886   4.67675   4.77782   4.77821
 Alpha virt. eigenvalues --    4.85423   4.86437   4.87319   4.94991   5.04621
 Alpha virt. eigenvalues --    5.16787   5.21426   5.28239   5.34213   5.37814
 Alpha virt. eigenvalues --    5.62080   5.90241   6.00575   6.01898   6.07991
 Alpha virt. eigenvalues --    6.10595  25.28386  25.34745  25.51592
  Beta  occ. eigenvalues --  -11.22545 -11.21220 -11.21217  -1.05056  -0.84632
  Beta  occ. eigenvalues --   -0.78885  -0.63259  -0.59442  -0.54828  -0.48675
  Beta  occ. eigenvalues --   -0.47839  -0.42508
  Beta virt. eigenvalues --    0.04708   0.05729   0.05880   0.06165   0.08532
  Beta virt. eigenvalues --    0.09472   0.10244   0.11023   0.13680   0.16267
  Beta virt. eigenvalues --    0.16626   0.17055   0.18725   0.19275   0.20549
  Beta virt. eigenvalues --    0.20588   0.21343   0.21446   0.22364   0.24308
  Beta virt. eigenvalues --    0.27341   0.30475   0.35125   0.35416   0.35528
  Beta virt. eigenvalues --    0.37516   0.39803   0.41401   0.47012   0.53602
  Beta virt. eigenvalues --    0.53844   0.60378   0.61388   0.63996   0.65229
  Beta virt. eigenvalues --    0.69831   0.72382   0.74092   0.74978   0.76194
  Beta virt. eigenvalues --    0.78328   0.78881   0.79230   0.79471   0.82422
  Beta virt. eigenvalues --    0.82653   0.85481   0.92062   0.95060   0.97447
  Beta virt. eigenvalues --    0.97775   1.07911   1.08068   1.14082   1.16336
  Beta virt. eigenvalues --    1.17468   1.17705   1.21087   1.28505   1.34924
  Beta virt. eigenvalues --    1.36919   1.40220   1.40787   1.41230   1.43912
  Beta virt. eigenvalues --    1.49772   1.52100   1.53055   1.53979   1.57058
  Beta virt. eigenvalues --    1.60100   1.62983   1.63995   1.65180   1.65190
  Beta virt. eigenvalues --    1.69163   1.70995   1.73656   1.74777   1.79454
  Beta virt. eigenvalues --    1.82605   1.82698   1.83803   1.83856   2.66032
  Beta virt. eigenvalues --    2.70756   2.90715   2.92046   2.95358   2.98064
  Beta virt. eigenvalues --    2.98257   2.98806   3.08076   3.10943   3.21674
  Beta virt. eigenvalues --    3.23819   3.26472   3.26643   3.29771   3.35910
  Beta virt. eigenvalues --    3.42288   3.42398   3.44047   3.45507   3.47237
  Beta virt. eigenvalues --    3.53233   3.54911   3.60067   3.63940   3.66283
  Beta virt. eigenvalues --    3.67931   3.72092   3.72168   3.73769   3.76740
  Beta virt. eigenvalues --    3.83116   3.84215   3.85972   3.91991   4.04607
  Beta virt. eigenvalues --    4.09153   4.13883   4.19159   4.19347   4.21423
  Beta virt. eigenvalues --    4.22909   4.28217   4.38364   4.41127   4.44130
  Beta virt. eigenvalues --    4.44886   4.46748   4.47828   4.48380   4.53536
  Beta virt. eigenvalues --    4.60965   4.64601   4.67716   4.68177   4.77723
  Beta virt. eigenvalues --    4.78358   4.85587   4.87052   4.87752   4.95343
  Beta virt. eigenvalues --    5.05331   5.16806   5.21666   5.28503   5.34442
  Beta virt. eigenvalues --    5.38600   5.62549   5.90661   6.01110   6.02316
  Beta virt. eigenvalues --    6.08236   6.10650  25.29491  25.36163  25.51726
          Condensed to atoms (all electrons):
               1          2          3          4          5          6
     1  C    5.280481   0.280681  -0.364650  -0.034806   0.408215   0.408215
     2  C    0.280681   4.745631   0.280681   0.439711  -0.038803  -0.038803
     3  C   -0.364650   0.280681   5.280481  -0.034806   0.032427   0.032427
     4  H   -0.034806   0.439711  -0.034806   0.623129  -0.006547   0.003258
     5  H    0.408215  -0.038803   0.032427  -0.006547   0.584136  -0.025840
     6  H    0.408215  -0.038803   0.032427   0.003258  -0.025840   0.584136
     7  H   -0.034806   0.439711  -0.034806  -0.037335   0.003258  -0.006547
     8  H    0.168260  -0.054990   0.168260   0.008748  -0.014374  -0.014374
     9  H    0.032427  -0.038803   0.408215  -0.006547  -0.002691  -0.001410
    10  H    0.032427  -0.038803   0.408215   0.003258  -0.001410  -0.002691
               7          8          9         10
     1  C   -0.034806   0.168260   0.032427   0.032427
     2  C    0.439711  -0.054990  -0.038803  -0.038803
     3  C   -0.034806   0.168260   0.408215   0.408215
     4  H   -0.037335   0.008748  -0.006547   0.003258
     5  H    0.003258  -0.014374  -0.002691  -0.001410
     6  H   -0.006547  -0.014374  -0.001410  -0.002691
     7  H    0.623129   0.008748   0.003258  -0.006547
     8  H    0.008748   0.759750  -0.014374  -0.014374
     9  H    0.003258  -0.014374   0.584136  -0.025840
    10  H   -0.006547  -0.014374  -0.025840   0.584136
          Atomic-Atomic Spin Densities.
               1          2          3          4          5          6
     1  C    1.167524  -0.023486  -0.426259   0.000512  -0.036204  -0.036204
     2  C   -0.023486  -0.088180  -0.023486   0.003954  -0.003403  -0.003403
     3  C   -0.426259  -0.023486   1.167524   0.000512   0.025750   0.025750
     4  H    0.000512   0.003954   0.000512   0.004271   0.000163   0.000118
     5  H   -0.036204  -0.003403   0.025750   0.000163  -0.022267   0.006195
     6  H   -0.036204  -0.003403   0.025750   0.000118   0.006195  -0.022267
     7  H    0.000512   0.003954   0.000512  -0.001156   0.000118   0.000163
     8  H    0.037319   0.039420   0.037319  -0.004338   0.005905   0.005905
     9  H    0.025750  -0.003403  -0.036204   0.000163  -0.000672  -0.001462
    10  H    0.025750  -0.003403  -0.036204   0.000118  -0.001462  -0.000672
               7          8          9         10
     1  C    0.000512   0.037319   0.025750   0.025750
     2  C    0.003954   0.039420  -0.003403  -0.003403
     3  C    0.000512   0.037319  -0.036204  -0.036204
     4  H   -0.001156  -0.004338   0.000163   0.000118
     5  H    0.000118   0.005905  -0.000672  -0.001462
     6  H    0.000163   0.005905  -0.001462  -0.000672
     7  H    0.004271  -0.004338   0.000118   0.000163
     8  H   -0.004338  -0.403122   0.005905   0.005905
     9  H    0.000118   0.005905  -0.022267   0.006195
    10  H    0.000163   0.005905   0.006195  -0.022267
 Mulliken charges and spin densities:
               1          2
     1  C   -0.176444   0.735215
     2  C    0.023786  -0.101436
     3  C   -0.176444   0.735214
     4  H    0.041935   0.004316
     5  H    0.061628  -0.025876
     6  H    0.061628  -0.025876
     7  H    0.041935   0.004316
     8  H   -0.001280  -0.274120
     9  H    0.061628  -0.025876
    10  H    0.061628  -0.025876
 Sum of Mulliken charges =  -0.00000   1.00000
 Mulliken charges and spin densities with hydrogens summed into heavy atoms:
               1          2
     1  C   -0.053188   0.683462
     2  C    0.107656  -0.092804
     3  C   -0.054468   0.409342
 Electronic spatial extent (au):  <R**2>=            195.8404
 Charge=             -0.0000 electrons
 Dipole moment (field-independent basis, Debye):
    X=              0.0000    Y=              0.4206    Z=              0.0000  Tot=              0.4206
 Quadrupole moment (field-independent basis, Debye-Ang):
   XX=            -21.7991   YY=            -22.9176   ZZ=            -20.0936
   XY=             -0.0000   XZ=              0.0000   YZ=             -0.0000
 Traceless Quadrupole moment (field-independent basis, Debye-Ang):
   XX=             -0.1956   YY=             -1.3142   ZZ=              1.5098
   XY=             -0.0000   XZ=              0.0000   YZ=             -0.0000
 Octapole moment (field-independent basis, Debye-Ang**2):
  XXX=              0.0000  YYY=              3.7556  ZZZ=              0.0000  XYY=              0.0000
  XXY=             -1.0867  XXZ=             -0.0000  XZZ=              0.0000  YZZ=              0.6156
  YYZ=              0.0000  XYZ=              0.0000
 Hexadecapole moment (field-independent basis, Debye-Ang**3):
 XXXX=           -160.5138 YYYY=            -83.1049 ZZZZ=            -42.2795 XXXY=             -0.0000
 XXXZ=              0.0000 YYYX=             -0.0000 YYYZ=             -0.0000 ZZZX=             -0.0000
 ZZZY=             -0.0000 XXYY=            -40.9993 XXZZ=            -28.9346 YYZZ=            -19.7423
 XXYZ=             -0.0000 YYXZ=              0.0000 ZZXY=             -0.0000
 N-N= 7.731077951349D+01 E-N=-4.277021468436D+02  KE= 1.174919989929D+02
 Leave Link  601 at Sat Jun 26 11:19:36 2021, MaxMem=  3355443200 cpu:         0.1
 (Enter /Local/ce_dana/g09/l9999.exe)

 Test job not archived.
 1\1\GINC-TECH-WN176\SP\UMP2-FC\CBSB3\C3H7(2)\ALONGD\26-Jun-2021\0\\#P 
 Geom=AllCheck Guess=TCheck SCRF=Check Test MP2/CBSB3 CBSExtrap=(NMin=1
 0,MinPop)\\TS0\\0,2\C,0,0.5711942958,-0.6987971634,-0.1731178841\C,0,-
 0.8251370582,-1.288140051,0.0478655089\C,0,-1.4555941933,-0.3539980187
 ,-0.9893435972\H,0,-0.9034859008,-2.3465909378,-0.2047074992\H,0,1.298
 9439906,-1.3016709724,-0.7105979939\H,0,0.9816662384,-0.0574417079,0.6
 028571548\H,0,-1.2088940984,-1.1489129723,1.0595948549\H,0,-0.12893534
 34,0.0967551885,-1.0958661747\H,0,-1.7585651594,-0.7815246798,-1.94191
 43263\H,0,-2.0758527684,0.4627063143,-0.6284630421\\Version=ES64L-G09R
 evD.01\State=2-A\HF=-117.5831703\MP2=-118.0924253\E2(CBS)=-0.5598836\C
 BS-Int=-0.5420353\OIii=4.6064448\PUHF=-117.5923259\PMP2-0=-118.099263\
 S2=0.809948\S2-1=0.779255\S2A=0.751129\RMSD=3.777e-09\PG=C01 [X(C3H7)]
 \\@


 COLLEGE PROFESSOR: SOMEONE WHO TALKS IN OTHER PEOPLE'S SLEEP.
 Diagonal vibrational polarizability:
        0.0000000       0.0000000       0.0000000
    1 imaginary frequencies ignored.

 Complete Basis Set (CBS) Extrapolation:
 M. R. Nyden and G. A. Petersson, JCP 75, 1843 (1981)
 G. A. Petersson and M. A. Al-Laham, JCP 94, 6081 (1991)
 G. A. Petersson, T. Tensfeldt, and J. A. Montgomery, JCP 94, 6091 (1991)
 J. A. Montgomery, J. W. Ochterski, and G. A. Petersson, JCP 101, 5900 (1994)

 Temperature=               298.150000 Pressure=                       1.000000
 E(ZPE)=                      0.082819 E(Thermal)=                     0.086990
 E(SCF)=                   -117.583170 DE(MP2)=                       -0.509255
 DE(CBS)=                    -0.050629 DE(MP34)=                      -0.045700
 DE(CCSD)=                   -0.016594 DE(Int)=                        0.017848
 DE(Empirical)=              -0.027243
 CBS-QB3 (0 K)=            -118.131924 CBS-QB3 Energy=              -118.127752
 CBS-QB3 Enthalpy=         -118.126808 CBS-QB3 Free Energy=         -118.157810

 Test job not archived.
 1\1\GINC-TECH-WN176\Mixed\CBS-QB3\CBS-QB3\C3H7(2)\ALONGD\26-Jun-2021\0
 \\#P opt=(ts, calcfc, noeigentest, maxcycles=100, tight, maxstep=5) gu
 ess=read cbs-qb3 scf=(tight, direct) integral=(grid=ultrafine, Acc2E=1
 2) IOp(2/9=2000) scf=xqc\\TS0\\0,2\C,0,0.5711942958,-0.6987971634,-0.1
 731178841\C,0,-0.8251370582,-1.288140051,0.0478655089\C,0,-1.455594193
 3,-0.3539980187,-0.9893435972\H,0,-0.9034859008,-2.3465909378,-0.20470
 74992\H,0,1.2989439906,-1.3016709724,-0.7105979939\H,0,0.9816662384,-0
 .0574417079,0.6028571548\H,0,-1.2088940984,-1.1489129723,1.0595948549\
 H,0,-0.1289353434,0.0967551885,-1.0958661747\H,0,-1.7585651594,-0.7815
 246798,-1.9419143263\H,0,-2.0758527684,0.4627063143,-0.6284630421\\Ver
 sion=ES64L-G09RevD.01\State=2-A\HF/CbsB3=-117.5831703\E2(CBS)/CbsB3=-0
 .5598836\CBS-Int/CbsB3=0.0178483\OIii/CbsB3=4.6064448\MP2/CbsB4=-117.9
 92378\MP4(SDQ)/CbsB4=-118.0380778\MP4(SDQ)/6-31+G(d')=-117.9783172\QCI
 SD(T)/6-31+G(d')=-117.9949111\CBSQB3=-118.1319236\FreqCoord=1.07940078
 76,-1.3205352613,-0.3271453896,-1.5592830621,-2.4342319171,0.090452703
 1,-2.7506743859,-0.6689593069,-1.86958845,-1.7073409174,-4.4344142183,
 -0.3868411109,2.4546484041,-2.4598016529,-1.342835599,1.8550803444,-0.
 1085490965,1.1392349198,-2.2844787697,-2.1711308682,2.0023440875,-0.24
 3652488,0.1828408081,-2.0708869484,-3.323206538,-1.4768676109,-3.66968
 62503,-3.9227932245,0.874388214,-1.1876230342\PG=C01 [X(C3H7)]\NImag=1
 \\0.49472150,0.03172848,0.33136417,-0.05606515,0.26440878,0.33837691,-
 0.16730396,-0.03541219,0.01324535,0.37785039,-0.05319347,-0.08318341,-
 0.01292700,0.02357273,0.57239777,0.03008956,-0.00863170,-0.06781999,-0
 .07770731,0.03856276,0.55179268,-0.09303931,0.07792399,-0.09989211,-0.
 07370029,0.04972456,-0.04479348,0.24396124,-0.00816530,0.04182366,-0.0
 2747393,0.03194330,-0.11485946,0.03764564,-0.19635125,0.41622363,-0.01
 834010,-0.00667787,0.01679897,-0.02794929,0.04194094,-0.12974747,0.099
 41771,0.12892602,0.50427742,-0.00287848,-0.02834834,-0.01039469,-0.045
 82417,-0.01652284,-0.00240381,-0.00112860,0.01602122,0.00594232,0.0500
 9923,-0.00057849,-0.00633629,-0.00204361,-0.01707481,-0.29495477,-0.06
 362017,0.00030751,-0.01408585,-0.00434618,0.01880979,0.31812027,0.0006
 8744,0.00271690,-0.00067309,-0.00263698,-0.06499078,-0.06488753,-0.000
 04691,0.02083016,0.00532659,0.00406226,0.06717413,0.06682460,-0.169021
 00,0.10258297,0.10157451,-0.01252448,0.01349916,0.01092437,0.00002670,
 -0.00202370,-0.00157928,0.00176847,-0.00012591,0.00009514,0.17708076,0
 .10256947,-0.13069857,-0.09994481,-0.01287386,0.00974333,0.00940254,-0
 .00135800,-0.00143589,0.00361308,0.00161949,0.00127382,0.00043245,-0.1
 0677675,0.13289891,0.09497504,-0.08656498,-0.10128390,0.00138637,-0.00
 463575,-0.00459927,0.00360240,0.00142145,-0.00236536,-0.00088131,0.000
 06347,0.00121124,-0.10472908,0.09554051,0.10835797,-0.08277142,-0.0680
 5588,-0.07170538,-0.00754866,-0.01322475,-0.01722182,-0.00018258,0.001
 16999,0.00200405,-0.00322040,-0.00030847,-0.00041522,0.00972602,0.0107
 8559,0.01607778,0.08586729,-0.06496818,-0.13092512,-0.12705781,-0.0011
 1413,-0.00809488,-0.00968143,-0.00329327,-0.00315331,0.00096882,-0.003
 09926,-0.00026775,0.00010872,-0.00858853,-0.00628274,-0.01159870,0.071
 11457,0.14042005,-0.06801805,-0.14118024,-0.18730693,0.00582686,0.0078
 0206,0.00826318,0.00041970,0.00407782,-0.00043874,0.00234813,0.0012349
 7,0.00036276,-0.00619878,-0.00444367,-0.00623871,0.07396360,0.13915097
 ,0.19205022,-0.01151457,0.00720708,0.02618551,-0.07662904,0.01268821,0
 .08642821,0.00447122,-0.00454451,-0.01676644,0.00095174,0.00007981,-0.
 00252071,-0.00306327,-0.00349817,0.00200811,0.00188208,0.00104500,-0.0
 0144653,0.08372898,-0.00407613,0.00075757,0.00918287,0.01324019,-0.054
 65194,-0.03738462,-0.00531746,0.00250528,0.01708519,0.01139815,-0.0031
 4194,-0.02959774,-0.00047978,-0.00044870,0.00072612,-0.00003160,0.0014
 0963,0.00004515,-0.01368251,0.05578177,-0.00051454,0.00043979,0.000869
 10,0.08666138,-0.03601399,-0.27438551,0.00484070,-0.00410864,-0.016864
 42,0.00226051,-0.00149291,-0.00632075,-0.00073155,0.00044910,0.0003865
 6,0.00025028,0.00035785,0.00096182,-0.09317013,0.03703648,0.29553346,0
 .03237312,-0.08260193,0.09277564,0.01060435,-0.01633423,0.01686424,0.0
 8907227,0.04948096,-0.01864940,-0.00044258,-0.00062608,0.00102304,-0.0
 0335816,0.00846584,-0.01132634,-0.00316702,0.00778565,-0.00563437,-0.0
 0028447,-0.00102593,0.00046151,-0.10735903,-0.00208974,-0.01835155,-0.
 00942223,-0.01633419,-0.02291862,0.02235588,-0.03103122,-0.03753901,0.
 00176273,-0.00087320,-0.00113933,0.00165491,0.00160054,-0.00617471,0.0
 0618893,-0.00157801,0.00601836,-0.00607639,-0.00077882,-0.00237265,0.0
 0089956,0.04475941,0.07894068,0.01650681,-0.02887107,0.00357180,0.0168
 6426,0.02235598,-0.01225749,0.05761943,0.02121158,-0.03393995,0.000918
 64,0.00104127,-0.00176532,0.00095220,-0.00468621,0.00406857,-0.0025393
 0,0.00871904,-0.00831551,0.00056590,0.00151316,-0.00069007,-0.08069394
 ,-0.01549995,0.04635479,-0.00057385,-0.00038293,0.00461742,-0.00247273
 ,-0.00216676,-0.00418529,-0.04843641,-0.02663596,-0.08070475,0.0007268
 0,0.00025858,-0.00041007,-0.00096791,0.00105484,-0.00110398,0.00034932
 ,0.00018456,0.00004756,-0.00014167,-0.00031637,0.00041813,-0.00719885,
 -0.00370869,-0.01261215,0.05038644,-0.00175325,-0.00163040,0.00235857,
 0.00643451,0.00883277,0.02043749,-0.01833787,-0.09163668,-0.10936554,-
 0.00137334,0.00174770,-0.00075824,0.00001005,0.00084162,-0.00054203,0.
 00006159,0.00029389,-0.00009302,0.00238254,-0.00156148,0.00282194,-0.0
 0276315,-0.00325005,-0.00716388,0.02369793,0.09217262,-0.00086192,0.00
 280055,-0.00157031,-0.00215463,-0.00965365,-0.01374044,-0.07060563,-0.
 10217373,-0.26093027,0.00061431,-0.00010749,0.00177903,-0.00030653,-0.
 00025693,0.00023997,-0.00011905,-0.00062645,0.00019550,-0.00245648,0.0
 0175161,-0.00142225,0.00296594,0.00135626,0.00498462,0.07762271,0.1083
 8326,0.27577847,0.00000797,-0.00464126,-0.00034109,-0.00245142,0.00195
 739,0.00200535,-0.12104423,0.13910526,0.05662518,-0.00005201,-0.000741
 92,0.00016203,0.00033286,0.00001154,-0.00000900,-0.00093462,0.00093359
 ,-0.00130813,0.00059901,0.00029143,-0.00047631,-0.01023961,0.01003393,
 0.00241816,0.00832887,-0.00835900,-0.00469871,0.12545318,0.00052662,-0
 .00282006,0.00291917,0.00761846,-0.01231079,-0.00908638,0.12773300,-0.
 19784237,-0.07390720,0.00236833,-0.00121586,0.00242949,0.00030193,0.00
 028291,-0.00059903,0.00006697,0.00058188,-0.00051764,-0.00089863,0.001
 72246,-0.00038918,-0.00714053,0.00678687,0.00138007,0.00801480,-0.0058
 0998,-0.00147342,-0.13859095,0.21062493,0.00154091,0.00155984,-0.00096
 255,-0.01353600,0.01755942,0.00738185,0.04943818,-0.08035637,-0.082116
 76,-0.00246637,0.00209653,-0.00185752,-0.00000100,-0.00010604,0.000222
 94,-0.00029493,-0.00034101,0.00046642,0.00117257,-0.00035823,0.0019320
 6,0.00221370,-0.00321971,-0.00201144,0.01631042,-0.01607856,-0.0053143
 2,-0.05437748,0.07924413,0.08225932\\-0.00000043,-0.00000079,0.0000006
 5,0.00000018,0.00000028,-0.00000025,-0.00000039,-0.00000081,0.00000068
 ,0.00000003,-0.00000023,-0.00000018,0.00000022,-0.00000012,-0.00000080
 ,-0.00000002,0.00000080,0.00000019,-0.00000006,0.00000019,0.00000022,0
 .00000001,0.00000002,0.,0.00000035,-0.00000015,-0.00000077,0.00000010,
 0.00000080,0.00000025\\\@
 Job cpu time:       0 days  0 hours  1 minutes 18.6 seconds.
 File lengths (MBytes):  RWF=    611 Int=      0 D2E=      0 Chk=      4 Scr=      1
 Normal termination of Gaussian 09 at Sat Jun 26 11:19:36 2021.
