 Entering Gaussian System, Link 0=/Local/ce_dana/g09/g09
 Initial command:
 /Local/ce_dana/g09/l1.exe "/storage/ce_dana/alongd/scratch/g09/Gau-10149.inp" -scrdir="/storage/ce_dana/alongd/scratch/g09/"
 Entering Link 1 = /Local/ce_dana/g09/l1.exe PID=     10150.
  
 Copyright (c) 1988,1990,1992,1993,1995,1998,2003,2009,2013,
            Gaussian, Inc.  All Rights Reserved.
  
 This is part of the Gaussian(R) 09 program.  It is based on
 the Gaussian(R) 03 system (copyright 2003, Gaussian, Inc.),
 the Gaussian(R) 98 system (copyright 1998, Gaussian, Inc.),
 the Gaussian(R) 94 system (copyright 1995, Gaussian, Inc.),
 the Gaussian 92(TM) system (copyright 1992, Gaussian, Inc.),
 the Gaussian 90(TM) system (copyright 1990, Gaussian, Inc.),
 the Gaussian 88(TM) system (copyright 1988, Gaussian, Inc.),
 the Gaussian 86(TM) system (copyright 1986, Carnegie Mellon
 University), and the Gaussian 82(TM) system (copyright 1983,
 Carnegie Mellon University). Gaussian is a federally registered
 trademark of Gaussian, Inc.
  
 This software contains proprietary and confidential information,
 including trade secrets, belonging to Gaussian, Inc.
  
 This software is provided under written license and may be
 used, copied, transmitted, or stored only in accord with that
 written license.
  
 The following legend is applicable only to US Government
 contracts under FAR:
  
                    RESTRICTED RIGHTS LEGEND
  
 Use, reproduction and disclosure by the US Government is
 subject to restrictions as set forth in subparagraphs (a)
 and (c) of the Commercial Computer Software - Restricted
 Rights clause in FAR 52.227-19.
  
 Gaussian, Inc.
 340 Quinnipiac St., Bldg. 40, Wallingford CT 06492
  
  
 ---------------------------------------------------------------
 Warning -- This program may not be used in any manner that
 competes with the business of Gaussian, Inc. or will provide
 assistance to any competitor of Gaussian, Inc.  The licensee
 of this program is prohibited from giving any competitor of
 Gaussian, Inc. access to this program.  By using this program,
 the user acknowledges that Gaussian, Inc. is engaged in the
 business of creating and licensing software in the field of
 computational chemistry and represents and warrants to the
 licensee that it is not a competitor of Gaussian, Inc. and that
 it will not use this program in any manner prohibited above.
 ---------------------------------------------------------------
  

 Cite this work as:
 Gaussian 09, Revision D.01,
 M. J. Frisch, G. W. Trucks, H. B. Schlegel, G. E. Scuseria, 
 M. A. Robb, J. R. Cheeseman, G. Scalmani, V. Barone, B. Mennucci, 
 G. A. Petersson, H. Nakatsuji, M. Caricato, X. Li, H. P. Hratchian, 
 A. F. Izmaylov, J. Bloino, G. Zheng, J. L. Sonnenberg, M. Hada, 
 M. Ehara, K. Toyota, R. Fukuda, J. Hasegawa, M. Ishida, T. Nakajima, 
 Y. Honda, O. Kitao, H. Nakai, T. Vreven, J. A. Montgomery, Jr., 
 J. E. Peralta, F. Ogliaro, M. Bearpark, J. J. Heyd, E. Brothers, 
 K. N. Kudin, V. N. Staroverov, T. Keith, R. Kobayashi, J. Normand, 
 K. Raghavachari, A. Rendell, J. C. Burant, S. S. Iyengar, J. Tomasi, 
 M. Cossi, N. Rega, J. M. Millam, M. Klene, J. E. Knox, J. B. Cross, 
 V. Bakken, C. Adamo, J. Jaramillo, R. Gomperts, R. E. Stratmann, 
 O. Yazyev, A. J. Austin, R. Cammi, C. Pomelli, J. W. Ochterski, 
 R. L. Martin, K. Morokuma, V. G. Zakrzewski, G. A. Voth, 
 P. Salvador, J. J. Dannenberg, S. Dapprich, A. D. Daniels, 
 O. Farkas, J. B. Foresman, J. V. Ortiz, J. Cioslowski, 
 and D. J. Fox, Gaussian, Inc., Wallingford CT, 2013.
 
 ******************************************
 Gaussian 09:  ES64L-G09RevD.01 24-Apr-2013
                26-Jun-2021 
 ******************************************
 %chk=check.chk
 %mem=25600mb
 %NProcShared=10
 Will use up to   10 processors via shared memory.
 ----------------------------------------------------------------------
 #P opt=(ts, calcfc, noeigentest, maxcycles=100, tight, maxstep=5) gues
 s=read cbs-qb3 scf=(tight, direct) integral=(grid=ultrafine, Acc2E=12)
  IOp(2/9=2000) scf=xqc
 ----------------------------------------------------------------------
 1/5=1,6=100,7=10,8=5,10=4,11=1,14=-1,18=20,26=4,38=1/1,3;
 2/9=2000,12=2,17=6,18=5,40=1/2;
 3/5=4,6=6,7=700,11=2,16=1,25=1,30=1,71=2,74=-5,75=-5,116=-2,140=1/1,2,3;
 4/5=1/1;
 5/5=2,8=3,13=1,32=2,38=6,87=12/2,8;
 8/6=4,10=90,11=11,87=12/1;
 11/6=1,8=1,9=11,15=111,16=1,87=12/1,2,10;
 10/6=1,13=1,87=12/2;
 6/7=2,8=2,9=2,10=2,28=1/1;
 7/10=1,18=20,25=1,87=12/1,2,3,16;
 1/5=1,6=100,7=10,8=5,10=4,11=1,14=-1,18=20,26=4/3(2);
 2/9=2000/2;
 99//99;
 2/9=2000/2;
 3/5=4,6=6,7=700,11=2,16=1,25=1,30=1,71=1,74=-5,75=-5/1,2,3;
 4/5=5,16=3,69=1/1;
 5/5=2,8=3,13=1,32=2,38=5,87=12/2,8;
 7/87=12/1,2,3,16;
 1/5=1,6=100,7=10,8=5,11=1,14=-1,18=20,26=4/3(-5);
 2/9=2000/2;
 6/7=2,8=2,9=2,10=2,19=2,28=1/1;
 99/9=1/99;
 Leave Link    1 at Sat Jun 26 11:26:57 2021, MaxMem=  3355443200 cpu:         0.1
 (Enter /Local/ce_dana/g09/l101.exe)
 ---
 TS0
 ---
 Symbolic Z-matrix:
 Charge =  0 Multiplicity = 2
 C                     0.76532   0.3504    0.28924 
 C                     0.0394    0.04127  -0.77045 
 C                    -1.447    -0.16336  -0.80498 
 H                     0.56669  -0.0808   -1.73037 
 H                     1.84092   0.51157   0.38932 
 H                     0.05036   0.512     1.57911 
 H                    -0.38843   0.59975   2.3247 
 H                    -1.68973  -1.17985  -1.15309 
 H                    -1.8989   -0.01774   0.1855 
 H                    -1.91857   0.53857  -1.51082 
 
 Add virtual bond connecting atoms H6         and C1         Dist= 2.80D+00.
 NAtoms=     10 NQM=       10 NQMF=       0 NMMI=      0 NMMIF=      0
                NMic=       0 NMicF=      0.
                    Isotopes and Nuclear Properties:
 (Nuclear quadrupole moments (NQMom) in fm**2, nuclear magnetic moments (NMagM)
  in nuclear magnetons)

  Atom         1           2           3           4           5           6           7           8           9          10
 IAtWgt=          12          12          12           1           1           1           1           1           1           1
 AtmWgt=  12.0000000  12.0000000  12.0000000   1.0078250   1.0078250   1.0078250   1.0078250   1.0078250   1.0078250   1.0078250
 NucSpn=           0           0           0           1           1           1           1           1           1           1
 AtZEff=   0.0000000   0.0000000   0.0000000   0.0000000   0.0000000   0.0000000   0.0000000   0.0000000   0.0000000   0.0000000
 NQMom=    0.0000000   0.0000000   0.0000000   0.0000000   0.0000000   0.0000000   0.0000000   0.0000000   0.0000000   0.0000000
 NMagM=    0.0000000   0.0000000   0.0000000   2.7928460   2.7928460   2.7928460   2.7928460   2.7928460   2.7928460   2.7928460
 AtZNuc=   6.0000000   6.0000000   6.0000000   1.0000000   1.0000000   1.0000000   1.0000000   1.0000000   1.0000000   1.0000000
 Leave Link  101 at Sat Jun 26 11:26:58 2021, MaxMem=  3355443200 cpu:         0.8
 (Enter /Local/ce_dana/g09/l103.exe)

 GradGradGradGradGradGradGradGradGradGradGradGradGradGradGradGradGradGrad
 Berny optimization.
 Initialization pass.
                           ----------------------------
                           !    Initial Parameters    !
                           ! (Angstroms and Degrees)  !
 --------------------------                            --------------------------
 ! Name  Definition              Value          Derivative Info.                !
 --------------------------------------------------------------------------------
 ! R1    R(1,2)                  1.3212         calculate D2E/DX2 analytically  !
 ! R2    R(1,5)                  1.0922         calculate D2E/DX2 analytically  !
 ! R3    R(1,6)                  1.4836         calculate D2E/DX2 analytically  !
 ! R4    R(2,3)                  1.5008         calculate D2E/DX2 analytically  !
 ! R5    R(2,4)                  1.102          calculate D2E/DX2 analytically  !
 ! R6    R(3,8)                  1.1015         calculate D2E/DX2 analytically  !
 ! R7    R(3,9)                  1.0984         calculate D2E/DX2 analytically  !
 ! R8    R(3,10)                 1.1015         calculate D2E/DX2 analytically  !
 ! R9    R(6,7)                  0.8696         calculate D2E/DX2 analytically  !
 ! A1    A(2,1,5)              130.4763         calculate D2E/DX2 analytically  !
 ! A2    A(2,1,6)              117.2613         calculate D2E/DX2 analytically  !
 ! A3    A(5,1,6)              112.2621         calculate D2E/DX2 analytically  !
 ! A4    A(1,2,3)              126.4797         calculate D2E/DX2 analytically  !
 ! A5    A(1,2,4)              117.4966         calculate D2E/DX2 analytically  !
 ! A6    A(3,2,4)              116.0237         calculate D2E/DX2 analytically  !
 ! A7    A(2,3,8)              110.5694         calculate D2E/DX2 analytically  !
 ! A8    A(2,3,9)              111.6319         calculate D2E/DX2 analytically  !
 ! A9    A(2,3,10)             110.6011         calculate D2E/DX2 analytically  !
 ! A10   A(8,3,9)              108.4605         calculate D2E/DX2 analytically  !
 ! A11   A(8,3,10)             106.9306         calculate D2E/DX2 analytically  !
 ! A12   A(9,3,10)             108.4953         calculate D2E/DX2 analytically  !
 ! A13   L(1,6,7,9,-1)         178.4668         calculate D2E/DX2 analytically  !
 ! A14   L(1,6,7,9,-2)         179.8497         calculate D2E/DX2 analytically  !
 ! D1    D(5,1,2,3)            179.868          calculate D2E/DX2 analytically  !
 ! D2    D(5,1,2,4)             -0.152          calculate D2E/DX2 analytically  !
 ! D3    D(6,1,2,3)              0.0864         calculate D2E/DX2 analytically  !
 ! D4    D(6,1,2,4)           -179.9336         calculate D2E/DX2 analytically  !
 ! D5    D(1,2,3,8)           -120.4571         calculate D2E/DX2 analytically  !
 ! D6    D(1,2,3,9)              0.3839         calculate D2E/DX2 analytically  !
 ! D7    D(1,2,3,10)           121.2908         calculate D2E/DX2 analytically  !
 ! D8    D(4,2,3,8)             59.5627         calculate D2E/DX2 analytically  !
 ! D9    D(4,2,3,9)           -179.5963         calculate D2E/DX2 analytically  !
 ! D10   D(4,2,3,10)           -58.6894         calculate D2E/DX2 analytically  !
 --------------------------------------------------------------------------------
 Trust Radius=5.00D-02 FncErr=1.00D-07 GrdErr=1.00D-06
 Number of steps in this run=    100 maximum allowed number of steps=    100.
 Search for a saddle point of order  1.
 GradGradGradGradGradGradGradGradGradGradGradGradGradGradGradGradGradGrad

 Leave Link  103 at Sat Jun 26 11:26:58 2021, MaxMem=  3355443200 cpu:         0.0
 (Enter /Local/ce_dana/g09/l202.exe)
                          Input orientation:                          
 ---------------------------------------------------------------------
 Center     Atomic      Atomic             Coordinates (Angstroms)
 Number     Number       Type             X           Y           Z
 ---------------------------------------------------------------------
      1          6           0        0.765324    0.350397    0.289239
      2          6           0        0.039399    0.041270   -0.770451
      3          6           0       -1.446997   -0.163362   -0.804981
      4          1           0        0.566685   -0.080803   -1.730374
      5          1           0        1.840915    0.511569    0.389322
      6          1           0        0.050361    0.511999    1.579109
      7          1           0       -0.388425    0.599752    2.324702
      8          1           0       -1.689734   -1.179853   -1.153085
      9          1           0       -1.898896   -0.017744    0.185500
     10          1           0       -1.918566    0.538570   -1.510820
 ---------------------------------------------------------------------
                    Distance matrix (angstroms):
                    1          2          3          4          5
     1  C    0.000000
     2  C    1.321162   0.000000
     3  C    2.521037   1.500813   0.000000
     4  H    2.074663   1.101991   2.217675   0.000000
     5  H    1.092195   2.193562   3.562619   2.543163   0.000000
     6  H    1.483594   2.396276   2.895182   3.401571   2.149809
     7  H    2.352961   3.174099   3.390846   4.221259   2.953545
     8  H    3.232534   2.151151   1.101522   2.575384   4.207780
     9  H    2.691534   2.162016   1.098394   3.123082   3.782579
    10  H    3.237111   2.151530   1.101497   2.570661   4.212477
                    6          7          8          9         10
     6  H    0.000000
     7  H    0.869565   0.000000
     8  H    3.654474   4.117694   0.000000
     9  H    2.454053   2.690541   1.784953   0.000000
    10  H    3.664020   4.129928   1.770118   1.785322   0.000000
 Stoichiometry    C3H7(2)
 Framework group  C1[X(C3H7)]
 Deg. of freedom    24
 Full point group                 C1      NOp   1
 Largest Abelian subgroup         C1      NOp   1
 Largest concise Abelian subgroup C1      NOp   1
                         Standard orientation:                         
 ---------------------------------------------------------------------
 Center     Atomic      Atomic             Coordinates (Angstroms)
 Number     Number       Type             X           Y           Z
 ---------------------------------------------------------------------
      1          6           0        1.235524   -0.109120   -0.000776
      2          6           0       -0.001521   -0.573005    0.000249
      3          6           0       -1.260714    0.243617   -0.000163
      4          1           0       -0.134690   -1.666919    0.001197
      5          1           0        2.191075   -0.638087    0.001348
      6          1           0        1.408760    1.364325   -0.000521
      7          1           0        1.487146    2.230346    0.001822
      8          1           0       -1.869501    0.016604    0.889329
      9          1           0       -1.044891    1.320568   -0.008308
     10          1           0       -1.877631    0.004208   -0.880726
 ---------------------------------------------------------------------
 Rotational constants (GHZ):     28.2453829      8.9587016      7.1033400
 Leave Link  202 at Sat Jun 26 11:26:58 2021, MaxMem=  3355443200 cpu:         0.0
 (Enter /Local/ce_dana/g09/l301.exe)
 Standard basis: 6-311G(2d,d,p) (5D, 7F)
 Ernie: Thresh=  0.10000D-02 Tol=  0.10000D-05 Strict=F.
 There are    99 symmetry adapted cartesian basis functions of A   symmetry.
 There are    96 symmetry adapted basis functions of A   symmetry.
    96 basis functions,   152 primitive gaussians,    99 cartesian basis functions
    13 alpha electrons       12 beta electrons
       nuclear repulsion energy        74.1696988338 Hartrees.
 IExCor=  402 DFT=T Ex+Corr=B3LYP ExCW=0 ScaHFX=  0.200000
 ScaDFX=  0.800000  0.720000  1.000000  0.810000 ScalE2=  1.000000  1.000000
 IRadAn=      5 IRanWt=     -1 IRanGd=            0 ICorTp=0 IEmpDi=  4
 NAtoms=   10 NActive=   10 NUniq=   10 SFac= 1.00D+00 NAtFMM=   60 NAOKFM=F Big=F
 Integral buffers will be    131072 words long.
 Raffenetti 2 integral format.
 Two-electron integral symmetry is turned on.
 Leave Link  301 at Sat Jun 26 11:26:58 2021, MaxMem=  3355443200 cpu:         0.1
 (Enter /Local/ce_dana/g09/l302.exe)
 NPDir=0 NMtPBC=     1 NCelOv=     1 NCel=       1 NClECP=     1 NCelD=      1
         NCelK=      1 NCelE2=     1 NClLst=     1 CellRange=     0.0.
 One-electron integrals computed using PRISM.
 NBasis=    96 RedAO= T EigKep=  2.16D-03  NBF=    96
 NBsUse=    96 1.00D-06 EigRej= -1.00D+00 NBFU=    96
 Precomputing XC quadrature grid using
 IXCGrd= 4 IRadAn=           5 IRanWt=          -1 IRanGd=           0 AccXCQ= 0.00D+00.
 Generated NRdTot=       0 NPtTot=           0 NUsed=           0 NTot=          32
 NSgBfM=    99    99    99    99    99 MxSgAt=    10 MxSgA2=    10.
 Leave Link  302 at Sat Jun 26 11:26:58 2021, MaxMem=  3355443200 cpu:         1.9
 (Enter /Local/ce_dana/g09/l303.exe)
 DipDrv:  MaxL=1.
 Leave Link  303 at Sat Jun 26 11:26:58 2021, MaxMem=  3355443200 cpu:         0.1
 (Enter /Local/ce_dana/g09/l401.exe)
 Initial guess from the checkpoint file:  "check.chk"
 B after Tr=     0.000000    0.000000    0.000000
         Rot=   -0.010284    0.058531    0.500771    0.863538 Ang= 181.18 deg.
 Guess basis will be translated and rotated to current coordinates.
 JPrj=2 DoOrth=T DoCkMO=T.
 Initial guess <Sx>= 0.0000 <Sy>= 0.0000 <Sz>= 0.5000 <S**2>= 1.2113 S= 0.7088
 Leave Link  401 at Sat Jun 26 11:26:58 2021, MaxMem=  3355443200 cpu:         0.6
 (Enter /Local/ce_dana/g09/l502.exe)
 UHF open shell SCF:
 Using DIIS extrapolation, IDIIS=  1040.
 Integral symmetry usage will be decided dynamically.
 Keep R1 and R2 ints in memory in canonical form, NReq=22641738.
 IVT=       37088 IEndB=       37088 NGot=  3355443200 MDV=  3333723121
 LenX=  3333723121 LenY=  3333712879
 Requested convergence on RMS density matrix=1.00D-08 within  64 cycles.
 Requested convergence on MAX density matrix=1.00D-06.
 Requested convergence on             energy=1.00D-06.
 No special actions if energy rises.
 FoFCou: FMM=F IPFlag=           0 FMFlag=           0 FMFlg1=           0
         NFxFlg=           0 DoJE=F BraDBF=F KetDBF=F FulRan=T
         wScrn=  0.000000 ICntrl=     600 IOpCl=  0 I1Cent=           0 NGrid=           0
         NMat0=    1 NMatS0=   4656 NMatT0=    0 NMatD0=    1 NMtDS0=    0 NMtDT0=    0
 Symmetry not used in FoFCou.

 Cycle   1  Pass 1  IDiag  1:
 E= -116.613265801641    
 DIIS: error= 6.87D-02 at cycle   1 NSaved=   1.
 NSaved= 1 IEnMin= 1 EnMin= -116.613265801641     IErMin= 1 ErrMin= 6.87D-02
 ErrMax= 6.87D-02  0.00D+00 EMaxC= 1.00D-01 BMatC= 2.20D+00 BMatP= 2.20D+00
 IDIUse=3 WtCom= 3.13D-01 WtEn= 6.87D-01
 Coeff-Com:  0.100D+01
 Coeff-En:   0.100D+01
 Coeff:      0.100D+01
 Gap=     2.372 Goal=   None    Shift=    0.000
 Gap=     2.362 Goal=   None    Shift=    0.000
 GapD=    2.362 DampG=2.000 DampE=0.500 DampFc=1.0000 IDamp=-1.
 RMSDP=1.77D-02 MaxDP=2.67D-01              OVMax= 7.46D-01

 Cycle   2  Pass 1  IDiag  1:
 E= -118.371950113370     Delta-E=       -1.758684311729 Rises=F Damp=F
 DIIS: error= 1.85D-02 at cycle   2 NSaved=   2.
 NSaved= 2 IEnMin= 2 EnMin= -118.371950113370     IErMin= 2 ErrMin= 1.85D-02
 ErrMax= 1.85D-02  0.00D+00 EMaxC= 1.00D-01 BMatC= 1.28D-01 BMatP= 2.20D+00
 IDIUse=3 WtCom= 8.15D-01 WtEn= 1.85D-01
 Coeff-Com:  0.150D-02 0.999D+00
 Coeff-En:   0.000D+00 0.100D+01
 Coeff:      0.122D-02 0.999D+00
 Gap=     0.211 Goal=   None    Shift=    0.000
 Gap=     0.191 Goal=   None    Shift=    0.000
 RMSDP=4.55D-03 MaxDP=1.73D-01 DE=-1.76D+00 OVMax= 1.55D-01

 Cycle   3  Pass 1  IDiag  1:
 E= -118.386876476232     Delta-E=       -0.014926362862 Rises=F Damp=F
 DIIS: error= 2.82D-02 at cycle   3 NSaved=   3.
 NSaved= 3 IEnMin= 3 EnMin= -118.386876476232     IErMin= 2 ErrMin= 1.85D-02
 ErrMax= 2.82D-02  0.00D+00 EMaxC= 1.00D-01 BMatC= 1.32D-01 BMatP= 1.28D-01
 IDIUse=3 WtCom= 7.18D-01 WtEn= 2.82D-01
 Coeff-Com: -0.295D-01 0.525D+00 0.504D+00
 Coeff-En:   0.000D+00 0.370D+00 0.630D+00
 Coeff:     -0.212D-01 0.481D+00 0.540D+00
 Gap=     0.226 Goal=   None    Shift=    0.000
 Gap=     0.181 Goal=   None    Shift=    0.000
 RMSDP=2.30D-03 MaxDP=6.13D-02 DE=-1.49D-02 OVMax= 1.18D-01

 Cycle   4  Pass 1  IDiag  1:
 E= -118.419579439320     Delta-E=       -0.032702963088 Rises=F Damp=F
 DIIS: error= 1.50D-02 at cycle   4 NSaved=   4.
 NSaved= 4 IEnMin= 4 EnMin= -118.419579439320     IErMin= 4 ErrMin= 1.50D-02
 ErrMax= 1.50D-02  0.00D+00 EMaxC= 1.00D-01 BMatC= 2.36D-02 BMatP= 1.28D-01
 IDIUse=3 WtCom= 8.50D-01 WtEn= 1.50D-01
 Coeff-Com: -0.156D-01 0.125D+00 0.299D+00 0.591D+00
 Coeff-En:   0.000D+00 0.000D+00 0.926D-01 0.907D+00
 Coeff:     -0.133D-01 0.107D+00 0.268D+00 0.639D+00
 Gap=     0.233 Goal=   None    Shift=    0.000
 Gap=     0.170 Goal=   None    Shift=    0.000
 RMSDP=9.69D-04 MaxDP=2.66D-02 DE=-3.27D-02 OVMax= 6.88D-02

 Cycle   5  Pass 1  IDiag  1:
 E= -118.424813036331     Delta-E=       -0.005233597011 Rises=F Damp=F
 DIIS: error= 8.09D-03 at cycle   5 NSaved=   5.
 NSaved= 5 IEnMin= 5 EnMin= -118.424813036331     IErMin= 5 ErrMin= 8.09D-03
 ErrMax= 8.09D-03  0.00D+00 EMaxC= 1.00D-01 BMatC= 6.99D-03 BMatP= 2.36D-02
 IDIUse=3 WtCom= 9.19D-01 WtEn= 8.09D-02
 Coeff-Com: -0.478D-02-0.359D-01 0.494D-01 0.400D+00 0.591D+00
 Coeff-En:   0.000D+00 0.000D+00 0.000D+00 0.181D+00 0.819D+00
 Coeff:     -0.440D-02-0.330D-01 0.454D-01 0.382D+00 0.610D+00
 Gap=     0.224 Goal=   None    Shift=    0.000
 Gap=     0.180 Goal=   None    Shift=    0.000
 RMSDP=3.84D-04 MaxDP=9.06D-03 DE=-5.23D-03 OVMax= 3.41D-02

 Cycle   6  Pass 1  IDiag  1:
 E= -118.426749700557     Delta-E=       -0.001936664225 Rises=F Damp=F
 DIIS: error= 2.17D-03 at cycle   6 NSaved=   6.
 NSaved= 6 IEnMin= 6 EnMin= -118.426749700557     IErMin= 6 ErrMin= 2.17D-03
 ErrMax= 2.17D-03  0.00D+00 EMaxC= 1.00D-01 BMatC= 6.63D-04 BMatP= 6.99D-03
 IDIUse=3 WtCom= 9.78D-01 WtEn= 2.17D-02
 Coeff-Com:  0.110D-02-0.406D-01-0.541D-01 0.413D-02 0.280D+00 0.809D+00
 Coeff-En:   0.000D+00 0.000D+00 0.000D+00 0.000D+00 0.000D+00 0.100D+01
 Coeff:      0.108D-02-0.397D-01-0.530D-01 0.404D-02 0.274D+00 0.814D+00
 Gap=     0.226 Goal=   None    Shift=    0.000
 Gap=     0.177 Goal=   None    Shift=    0.000
 RMSDP=1.54D-04 MaxDP=3.52D-03 DE=-1.94D-03 OVMax= 1.30D-02

 Cycle   7  Pass 1  IDiag  1:
 E= -118.427021068177     Delta-E=       -0.000271367620 Rises=F Damp=F
 DIIS: error= 5.16D-04 at cycle   7 NSaved=   7.
 NSaved= 7 IEnMin= 7 EnMin= -118.427021068177     IErMin= 7 ErrMin= 5.16D-04
 ErrMax= 5.16D-04  0.00D+00 EMaxC= 1.00D-01 BMatC= 2.62D-05 BMatP= 6.63D-04
 IDIUse=3 WtCom= 9.95D-01 WtEn= 5.16D-03
 Coeff-Com:  0.784D-05 0.126D-02-0.594D-02-0.341D-01-0.415D-01 0.505D-01
 Coeff-Com:  0.103D+01
 Coeff-En:   0.000D+00 0.000D+00 0.000D+00 0.000D+00 0.000D+00 0.000D+00
 Coeff-En:   0.100D+01
 Coeff:      0.780D-05 0.126D-02-0.591D-02-0.339D-01-0.413D-01 0.503D-01
 Coeff:      0.103D+01
 Gap=     0.226 Goal=   None    Shift=    0.000
 Gap=     0.177 Goal=   None    Shift=    0.000
 RMSDP=5.84D-05 MaxDP=1.33D-03 DE=-2.71D-04 OVMax= 5.24D-03

 Cycle   8  Pass 1  IDiag  1:
 E= -118.427051105307     Delta-E=       -0.000030037130 Rises=F Damp=F
 DIIS: error= 2.83D-04 at cycle   8 NSaved=   8.
 NSaved= 8 IEnMin= 8 EnMin= -118.427051105307     IErMin= 8 ErrMin= 2.83D-04
 ErrMax= 2.83D-04  0.00D+00 EMaxC= 1.00D-01 BMatC= 6.90D-06 BMatP= 2.62D-05
 IDIUse=3 WtCom= 9.97D-01 WtEn= 2.83D-03
 Coeff-Com: -0.217D-03 0.591D-02 0.683D-02-0.729D-02-0.506D-01-0.106D+00
 Coeff-Com:  0.230D+00 0.921D+00
 Coeff-En:   0.000D+00 0.000D+00 0.000D+00 0.000D+00 0.000D+00 0.000D+00
 Coeff-En:   0.000D+00 0.100D+01
 Coeff:     -0.216D-03 0.589D-02 0.681D-02-0.727D-02-0.505D-01-0.105D+00
 Coeff:      0.230D+00 0.921D+00
 Gap=     0.226 Goal=   None    Shift=    0.000
 Gap=     0.177 Goal=   None    Shift=    0.000
 RMSDP=3.09D-05 MaxDP=7.30D-04 DE=-3.00D-05 OVMax= 3.01D-03

 Cycle   9  Pass 1  IDiag  1:
 E= -118.427059898726     Delta-E=       -0.000008793419 Rises=F Damp=F
 DIIS: error= 1.60D-04 at cycle   9 NSaved=   9.
 NSaved= 9 IEnMin= 9 EnMin= -118.427059898726     IErMin= 9 ErrMin= 1.60D-04
 ErrMax= 1.60D-04  0.00D+00 EMaxC= 1.00D-01 BMatC= 2.20D-06 BMatP= 6.90D-06
 IDIUse=3 WtCom= 9.98D-01 WtEn= 1.60D-03
 Coeff-Com: -0.735D-04 0.169D-02 0.366D-02 0.591D-02-0.652D-02-0.465D-01
 Coeff-Com: -0.179D+00 0.267D+00 0.953D+00
 Coeff-En:   0.000D+00 0.000D+00 0.000D+00 0.000D+00 0.000D+00 0.000D+00
 Coeff-En:   0.000D+00 0.000D+00 0.100D+01
 Coeff:     -0.734D-04 0.169D-02 0.366D-02 0.590D-02-0.651D-02-0.464D-01
 Coeff:     -0.179D+00 0.267D+00 0.953D+00
 Gap=     0.225 Goal=   None    Shift=    0.000
 Gap=     0.177 Goal=   None    Shift=    0.000
 RMSDP=2.03D-05 MaxDP=5.13D-04 DE=-8.79D-06 OVMax= 2.09D-03

 Cycle  10  Pass 1  IDiag  1:
 E= -118.427063053203     Delta-E=       -0.000003154478 Rises=F Damp=F
 DIIS: error= 7.89D-05 at cycle  10 NSaved=  10.
 NSaved=10 IEnMin=10 EnMin= -118.427063053203     IErMin=10 ErrMin= 7.89D-05
 ErrMax= 7.89D-05  0.00D+00 EMaxC= 1.00D-01 BMatC= 6.30D-07 BMatP= 2.20D-06
 IDIUse=1 WtCom= 1.00D+00 WtEn= 0.00D+00
 Coeff-Com:  0.353D-04-0.154D-02-0.119D-02 0.510D-02 0.161D-01 0.205D-01
 Coeff-Com: -0.150D+00-0.240D+00 0.363D+00 0.988D+00
 Coeff:      0.353D-04-0.154D-02-0.119D-02 0.510D-02 0.161D-01 0.205D-01
 Coeff:     -0.150D+00-0.240D+00 0.363D+00 0.988D+00
 Gap=     0.225 Goal=   None    Shift=    0.000
 Gap=     0.177 Goal=   None    Shift=    0.000
 RMSDP=1.37D-05 MaxDP=3.54D-04 DE=-3.15D-06 OVMax= 1.42D-03

 Cycle  11  Pass 1  IDiag  1:
 E= -118.427063945754     Delta-E=       -0.000000892551 Rises=F Damp=F
 DIIS: error= 1.85D-05 at cycle  11 NSaved=  11.
 NSaved=11 IEnMin=11 EnMin= -118.427063945754     IErMin=11 ErrMin= 1.85D-05
 ErrMax= 1.85D-05  0.00D+00 EMaxC= 1.00D-01 BMatC= 4.50D-08 BMatP= 6.30D-07
 IDIUse=1 WtCom= 1.00D+00 WtEn= 0.00D+00
 Coeff-Com:  0.142D-04-0.390D-03-0.685D-03-0.179D-03 0.303D-02 0.889D-02
 Coeff-Com:  0.501D-02-0.709D-01-0.886D-01 0.150D+00 0.994D+00
 Coeff:      0.142D-04-0.390D-03-0.685D-03-0.179D-03 0.303D-02 0.889D-02
 Coeff:      0.501D-02-0.709D-01-0.886D-01 0.150D+00 0.994D+00
 Gap=     0.225 Goal=   None    Shift=    0.000
 Gap=     0.177 Goal=   None    Shift=    0.000
 RMSDP=3.59D-06 MaxDP=9.13D-05 DE=-8.93D-07 OVMax= 3.74D-04

 Cycle  12  Pass 1  IDiag  1:
 E= -118.427064003266     Delta-E=       -0.000000057512 Rises=F Damp=F
 DIIS: error= 4.92D-06 at cycle  12 NSaved=  12.
 NSaved=12 IEnMin=12 EnMin= -118.427064003266     IErMin=12 ErrMin= 4.92D-06
 ErrMax= 4.92D-06  0.00D+00 EMaxC= 1.00D-01 BMatC= 3.39D-09 BMatP= 4.50D-08
 IDIUse=1 WtCom= 1.00D+00 WtEn= 0.00D+00
 Coeff-Com: -0.798D-06 0.113D-03 0.677D-04-0.616D-03-0.139D-02-0.129D-02
 Coeff-Com:  0.172D-01 0.195D-01-0.515D-01-0.928D-01 0.103D+00 0.101D+01
 Coeff:     -0.798D-06 0.113D-03 0.677D-04-0.616D-03-0.139D-02-0.129D-02
 Coeff:      0.172D-01 0.195D-01-0.515D-01-0.928D-01 0.103D+00 0.101D+01
 Gap=     0.225 Goal=   None    Shift=    0.000
 Gap=     0.177 Goal=   None    Shift=    0.000
 RMSDP=7.90D-07 MaxDP=2.01D-05 DE=-5.75D-08 OVMax= 7.74D-05

 Cycle  13  Pass 1  IDiag  1:
 E= -118.427064006348     Delta-E=       -0.000000003083 Rises=F Damp=F
 DIIS: error= 7.07D-07 at cycle  13 NSaved=  13.
 NSaved=13 IEnMin=13 EnMin= -118.427064006348     IErMin=13 ErrMin= 7.07D-07
 ErrMax= 7.07D-07  0.00D+00 EMaxC= 1.00D-01 BMatC= 1.36D-10 BMatP= 3.39D-09
 IDIUse=1 WtCom= 1.00D+00 WtEn= 0.00D+00
 Coeff-Com: -0.913D-06 0.206D-04 0.466D-04 0.269D-04-0.180D-03-0.521D-03
 Coeff-Com: -0.602D-03 0.424D-02 0.601D-02-0.934D-02-0.577D-01-0.116D-01
 Coeff-Com:  0.107D+01
 Coeff:     -0.913D-06 0.206D-04 0.466D-04 0.269D-04-0.180D-03-0.521D-03
 Coeff:     -0.602D-03 0.424D-02 0.601D-02-0.934D-02-0.577D-01-0.116D-01
 Coeff:      0.107D+01
 Gap=     0.225 Goal=   None    Shift=    0.000
 Gap=     0.177 Goal=   None    Shift=    0.000
 RMSDP=1.40D-07 MaxDP=2.46D-06 DE=-3.08D-09 OVMax= 1.10D-05

 Cycle  14  Pass 1  IDiag  1:
 E= -118.427064006460     Delta-E=       -0.000000000111 Rises=F Damp=F
 DIIS: error= 1.97D-07 at cycle  14 NSaved=  14.
 NSaved=14 IEnMin=14 EnMin= -118.427064006460     IErMin=14 ErrMin= 1.97D-07
 ErrMax= 1.97D-07  0.00D+00 EMaxC= 1.00D-01 BMatC= 1.01D-11 BMatP= 1.36D-10
 IDIUse=1 WtCom= 1.00D+00 WtEn= 0.00D+00
 Coeff-Com: -0.379D-07-0.652D-05-0.390D-05 0.479D-04 0.875D-04 0.653D-04
 Coeff-Com: -0.118D-02-0.127D-02 0.363D-02 0.592D-02-0.852D-02-0.683D-01
 Coeff-Com:  0.535D-01 0.102D+01
 Coeff:     -0.379D-07-0.652D-05-0.390D-05 0.479D-04 0.875D-04 0.653D-04
 Coeff:     -0.118D-02-0.127D-02 0.363D-02 0.592D-02-0.852D-02-0.683D-01
 Coeff:      0.535D-01 0.102D+01
 Gap=     0.225 Goal=   None    Shift=    0.000
 Gap=     0.177 Goal=   None    Shift=    0.000
 RMSDP=3.76D-08 MaxDP=5.97D-07 DE=-1.11D-10 OVMax= 2.38D-06

 Cycle  15  Pass 1  IDiag  1:
 E= -118.427064006467     Delta-E=       -0.000000000007 Rises=F Damp=F
 DIIS: error= 4.71D-08 at cycle  15 NSaved=  15.
 NSaved=15 IEnMin=15 EnMin= -118.427064006467     IErMin=15 ErrMin= 4.71D-08
 ErrMax= 4.71D-08  0.00D+00 EMaxC= 1.00D-01 BMatC= 5.27D-13 BMatP= 1.01D-11
 IDIUse=1 WtCom= 1.00D+00 WtEn= 0.00D+00
 Coeff-Com:  0.727D-08-0.146D-05-0.265D-05 0.334D-05 0.187D-04 0.323D-04
 Coeff-Com: -0.102D-03-0.386D-03 0.783D-04 0.131D-02 0.205D-02-0.756D-02
 Coeff-Com: -0.578D-01 0.136D+00 0.927D+00
 Coeff:      0.727D-08-0.146D-05-0.265D-05 0.334D-05 0.187D-04 0.323D-04
 Coeff:     -0.102D-03-0.386D-03 0.783D-04 0.131D-02 0.205D-02-0.756D-02
 Coeff:     -0.578D-01 0.136D+00 0.927D+00
 Gap=     0.225 Goal=   None    Shift=    0.000
 Gap=     0.177 Goal=   None    Shift=    0.000
 RMSDP=8.23D-09 MaxDP=1.27D-07 DE=-7.08D-12 OVMax= 7.57D-07

 SCF Done:  E(UB3LYP) =  -118.427064006     A.U. after   15 cycles
            NFock= 15  Conv=0.82D-08     -V/T= 2.0057
 <Sx>= 0.0000 <Sy>= 0.0000 <Sz>= 0.5000 <S**2>= 0.7624 S= 0.5062
 <L.S>=  0.00000000000    
 KE= 1.177608369471D+02 PE=-4.218842726569D+02 EE= 1.115266728695D+02
 Annihilation of the first spin contaminant:
 S**2 before annihilation     0.7624,   after     0.7501
 Leave Link  502 at Sat Jun 26 11:27:10 2021, MaxMem=  3355443200 cpu:       108.6
 (Enter /Local/ce_dana/g09/l508.exe)
 QCSCF skips out because SCF is already converged.
 Leave Link  508 at Sat Jun 26 11:27:10 2021, MaxMem=  3355443200 cpu:         0.0
 (Enter /Local/ce_dana/g09/l801.exe)
 DoSCS=F DFT=T ScalE2(SS,OS)=  1.000000  1.000000
 Range of M.O.s used for correlation:     1    96
 NBasis=    96 NAE=    13 NBE=    12 NFC=     0 NFV=     0
 NROrb=     96 NOA=    13 NOB=    12 NVA=    83 NVB=    84
 Leave Link  801 at Sat Jun 26 11:27:10 2021, MaxMem=  3355443200 cpu:         0.1
 (Enter /Local/ce_dana/g09/l1101.exe)
 Using compressed storage, NAtomX=    10.
 Will process     11 centers per pass.
 Leave Link 1101 at Sat Jun 26 11:27:11 2021, MaxMem=  3355443200 cpu:         5.3
 (Enter /Local/ce_dana/g09/l1102.exe)
 Symmetrizing basis deriv contribution to polar:
 IMax=3 JMax=2 DiffMx= 0.00D+00
 Leave Link 1102 at Sat Jun 26 11:27:11 2021, MaxMem=  3355443200 cpu:         0.1
 (Enter /Local/ce_dana/g09/l1110.exe)
 Forming Gx(P) for the SCF density, NAtomX=    10.
 Integral derivatives from FoFJK, PRISM(SPDF).
 Do as many integral derivatives as possible in FoFJK.
 G2DrvN: MDV=    3355443016.
 G2DrvN: will do    11 centers at a time, making    1 passes.
 Calling FoFCou, ICntrl=  3107 FMM=F I1Cent=   0 AccDes= 1.00D-12.
 FoFJK:  IHMeth= 1 ICntrl=    3107 DoSepK=F KAlg= 0 I1Cent=   0 FoldK=F
 IRaf=         0 NMat=   1 IRICut=       1 DoRegI=T DoRafI=F ISym2E= 0.
 FoFCou: FMM=F IPFlag=           0 FMFlag=      100000 FMFlg1=           0
         NFxFlg=           0 DoJE=F BraDBF=F KetDBF=F FulRan=T
         wScrn=  0.000000 ICntrl=    3107 IOpCl=  1 I1Cent=           0 NGrid=           0
         NMat0=    1 NMatS0=      1 NMatT0=    0 NMatD0=    1 NMtDS0=    0 NMtDT0=    0
 Symmetry not used in FoFCou.
 End of G2Drv F.D. properties file   721 does not exist.
 End of G2Drv F.D. properties file   722 does not exist.
 End of G2Drv F.D. properties file   788 does not exist.
 Leave Link 1110 at Sat Jun 26 11:27:26 2021, MaxMem=  3355443200 cpu:       151.3
 (Enter /Local/ce_dana/g09/l1002.exe)
 Minotr:  UHF open shell wavefunction.
          IDoAtm=1111111111
          Direct CPHF calculation.
          Differentiating once with respect to nuclear coordinates.
          Requested convergence is 1.0D-08 RMS, and 1.0D-07 maximum.
          Secondary convergence is 1.0D-12 RMS, and 1.0D-12 maximum.
          NewPWx=T KeepS1=F KeepF1=F KeepIn=T MapXYZ=F SortEE=F KeepMc=T.
          MDV=    3355442904 using IRadAn=       1.
 Generate precomputed XC quadrature information.
 Keep R1 and R2 ints in memory in canonical form, NReq=22605689.
 FoFCou: FMM=F IPFlag=           0 FMFlag=           0 FMFlg1=           0
         NFxFlg=           0 DoJE=F BraDBF=F KetDBF=F FulRan=T
         wScrn=  0.000000 ICntrl=     600 IOpCl=  0 I1Cent=           0 NGrid=           0
         NMat0=    1 NMatS0=   4656 NMatT0=    0 NMatD0=    1 NMtDS0=    0 NMtDT0=    0
 Symmetry not used in FoFCou.
          Solving linear equations simultaneously, MaxMat=       0.
          There are    33 degrees of freedom in the 1st order CPHF.  IDoFFX=6 NUNeed=     0.
     27 vectors produced by pass  0 Test12= 6.32D-15 3.03D-09 XBig12= 1.83D-01 1.67D-01.
 AX will form    27 AO Fock derivatives at one time.
     27 vectors produced by pass  1 Test12= 6.32D-15 3.03D-09 XBig12= 4.45D-02 9.89D-02.
     27 vectors produced by pass  2 Test12= 6.32D-15 3.03D-09 XBig12= 1.47D-03 1.28D-02.
     27 vectors produced by pass  3 Test12= 6.32D-15 3.03D-09 XBig12= 1.68D-05 1.08D-03.
     27 vectors produced by pass  4 Test12= 6.32D-15 3.03D-09 XBig12= 6.89D-08 3.91D-05.
     26 vectors produced by pass  5 Test12= 6.32D-15 3.03D-09 XBig12= 2.99D-10 2.33D-06.
     15 vectors produced by pass  6 Test12= 6.32D-15 3.03D-09 XBig12= 5.81D-13 1.04D-07.
      2 vectors produced by pass  7 Test12= 6.32D-15 3.03D-09 XBig12= 9.90D-16 5.40D-09.
 InvSVY:  IOpt=1 It=  1 EMax= 1.55D-15
 Solved reduced A of dimension   178 with    27 vectors.
 End of Minotr F.D. properties file   721 does not exist.
 End of Minotr F.D. properties file   722 does not exist.
 End of Minotr F.D. properties file   788 does not exist.
 Leave Link 1002 at Sat Jun 26 11:27:45 2021, MaxMem=  3355443200 cpu:       185.3
 (Enter /Local/ce_dana/g09/l601.exe)
 Copying SCF densities to generalized density rwf, IOpCl= 1 IROHF=0.

 **********************************************************************

            Population analysis using the SCF density.

 **********************************************************************

 Orbital symmetries:
 Alpha Orbitals:
       Occupied  (A) (A) (A) (A) (A) (A) (A) (A) (A) (A) (A) (A)
                 (A)
       Virtual   (A) (A) (A) (A) (A) (A) (A) (A) (A) (A) (A) (A)
                 (A) (A) (A) (A) (A) (A) (A) (A) (A) (A) (A) (A)
                 (A) (A) (A) (A) (A) (A) (A) (A) (A) (A) (A) (A)
                 (A) (A) (A) (A) (A) (A) (A) (A) (A) (A) (A) (A)
                 (A) (A) (A) (A) (A) (A) (A) (A) (A) (A) (A) (A)
                 (A) (A) (A) (A) (A) (A) (A) (A) (A) (A) (A) (A)
                 (A) (A) (A) (A) (A) (A) (A) (A) (A) (A) (A)
 Beta  Orbitals:
       Occupied  (A) (A) (A) (A) (A) (A) (A) (A) (A) (A) (A) (A)
       Virtual   (A) (A) (A) (A) (A) (A) (A) (A) (A) (A) (A) (A)
                 (A) (A) (A) (A) (A) (A) (A) (A) (A) (A) (A) (A)
                 (A) (A) (A) (A) (A) (A) (A) (A) (A) (A) (A) (A)
                 (A) (A) (A) (A) (A) (A) (A) (A) (A) (A) (A) (A)
                 (A) (A) (A) (A) (A) (A) (A) (A) (A) (A) (A) (A)
                 (A) (A) (A) (A) (A) (A) (A) (A) (A) (A) (A) (A)
                 (A) (A) (A) (A) (A) (A) (A) (A) (A) (A) (A) (A)
 The electronic state is 2-A.
 Alpha  occ. eigenvalues --  -10.18867 -10.18628 -10.17590  -0.79794  -0.69475
 Alpha  occ. eigenvalues --   -0.55982  -0.48505  -0.45017  -0.42036  -0.39250
 Alpha  occ. eigenvalues --   -0.38280  -0.27429  -0.22029
 Alpha virt. eigenvalues --    0.00508   0.04890   0.07387   0.10415   0.11268
 Alpha virt. eigenvalues --    0.11466   0.14535   0.22274   0.26989   0.28727
 Alpha virt. eigenvalues --    0.30404   0.32469   0.35524   0.39474   0.42564
 Alpha virt. eigenvalues --    0.43575   0.46123   0.50787   0.54070   0.55780
 Alpha virt. eigenvalues --    0.57821   0.59677   0.61077   0.66575   0.70325
 Alpha virt. eigenvalues --    0.78948   0.83752   0.89673   0.95503   1.02534
 Alpha virt. eigenvalues --    1.07821   1.17236   1.24270   1.26636   1.31462
 Alpha virt. eigenvalues --    1.37139   1.37318   1.44581   1.47676   1.49614
 Alpha virt. eigenvalues --    1.51934   1.55933   1.64666   1.67203   1.69202
 Alpha virt. eigenvalues --    1.72501   1.73696   1.83473   1.84361   1.86866
 Alpha virt. eigenvalues --    1.97107   1.99755   2.03154   2.10276   2.15570
 Alpha virt. eigenvalues --    2.23156   2.25599   2.30633   2.31113   2.36836
 Alpha virt. eigenvalues --    2.39236   2.43266   2.43717   2.46427   2.51781
 Alpha virt. eigenvalues --    2.57980   2.62680   2.66452   2.69152   2.80235
 Alpha virt. eigenvalues --    2.84540   2.87593   2.95848   3.13601   3.46495
 Alpha virt. eigenvalues --    3.75538   3.76286   3.80705   3.92051   4.24451
 Alpha virt. eigenvalues --   23.58341  23.89909  24.29077
  Beta  occ. eigenvalues --  -10.18749 -10.17608 -10.17535  -0.79056  -0.68377
  Beta  occ. eigenvalues --   -0.54294  -0.47523  -0.42344  -0.42089  -0.38282
  Beta  occ. eigenvalues --   -0.37557  -0.26661
  Beta virt. eigenvalues --   -0.08962   0.01319   0.05062   0.07603   0.10827
  Beta virt. eigenvalues --    0.11276   0.11842   0.16114   0.22853   0.27988
  Beta virt. eigenvalues --    0.28921   0.30439   0.33328   0.36168   0.39840
  Beta virt. eigenvalues --    0.43056   0.45254   0.47925   0.50986   0.54170
  Beta virt. eigenvalues --    0.56447   0.57889   0.60279   0.62166   0.66636
  Beta virt. eigenvalues --    0.71923   0.80008   0.84081   0.90791   0.95997
  Beta virt. eigenvalues --    1.03592   1.08905   1.18032   1.26535   1.30583
  Beta virt. eigenvalues --    1.34379   1.37275   1.38530   1.44544   1.48148
  Beta virt. eigenvalues --    1.49646   1.52473   1.56684   1.65542   1.68569
  Beta virt. eigenvalues --    1.70104   1.73168   1.74192   1.85380   1.86427
  Beta virt. eigenvalues --    1.88102   1.98126   2.00054   2.03823   2.11138
  Beta virt. eigenvalues --    2.16909   2.23922   2.26504   2.31063   2.31422
  Beta virt. eigenvalues --    2.37001   2.41515   2.43321   2.45986   2.47547
  Beta virt. eigenvalues --    2.51786   2.58632   2.63538   2.67218   2.70159
  Beta virt. eigenvalues --    2.82466   2.85197   2.87784   2.97630   3.13891
  Beta virt. eigenvalues --    3.47223   3.76293   3.78435   3.80793   3.92647
  Beta virt. eigenvalues --    4.25124  23.58998  23.89968  24.29714
          Condensed to atoms (all electrons):
               1          2          3          4          5          6
     1  C    5.227175   0.650382  -0.066935  -0.036777   0.377246   0.159776
     2  C    0.650382   4.896119   0.361759   0.396373  -0.029579  -0.025337
     3  C   -0.066935   0.361759   4.830085  -0.049473   0.006682  -0.010670
     4  H   -0.036777   0.396373  -0.049473   0.586994  -0.010199   0.004347
     5  H    0.377246  -0.029579   0.006682  -0.010199   0.544081  -0.021690
     6  H    0.159776  -0.025337  -0.010670   0.004347  -0.021690   0.555159
     7  H   -0.126033   0.002642   0.004071  -0.001607   0.008108   0.263029
     8  H    0.000544  -0.034859   0.396958  -0.002390  -0.000372   0.000518
     9  H   -0.004350  -0.037752   0.411176   0.006301   0.000184   0.001585
    10  H    0.000744  -0.034820   0.397035  -0.002549  -0.000370   0.000509
               7          8          9         10
     1  C   -0.126033   0.000544  -0.004350   0.000744
     2  C    0.002642  -0.034859  -0.037752  -0.034820
     3  C    0.004071   0.396958   0.411176   0.397035
     4  H   -0.001607  -0.002390   0.006301  -0.002549
     5  H    0.008108  -0.000372   0.000184  -0.000370
     6  H    0.263029   0.000518   0.001585   0.000509
     7  H    0.909674  -0.000193   0.000176  -0.000189
     8  H   -0.000193   0.579285  -0.026384  -0.032016
     9  H    0.000176  -0.026384   0.553694  -0.026437
    10  H   -0.000189  -0.032016  -0.026437   0.579407
          Atomic-Atomic Spin Densities.
               1          2          3          4          5          6
     1  C    0.911396  -0.039917  -0.015449  -0.011739  -0.034114   0.041720
     2  C   -0.039917  -0.102599   0.009591   0.006473   0.008324  -0.000918
     3  C   -0.015449   0.009591   0.049036  -0.018514   0.002144  -0.000594
     4  H   -0.011739   0.006473  -0.018514   0.090027  -0.008103   0.000965
     5  H   -0.034114   0.008324   0.002144  -0.008103   0.036321  -0.001044
     6  H    0.041720  -0.000918  -0.000594   0.000965  -0.001044  -0.134797
     7  H   -0.153107   0.008112   0.005477  -0.002197   0.012414  -0.029939
     8  H    0.000383   0.001900  -0.001985   0.000695  -0.000050   0.000017
     9  H    0.003135   0.001168  -0.003267   0.000577  -0.000167   0.000373
    10  H    0.000377   0.001881  -0.001989   0.000708  -0.000051   0.000018
               7          8          9         10
     1  C   -0.153107   0.000383   0.003135   0.000377
     2  C    0.008112   0.001900   0.001168   0.001881
     3  C    0.005477  -0.001985  -0.003267  -0.001989
     4  H   -0.002197   0.000695   0.000577   0.000708
     5  H    0.012414  -0.000050  -0.000167  -0.000051
     6  H   -0.029939   0.000017   0.000373   0.000018
     7  H    0.598807  -0.000224  -0.003010  -0.000222
     8  H   -0.000224  -0.005598   0.000473   0.001148
     9  H   -0.003010   0.000473  -0.000948   0.000464
    10  H   -0.000222   0.001148   0.000464  -0.005525
 Mulliken charges and spin densities:
               1          2
     1  C   -0.181770   0.702684
     2  C   -0.144928  -0.105984
     3  C   -0.280688   0.024449
     4  H    0.108980   0.058892
     5  H    0.125910   0.015675
     6  H    0.072773  -0.124198
     7  H   -0.059679   0.436113
     8  H    0.118909  -0.003240
     9  H    0.121806  -0.001201
    10  H    0.118687  -0.003190
 Sum of Mulliken charges =  -0.00000   1.00000
 Mulliken charges and spin densities with hydrogens summed into heavy atoms:
               1          2
     1  C   -0.042767   1.030274
     2  C   -0.035947  -0.047091
     3  C    0.078714   0.016817
 APT charges:
               1
     1  C   -0.377644
     2  C   -0.505178
     3  C   -0.976793
     4  H    0.357819
     5  H    0.484976
     6  H   -0.201656
     7  H    0.175989
     8  H    0.379414
     9  H    0.282667
    10  H    0.380406
 Sum of APT charges =  -0.00000
 APT charges with hydrogens summed into heavy atoms:
               1
     1  C    0.081666
     2  C   -0.147359
     3  C    0.065694
 Electronic spatial extent (au):  <R**2>=            232.7819
 Charge=             -0.0000 electrons
 Dipole moment (field-independent basis, Debye):
    X=             -0.6431    Y=             -0.9322    Z=              0.0031  Tot=              1.1325
 Quadrupole moment (field-independent basis, Debye-Ang):
   XX=            -20.2983   YY=            -22.0622   ZZ=            -23.1195
   XY=             -1.3198   XZ=              0.0032   YZ=             -0.0029
 Traceless Quadrupole moment (field-independent basis, Debye-Ang):
   XX=              1.5284   YY=             -0.2356   ZZ=             -1.2928
   XY=             -1.3198   XZ=              0.0032   YZ=             -0.0029
 Octapole moment (field-independent basis, Debye-Ang**2):
  XXX=             -0.2721  YYY=             -7.5296  ZZZ=              0.0193  XYY=             -3.0568
  XXY=             -4.4950  XXZ=              0.0055  XZZ=             -3.2714  YZZ=             -0.9198
  YYZ=             -0.0087  XYZ=             -0.0100
 Hexadecapole moment (field-independent basis, Debye-Ang**3):
 XXXX=           -199.4725 YYYY=           -109.1612 ZZZZ=            -32.8617 XXXY=            -11.4443
 XXXZ=              0.0428 YYYX=            -10.2925 YYYZ=             -0.0286 ZZZX=             -0.0247
 ZZZY=              0.0011 XXYY=            -56.0442 XXZZ=            -39.8759 YYZZ=            -24.6353
 XXYZ=              0.0128 YYXZ=              0.0132 ZZXY=             -1.0758
 N-N= 7.416969883376D+01 E-N=-4.218842726579D+02  KE= 1.177608369471D+02
  Exact polarizability:   0.000   0.000   0.000   0.000   0.000   0.000
 Approx polarizability:  70.395  11.774  68.993  -0.038   0.017  32.445
                          Isotropic Fermi Contact Couplings
        Atom                 a.u.       MegaHertz       Gauss      10(-4) cm-1
     1  C(13)              0.27868     313.29428     111.79119     104.50372
     2  C(13)             -0.00471      -5.29961      -1.89103      -1.76776
     3  C(13)              0.01929      21.68515       7.73780       7.23339
     4  H(1)               0.02493     111.45193      39.76882      37.17636
     5  H(1)               0.00878      39.23308      13.99934      13.08675
     6  H(1)              -0.03337    -149.16928     -53.22731     -49.75752
     7  H(1)               0.14122     631.24404     225.24356     210.56035
     8  H(1)              -0.00196      -8.76128      -3.12624      -2.92245
     9  H(1)               0.00002       0.08230       0.02937       0.02745
    10  H(1)              -0.00194      -8.65146      -3.08706      -2.88582
 --------------------------------------------------------
       Center         ----  Spin Dipole Couplings  ----
                      3XX-RR        3YY-RR        3ZZ-RR
 --------------------------------------------------------
     1   Atom       -0.425025      0.732905     -0.307880
     2   Atom        0.086397      0.033974     -0.120371
     3   Atom        0.022568     -0.001573     -0.020995
     4   Atom        0.006290      0.001923     -0.008213
     5   Atom        0.039583      0.003097     -0.042680
     6   Atom       -0.105182      0.210574     -0.105392
     7   Atom        0.000261     -0.000781      0.000520
     8   Atom        0.004852     -0.002847     -0.002005
     9   Atom        0.010091     -0.001666     -0.008426
    10   Atom        0.004869     -0.002824     -0.002045
 --------------------------------------------------------
                        XY            XZ            YZ
 --------------------------------------------------------
     1   Atom        0.136472     -0.000215     -0.000837
     2   Atom        0.039755     -0.000333     -0.000411
     3   Atom       -0.019445     -0.000002     -0.000001
     4   Atom        0.005862     -0.000020      0.000017
     5   Atom       -0.030092      0.000172     -0.000086
     6   Atom        0.032509      0.000043      0.000476
     7   Atom       -0.000284     -0.000002     -0.000016
     8   Atom        0.000843     -0.003668     -0.000408
     9   Atom       -0.002069      0.000047     -0.000027
    10   Atom        0.000873      0.003636      0.000432
 --------------------------------------------------------


 ---------------------------------------------------------------------------------
              Anisotropic Spin Dipole Couplings in Principal Axis System
 ---------------------------------------------------------------------------------

       Atom             a.u.   MegaHertz   Gauss  10(-4) cm-1        Axes

              Baa    -0.4409   -59.164   -21.111   -19.735  0.9933 -0.1155  0.0009
     1 C(13)  Bbb    -0.3079   -41.315   -14.742   -13.781 -0.0008  0.0009  1.0000
              Bcc     0.7488   100.478    35.853    33.516  0.1155  0.9933 -0.0008
 
              Baa    -0.1204   -16.153    -5.764    -5.388  0.0012  0.0024  1.0000
     2 C(13)  Bbb     0.0126     1.686     0.602     0.563 -0.4741  0.8805 -0.0015
              Bcc     0.1078    14.466     5.162     4.825  0.8805  0.4741 -0.0021
 
              Baa    -0.0210    -2.817    -1.005    -0.940  0.0001  0.0001  1.0000
     3 C(13)  Bbb    -0.0124    -1.663    -0.593    -0.555  0.4861  0.8739 -0.0002
              Bcc     0.0334     4.480     1.599     1.494  0.8739 -0.4861 -0.0000
 
              Baa    -0.0082    -4.382    -1.564    -1.462  0.0026 -0.0032  1.0000
     4 H(1)   Bbb    -0.0021    -1.146    -0.409    -0.382 -0.5705  0.8213  0.0041
              Bcc     0.0104     5.528     1.973     1.844  0.8213  0.5705 -0.0004
 
              Baa    -0.0427   -22.772    -8.126    -7.596 -0.0018  0.0007  1.0000
     5 H(1)   Bbb    -0.0139    -7.390    -2.637    -2.465  0.4907  0.8713  0.0003
              Bcc     0.0565    30.162    10.763    10.061  0.8713 -0.4907  0.0019
 
              Baa    -0.1085   -57.887   -20.656   -19.309  0.9948 -0.1014  0.0017
     6 H(1)   Bbb    -0.1054   -56.233   -20.065   -18.757 -0.0019 -0.0013  1.0000
              Bcc     0.2139   114.120    40.721    38.066  0.1014  0.9948  0.0015
 
              Baa    -0.0009    -0.455    -0.162    -0.152  0.2465  0.9691  0.0115
     7 H(1)   Bbb     0.0003     0.178     0.063     0.059  0.9691 -0.2464 -0.0084
              Bcc     0.0005     0.277     0.099     0.093  0.0053 -0.0132  0.9999
 
              Baa    -0.0036    -1.921    -0.685    -0.641  0.3926  0.0584  0.9179
     8 H(1)   Bbb    -0.0029    -1.567    -0.559    -0.523 -0.1142  0.9934 -0.0143
              Bcc     0.0065     3.488     1.245     1.164  0.9126  0.0992 -0.3966
 
              Baa    -0.0084    -4.496    -1.604    -1.500 -0.0022  0.0034  1.0000
     9 H(1)   Bbb    -0.0020    -1.077    -0.384    -0.359  0.1684  0.9857 -0.0029
              Bcc     0.0104     5.573     1.989     1.859  0.9857 -0.1684  0.0027
 
              Baa    -0.0036    -1.926    -0.687    -0.642 -0.3864 -0.0765  0.9192
    10 H(1)   Bbb    -0.0029    -1.559    -0.556    -0.520 -0.1251  0.9917  0.0300
              Bcc     0.0065     3.485     1.243     1.162  0.9138  0.1035  0.3927
 

 ---------------------------------------------------------------------------------

 No NMR shielding tensors so no spin-rotation constants.
 Leave Link  601 at Sat Jun 26 11:27:46 2021, MaxMem=  3355443200 cpu:         3.5
 (Enter /Local/ce_dana/g09/l701.exe)
 Compute integral second derivatives.
 ... and contract with generalized density number  0.
 Leave Link  701 at Sat Jun 26 11:27:46 2021, MaxMem=  3355443200 cpu:         6.4
 (Enter /Local/ce_dana/g09/l702.exe)
 L702 exits ... SP integral derivatives will be done elsewhere.
 Leave Link  702 at Sat Jun 26 11:27:46 2021, MaxMem=  3355443200 cpu:         0.1
 (Enter /Local/ce_dana/g09/l703.exe)
 Compute integral second derivatives, UseDBF=F ICtDFT=           0.
 Integral derivatives from FoFJK, PRISM(SPDF).
 Calling FoFJK, ICntrl=    100147 FMM=F ISym2X=0 I1Cent= 0 IOpClX= 1 NMat=1 NMatS=1 NMatT=0.
 FoFJK:  IHMeth= 1 ICntrl=  100147 DoSepK=F KAlg= 0 I1Cent=   0 FoldK=F
 IRaf=         0 NMat=   1 IRICut=       1 DoRegI=T DoRafI=F ISym2E= 0.
 FoFCou: FMM=F IPFlag=           0 FMFlag=      100000 FMFlg1=         800
         NFxFlg=           0 DoJE=F BraDBF=F KetDBF=F FulRan=T
         wScrn=  0.000000 ICntrl=  100147 IOpCl=  1 I1Cent=           0 NGrid=           0
         NMat0=    1 NMatS0=      1 NMatT0=    0 NMatD0=    1 NMtDS0=    0 NMtDT0=    0
 Symmetry not used in FoFCou.
 Leave Link  703 at Sat Jun 26 11:28:01 2021, MaxMem=  3355443200 cpu:       142.2
 (Enter /Local/ce_dana/g09/l716.exe)
 Dipole        =-2.53030321D-01-3.66753615D-01 1.21397114D-03
 Polarizability= 0.00000000D+00 0.00000000D+00 0.00000000D+00
                 0.00000000D+00 0.00000000D+00 0.00000000D+00
 ***** Axes restored to original set *****
 -------------------------------------------------------------------
 Center     Atomic                   Forces (Hartrees/Bohr)
 Number     Number              X              Y              Z
 -------------------------------------------------------------------
      1        6           0.001927827   -0.000569102   -0.003674337
      2        6           0.006388327    0.001358452    0.002145952
      3        6          -0.005044503   -0.000709399   -0.000116901
      4        1          -0.002427574    0.000368809    0.003671113
      5        1          -0.006224046   -0.000731507    0.000178753
      6        1          -0.000276656    0.000120395    0.000930222
      7        1           0.001624962   -0.000230354   -0.002404190
      8        1           0.000535076    0.003817070    0.001196211
      9        1           0.002067006   -0.000667052   -0.004551548
     10        1           0.001429581   -0.002757311    0.002624726
 -------------------------------------------------------------------
 Cartesian Forces:  Max     0.006388327 RMS     0.002691129
 Force constants in Cartesian coordinates: 
                1             2             3             4             5 
      1  0.583527D+00
      2  0.122208D+00  0.100948D+00
      3  0.267205D+00  0.107719D+00  0.423597D+00
      4 -0.230195D+00 -0.640752D-01 -0.194104D+00  0.591162D+00
      5 -0.700334D-01 -0.680384D-01 -0.922652D-01  0.831727D-01  0.178950D+00
      6 -0.223503D+00 -0.961356D-01 -0.371691D+00  0.117308D+00  0.125955D+00
      7 -0.218407D-01 -0.598824D-02 -0.142154D-01 -0.209413D+00 -0.175752D-01
      8 -0.886279D-02 -0.725070D-04 -0.233928D-02 -0.175371D-01 -0.716253D-01
      9 -0.283136D-01 -0.423161D-02 -0.617493D-03  0.485702D-02 -0.127103D-02
     10  0.777953D-02 -0.348243D-02 -0.135962D-01 -0.105437D+00  0.108464D-01
     11  0.110891D-02  0.115067D-01 -0.103511D-01  0.117405D-01 -0.435554D-01
     12  0.932666D-02 -0.725767D-02 -0.289801D-01  0.102080D+00 -0.240245D-01
     13 -0.321488D+00 -0.465746D-01 -0.391721D-01 -0.511360D-02  0.107531D-02
     14 -0.417600D-01 -0.335943D-01 -0.703033D-02 -0.647235D-02 -0.408344D-03
     15 -0.155167D-01 -0.396608D-02 -0.364088D-01 -0.285642D-01 -0.341438D-02
     16  0.129364D-02 -0.732068D-02 -0.497976D-01  0.301716D-02  0.597427D-03
     17 -0.575316D-02 -0.165274D-01  0.104388D-01  0.613502D-03  0.180507D-02
     18 -0.421363D-01  0.115748D-01  0.687959D-01  0.261829D-02 -0.377936D-02
     19 -0.147074D-01  0.448313D-02  0.373025D-01 -0.163401D-02 -0.233184D-03
     20  0.368388D-02  0.602722D-02 -0.770361D-02  0.335746D-03 -0.711941D-03
     21  0.335110D-01 -0.832227D-02 -0.574700D-01  0.221838D-02  0.100115D-02
     22 -0.293449D-02 -0.632932D-03  0.235005D-02 -0.106812D-01 -0.319526D-01
     23 -0.376687D-04  0.963917D-04  0.147801D-02 -0.242899D-02 -0.112907D-02
     24  0.438642D-04 -0.154751D-03  0.107419D-02 -0.327832D-02 -0.566629D-03
     25  0.165115D-02  0.608683D-03  0.172339D-02 -0.142421D-01  0.443098D-02
     26  0.148236D-03 -0.329180D-03  0.405726D-03 -0.187343D-02 -0.224386D-03
     27 -0.704113D-03  0.897685D-04  0.423754D-03 -0.166844D-03  0.462537D-03
     28 -0.308514D-02  0.774416D-03  0.230468D-02 -0.174633D-01  0.196717D-01
     29 -0.701909D-03 -0.162274D-04 -0.351899D-03 -0.347541D-02  0.493807D-02
     30  0.872619D-04  0.684563D-03  0.127673D-02 -0.296868D-02 -0.209722D-02
                6             7             8             9            10 
      6  0.693426D+00
      7  0.546943D-02  0.477132D+00
      8 -0.121043D-02 -0.729496D-02  0.511886D+00
      9 -0.788265D-01 -0.122875D-01  0.730946D-02  0.556121D+00
     10  0.975243D-01 -0.134084D-01  0.300834D-02  0.273936D-01  0.113951D+00
     11 -0.245925D-01 -0.268102D-02  0.584637D-02  0.285103D-02 -0.926484D-02
     12 -0.227956D+00 -0.908511D-03 -0.941845D-03  0.152048D-02 -0.108353D+00
     13  0.875935D-02  0.926639D-03 -0.165408D-02 -0.139744D-02  0.207840D-03
     14  0.148497D-02 -0.109579D-02  0.107382D-01 -0.307561D-02  0.796775D-03
     15  0.197799D-02  0.149769D-02 -0.267251D-02 -0.277505D-02  0.693314D-03
     16  0.264831D-02 -0.126642D-02 -0.137168D-03 -0.153311D-02  0.492509D-03
     17 -0.376292D-02  0.813870D-03 -0.234009D-02  0.246578D-03 -0.712608D-03
     18 -0.182143D-01  0.334008D-02  0.863611D-03 -0.321986D-03 -0.172956D-02
     19 -0.698061D-03  0.266520D-03  0.251576D-04 -0.101430D-03  0.217405D-03
     20  0.601525D-03 -0.182937D-03 -0.831898D-04  0.106012D-03 -0.195156D-04
     21  0.269812D-02 -0.117480D-02 -0.294396D-04  0.518098D-03 -0.316573D-03
     22 -0.135112D-01 -0.556807D-01 -0.481356D-01 -0.135614D-01  0.875011D-03
     23 -0.175948D-02 -0.464150D-01 -0.254861D+00 -0.722556D-01 -0.613498D-03
     24 -0.175050D-02 -0.121695D-01 -0.718954D-01 -0.715067D-01 -0.238716D-03
     25  0.299574D-01 -0.886150D-01  0.132351D-01  0.886514D-01 -0.573674D-02
     26  0.446400D-02  0.140016D-01 -0.538796D-01 -0.310411D-01 -0.121303D-02
     27  0.134918D-02  0.922605D-01 -0.305535D-01 -0.255545D+00 -0.933505D-03
     28 -0.239547D-01 -0.881013D-01  0.673531D-01 -0.637076D-01  0.105913D-02
     29 -0.504413D-02  0.664177D-01 -0.145609D+00  0.101362D+00  0.654446D-03
     30 -0.101392D-02 -0.618120D-01  0.101469D+00 -0.148566D+00 -0.443442D-03
               11            12            13            14            15 
     11  0.254907D-01
     12  0.318035D-01  0.251104D+00
     13  0.346364D-03 -0.150830D-02  0.328233D+00
     14 -0.439204D-02  0.123325D-02  0.472977D-01  0.281635D-01
     15  0.153808D-02  0.243243D-02  0.342361D-01  0.815018D-02  0.385898D-01
     16 -0.841519D-03 -0.229050D-02 -0.243539D-02  0.165565D-02  0.108202D-01
     17  0.304470D-02 -0.665540D-03 -0.839323D-03  0.126691D-02  0.243420D-03
     18 -0.558256D-03  0.150114D-02 -0.174589D-02 -0.142272D-02 -0.467606D-02
     19  0.295805D-03  0.117867D-02  0.361545D-04 -0.124273D-03 -0.138886D-02
     20 -0.143785D-03 -0.114961D-03  0.423461D-03 -0.101927D-02  0.133852D-03
     21 -0.339430D-03 -0.151313D-02  0.139546D-02  0.499931D-03  0.519506D-03
     22  0.140104D-02  0.272492D-03 -0.654677D-03  0.191106D-02 -0.121901D-02
     23  0.404510D-03  0.102824D-03 -0.357705D-04  0.727466D-04 -0.955241D-04
     24  0.117563D-03  0.204084D-03 -0.374567D-03  0.380292D-03 -0.450834D-04
     25 -0.111270D-02 -0.561537D-03  0.380878D-03  0.366908D-04 -0.170661D-03
     26  0.162964D-02 -0.162983D-03  0.857678D-04 -0.173369D-03  0.781064D-04
     27 -0.233648D-03  0.136532D-02  0.531582D-04  0.110413D-03  0.275889D-03
     28 -0.992564D-03  0.763889D-03 -0.925896D-04 -0.224555D-02 -0.387881D-03
     29  0.168627D-03  0.278802D-04 -0.124864D-03 -0.654142D-03  0.485776D-05
     30 -0.235196D-03  0.321265D-03 -0.245743D-03 -0.330377D-03  0.109344D-03
               16            17            18            19            20 
     16  0.277231D-01
     17  0.385280D-02  0.268863D-01
     18  0.186273D-01 -0.226931D-02  0.324326D-02
     19 -0.282646D-01  0.209987D-02  0.208951D-01  0.431786D-01
     20  0.238433D-02 -0.143235D-01 -0.450722D-02 -0.656998D-02  0.102519D-01
     21  0.219947D-01 -0.424018D-02 -0.509476D-01 -0.567671D-01  0.116034D-01
     22 -0.788355D-04 -0.304607D-03  0.110358D-03  0.136752D-03 -0.440764D-04
     23 -0.577967D-05 -0.953156D-04  0.111110D-03  0.160828D-04  0.155845D-04
     24  0.918874D-04 -0.376297D-03 -0.332360D-04 -0.143264D-03 -0.293708D-04
     25 -0.318029D-03 -0.646060D-04 -0.186893D-05  0.632595D-03 -0.417784D-04
     26 -0.174608D-03  0.185773D-03  0.119595D-03  0.537575D-04 -0.407244D-04
     27 -0.552903D-03  0.351298D-04  0.785246D-03 -0.136382D-03 -0.110262D-03
     28 -0.163082D-03  0.294253D-03  0.224364D-04  0.138016D-03  0.308680D-04
     29 -0.104622D-04  0.976209D-04 -0.132227D-03 -0.463581D-04  0.277041D-04
     30 -0.834686D-05  0.350307D-03 -0.132365D-03 -0.141077D-03  0.206426D-04
               21            22            23            24            25 
     21  0.106474D+00
     22 -0.102315D-03  0.638468D-01
     23  0.321617D-05  0.530520D-01  0.278386D+00
     24  0.100092D-03  0.179887D-01  0.794904D-01  0.732925D-01
     25 -0.642775D-03  0.233249D-02  0.167233D-03 -0.678523D-02  0.983370D-01
     26 -0.176291D-03  0.122834D-01 -0.264425D-02 -0.266703D-01 -0.139298D-01
     27 -0.473593D-03  0.268214D-02 -0.626927D-03 -0.780773D-02 -0.999122D-01
     28 -0.115946D-03  0.283884D-02 -0.369859D-02  0.486507D-02  0.557772D-02
     29  0.000000D+00  0.124224D-01 -0.202456D-01  0.197044D-01 -0.332975D-02
     30  0.945655D-04  0.499015D-02 -0.644812D-02  0.647233D-02 -0.122580D-01
               26            27            28            29            30 
     26  0.522958D-01
     27  0.343800D-01  0.276469D+00
     28 -0.938188D-02  0.741015D-02  0.992917D-01
     29  0.318038D-02 -0.355357D-02 -0.718058D-01  0.158112D+00
     30  0.186032D-01 -0.168417D-01  0.727998D-01 -0.112017D+00  0.158280D+00
 FormGI is forming the generalized inverse of G from B-inverse, IUseBI=4.
 Force constants in internal coordinates: 
                1             2             3             4             5 
      1  0.616475D+00
      2  0.339453D-04  0.339413D+00
      3  0.894216D-02 -0.172971D-03  0.529559D-02
      4  0.224128D-01 -0.193189D-03 -0.171519D-02  0.300582D+00
      5  0.134484D-01  0.114416D-02 -0.141412D-02  0.708738D-02  0.314377D+00
      6 -0.111503D-02  0.235413D-03 -0.786119D-04  0.803493D-02  0.485559D-03
      7 -0.745648D-03 -0.568792D-04  0.838776D-03  0.426419D-02 -0.656725D-03
      8 -0.108682D-02  0.236451D-03 -0.837981D-04  0.796990D-02  0.491632D-03
      9 -0.109979D-02  0.136613D-02  0.768404D-01  0.235667D-02  0.152551D-02
     10  0.159770D-01  0.109430D-01 -0.111459D-01  0.107267D-02 -0.352532D-02
     11 -0.334367D-03 -0.710674D-02  0.517007D-02 -0.636702D-03  0.269437D-02
     12 -0.156424D-01 -0.383620D-02  0.597588D-02 -0.435962D-03  0.830945D-03
     13  0.207001D-01  0.398661D-02 -0.397859D-02  0.210273D-01 -0.140779D-01
     14  0.697376D-02 -0.179949D-02  0.381674D-02 -0.258645D-01  0.744116D-02
     15 -0.276738D-01 -0.218712D-02  0.161848D-03  0.483716D-02  0.663676D-02
     16  0.200377D-02  0.598853D-03 -0.166610D-04  0.155186D-01 -0.962991D-03
     17 -0.382879D-02 -0.718168D-03  0.596341D-03  0.165384D-01  0.422781D-02
     18  0.206882D-02  0.616043D-03 -0.214317D-04  0.155493D-01 -0.100057D-02
     19  0.394058D-03  0.634286D-04 -0.259186D-03 -0.158156D-01 -0.123017D-02
     20 -0.926199D-03 -0.635750D-03 -0.780531D-04 -0.185654D-01 -0.129877D-04
     21  0.361644D-03  0.622377D-04 -0.258894D-03 -0.158086D-01 -0.121670D-02
     22 -0.796169D-03  0.111505D-02 -0.166046D-03  0.613491D-04 -0.358352D-03
     23  0.123254D-04  0.181589D-05  0.186419D-04  0.000000D+00 -0.379568D-05
     24  0.508177D-04  0.765254D-05  0.715338D-05 -0.242804D-04  0.659141D-05
     25  0.596305D-04  0.979024D-05  0.675963D-05 -0.333520D-05  0.423482D-05
     26 -0.277806D-04 -0.115970D-04 -0.208270D-04 -0.240882D-04  0.596869D-05
     27 -0.189678D-04 -0.945927D-05 -0.212208D-04 -0.314299D-05  0.361210D-05
     28  0.714113D-03 -0.919701D-05 -0.631785D-04 -0.175669D-02 -0.623328D-03
     29  0.875491D-05 -0.183989D-05 -0.176609D-05 -0.433680D-04  0.347895D-05
     30 -0.696496D-03  0.154518D-04  0.574763D-04  0.173334D-02  0.626263D-03
     31  0.699499D-03 -0.113525D-04 -0.634481D-04 -0.177191D-02 -0.621220D-03
     32 -0.585973D-05 -0.399534D-05 -0.203569D-05 -0.585828D-04  0.558685D-05
     33 -0.711111D-03  0.132963D-04  0.572067D-04  0.171813D-02  0.628371D-03
                6             7             8             9            10 
      6  0.317929D+00
      7  0.268871D-02  0.326250D+00
      8  0.386105D-02  0.267382D-02  0.318008D+00
      9 -0.100861D-04  0.219930D-04 -0.112834D-04  0.141177D+00
     10  0.305779D-03  0.110349D-02  0.315284D-03  0.224174D-02  0.566451D-01
     11 -0.164965D-03 -0.149442D-02 -0.175781D-03 -0.229865D-02 -0.334493D-01
     12 -0.141302D-03  0.390912D-03 -0.139004D-03  0.567934D-04 -0.231954D-01
     13  0.276109D-02 -0.659594D-02  0.280426D-02 -0.944373D-03  0.401191D-02
     14 -0.152908D-02  0.129362D-02 -0.153057D-02  0.181011D-02 -0.584466D-02
     15 -0.123187D-02  0.530231D-02 -0.127382D-02 -0.865732D-03  0.183275D-02
     16  0.269723D-02 -0.571671D-02 -0.641647D-02 -0.267902D-04  0.138821D-02
     17 -0.586660D-02  0.165450D-02 -0.585956D-02  0.131941D-02 -0.836697D-03
     18 -0.640680D-02 -0.571203D-02  0.269536D-02 -0.284553D-04  0.143126D-02
     19  0.530165D-02  0.552437D-02 -0.111594D-02 -0.626856D-03 -0.587435D-03
     20  0.603916D-02 -0.984435D-03  0.603776D-02 -0.859636D-04 -0.860557D-03
     21 -0.111482D-02  0.551160D-02  0.529768D-02 -0.634105D-03 -0.602947D-03
     22 -0.725448D-05 -0.705115D-03 -0.892229D-05  0.342533D-04 -0.103940D-02
     23  0.129178D-04 -0.452777D-05 -0.126228D-04  0.158523D-04 -0.199014D-04
     24 -0.802099D-03  0.768227D-05  0.799667D-03 -0.568565D-05  0.509476D-04
     25 -0.302703D-03  0.323047D-05  0.303820D-03 -0.320515D-05  0.458168D-04
     26 -0.626585D-03  0.144750D-04  0.620877D-03  0.373565D-04 -0.134234D-04
     27 -0.127189D-03  0.100232D-04  0.125029D-03  0.398370D-04 -0.185543D-04
     28  0.770788D-04 -0.420585D-02  0.508268D-02 -0.703582D-04  0.350660D-03
     29  0.470387D-02  0.000000D+00 -0.468381D-02  0.463464D-05 -0.659201D-05
     30 -0.507822D-02  0.419362D-02 -0.601903D-04  0.708754D-04 -0.354090D-03
     31 -0.415818D-03 -0.420079D-02  0.557220D-02 -0.732778D-04  0.357084D-03
     32  0.421097D-02  0.530332D-05 -0.419429D-02  0.171510D-05  0.000000D+00
     33 -0.557111D-02  0.419867D-02  0.429331D-03  0.679559D-04 -0.347666D-03
               11            12            13            14            15 
     11  0.445519D-01
     12 -0.111026D-01  0.342976D-01
     13  0.340387D-02 -0.741570D-02  0.107854D+00
     14  0.150491D-02  0.433971D-02 -0.522123D-01  0.834676D-01
     15 -0.490878D-02  0.307599D-02 -0.556420D-01 -0.312554D-01  0.868974D-01
     16 -0.845410D-03 -0.548951D-03  0.755471D-02 -0.607322D-03 -0.694661D-02
     17  0.957663D-03 -0.120947D-03 -0.904138D-02 -0.446794D-02  0.135093D-01
     18 -0.875528D-03 -0.549593D-03  0.766251D-02 -0.626546D-03 -0.703674D-02
     19  0.234168D-03  0.355161D-03 -0.358338D-04  0.210310D-02 -0.206753D-02
     20  0.296219D-03  0.564344D-03 -0.616958D-02  0.184948D-02  0.432010D-02
     21  0.240980D-03  0.360057D-03 -0.915648D-04  0.211737D-02 -0.202554D-02
     22 -0.129437D-02  0.233380D-02  0.137865D-02 -0.956193D-03 -0.422457D-03
     23  0.986532D-05  0.161503D-05  0.725694D-05 -0.220308D-05 -0.504629D-05
     24  0.000000D+00 -0.201004D-04  0.138040D-05  0.156765D-04 -0.185190D-04
     25 -0.154358D-05 -0.177950D-04  0.000000D+00 -0.419236D-05  0.543553D-05
     26 -0.258652D-04  0.246323D-04 -0.983483D-05  0.188646D-04 -0.996149D-05
     27 -0.283642D-04  0.269377D-04 -0.117876D-04 -0.100426D-05  0.139930D-04
     28 -0.357971D-03  0.505489D-05  0.961013D-03  0.763761D-03 -0.172383D-02
     29  0.469755D-05 -0.216244D-05  0.508952D-05  0.605998D-05 -0.100068D-04
     30  0.356030D-03 -0.419428D-05 -0.952866D-03 -0.753061D-03  0.170687D-02
     31 -0.356602D-03  0.251802D-05  0.962943D-03  0.763115D-03 -0.172722D-02
     32  0.606693D-05 -0.469931D-05  0.702023D-05  0.541454D-05 -0.133976D-04
     33  0.357400D-03 -0.673115D-05 -0.950936D-03 -0.753706D-03  0.170348D-02
               16            17            18            19            20 
     16  0.101883D+00
     17 -0.219706D-01  0.105096D+00
     18 -0.166693D-01 -0.220806D-01  0.101960D+00
     19 -0.378955D-01 -0.380980D-01  0.979151D-02  0.553272D-01
     20 -0.376584D-01  0.103966D-01 -0.376385D-01  0.689326D-02  0.544273D-01
     21  0.978786D-02 -0.381167D-01 -0.379324D-01  0.752877D-02  0.690613D-02
     22 -0.127827D-03 -0.253162D-04 -0.134090D-03  0.141721D-03  0.810042D-05
     23  0.134905D-03  0.327170D-05 -0.134307D-03 -0.979884D-05  0.000000D+00
     24 -0.442929D-02  0.855068D-05  0.440414D-02  0.111765D-02  0.136686D-04
     25 -0.161968D-02  0.164855D-05  0.161440D-02  0.180895D-03  0.226041D-05
     26 -0.221986D-02  0.143069D-05  0.220318D-02  0.436566D-03  0.990192D-05
     27  0.589754D-03 -0.547144D-05 -0.586564D-03 -0.500188D-03 -0.150624D-05
     28  0.140839D-02 -0.740206D-02  0.549665D-02 -0.952819D-02  0.100686D-01
     29  0.838617D-02 -0.140673D-04 -0.838766D-02  0.903649D-02 -0.718617D-05
     30 -0.547782D-02  0.738705D-02 -0.141754D-02 -0.406660D-03 -0.100780D-01
     31 -0.136610D-02 -0.739217D-02  0.824938D-02 -0.860423D-02  0.100803D-01
     32  0.561168D-02 -0.417536D-05 -0.563492D-02  0.996046D-02  0.447074D-05
     33 -0.825230D-02  0.739694D-02  0.133519D-02  0.517303D-03 -0.100663D-01
               21            22            23            24            25 
     21  0.553774D-01
     22  0.148467D-03  0.219011D-01
     23  0.657881D-05  0.111546D-04  0.188695D-01
     24 -0.111641D-02  0.121240D-05 -0.142486D-02  0.140108D-01
     25 -0.180419D-03  0.129199D-05 -0.139759D-02  0.874132D-02  0.111589D-01
     26 -0.431753D-03 -0.168425D-04  0.159826D-02  0.259373D-02 -0.764265D-03
     27  0.504239D-03 -0.167630D-04  0.162554D-02 -0.267572D-02  0.165336D-02
     28  0.413533D-03 -0.772060D-04 -0.436020D-04 -0.182094D-02  0.156367D-02
     29 -0.900077D-02 -0.204968D-05  0.387023D-04 -0.343472D-02  0.683383D-03
     30  0.952662D-02  0.772906D-04 -0.430312D-04 -0.182041D-02  0.156479D-02
     31 -0.511125D-03 -0.771840D-04 -0.705298D-04  0.338064D-02 -0.822815D-03
     32 -0.992542D-02 -0.202767D-05  0.117746D-04  0.176685D-02 -0.170310D-02
     33  0.860196D-02  0.773126D-04 -0.699590D-04  0.338116D-02 -0.821692D-03
               26            27            28            29            30 
     26  0.785530D-02
     27  0.449731D-02  0.882639D-02
     28 -0.101071D-02  0.237389D-02  0.128434D-01
     29 -0.197829D-02  0.213981D-02 -0.327350D-02  0.139404D-01
     30 -0.101167D-02  0.237353D-02 -0.397092D-02 -0.326682D-02  0.128505D-01
     31  0.230402D-02 -0.189943D-02  0.950193D-02 -0.733856D-02 -0.731209D-02
     32  0.133644D-02 -0.213351D-02 -0.661493D-02  0.987533D-02 -0.660800D-02
     33  0.230307D-02 -0.189979D-02 -0.731235D-02 -0.733189D-02  0.950929D-02
               31            32            33 
     31  0.136508D-01
     32 -0.318968D-02  0.133006D-01
     33 -0.316321D-02 -0.318275D-02  0.136584D-01
 Leave Link  716 at Sat Jun 26 11:28:01 2021, MaxMem=  3355443200 cpu:         0.1
 (Enter /Local/ce_dana/g09/l103.exe)

 GradGradGradGradGradGradGradGradGradGradGradGradGradGradGradGradGradGrad
 Berny optimization.
 Red2BG is reusing G-inverse.
 Internal  Forces:  Max     0.006221028 RMS     0.002260961
 Search for a saddle point.
 Step number   1 out of a maximum of  100
 All quantities printed in internal units (Hartrees-Bohrs-Radians)
 Swapping is turned off.
 Second derivative matrix not updated -- analytic derivatives used.
 ITU=  0
     Eigenvalues ---   -0.03124   0.00201   0.01170   0.01693   0.01904
     Eigenvalues ---    0.02154   0.02348   0.04741   0.05616   0.05764
     Eigenvalues ---    0.08453   0.11028   0.12168   0.13762   0.14331
     Eigenvalues ---    0.17048   0.17746   0.30803   0.31521   0.31715
     Eigenvalues ---    0.32440   0.33256   0.34038   0.62240
 Eigenvectors required to have negative eigenvalues:
                          R3        R9        A1        A3        A2
   1                   -0.90567   0.40555  -0.09762   0.05678   0.04084
                          R1        A4        A5        R5        R4
   1                    0.01806  -0.01523   0.00882  -0.00844  -0.00712
 RFO step:  Lambda0=4.283193488D-06 Lambda=-5.45393895D-04.
 Linear search not attempted -- option 19 set.
 Maximum step size (   0.050) exceeded in Quadratic search.
    -- Step size scaled by   0.908
 Iteration  1 RMS(Cart)=  0.01449698 RMS(Int)=  0.00011670
 Iteration  2 RMS(Cart)=  0.00013795 RMS(Int)=  0.00000051
 Iteration  3 RMS(Cart)=  0.00000003 RMS(Int)=  0.00000051
 ITry= 1 IFail=0 DXMaxC= 5.28D-02 DCOld= 1.00D+10 DXMaxT= 5.00D-02 DXLimC= 3.00D+00 Rises=F
 Variable       Old X    -DE/DX   Delta X   Delta X   Delta X     New X
                                 (Linear)    (Quad)   (Total)
    R1        2.49663  -0.00594   0.00000  -0.01010  -0.01010   2.48653
    R2        2.06395  -0.00622   0.00000  -0.01704  -0.01704   2.04691
    R3        2.80359  -0.00194   0.00000   0.00061   0.00061   2.80420
    R4        2.83613   0.00107   0.00000   0.00532   0.00532   2.84145
    R5        2.08246  -0.00440   0.00000  -0.01189  -0.01189   2.07057
    R6        2.08158  -0.00402   0.00000  -0.01145  -0.01145   2.07012
    R7        2.07566  -0.00504   0.00000  -0.01370  -0.01370   2.06196
    R8        2.08153  -0.00405   0.00000  -0.01143  -0.01143   2.07010
    R9        1.64324  -0.00290   0.00000  -0.01892  -0.01892   1.62432
    A1        2.27724   0.00052   0.00000   0.01233   0.01233   2.28957
    A2        2.04660   0.00056   0.00000   0.01070   0.01069   2.05729
    A3        1.95934  -0.00108   0.00000  -0.02301  -0.02302   1.93633
    A4        2.20749   0.00092   0.00000   0.00285   0.00285   2.21033
    A5        2.05070  -0.00007   0.00000   0.00389   0.00389   2.05459
    A6        2.02500  -0.00085   0.00000  -0.00674  -0.00674   2.01826
    A7        1.92980   0.00045   0.00000   0.00107   0.00107   1.93087
    A8        1.94834  -0.00016   0.00000  -0.00121  -0.00121   1.94713
    A9        1.93035   0.00042   0.00000   0.00061   0.00060   1.93096
   A10        1.89299  -0.00016   0.00000   0.00041   0.00041   1.89340
   A11        1.86629  -0.00041   0.00000  -0.00078  -0.00078   1.86551
   A12        1.89360  -0.00017   0.00000  -0.00010  -0.00010   1.89350
   A13        3.11483   0.00031   0.00000   0.01596   0.01596   3.13079
   A14        3.13897   0.00004   0.00000   0.00232   0.00232   3.14129
    D1        3.13929   0.00003   0.00000   0.00193   0.00193   3.14122
    D2       -0.00265   0.00004   0.00000   0.00231   0.00231  -0.00034
    D3        0.00151  -0.00003   0.00000  -0.00136  -0.00136   0.00015
    D4       -3.14043  -0.00002   0.00000  -0.00098  -0.00098  -3.14142
    D5       -2.10237  -0.00000   0.00000  -0.00509  -0.00509  -2.10746
    D6        0.00670   0.00000   0.00000  -0.00466  -0.00466   0.00204
    D7        2.11692  -0.00003   0.00000  -0.00518  -0.00518   2.11174
    D8        1.03957  -0.00001   0.00000  -0.00546  -0.00546   1.03410
    D9       -3.13455  -0.00001   0.00000  -0.00503  -0.00503  -3.13958
   D10       -1.02432  -0.00004   0.00000  -0.00556  -0.00556  -1.02988
         Item               Value     Threshold  Converged?
 Maximum Force            0.006221     0.000015     NO 
 RMS     Force            0.002261     0.000010     NO 
 Maximum Displacement     0.052808     0.000060     NO 
 RMS     Displacement     0.014458     0.000040     NO 
 Predicted change in Energy=-2.689840D-04
 Lowest energy point so far.  Saving SCF results.
 GradGradGradGradGradGradGradGradGradGradGradGradGradGradGradGradGradGrad

 Leave Link  103 at Sat Jun 26 11:28:01 2021, MaxMem=  3355443200 cpu:         0.1
 (Enter /Local/ce_dana/g09/l202.exe)
                          Input orientation:                          
 ---------------------------------------------------------------------
 Center     Atomic      Atomic             Coordinates (Angstroms)
 Number     Number       Type             X           Y           Z
 ---------------------------------------------------------------------
      1          6           0        0.759690    0.348255    0.288008
      2          6           0        0.038904    0.040486   -0.768929
      3          6           0       -1.449947   -0.165599   -0.810791
      4          1           0        0.561485   -0.081819   -1.724181
      5          1           0        1.824284    0.512204    0.402184
      6          1           0        0.055466    0.514490    1.583558
      7          1           0       -0.360480    0.608628    2.329857
      8          1           0       -1.690191   -1.174501   -1.163547
      9          1           0       -1.901884   -0.026181    0.172525
     10          1           0       -1.917260    0.535830   -1.510523
 ---------------------------------------------------------------------
                    Distance matrix (angstroms):
                    1          2          3          4          5
     1  C    0.000000
     2  C    1.315815   0.000000
     3  C    2.520694   1.503629   0.000000
     4  H    2.067160   1.095699   2.210691   0.000000
     5  H    1.083179   2.186688   3.556868   2.543413   0.000000
     6  H    1.483919   2.399822   2.908899   3.398937   2.127056
     7  H    2.343442   3.175652   3.413215   4.214493   2.915204
     8  H    3.229196   2.149810   1.095462   2.564821   4.200954
     9  H    2.690263   2.158110   1.091145   3.109465   3.771860
    10  H    3.230473   2.149861   1.095449   2.563457   4.202161
                    6          7          8          9         10
     6  H    0.000000
     7  H    0.859555   0.000000
     8  H    3.666959   4.141443   0.000000
     9  H    2.472763   2.726350   1.774413   0.000000
    10  H    3.669528   4.144560   1.759882   1.774470   0.000000
 Stoichiometry    C3H7(2)
 Framework group  C1[X(C3H7)]
 Deg. of freedom    24
 Full point group                 C1      NOp   1
 RotChk:  IX=0 Diff= 9.66D-03
 Largest Abelian subgroup         C1      NOp   1
 Largest concise Abelian subgroup C1      NOp   1
                         Standard orientation:                         
 ---------------------------------------------------------------------
 Center     Atomic      Atomic             Coordinates (Angstroms)
 Number     Number       Type             X           Y           Z
 ---------------------------------------------------------------------
      1          6           0        1.231393   -0.115382   -0.000095
      2          6           0       -0.002795   -0.571616    0.000007
      3          6           0       -1.262847    0.248853   -0.000021
      4          1           0       -0.144522   -1.658110    0.000153
      5          1           0        2.183039   -0.632727    0.000221
      6          1           0        1.427307    1.355547   -0.000060
      7          1           0        1.531581    2.208754    0.000209
      8          1           0       -1.872278    0.020306    0.881112
      9          1           0       -1.045171    1.318063   -0.002213
     10          1           0       -1.874466    0.017036   -0.878766
 ---------------------------------------------------------------------
 Rotational constants (GHZ):     28.5051483      8.9446028      7.1071060
 Leave Link  202 at Sat Jun 26 11:28:01 2021, MaxMem=  3355443200 cpu:         0.0
 (Enter /Local/ce_dana/g09/l301.exe)
 Standard basis: 6-311G(2d,d,p) (5D, 7F)
 Ernie: Thresh=  0.10000D-02 Tol=  0.10000D-05 Strict=F.
 There are    99 symmetry adapted cartesian basis functions of A   symmetry.
 There are    96 symmetry adapted basis functions of A   symmetry.
    96 basis functions,   152 primitive gaussians,    99 cartesian basis functions
    13 alpha electrons       12 beta electrons
       nuclear repulsion energy        74.3276556725 Hartrees.
 IExCor=  402 DFT=T Ex+Corr=B3LYP ExCW=0 ScaHFX=  0.200000
 ScaDFX=  0.800000  0.720000  1.000000  0.810000 ScalE2=  1.000000  1.000000
 IRadAn=      5 IRanWt=     -1 IRanGd=            0 ICorTp=0 IEmpDi=  4
 NAtoms=   10 NActive=   10 NUniq=   10 SFac= 1.00D+00 NAtFMM=   60 NAOKFM=F Big=F
 Integral buffers will be    131072 words long.
 Raffenetti 2 integral format.
 Two-electron integral symmetry is turned on.
 Leave Link  301 at Sat Jun 26 11:28:01 2021, MaxMem=  3355443200 cpu:         0.1
 (Enter /Local/ce_dana/g09/l302.exe)
 NPDir=0 NMtPBC=     1 NCelOv=     1 NCel=       1 NClECP=     1 NCelD=      1
         NCelK=      1 NCelE2=     1 NClLst=     1 CellRange=     0.0.
 One-electron integrals computed using PRISM.
 NBasis=    96 RedAO= T EigKep=  2.13D-03  NBF=    96
 NBsUse=    96 1.00D-06 EigRej= -1.00D+00 NBFU=    96
 Precomputing XC quadrature grid using
 IXCGrd= 4 IRadAn=           5 IRanWt=          -1 IRanGd=           0 AccXCQ= 0.00D+00.
 Generated NRdTot=       0 NPtTot=           0 NUsed=           0 NTot=          32
 NSgBfM=    99    99    99    99    99 MxSgAt=    10 MxSgA2=    10.
 Leave Link  302 at Sat Jun 26 11:28:01 2021, MaxMem=  3355443200 cpu:         2.0
 (Enter /Local/ce_dana/g09/l303.exe)
 DipDrv:  MaxL=1.
 Leave Link  303 at Sat Jun 26 11:28:01 2021, MaxMem=  3355443200 cpu:         0.1
 (Enter /Local/ce_dana/g09/l401.exe)
 Initial guess from the checkpoint file:  "check.chk"
 B after Tr=     0.000000   -0.000000   -0.000000
         Rot=    0.999995   -0.000511    0.000139    0.002980 Ang=  -0.35 deg.
 Guess basis will be translated and rotated to current coordinates.
 JPrj=2 DoOrth=T DoCkMO=T.
 Initial guess <Sx>= 0.0000 <Sy>= 0.0000 <Sz>= 0.5000 <S**2>= 0.7622 S= 0.5061
 Generating alternative initial guess.
 ExpMin= 1.03D-01 ExpMax= 4.56D+03 ExpMxC= 6.82D+02 IAcc=2 IRadAn=         4 AccDes= 0.00D+00
[...]
 Alpha virt. eigenvalues --    0.16450   0.17031   0.18056   0.19076   0.20472
 Alpha virt. eigenvalues --    0.21277   0.21881   0.23181   0.23968   0.27514
 Alpha virt. eigenvalues --    0.30068   0.30177   0.31522   0.32436   0.38324
 Alpha virt. eigenvalues --    0.39531   0.45111   0.51569   0.55269   0.57186
 Alpha virt. eigenvalues --    0.58423   0.60519   0.63836   0.63939   0.68088
 Alpha virt. eigenvalues --    0.68753   0.70285   0.71805   0.72358   0.73654
 Alpha virt. eigenvalues --    0.76153   0.78679   0.79169   0.82538   0.83484
 Alpha virt. eigenvalues --    0.85584   0.87073   0.88955   0.92794   0.93116
 Alpha virt. eigenvalues --    0.95587   0.98236   1.04823   1.04904   1.09575
 Alpha virt. eigenvalues --    1.10590   1.17588   1.20829   1.26625   1.29028
 Alpha virt. eigenvalues --    1.31454   1.32185   1.35616   1.35909   1.38043
 Alpha virt. eigenvalues --    1.43813   1.47000   1.48717   1.54855   1.55035
 Alpha virt. eigenvalues --    1.59673   1.62443   1.66387   1.67044   1.69664
 Alpha virt. eigenvalues --    1.74297   1.74550   1.78934   1.81831   1.88549
 Alpha virt. eigenvalues --    1.93782   2.02911   2.12698   2.69405   2.72818
 Alpha virt. eigenvalues --    2.79451   2.83719   2.89258   2.97528   2.99355
 Alpha virt. eigenvalues --    3.00740   3.07805   3.08510   3.10644   3.17765
 Alpha virt. eigenvalues --    3.18621   3.19550   3.22936   3.26754   3.27802
 Alpha virt. eigenvalues --    3.34134   3.42911   3.44511   3.46414   3.49432
 Alpha virt. eigenvalues --    3.50584   3.54507   3.57153   3.57523   3.58642
 Alpha virt. eigenvalues --    3.60163   3.72911   3.74487   3.75603   3.80316
 Alpha virt. eigenvalues --    3.84837   3.89695   3.90286   3.92709   3.95246
 Alpha virt. eigenvalues --    3.98309   4.01513   4.04647   4.04831   4.14250
 Alpha virt. eigenvalues --    4.22692   4.23697   4.29809   4.29885   4.36469
 Alpha virt. eigenvalues --    4.39313   4.44973   4.46986   4.49564   4.52697
 Alpha virt. eigenvalues --    4.53621   4.58150   4.62485   4.70581   4.73616
 Alpha virt. eigenvalues --    4.78827   4.82491   4.86264   4.90559   4.98579
 Alpha virt. eigenvalues --    5.05949   5.12194   5.17704   5.52858   5.66392
 Alpha virt. eigenvalues --    5.83485   5.94415   6.04531   6.07140   6.09440
 Alpha virt. eigenvalues --    6.44996  25.03494  25.50414  25.95296
  Beta  occ. eigenvalues --  -11.24565 -11.22516 -11.21855  -1.06627  -0.91770
  Beta  occ. eigenvalues --   -0.72836  -0.64264  -0.57814  -0.56615  -0.52912
  Beta  occ. eigenvalues --   -0.51439  -0.37467
  Beta virt. eigenvalues --    0.04204   0.05427   0.05811   0.07210   0.07668
  Beta virt. eigenvalues --    0.09642   0.11077   0.11536   0.12104   0.14341
  Beta virt. eigenvalues --    0.14826   0.16811   0.18143   0.18487   0.19161
  Beta virt. eigenvalues --    0.20733   0.21361   0.22005   0.23667   0.24151
  Beta virt. eigenvalues --    0.27806   0.29933   0.30497   0.32295   0.36453
  Beta virt. eigenvalues --    0.38288   0.39869   0.46482   0.52425   0.55779
  Beta virt. eigenvalues --    0.56977   0.59479   0.62049   0.64156   0.65428
  Beta virt. eigenvalues --    0.68248   0.69597   0.72783   0.73191   0.73697
  Beta virt. eigenvalues --    0.74955   0.75968   0.79365   0.80871   0.83664
  Beta virt. eigenvalues --    0.83988   0.86515   0.89324   0.90022   0.94494
  Beta virt. eigenvalues --    0.96208   0.97262   0.99273   1.04978   1.05937
  Beta virt. eigenvalues --    1.10483   1.10860   1.19293   1.20763   1.26859
  Beta virt. eigenvalues --    1.29549   1.32339   1.33135   1.36307   1.36527
  Beta virt. eigenvalues --    1.38757   1.43739   1.47135   1.48899   1.55027
  Beta virt. eigenvalues --    1.56776   1.61597   1.62403   1.66500   1.67222
  Beta virt. eigenvalues --    1.70168   1.74672   1.75520   1.79844   1.82186
  Beta virt. eigenvalues --    1.89579   1.94963   2.06102   2.13034   2.69317
  Beta virt. eigenvalues --    2.73002   2.80666   2.84216   2.91001   2.98701
  Beta virt. eigenvalues --    3.00046   3.01402   3.09169   3.09561   3.10503
  Beta virt. eigenvalues --    3.18126   3.18835   3.19803   3.23110   3.27143
  Beta virt. eigenvalues --    3.30863   3.36803   3.43772   3.45472   3.46680
  Beta virt. eigenvalues --    3.50743   3.51936   3.55114   3.57088   3.58448
  Beta virt. eigenvalues --    3.60946   3.61211   3.72580   3.76029   3.77329
  Beta virt. eigenvalues --    3.81747   3.85329   3.91352   3.92359   3.93790
  Beta virt. eigenvalues --    3.97116   3.99598   4.04245   4.05283   4.07329
  Beta virt. eigenvalues --    4.15045   4.23713   4.24501   4.29828   4.30612
  Beta virt. eigenvalues --    4.36991   4.40743   4.44906   4.47482   4.50076
  Beta virt. eigenvalues --    4.53048   4.53848   4.58052   4.62495   4.71085
  Beta virt. eigenvalues --    4.73702   4.79275   4.82886   4.86475   4.90306
  Beta virt. eigenvalues --    4.99299   5.05905   5.12948   5.18240   5.53467
  Beta virt. eigenvalues --    5.67235   5.84063   5.95398   6.05166   6.07088
  Beta virt. eigenvalues --    6.09465   6.45881  25.04396  25.50598  25.95875
          Condensed to atoms (all electrons):
               1          2          3          4          5          6
     1  C    5.605323   0.412450   0.146772  -0.041073   0.396206  -0.115792
     2  C    0.412450   4.835552   0.149420   0.400246  -0.003641   0.119820
     3  C    0.146772   0.149420   4.771093  -0.058278   0.011342  -0.077421
     4  H   -0.041073   0.400246  -0.058278   0.576753  -0.002790   0.001861
     5  H    0.396206  -0.003641   0.011342  -0.002790   0.517681  -0.022087
     6  H   -0.115792   0.119820  -0.077421   0.001861  -0.022087   0.801623
     7  H   -0.203394   0.072819  -0.031218   0.002543  -0.005356   0.404554
     8  H    0.000765  -0.035371   0.436119  -0.002742  -0.000307  -0.002065
     9  H   -0.013416  -0.036315   0.415974   0.004225  -0.001177   0.014718
    10  H    0.000764  -0.035370   0.436119  -0.002742  -0.000307  -0.002065
               7          8          9         10
     1  C   -0.203394   0.000765  -0.013416   0.000764
     2  C    0.072819  -0.035371  -0.036315  -0.035370
     3  C   -0.031218   0.436119   0.415974   0.436119
     4  H    0.002543  -0.002742   0.004225  -0.002742
     5  H   -0.005356  -0.000307  -0.001177  -0.000307
     6  H    0.404554  -0.002065   0.014718  -0.002065
     7  H    0.766405   0.000251   0.001000   0.000251
     8  H    0.000251   0.639992  -0.027998  -0.055256
     9  H    0.001000  -0.027998   0.597505  -0.027998
    10  H    0.000251  -0.055256  -0.027998   0.639991
          Atomic-Atomic Spin Densities.
               1          2          3          4          5          6
     1  C    1.696447  -0.230720   0.043796   0.004565  -0.017031  -0.040668
     2  C   -0.230720  -0.445394  -0.001960  -0.009317   0.003512   0.012547
     3  C    0.043796  -0.001960   0.063660  -0.006504  -0.005504   0.018807
     4  H    0.004565  -0.009317  -0.006504   0.109158  -0.002379  -0.009900
     5  H   -0.017031   0.003512  -0.005504  -0.002379  -0.024563   0.027796
     6  H   -0.040668   0.012547   0.018807  -0.009900   0.027796  -0.377751
     7  H   -0.183226   0.057770  -0.020332   0.001168  -0.000503   0.088865
     8  H    0.000543   0.011231  -0.004572   0.000019  -0.000000  -0.000523
     9  H   -0.000219   0.003766  -0.003467   0.000265   0.000102  -0.002925
    10  H    0.000543   0.011231  -0.004572   0.000019  -0.000000  -0.000523
               7          8          9         10
     1  C   -0.183226   0.000543  -0.000219   0.000543
     2  C    0.057770   0.011231   0.003766   0.011231
     3  C   -0.020332  -0.004572  -0.003467  -0.004572
     4  H    0.001168   0.000019   0.000265   0.000019
     5  H   -0.000503  -0.000000   0.000102  -0.000000
     6  H    0.088865  -0.000523  -0.002925  -0.000523
     7  H    0.544809  -0.000245   0.002089  -0.000245
     8  H   -0.000245  -0.032804   0.000382   0.007922
     9  H    0.002089   0.000382  -0.004726   0.000382
    10  H   -0.000245   0.007922   0.000382  -0.032803
 Mulliken charges and spin densities:
               1          2
     1  C   -0.188604   1.274028
     2  C    0.120390  -0.587335
     3  C   -0.199922   0.079352
     4  H    0.121997   0.087095
     5  H    0.110436  -0.018571
     6  H   -0.123147  -0.284275
     7  H   -0.007856   0.490149
     8  H    0.046613  -0.018047
     9  H    0.073480  -0.004351
    10  H    0.046613  -0.018046
 Sum of Mulliken charges =  -0.00000   1.00000
 Mulliken charges and spin densities with hydrogens summed into heavy atoms:
               1          2
     1  C   -0.209171   1.461332
     2  C    0.242387  -0.500239
     3  C   -0.033216   0.038908
 Electronic spatial extent (au):  <R**2>=            232.9756
 Charge=             -0.0000 electrons
 Dipole moment (field-independent basis, Debye):
    X=             -0.6136    Y=             -0.9296    Z=              0.0000  Tot=              1.1139
 Quadrupole moment (field-independent basis, Debye-Ang):
   XX=            -20.3809   YY=            -22.1414   ZZ=            -23.3506
   XY=             -1.3299   XZ=              0.0000   YZ=             -0.0000
 Traceless Quadrupole moment (field-independent basis, Debye-Ang):
   XX=              1.5767   YY=             -0.1837   ZZ=             -1.3930
   XY=             -1.3299   XZ=              0.0000   YZ=             -0.0000
 Octapole moment (field-independent basis, Debye-Ang**2):
  XXX=             -0.2883  YYY=             -6.6119  ZZZ=              0.0000  XYY=             -3.2142
  XXY=             -4.5626  XXZ=              0.0000  XZZ=             -3.5555  YZZ=             -0.7171
  YYZ=             -0.0000  XYZ=             -0.0000
 Hexadecapole moment (field-independent basis, Debye-Ang**3):
 XXXX=           -199.4511 YYYY=           -104.3531 ZZZZ=            -34.0437 XXXY=            -11.9130
 XXXZ=              0.0001 YYYX=             -9.1782 YYYZ=             -0.0000 ZZZX=             -0.0001
 ZZZY=              0.0000 XXYY=            -55.7680 XXZZ=            -40.3223 YYZZ=            -24.6117
 XXYZ=              0.0000 YYXZ=              0.0000 ZZXY=             -0.9811
 N-N= 7.433544917993D+01 E-N=-4.215332095982D+02  KE= 1.175161654484D+02
 Leave Link  601 at Sat Jun 26 11:31:43 2021, MaxMem=  3355443200 cpu:         0.3
 (Enter /Local/ce_dana/g09/l9999.exe)

 Test job not archived.
 1\1\GINC-TECH-WN018\SP\UMP2-FC\CBSB3\C3H7(2)\ALONGD\26-Jun-2021\0\\#P 
 Geom=AllCheck Guess=TCheck SCRF=Check Test MP2/CBSB3 CBSExtrap=(NMin=1
 0,MinPop)\\TS0\\0,2\C,0,0.7589346795,0.3479552504,0.2878227628\C,0,0.0
 38735651,0.0400727678,-0.7688920355\C,0,-1.4503841792,-0.1660601616,-0
 .8117536655\H,0,0.5610258317,-0.082522885,-1.7236851471\H,0,1.82260543
 28,0.5123277932,0.403704699\H,0,0.0560925485,0.5153446106,1.5846975647
 \H,0,-0.3568268913,0.6106397905,2.3314571765\H,0,-1.6904461688,-1.1738
 202628,-1.166325151\H,0,-1.9023873168,-0.0284742795,0.1711579661\H,0,-
 1.9172835874,0.5363323766,-1.5100231701\\Version=ES64L-G09RevD.01\Stat
 e=2-A\HF=-117.5736526\MP2=-118.0677762\E2(CBS)=-0.544095\CBS-Int=-0.52
 63503\OIii=4.5611247\PUHF=-117.588689\PMP2-0=-118.0807773\S2=0.942387\
 S2-1=0.887903\S2A=0.76494\RMSD=5.267e-09\PG=C01 [X(C3H7)]\\@


 SLITHERY-DITHERY
 FRIEDRICH A. KEKULE
 DREAMT ON A BUS OF THINGS
 FREUD WOULD THINK KEEN.
 MOST OF THE TIME THEY WERE
 HERPETOLOGICAL
 BITING THEIR TAILS IN THE
 SHAPE OF BENZENE.
 Diagonal vibrational polarizability:
        0.0000000       0.0000000       0.0000000
    1 imaginary frequencies ignored.

 Complete Basis Set (CBS) Extrapolation:
 M. R. Nyden and G. A. Petersson, JCP 75, 1843 (1981)
 G. A. Petersson and M. A. Al-Laham, JCP 94, 6081 (1991)
 G. A. Petersson, T. Tensfeldt, and J. A. Montgomery, JCP 94, 6091 (1991)
 J. A. Montgomery, J. W. Ochterski, and G. A. Petersson, JCP 101, 5900 (1994)

 Temperature=               298.150000 Pressure=                       1.000000
 E(ZPE)=                      0.076117 E(Thermal)=                     0.081259
 E(SCF)=                   -117.573653 DE(MP2)=                       -0.494124
 DE(CBS)=                    -0.049971 DE(MP34)=                      -0.048350
 DE(CCSD)=                   -0.022428 DE(Int)=                        0.017745
 DE(Empirical)=              -0.028244
 CBS-QB3 (0 K)=            -118.122909 CBS-QB3 Energy=              -118.117767
 CBS-QB3 Enthalpy=         -118.116823 CBS-QB3 Free Energy=         -118.149684

 Test job not archived.
 1\1\GINC-TECH-WN018\Mixed\CBS-QB3\CBS-QB3\C3H7(2)\ALONGD\26-Jun-2021\0
 \\#P opt=(ts, calcfc, noeigentest, maxcycles=100, tight, maxstep=5) gu
 ess=read cbs-qb3 scf=(tight, direct) integral=(grid=ultrafine, Acc2E=1
 2) IOp(2/9=2000) scf=xqc\\TS0\\0,2\C,0,0.7589346795,0.3479552504,0.287
 8227628\C,0,0.038735651,0.0400727678,-0.7688920355\C,0,-1.4503841792,-
 0.1660601616,-0.8117536655\H,0,0.5610258317,-0.082522885,-1.7236851471
 \H,0,1.8226054328,0.5123277932,0.403704699\H,0,0.0560925485,0.51534461
 06,1.5846975647\H,0,-0.3568268913,0.6106397905,2.3314571765\H,0,-1.690
 4461688,-1.1738202628,-1.166325151\H,0,-1.9023873168,-0.0284742795,0.1
 711579661\H,0,-1.9172835874,0.5363323766,-1.5100231701\\Version=ES64L-
 G09RevD.01\State=2-A\HF/CbsB3=-117.5736526\E2(CBS)/CbsB3=-0.544095\CBS
 -Int/CbsB3=0.0177447\OIii/CbsB3=4.5611247\MP2/CbsB4=-117.9659321\MP4(S
 DQ)/CbsB4=-118.0142823\MP4(SDQ)/6-31+G(d')=-117.9557535\QCISD(T)/6-31+
 G(d')=-117.9781817\CBSQB3=-118.1229089\FreqCoord=1.4341786969,0.657540
 1297,0.5439061965,0.0731997721,0.0757265565,-1.4529953728,-2.740828886
 1,-0.313808227,-1.5339921152,1.0601851754,-0.1559456524,-3.2572928673,
 3.4442251162,0.9681592194,0.7628913197,0.1059995547,0.9738601782,2.994
 6444008,-0.6743051013,1.1539419699,4.4058155541,-3.1944803014,-2.21819
 8826,-2.2040351173,-3.5949910275,-0.0538085901,0.3234416814,-3.6231408
 993,1.0135213079,-2.8535302458\PG=C01 [X(C3H7)]\NImag=1\\0.60494125,0.
 12923929,0.09814772,0.28229698,0.11309601,0.43473538,-0.23416975,-0.06
 659726,-0.20230779,0.59087400,-0.07277959,-0.06758151,-0.09623798,0.08
 417272,0.17758818,-0.23307178,-0.10031849,-0.38395335,0.12123838,0.131
 65424,0.71507883,-0.02172187,-0.00598704,-0.01454762,-0.20468961,-0.01
 680675,0.00549114,0.47460460,-0.00880367,-0.00027434,-0.00239381,-0.01
 701558,-0.07215858,-0.00119003,-0.00968548,0.52571711,-0.02856345,-0.0
 0425293,-0.00093529,0.00445038,-0.00132800,-0.07920877,-0.01461867,0.0
 0761577,0.57301798,0.00795486,-0.00363004,-0.01403187,-0.10654836,0.01
 176991,0.10311640,-0.01397531,0.00290951,0.02761616,0.11554324,0.00108
 509,0.01207573,-0.01060663,0.01267027,-0.04262956,-0.02613835,-0.00283
 692,0.00611964,0.00281535,-0.01001698,0.02397899,0.00943148,-0.0074944
 0,-0.02945544,0.10759695,-0.02554406,-0.23718812,-0.00097878,-0.000977
 60,0.00171144,-0.11385218,0.03352200,0.26053029,-0.33906723,-0.0510417
 4,-0.04640134,-0.00450834,0.00115123,0.00898848,0.00090428,-0.00168786
 ,-0.00132101,0.00018306,0.00036795,-0.00156583,0.34551297,-0.04622410,
 -0.03231462,-0.00810858,-0.00644065,-0.00013523,0.00143656,-0.00109674
 ,0.01086952,-0.00305195,0.00083495,-0.00459291,0.00129204,0.05166785,0
 .02659531,-0.02242807,-0.00492879,-0.03427717,-0.02878992,-0.00357439,
 0.00164619,0.00162068,-0.00266170,-0.00268646,0.00075804,0.00160029,0.
 00249967,0.04085353,0.00929600,0.03716761,-0.00061816,-0.00727429,-0.0
 4725659,0.00336984,0.00059853,0.00234487,-0.00116697,-0.00012592,-0.00
 151833,0.00039500,-0.00085007,-0.00231478,-0.00291064,0.00169087,0.011
 30177,0.03039808,-0.00581024,-0.01587996,0.01125719,0.00051100,0.00171
 938,-0.00377430,0.00084736,-0.00235105,0.00027153,-0.00070172,0.003079
 14,-0.00061961,-0.00080720,0.00137380,0.00008264,0.00291201,0.02518794
 ,-0.03997119,0.01222356,0.06983867,0.00190920,-0.00383210,-0.01791932,
 0.00332501,0.00091392,-0.00016480,-0.00157662,-0.00052166,0.00174133,-
 0.00112916,-0.00156621,-0.00558422,0.01091450,-0.00088635,0.01336502,-
 0.01307369,0.00452187,0.03595358,-0.00170489,-0.00022111,-0.00056327,0
 .00022451,0.00003677,-0.00000486,0.00023786,0.00029962,0.00121588,0.00
 022990,-0.00013152,-0.00154600,-0.02889575,0.00311230,0.02633728,0.042
 09089,0.00390026,0.00611258,-0.00851363,0.00040730,-0.00070997,0.00063
 350,-0.00019615,-0.00006339,0.00011263,-0.00002259,-0.00020931,-0.0001
 3693,0.00040878,-0.00102582,0.00020309,0.00322259,-0.01332224,-0.00642
 721,-0.00764911,0.00920754,0.03286031,-0.00892396,-0.05879092,0.002563
 83,0.00104829,0.00263294,-0.00116389,-0.00004111,0.00050367,-0.0003874
 0,-0.00034961,-0.00166273,0.00114260,0.00055971,0.00091020,0.02688604,
 -0.00635439,-0.06182543,-0.06098700,0.01423542,0.11845480,-0.00296723,
 -0.00065635,0.00233153,-0.01062332,-0.03200968,-0.01378165,-0.05494994
 ,-0.05055593,-0.01479461,0.00092920,0.00143897,0.00027416,-0.00065172,
 0.00193831,-0.00122963,-0.00008698,-0.00031096,0.00012546,0.00014037,-
 0.00004043,-0.00011508,0.06295388,-0.00005845,0.00006990,0.00141672,-0
 .00214352,-0.00093646,-0.00165400,-0.04863652,-0.26415171,-0.07784164,
 -0.00061867,0.00040630,0.00010434,-0.00003144,0.00006486,-0.00008322,-
 0.00000958,-0.00008508,0.00011949,0.00002216,0.00001891,-0.00000296,0.
 05506099,0.28763823,0.00004031,-0.00017353,0.00108002,-0.00325835,-0.0
 0056717,-0.00182087,-0.01332640,-0.07749599,-0.07304174,-0.00023120,0.
 00014492,0.00019995,-0.00037464,0.00036802,-0.00004689,0.00009761,-0.0
 0035865,-0.00003946,-0.00013441,-0.00002620,0.00010610,0.01919304,0.08
 528138,0.07489712,0.00179250,0.00063691,0.00168906,-0.01458707,0.00424
 108,0.03014037,-0.09036867,0.01357440,0.09558393,-0.00580770,-0.001131
 17,-0.00059289,0.00037607,0.00004128,-0.00016747,-0.00031213,-0.000058
 41,0.00003480,0.00061004,-0.00005259,-0.00067103,0.00240056,0.00019645
 ,-0.00687897,0.10017528,0.00016550,-0.00034525,0.00041396,-0.00191472,
 -0.00023614,0.00453532,0.01424193,-0.05230684,-0.03142193,-0.00120819,
 0.00162593,-0.00017911,0.00008582,-0.00016372,0.00006908,-0.00015696,0
 .00018297,0.00011344,0.00005340,-0.00003762,-0.00017217,0.01261792,-0.
 00243521,-0.02709378,-0.01418656,0.05057337,-0.00065698,0.00010279,0.0
 0049464,-0.00048893,0.00047262,0.00178049,0.09890514,-0.03098137,-0.26
 731333,-0.00097586,-0.00022995,0.00132221,0.00005412,0.00009848,0.0002
 6527,-0.00045560,0.00004837,0.00072251,-0.00014354,-0.00010221,-0.0004
 2396,0.00284925,-0.00049637,-0.00807880,-0.10667704,0.03462924,0.28820
 802,-0.00307067,0.00078865,0.00227405,-0.01741250,0.01988365,-0.023902
 95,-0.08886103,0.07135376,-0.06682954,0.00108814,-0.00102675,0.0007860
 1,-0.00006836,-0.00228026,-0.00037292,-0.00017229,0.00030586,0.0000307
 1,0.00014075,0.00002194,-0.00012838,0.00285517,-0.00378142,0.00487302,
 0.00572112,-0.00969814,0.00758944,0.09977968,-0.00071409,-0.00001026,-
 0.00032325,-0.00364957,0.00507990,-0.00518445,0.07015633,-0.15140038,0
 .10708117,0.00068382,0.00014605,0.00003332,-0.00011339,-0.00067120,-0.
 00000300,-0.00000718,0.00009510,-0.00013687,-0.00004438,0.00002931,0.0
 0000078,0.01251715,-0.02058974,0.01992100,-0.00326138,0.00314251,-0.00
 354160,-0.07556730,0.16417871,0.00006239,0.00066974,0.00126346,-0.0029
 1375,-0.00209146,-0.00104801,-0.06470661,0.10721192,-0.15188271,-0.000
 43545,-0.00023636,0.00030140,-0.00024676,-0.00032407,0.00010581,0.0000
 0051,0.00033357,-0.00013431,-0.00012765,0.00002155,0.00009534,0.005147
 53,-0.00684374,0.00674457,-0.01246076,0.01910595,-0.01697703,0.0756805
 5,-0.11784710,0.16153148\\0.00000018,0.00000003,-0.00000006,0.00000028
 ,0.00000009,0.00000023,0.,0.00000002,-0.00000008,0.00000020,0.00000014
 ,0.00000035,-0.00000032,-0.00000003,0.00000023,-0.00000075,0.,0.000000
 50,-0.00000021,-0.00000013,-0.00000049,0.00000025,0.00000013,-0.000000
 13,0.00000005,-0.00000005,-0.00000044,0.00000031,-0.00000019,-0.000000
 11\\\@
 Job cpu time:       0 days  0 hours  1 minutes 59.7 seconds.
 File lengths (MBytes):  RWF=    609 Int=      0 D2E=      0 Chk=      4 Scr=      1
 Normal termination of Gaussian 09 at Sat Jun 26 11:31:43 2021.
