 Entering Gaussian System, Link 0=g16
 Initial command:
 /usr/local/g16/l1.exe "/gtmp/674019.zeus-master/Gau-3039837.inp" -scrdir="/gtmp/674019.zeus-master/"
 Entering Link 1 = /usr/local/g16/l1.exe PID=   3039857.
  
 Copyright (c) 1988-2019, Gaussian, Inc.  All Rights Reserved.
  
 This is part of the Gaussian(R) 16 program.  It is based on
 the Gaussian(R) 09 system (copyright 2009, Gaussian, Inc.),
 the Gaussian(R) 03 system (copyright 2003, Gaussian, Inc.),
 the Gaussian(R) 98 system (copyright 1998, Gaussian, Inc.),
 the Gaussian(R) 94 system (copyright 1995, Gaussian, Inc.),
 the Gaussian 92(TM) system (copyright 1992, Gaussian, Inc.),
 the Gaussian 90(TM) system (copyright 1990, Gaussian, Inc.),
 the Gaussian 88(TM) system (copyright 1988, Gaussian, Inc.),
 the Gaussian 86(TM) system (copyright 1986, Carnegie Mellon
 University), and the Gaussian 82(TM) system (copyright 1983,
 Carnegie Mellon University). Gaussian is a federally registered
 trademark of Gaussian, Inc.
  
 This software contains proprietary and confidential information,
 including trade secrets, belonging to Gaussian, Inc.
  
 This software is provided under written license and may be
 used, copied, transmitted, or stored only in accord with that
 written license.
  
 The following legend is applicable only to US Government
 contracts under FAR:
  
                    RESTRICTED RIGHTS LEGEND
  
 Use, reproduction and disclosure by the US Government is
 subject to restrictions as set forth in subparagraphs (a)
 and (c) of the Commercial Computer Software - Restricted
 Rights clause in FAR 52.227-19.
  
 Gaussian, Inc.
 340 Quinnipiac St., Bldg. 40, Wallingford CT 06492
  
  
 ---------------------------------------------------------------
 Warning -- This program may not be used in any manner that
 competes with the business of Gaussian, Inc. or will provide
 assistance to any competitor of Gaussian, Inc.  The licensee
 of this program is prohibited from giving any competitor of
 Gaussian, Inc. access to this program.  By using this program,
 the user acknowledges that Gaussian, Inc. is engaged in the
 business of creating and licensing software in the field of
 computational chemistry and represents and warrants to the
 licensee that it is not a competitor of Gaussian, Inc. and that
 it will not use this program in any manner prohibited above.
 ---------------------------------------------------------------
  

 Cite this work as:
 Gaussian 16, Revision C.01,
 M. J. Frisch, G. W. Trucks, H. B. Schlegel, G. E. Scuseria, 
 M. A. Robb, J. R. Cheeseman, G. Scalmani, V. Barone, 
 G. A. Petersson, H. Nakatsuji, X. Li, M. Caricato, A. V. Marenich, 
 J. Bloino, B. G. Janesko, R. Gomperts, B. Mennucci, H. P. Hratchian, 
 J. V. Ortiz, A. F. Izmaylov, J. L. Sonnenberg, D. Williams-Young, 
 F. Ding, F. Lipparini, F. Egidi, J. Goings, B. Peng, A. Petrone, 
 T. Henderson, D. Ranasinghe, V. G. Zakrzewski, J. Gao, N. Rega, 
 G. Zheng, W. Liang, M. Hada, M. Ehara, K. Toyota, R. Fukuda, 
 J. Hasegawa, M. Ishida, T. Nakajima, Y. Honda, O. Kitao, H. Nakai, 
 T. Vreven, K. Throssell, J. A. Montgomery, Jr., J. E. Peralta, 
 F. Ogliaro, M. J. Bearpark, J. J. Heyd, E. N. Brothers, K. N. Kudin, 
 V. N. Staroverov, T. A. Keith, R. Kobayashi, J. Normand, 
 K. Raghavachari, A. P. Rendell, J. C. Burant, S. S. Iyengar, 
 J. Tomasi, M. Cossi, J. M. Millam, M. Klene, C. Adamo, R. Cammi, 
 J. W. Ochterski, R. L. Martin, K. Morokuma, O. Farkas, 
 J. B. Foresman, and D. J. Fox, Gaussian, Inc., Wallingford CT, 2019.
 
 ******************************************
 Gaussian 16:  EM64L-G16RevC.01  3-Jul-2019
                12-Oct-2024 
 ******************************************
 %chk=check.chk
 %mem=25600mb
 %NProcShared=16
 Will use up to   16 processors via shared memory.
 ----------------------------------------------------------------------
 #P opt=(calcfc,maxcycle=100,maxstep=5,noeigentest,tight,ts) guess=mix 
 cbs-qb3 integral=(grid=ultrafine, Acc2E=12) IOp(2/9=2000) scf=(direct,
 tight)
 ----------------------------------------------------------------------
 1/5=1,6=100,7=10,8=5,10=4,11=1,18=20,26=4,38=1/1,3;
 2/9=2000,12=2,17=6,18=5,40=1/2;
 3/5=4,6=6,7=700,11=2,25=1,27=12,30=1,71=2,74=-5,75=-5,140=1/1,2,3;
 4/13=-1/1;
 5/5=2,32=2,38=5,87=12/2;
 8/6=4,10=90,11=11,87=12/1;
 11/6=1,8=1,9=11,15=111,16=1,87=12/1,2,10;
 10/6=1,13=1,87=12/2;
 6/7=2,8=2,9=2,10=2,28=1,87=12/1;
 7/10=1,25=1,87=12/1,2,3,16;
 1/5=1,6=100,7=10,8=5,10=4,11=1,18=20,26=4/3(2);
 2/9=2000/2;
 99//99;
 2/9=2000/2;
 3/5=4,6=6,7=700,11=2,25=1,27=12,30=1,71=1,74=-5,75=-5/1,2,3;
 4/5=5,16=3,69=1/1;
 5/5=2,32=2,38=5,87=12/2;
 7/87=12/1,2,3,16;
 1/5=1,6=100,7=10,8=5,11=1,18=20,26=4/3(-5);
 2/9=2000/2;
 6/7=2,8=2,9=2,10=2,19=2,28=1,87=12/1;
 99/9=1/99;
 Leave Link    1 at Sat Oct 12 10:08:18 2024, MaxMem=  3355443200 cpu:               1.0 elap:               0.1
 (Enter /usr/local/g16/l101.exe)
 ---
 TS6
 ---
 Symbolic Z-matrix:
 Charge =  0 Multiplicity = 2
 C                    -1.26317   0.24973   0. 
 H                    -1.87359   0.01998  -0.87951 
 H                    -1.04499   1.31826  -0.00002 
 H                    -1.87357   0.02      0.87953 
 C                    -0.00324  -0.57148   0. 
 H                    -0.1462   -1.6573    0. 
 C                     1.23089  -0.11643   0. 
 H                     1.43052   1.35463   0. 
 H                     1.53867   2.20642   0. 
 H                     2.18227  -0.63288   0. 
 
 Add virtual bond connecting atoms H8         and C7         Dist= 2.81D+00.
 ITRead=  0  0  0  0  0  0  0  0  0  0
 MicOpt= -1 -1 -1 -1 -1 -1 -1 -1 -1 -1
 NAtoms=     10 NQM=       10 NQMF=       0 NMMI=      0 NMMIF=      0
                NMic=       0 NMicF=      0.
                    Isotopes and Nuclear Properties:
 (Nuclear quadrupole moments (NQMom) in fm**2, nuclear magnetic moments (NMagM)
  in nuclear magnetons)

  Atom         1           2           3           4           5           6           7           8           9          10
 IAtWgt=          12           1           1           1          12           1          12           1           1           1
 AtmWgt=  12.0000000   1.0078250   1.0078250   1.0078250  12.0000000   1.0078250  12.0000000   1.0078250   1.0078250   1.0078250
 NucSpn=           0           1           1           1           0           1           0           1           1           1
 AtZEff=  -0.0000000  -0.0000000  -0.0000000  -0.0000000  -0.0000000  -0.0000000  -0.0000000  -0.0000000  -0.0000000  -0.0000000
 NQMom=    0.0000000   0.0000000   0.0000000   0.0000000   0.0000000   0.0000000   0.0000000   0.0000000   0.0000000   0.0000000
 NMagM=    0.0000000   2.7928460   2.7928460   2.7928460   0.0000000   2.7928460   0.0000000   2.7928460   2.7928460   2.7928460
 AtZNuc=   6.0000000   1.0000000   1.0000000   1.0000000   6.0000000   1.0000000   6.0000000   1.0000000   1.0000000   1.0000000
 Leave Link  101 at Sat Oct 12 10:08:18 2024, MaxMem=  3355443200 cpu:               2.9 elap:               0.2
 (Enter /usr/local/g16/l103.exe)

 GradGradGradGradGradGradGradGradGradGradGradGradGradGradGradGradGradGrad
 Berny optimization.
 Initialization pass.
                           ----------------------------
                           !    Initial Parameters    !
                           ! (Angstroms and Degrees)  !
 --------------------------                            --------------------------
 ! Name  Definition              Value          Derivative Info.                !
 --------------------------------------------------------------------------------
 ! R1    R(1,2)                  1.095          calculate D2E/DX2 analytically  !
 ! R2    R(1,3)                  1.0906         calculate D2E/DX2 analytically  !
 ! R3    R(1,4)                  1.095          calculate D2E/DX2 analytically  !
 ! R4    R(1,5)                  1.5039         calculate D2E/DX2 analytically  !
 ! R5    R(5,6)                  1.0952         calculate D2E/DX2 analytically  !
 ! R6    R(5,7)                  1.3153         calculate D2E/DX2 analytically  !
 ! R7    R(7,8)                  1.4846         calculate D2E/DX2 analytically  !
 ! R8    R(7,10)                 1.0825         calculate D2E/DX2 analytically  !
 ! R9    R(8,9)                  0.8586         calculate D2E/DX2 analytically  !
 ! A1    A(2,1,3)              108.4876         calculate D2E/DX2 analytically  !
 ! A2    A(2,1,4)              106.8821         calculate D2E/DX2 analytically  !
 ! A3    A(2,1,5)              110.6379         calculate D2E/DX2 analytically  !
 ! A4    A(3,1,4)              108.4875         calculate D2E/DX2 analytically  !
 ! A5    A(3,1,5)              111.5556         calculate D2E/DX2 analytically  !
 ! A6    A(4,1,5)              110.6379         calculate D2E/DX2 analytically  !
 ! A7    A(1,5,6)              115.5951         calculate D2E/DX2 analytically  !
 ! A8    A(1,5,7)              126.6642         calculate D2E/DX2 analytically  !
 ! A9    A(6,5,7)              117.7407         calculate D2E/DX2 analytically  !
 ! A10   A(5,7,8)              117.9682         calculate D2E/DX2 analytically  !
 ! A11   A(5,7,10)             131.2654         calculate D2E/DX2 analytically  !
 ! A12   A(8,7,10)             110.7664         calculate D2E/DX2 analytically  !
 ! A13   L(7,8,9,3,-1)         179.5076         calculate D2E/DX2 analytically  !
 ! A14   L(7,8,9,3,-2)         179.9999         calculate D2E/DX2 analytically  !
 ! D1    D(2,1,5,6)            -59.1282         calculate D2E/DX2 analytically  !
 ! D2    D(2,1,5,7)            120.8719         calculate D2E/DX2 analytically  !
 ! D3    D(3,1,5,6)           -179.9991         calculate D2E/DX2 analytically  !
 ! D4    D(3,1,5,7)              0.001          calculate D2E/DX2 analytically  !
 ! D5    D(4,1,5,6)             59.1301         calculate D2E/DX2 analytically  !
 ! D6    D(4,1,5,7)           -120.8698         calculate D2E/DX2 analytically  !
 ! D7    D(1,5,7,8)              0.0            calculate D2E/DX2 analytically  !
 ! D8    D(1,5,7,10)           179.9999         calculate D2E/DX2 analytically  !
 ! D9    D(6,5,7,8)           -179.9999         calculate D2E/DX2 analytically  !
 ! D10   D(6,5,7,10)             0.0            calculate D2E/DX2 analytically  !
 --------------------------------------------------------------------------------
 Trust Radius=5.00D-02 FncErr=1.00D-07 GrdErr=1.00D-06 EigMax=2.50D+02 EigMin=1.00D-04
 Number of steps in this run=    100 maximum allowed number of steps=    100.
 Search for a saddle point of order  1.
 GradGradGradGradGradGradGradGradGradGradGradGradGradGradGradGradGradGrad

 Leave Link  103 at Sat Oct 12 10:08:18 2024, MaxMem=  3355443200 cpu:               0.1 elap:               0.0
 (Enter /usr/local/g16/l202.exe)
                          Input orientation:                          
 ---------------------------------------------------------------------
 Center     Atomic      Atomic             Coordinates (Angstroms)
 Number     Number       Type             X           Y           Z
 ---------------------------------------------------------------------
      1          6           0       -1.263167    0.249728    0.000000
      2          1           0       -1.873585    0.019978   -0.879508
      3          1           0       -1.044990    1.318256   -0.000017
      4          1           0       -1.873568    0.020004    0.879527
      5          6           0       -0.003237   -0.571480    0.000000
      6          1           0       -0.146203   -1.657301    0.000001
      7          6           0        1.230885   -0.116434    0.000000
      8          1           0        1.430520    1.354633    0.000000
      9          1           0        1.538667    2.206418    0.000001
     10          1           0        2.182268   -0.632878    0.000001
 ---------------------------------------------------------------------
                    Distance matrix (angstroms):
                    1          2          3          4          5
     1  C    0.000000
     2  H    1.094956   0.000000
     3  H    1.090575   1.773584   0.000000
     4  H    1.094957   1.759035   1.773583   0.000000
     5  C    1.503930   2.149781   2.157858   2.149781   0.000000
     6  H    2.210061   2.563328   3.108337   2.563339   1.095192
     7  C    2.520788   3.229532   2.690342   3.229522   1.315342
     8  H    2.911488   3.670415   2.475777   3.670395   2.401160
     9  H    3.417442   4.146989   2.732053   4.146965   3.177135
    10  H    3.556686   4.201155   3.771222   4.201146   2.186367
                    6          7          8          9         10
     6  H    0.000000
     7  C    2.066553   0.000000
     8  H    3.399677   1.484551   0.000000
     9  H    4.215105   2.343154   0.858623   0.000000
    10  H    2.543859   1.082517   2.124929   2.911327   0.000000
 Stoichiometry    C3H7(2)
 Framework group  C1[X(C3H7)]
 Deg. of freedom    24
 Full point group                 C1      NOp   1
 Largest Abelian subgroup         C1      NOp   1
 Largest concise Abelian subgroup C1      NOp   1
                         Standard orientation:                         
 ---------------------------------------------------------------------
 Center     Atomic      Atomic             Coordinates (Angstroms)
 Number     Number       Type             X           Y           Z
 ---------------------------------------------------------------------
      1          6           0       -1.263167    0.249728   -0.000000
      2          1           0       -1.873585    0.019978   -0.879508
      3          1           0       -1.044990    1.318256   -0.000017
      4          1           0       -1.873568    0.020004    0.879527
      5          6           0       -0.003237   -0.571480   -0.000000
      6          1           0       -0.146203   -1.657301    0.000001
      7          6           0        1.230885   -0.116434   -0.000000
      8          1           0        1.430520    1.354633   -0.000000
      9          1           0        1.538667    2.206418    0.000001
     10          1           0        2.182268   -0.632878    0.000001
 ---------------------------------------------------------------------
 Rotational constants (GHZ):          28.5240397           8.9407546           7.1055490
 Leave Link  202 at Sat Oct 12 10:08:18 2024, MaxMem=  3355443200 cpu:               0.0 elap:               0.0
 (Enter /usr/local/g16/l301.exe)
 Standard basis: 6-311G(2d,d,p) (5D, 7F)
 Ernie: Thresh=  0.10000D-02 Tol=  0.10000D-05 Strict=F.
 There are    99 symmetry adapted cartesian basis functions of A   symmetry.
 There are    96 symmetry adapted basis functions of A   symmetry.
    96 basis functions,   152 primitive gaussians,    99 cartesian basis functions
    13 alpha electrons       12 beta electrons
       nuclear repulsion energy        74.3354474268 Hartrees.
 IExCor=  402 DFT=T Ex+Corr=B3LYP ExCW=0 ScaHFX=  0.200000
 ScaDFX=  0.800000  0.720000  1.000000  0.810000 ScalE2=  1.000000  1.000000
 IRadAn=      5 IRanWt=     -1 IRanGd=            0 ICorTp=0 IEmpDi=  4
 NAtoms=   10 NActive=   10 NUniq=   10 SFac= 1.00D+00 NAtFMM=   60 NAOKFM=F Big=F
 Integral buffers will be    131072 words long.
 Raffenetti 2 integral format.
 Two-electron integral symmetry is turned on.
 Leave Link  301 at Sat Oct 12 10:08:18 2024, MaxMem=  3355443200 cpu:               0.2 elap:               0.0
 (Enter /usr/local/g16/l302.exe)
              Baa    -0.0037    -1.960    -0.699    -0.654  0.3861  0.1261  0.9138
     4 H(1)   Bbb    -0.0031    -1.629    -0.581    -0.543 -0.1308  0.9881 -0.0811
              Bcc     0.0067     3.589     1.281     1.197  0.9131  0.0882 -0.3980
 
              Baa    -0.1199   -16.091    -5.742    -5.367  0.0000  0.0000  1.0000
     5 C(13)  Bbb     0.0119     1.591     0.568     0.531 -0.4668  0.8844 -0.0000
              Bcc     0.1081    14.499     5.174     4.836  0.8844  0.4668 -0.0000
 
              Baa    -0.0084    -4.459    -1.591    -1.487  0.0000 -0.0000  1.0000
     6 H(1)   Bbb    -0.0022    -1.152    -0.411    -0.384 -0.5704  0.8214  0.0000
              Bcc     0.0105     5.611     2.002     1.872  0.8214  0.5704  0.0000
 
              Baa    -0.4464   -59.907   -21.376   -19.983  0.9934 -0.1148  0.0000
     7 C(13)  Bbb    -0.3149   -42.260   -15.080   -14.097 -0.0000  0.0000  1.0000
              Bcc     0.7614   102.167    36.456    34.079  0.1148  0.9934 -0.0000
 
              Baa    -0.1087   -58.020   -20.703   -19.353  0.9914 -0.1312  0.0000
     8 H(1)   Bbb    -0.1056   -56.364   -20.112   -18.801 -0.0000 -0.0000  1.0000
              Bcc     0.2144   114.384    40.815    38.154  0.1312  0.9914  0.0000
 
              Baa    -0.0005    -0.282    -0.101    -0.094  0.4748  0.8801  0.0000
     9 H(1)   Bbb     0.0002     0.113     0.040     0.038  0.8801 -0.4748 -0.0000
              Bcc     0.0003     0.168     0.060     0.056  0.0000 -0.0000  1.0000
 
              Baa    -0.0442   -23.581    -8.414    -7.866 -0.0000  0.0000  1.0000
    10 H(1)   Bbb    -0.0136    -7.278    -2.597    -2.428  0.4875  0.8731  0.0000
              Bcc     0.0578    30.859    11.011    10.293  0.8731 -0.4875  0.0000
 

 ---------------------------------------------------------------------------------

 No NMR shielding tensors so no spin-rotation constants.
 Leave Link  601 at Sat Oct 12 10:09:04 2024, MaxMem=  3355443200 cpu:               2.3 elap:               0.2
 (Enter /usr/local/g16/l701.exe)
 ... and contract with generalized density number  0.
 Compute integral second derivatives.
 Leave Link  701 at Sat Oct 12 10:09:04 2024, MaxMem=  3355443200 cpu:               3.7 elap:               0.2
 (Enter /usr/local/g16/l702.exe)
 L702 exits ... SP integral derivatives will be done elsewhere.
 Leave Link  702 at Sat Oct 12 10:09:04 2024, MaxMem=  3355443200 cpu:               0.1 elap:               0.0
 (Enter /usr/local/g16/l703.exe)
 Integral derivatives from FoFJK, PRISM(SPDF).
 Compute integral second derivatives, UseDBF=F ICtDFT=           0.
 Calling FoFJK, ICntrl=    100127 FMM=F ISym2X=0 I1Cent= 0 IOpClX= 1 NMat=1 NMatS=1 NMatT=0.
 FoFJK:  IHMeth= 1 ICntrl=  100127 DoSepK=F KAlg= 0 I1Cent=           0 FoldK=F
 IRaf=         0 NMat=       1 IRICut=       1 DoRegI=T DoRafI=F ISym2E= 0 IDoP0=0 IntGTp=1.
 FoFCou: FMM=F IPFlag=           0 FMFlag=      100000 FMFlg1=         800
         NFxFlg=           0 DoJE=F BraDBF=F KetDBF=F FulRan=T
         wScrn=  0.000000 ICntrl=    100127 IOpCl=  1 I1Cent=           0 NGrid=           0
         NMat0=    1 NMatS0=      1 NMatT0=    0 NMatD0=    1 NMtDS0=    0 NMtDT0=    0
 Symmetry not used in FoFCou.
 Leave Link  703 at Sat Oct 12 10:09:11 2024, MaxMem=  3355443200 cpu:             107.9 elap:               6.8
 (Enter /usr/local/g16/l716.exe)
 Dipole        =-2.56870566D-01-3.64890946D-01 1.21873131D-06
 Polarizability= 5.11110598D+01 8.28731846D+00 5.23582509D+01
                -8.62715054D-06 1.12596684D-05 2.34967221D+01
 Full mass-weighted force constant matrix:
 Low frequencies --- -913.6276   -7.2795   -3.6477   -0.0005   -0.0005    0.0003
 Low frequencies ---   10.9964  176.8471  249.0053
 ******    1 imaginary frequencies (negative Signs) ****** 
 Diagonal vibrational polarizability:
        1.9407366       1.0321876       4.1707578
 Harmonic frequencies (cm**-1), IR intensities (KM/Mole), Raman scattering
 activities (A**4/AMU), depolarization ratios for plane and unpolarized
 incident light, reduced masses (AMU), force constants (mDyne/A),
 and normal coordinates:
                      1                      2                      3
                      A                      A                      A
 Frequencies --   -913.6276               176.8466               249.0051
 Red. masses --      1.1310                 1.0200                 1.7328
 Frc consts  --      0.5562                 0.0188                 0.0633
 IR Inten    --      7.7498                 0.0757                 0.1050
  Atom  AN      X      Y      Z        X      Y      Z        X      Y      Z
     1   6    -0.00   0.00  -0.00     0.00  -0.00   0.01    -0.00  -0.00  -0.05
     2   1     0.00   0.00  -0.00     0.26   0.37  -0.27     0.21   0.02  -0.20
     3   1    -0.00   0.00  -0.00     0.00   0.00   0.51    -0.00  -0.00   0.01
     4   1     0.00   0.00   0.00    -0.26  -0.37  -0.27    -0.21  -0.02  -0.20
     5   6    -0.01  -0.01   0.00    -0.00   0.00   0.03    -0.00   0.00   0.17
     6   1    -0.04  -0.02   0.00    -0.00   0.00   0.03     0.00   0.00   0.50
     7   6    -0.01  -0.10  -0.00    -0.00  -0.00   0.01    -0.00   0.00  -0.19
     8   1     0.13   0.92   0.00     0.00   0.00  -0.19     0.00  -0.00   0.16
     9   1     0.05   0.34   0.00     0.00   0.00  -0.38     0.00  -0.00   0.69
    10   1     0.07   0.06  -0.00    -0.00  -0.00  -0.02    -0.00  -0.00  -0.13
                      4                      5                      6
                      A                      A                      A
 Frequencies --    250.4739               479.2246               616.2607
 Red. masses --      1.1558                 2.2504                 1.1137
 Frc consts  --      0.0427                 0.3045                 0.2492
 IR Inten    --      2.7530                 2.6363                50.7861
  Atom  AN      X      Y      Z        X      Y      Z        X      Y      Z
     1   6    -0.07  -0.06   0.00    -0.13  -0.01  -0.00     0.00  -0.00   0.00
     2   1    -0.05  -0.13   0.00    -0.06  -0.24   0.01    -0.18   0.15   0.09
     3   1    -0.18  -0.04  -0.00    -0.51   0.07  -0.00    -0.00   0.00   0.18
     4   1    -0.05  -0.13  -0.00    -0.06  -0.24  -0.01     0.18  -0.15   0.09
     5   6    -0.01   0.04  -0.00     0.04   0.21  -0.00    -0.00   0.00  -0.09
     6   1     0.05   0.04  -0.00    -0.04   0.22  -0.00    -0.00   0.00   0.44
     7   6    -0.00   0.05   0.00     0.17  -0.13   0.00     0.00  -0.00  -0.05
     8   1     0.38  -0.00  -0.00     0.13  -0.09  -0.00     0.00   0.00  -0.17
     9   1     0.87  -0.06  -0.00    -0.43  -0.04  -0.00    -0.00  -0.00   0.13
    10   1    -0.04  -0.02   0.00    -0.01  -0.49  -0.00    -0.00  -0.00   0.77
                      7                      8                      9
                      A                      A                      A
 Frequencies --    875.6831               889.2947               932.9826
 Red. masses --      1.1853                 1.3988                 1.5544
 Frc consts  --      0.5355                 0.6518                 0.7972
 IR Inten    --      0.0437                 1.6611                 5.2128
  Atom  AN      X      Y      Z        X      Y      Z        X      Y      Z
     1   6     0.00  -0.00  -0.03    -0.11   0.08  -0.00     0.18  -0.00  -0.00
     2   1    -0.15   0.11   0.05    -0.09   0.01   0.01     0.26  -0.41   0.04
     3   1    -0.00   0.00   0.07    -0.23   0.11   0.00    -0.35   0.09  -0.00
     4   1     0.15  -0.11   0.05    -0.09   0.01  -0.01     0.26  -0.41  -0.04
     5   6    -0.00   0.00  -0.09     0.05  -0.06  -0.00    -0.06   0.08   0.00
     6   1    -0.00   0.00   0.73    -0.16  -0.03   0.00    -0.43   0.13  -0.00
     7   6    -0.00  -0.00   0.08     0.08  -0.07   0.00    -0.08  -0.04   0.00
     8   1    -0.00  -0.00   0.21    -0.34  -0.08  -0.00    -0.30  -0.01  -0.00
     9   1     0.00  -0.00  -0.06     0.18  -0.15   0.00     0.14  -0.08   0.00
    10   1    -0.00  -0.00  -0.57     0.47   0.67  -0.00     0.02   0.19  -0.00
                     10                     11                     12
                      A                      A                      A
 Frequencies --    934.5474              1065.9856              1095.8291
 Red. masses --      1.0648                 1.5003                 1.1652
 Frc consts  --      0.5479                 1.0045                 0.8244
 IR Inten    --      8.4278                 1.2027                 0.4914
  Atom  AN      X      Y      Z        X      Y      Z        X      Y      Z
     1   6     0.00  -0.00   0.00    -0.00  -0.00  -0.15     0.01   0.06   0.00
     2   1     0.02  -0.01  -0.01    -0.54   0.25   0.17     0.03  -0.14   0.04
     3   1    -0.00   0.00  -0.01    -0.00   0.00   0.32    -0.27   0.12  -0.00
     4   1    -0.02   0.01  -0.01     0.54  -0.25   0.17     0.03  -0.14  -0.04
     5   6    -0.00   0.00   0.01     0.00  -0.00   0.14     0.00  -0.09  -0.00
     6   1    -0.00   0.00   0.02    -0.00  -0.00  -0.28    -0.20  -0.06   0.00
     7   6    -0.00  -0.00  -0.07     0.00   0.00  -0.02    -0.02   0.04  -0.00
     8   1    -0.00  -0.00   0.86     0.00  -0.00   0.03     0.81  -0.11   0.00
     9   1     0.00  -0.00  -0.44    -0.00   0.00  -0.01    -0.32   0.05  -0.00
    10   1     0.00   0.00   0.23     0.00   0.00  -0.11     0.07   0.20   0.00
                     13                     14                     15
                      A                      A                      A
 Frequencies --   1148.7242              1281.8493              1409.3307
 Red. masses --      1.5503                 1.2086                 1.2376
 Frc consts  --      1.2053                 1.1701                 1.4483
 IR Inten    --      1.5967                10.1599                 2.9151
  Atom  AN      X      Y      Z        X      Y      Z        X      Y      Z
     1   6     0.01  -0.13   0.00     0.02   0.05  -0.00    -0.12   0.07   0.00
     2   1     0.01   0.16  -0.07     0.06  -0.12   0.02     0.42  -0.33  -0.25
     3   1     0.50  -0.23   0.00    -0.11   0.08  -0.00     0.52  -0.07  -0.00
     4   1     0.01   0.16   0.07     0.06  -0.12  -0.02     0.42  -0.33   0.25
     5   6    -0.08   0.15  -0.00    -0.02   0.04   0.00     0.01  -0.01   0.00
     6   1    -0.15   0.15  -0.00     0.92  -0.09   0.00    -0.04  -0.01  -0.00
     7   6    -0.01  -0.06   0.00    -0.08  -0.08   0.00     0.00   0.01  -0.00
     8   1     0.37  -0.14   0.00     0.07  -0.06   0.00    -0.01   0.00  -0.00
     9   1    -0.15  -0.10  -0.00    -0.04  -0.11  -0.00     0.01   0.01   0.00
    10   1     0.29   0.52  -0.00     0.06   0.21   0.00    -0.02  -0.04  -0.00
                     16                     17                     18
                      A                      A                      A
 Frequencies --   1484.1438              1486.6605              1673.9372
 Red. masses --      1.0442                 1.0651                 5.3900
 Frc consts  --      1.3552                 1.3870                 8.8985
 IR Inten    --      8.8994                11.4258                 4.9972
  Atom  AN      X      Y      Z        X      Y      Z        X      Y      Z
     1   6    -0.00   0.00  -0.05     0.02   0.05  -0.00    -0.06   0.01  -0.00
     2   1     0.06  -0.49   0.05    -0.37  -0.36   0.36    -0.23   0.01   0.12
     3   1     0.00   0.00   0.72     0.44  -0.06  -0.00     0.22  -0.05  -0.00
     4   1    -0.06   0.49   0.05    -0.37  -0.36  -0.36    -0.23   0.01  -0.12
     5   6    -0.00  -0.00  -0.02    -0.03   0.00  -0.00     0.50   0.10  -0.00
     6   1    -0.00  -0.00   0.04    -0.01  -0.00  -0.00    -0.34   0.23  -0.00
     7   6     0.00   0.00   0.00     0.03   0.01   0.00    -0.36  -0.11   0.00
     8   1    -0.00   0.00   0.01    -0.02   0.00  -0.00     0.09  -0.00   0.00
     9   1     0.00   0.00  -0.00     0.01   0.03   0.00    -0.07  -0.29  -0.00
    10   1    -0.00  -0.00   0.00     0.03  -0.01   0.00    -0.38   0.09  -0.00
                     19                     20                     21
                      A                      A                      A
 Frequencies --   2255.4471              3020.9008              3035.7537
 Red. masses --      1.0487                 1.0384                 1.0815
 Frc consts  --      3.1431                 5.5832                 5.8722
 IR Inten    --     78.3708                23.5960                14.1185
  Atom  AN      X      Y      Z        X      Y      Z        X      Y      Z
     1   6    -0.00  -0.00   0.00     0.05  -0.01  -0.00    -0.00   0.01   0.00
     2   1    -0.00   0.00   0.00    -0.35  -0.14  -0.53     0.04   0.01   0.05
     3   1    -0.01   0.00  -0.00     0.09   0.37  -0.00    -0.03  -0.16   0.00
     4   1    -0.00   0.00  -0.00    -0.35  -0.14   0.53     0.04   0.01  -0.05
     5   6     0.02   0.01  -0.00    -0.00  -0.01  -0.00    -0.01  -0.08   0.00
     6   1     0.00   0.03   0.00     0.02   0.14  -0.00     0.13   0.97  -0.00
     7   6    -0.02  -0.05  -0.00    -0.00  -0.00   0.00    -0.00   0.00  -0.00
     8   1    -0.04  -0.41  -0.00     0.00   0.00  -0.00     0.00   0.02   0.00
     9   1     0.11   0.90   0.00    -0.00  -0.00  -0.00    -0.00  -0.01  -0.00
    10   1     0.02   0.04  -0.00     0.00   0.00  -0.00     0.07  -0.03   0.00
                     22                     23                     24
                      A                      A                      A
 Frequencies --   3066.4348              3117.3515              3202.2337
 Red. masses --      1.0998                 1.0999                 1.1000
 Frc consts  --      6.0928                 6.2977                 6.6460
 IR Inten    --     21.9845                16.7605                 2.7194
  Atom  AN      X      Y      Z        X      Y      Z        X      Y      Z
     1   6    -0.00   0.00  -0.09    -0.04  -0.08  -0.00     0.00   0.00  -0.00
     2   1     0.40   0.16   0.56     0.14   0.04   0.22    -0.01  -0.00  -0.01
     3   1    -0.00  -0.00  -0.02     0.19   0.90  -0.00     0.00  -0.01   0.00
     4   1    -0.40  -0.16   0.56     0.14   0.04  -0.22    -0.01  -0.00   0.01
     5   6     0.00  -0.00  -0.00    -0.00  -0.01   0.00     0.01   0.01  -0.00
     6   1     0.00   0.00   0.00     0.01   0.11   0.00    -0.01  -0.07   0.00
     7   6    -0.00   0.00  -0.00    -0.00   0.00  -0.00    -0.08   0.03  -0.00
     8   1    -0.00  -0.00  -0.00     0.00   0.00   0.00    -0.00  -0.00  -0.00
     9   1     0.00   0.00   0.00    -0.00  -0.00   0.00     0.00  -0.00   0.00
    10   1     0.00  -0.00  -0.00     0.02  -0.01  -0.00     0.88  -0.46   0.00

 -------------------
 - Thermochemistry -
 -------------------
 Temperature   298.150 Kelvin.  Pressure   1.00000 Atm.
 Atom     1 has atomic number  6 and mass  12.00000
 Atom     2 has atomic number  1 and mass   1.00783
 Atom     3 has atomic number  1 and mass   1.00783
 Atom     4 has atomic number  1 and mass   1.00783
 Atom     5 has atomic number  6 and mass  12.00000
 Atom     6 has atomic number  1 and mass   1.00783
 Atom     7 has atomic number  6 and mass  12.00000
 Atom     8 has atomic number  1 and mass   1.00783
 Atom     9 has atomic number  1 and mass   1.00783
 Atom    10 has atomic number  1 and mass   1.00783
 Molecular mass:    43.05478 amu.
 Principal axes and moments of inertia in atomic units:
                           1         2         3
     Eigenvalues --    63.27088 201.85558 253.99040
           X            0.99750   0.07060  -0.00000
           Y           -0.07060   0.99750  -0.00000
           Z            0.00000   0.00000   1.00000
 This molecule is an asymmetric top.
 Rotational symmetry number  1.
 Rotational temperatures (Kelvin)      1.36894     0.42909     0.34101
 Rotational constants (GHZ):          28.52404     8.94075     7.10555
    1 imaginary frequencies ignored.
 Zero-point vibrational energy     201863.3 (Joules/Mol)
                                   48.24648 (Kcal/Mol)
 Warning -- explicit consideration of   5 degrees of freedom as
           vibrations may cause significant error
 Vibrational temperatures:    254.44   358.26   360.38   689.50   886.66
          (Kelvin)           1259.91  1279.50  1342.35  1344.61  1533.72
                             1576.65  1652.76  1844.30  2027.71  2135.35
                             2138.97  2408.42  3245.09  4346.40  4367.77
                             4411.92  4485.17  4607.30
 
 Zero-point correction=                           0.076886 (Hartree/Particle)
 Thermal correction to Energy=                    0.081998
 Thermal correction to Enthalpy=                  0.082942
 Thermal correction to Gibbs Free Energy=         0.050134
 Sum of electronic and zero-point Energies=           -118.350446
 Sum of electronic and thermal Energies=              -118.345334
 Sum of electronic and thermal Enthalpies=            -118.344390
 Sum of electronic and thermal Free Energies=         -118.377198
 
                     E (Thermal)             CV                S
                      KCal/Mol        Cal/Mol-Kelvin    Cal/Mol-Kelvin
 Total                   51.455             16.910             69.051
 Electronic               0.000              0.000              1.377
 Translational            0.889              2.981             37.206
 Rotational               0.889              2.981             22.699
 Vibrational             49.677             10.948              7.769
 Vibration     1          0.628              1.871              2.361
 Vibration     2          0.662              1.764              1.738
 Vibration     3          0.663              1.762              1.727
 Vibration     4          0.836              1.296              0.712
 Vibration     5          0.976              0.998              0.423
                       Q            Log10(Q)             Ln(Q)
 Total Bot       0.871201D-23        -23.059881        -53.097339
 Total V=0       0.201852D+13         12.305033         28.333385
 Vib (Bot)       0.192409D-34        -34.715774        -79.936023
 Vib (Bot)    1  0.113696D+01          0.055745          0.128357
 Vib (Bot)    2  0.784174D+00         -0.105588         -0.243125
 Vib (Bot)    3  0.779034D+00         -0.108444         -0.249701
 Vib (Bot)    4  0.349226D+00         -0.456894         -1.052037
 Vib (Bot)    5  0.238239D+00         -0.622988         -1.434482
 Vib (V=0)       0.445800D+01          0.649140          1.494701
 Vib (V=0)    1  0.174204D+01          0.241059          0.555059
 Vib (V=0)    2  0.143002D+01          0.155341          0.357685
 Vib (V=0)    3  0.142569D+01          0.154024          0.354653
 Vib (V=0)    4  0.110988D+01          0.045278          0.104256
 Vib (V=0)    5  0.105386D+01          0.022782          0.052457
 Electronic      0.200000D+01          0.301030          0.693147
 Translational   0.111042D+08          7.045486         16.222831
 Rotational      0.203881D+05          4.309377          9.922706
 
                                                                 TS6
                                                             IR Spectrum
 
     3   3 333                             2                      1      11  1    1    1 11                                          
     2   1 000                             2                      6      44  4    2    1 00   99 88         6    4        22 1       
     0   1 632                             5                      7      88  0    8    4 96   33 87         1    7        54 7       
     2   7 661                             5                      4      74  9    2    9 66   53 96         6    9        09 7       
 
     X   X XXX                             X                      X      XX  X    X    X XX   XX X          X    X        XX X       
         X XXX                             X                             XX       X           X             X                        
         X XXX                             X                             X        X                         X                        
         X XXX                             X                                                                X                        
           X X                             X                                                                X                        
           X X                             X                                                                X                        
                                           X                                                                X                        
                                           X                                                                X                        
                                           X                                                                X                        
                                           X                                                                X                        
                                           X                                                                X                        
                                           X                                                                X                        
                                           X                                                                X                        
                                           X                                                                                         
                                           X                                                                                         
                                           X                                                                                         
                                           X                                                                                         
                                           X                                                                                         
                                           X                                                                                         
                                           X                                                                                         
 
 ***** Axes restored to original set *****
 -------------------------------------------------------------------
 Center     Atomic                   Forces (Hartrees/Bohr)
 Number     Number              X              Y              Z
 -------------------------------------------------------------------
      1        6           0.000000518    0.000000547    0.000000132
      2        1          -0.000000325    0.000000254   -0.000000441
      3        1           0.000000097    0.000000025   -0.000000011
      4        1          -0.000000290    0.000000160    0.000000309
      5        6          -0.000000591   -0.000000080    0.000000027
      6        1          -0.000000401   -0.000000218    0.000000026
      7        6           0.000000500    0.000000007   -0.000000029
      8        1           0.000000347   -0.000000771   -0.000000001
      9        1           0.000000453    0.000000217   -0.000000013
     10        1          -0.000000308   -0.000000141    0.000000001
 -------------------------------------------------------------------
 Cartesian Forces:  Max     0.000000771 RMS     0.000000319
 Force constants in Cartesian coordinates: 
                1             2             3             4             5 
      1  0.493216D+00
      2  0.429377D-01  0.554651D+00
      3  0.000000D+00  0.000000D+00  0.525473D+00
      4 -0.119475D+00 -0.316841D-01 -0.115929D+00  0.134655D+00
      5 -0.298373D-01 -0.605315D-01 -0.446588D-01  0.312660D-01  0.602978D-01
      6 -0.114709D+00 -0.456875D-01 -0.212139D+00  0.126015D+00  0.501263D-01
      7 -0.596653D-01 -0.577514D-01  0.000000D+00 -0.404032D-02 -0.165721D-01
      8 -0.543353D-01 -0.302442D+00  0.410672D-05 -0.125718D-02 -0.503618D-02
      9  0.000000D+00  0.418844D-05 -0.478811D-01 -0.473368D-02 -0.261138D-01
     10 -0.119470D+00 -0.316798D-01  0.115927D+00  0.105572D-01  0.410002D-02
     11 -0.298329D-01 -0.605287D-01  0.446546D-01  0.410032D-02  0.935983D-03
     12  0.114707D+00  0.456836D-01 -0.212145D+00  0.144002D-01  0.617542D-02
     13 -0.160902D+00  0.607534D-01  0.000000D+00 -0.212674D-01  0.103407D-01
     14  0.618239D-01 -0.125492D+00  0.000000D+00 -0.586640D-02  0.474379D-02
     15  0.000000D+00  0.000000D+00 -0.696625D-01 -0.215815D-01  0.160188D-01
     16  0.403774D-02  0.265611D-01  0.000000D+00  0.869257D-03 -0.772554D-03
     17 -0.285107D-02 -0.161121D-01  0.000000D+00  0.115543D-03  0.408300D-03
     18  0.000000D+00  0.000000D+00  0.593016D-02  0.115306D-02 -0.574213D-03
     19 -0.368742D-01 -0.456365D-02  0.000000D+00 -0.469279D-03  0.125715D-02
     20  0.985274D-02  0.125682D-01  0.000000D+00  0.357290D-02 -0.131937D-02
     21  0.000000D+00  0.000000D+00  0.137447D-02 -0.827860D-03  0.897482D-04
     22  0.168665D-03 -0.166493D-02  0.000000D+00 -0.574844D-04  0.248972D-04
     23  0.331682D-02 -0.133347D-02  0.000000D+00  0.547509D-04 -0.161890D-03
     24  0.000000D+00  0.000000D+00 -0.251800D-02 -0.473002D-03 -0.108637D-03
     25 -0.243711D-03  0.544406D-03  0.000000D+00  0.553984D-05 -0.646391D-04
     26 -0.647746D-03  0.968512D-03  0.000000D+00 -0.550668D-04  0.234052D-03
     27  0.000000D+00  0.000000D+00 -0.600031D-04 -0.405536D-04 -0.142902D-05
     28 -0.793292D-03 -0.345260D-02  0.000000D+00 -0.777930D-03  0.257889D-03
     6  H    0.004565  -0.009900   0.001168  -0.002379
     7  C    1.696447  -0.040668  -0.183226  -0.017031
     8  H   -0.040668  -0.377751   0.088865   0.027796
     9  H   -0.183226   0.088865   0.544808  -0.000503
    10  H   -0.017031   0.027796  -0.000503  -0.024563
 Mulliken charges and spin densities:
               1          2
     1  C   -0.199922   0.079352
     2  H    0.046614  -0.018046
     3  H    0.073480  -0.004351
     4  H    0.046613  -0.018047
     5  C    0.120390  -0.587334
     6  H    0.121997   0.087095
     7  C   -0.188603   1.274028
     8  H   -0.123147  -0.284275
     9  H   -0.007856   0.490149
    10  H    0.110436  -0.018571
 Sum of Mulliken charges =  -0.00000   1.00000
 Mulliken charges and spin densities with hydrogens summed into heavy atoms:
               1          2
     1  C   -0.033216   0.038908
     5  C    0.242387  -0.500239
     7  C   -0.209171   1.461331
 Electronic spatial extent (au):  <R**2>=            232.9756
 Charge=             -0.0000 electrons
 Dipole moment (field-independent basis, Debye):
    X=             -0.6136    Y=             -0.9296    Z=              0.0000  Tot=              1.1139
 Quadrupole moment (field-independent basis, Debye-Ang):
   XX=            -20.3809   YY=            -22.1414   ZZ=            -23.3506
   XY=             -1.3299   XZ=              0.0000   YZ=             -0.0000
 Traceless Quadrupole moment (field-independent basis, Debye-Ang):
   XX=              1.5767   YY=             -0.1837   ZZ=             -1.3930
   XY=             -1.3299   XZ=              0.0000   YZ=             -0.0000
 Octapole moment (field-independent basis, Debye-Ang**2):
  XXX=             -0.2883  YYY=             -6.6119  ZZZ=              0.0000  XYY=             -3.2142
  XXY=             -4.5626  XXZ=             -0.0000  XZZ=             -3.5555  YZZ=             -0.7171
  YYZ=             -0.0000  XYZ=             -0.0000
 Hexadecapole moment (field-independent basis, Debye-Ang**3):
 XXXX=           -199.4511 YYYY=           -104.3531 ZZZZ=            -34.0437 XXXY=            -11.9130
 XXXZ=              0.0001 YYYX=             -9.1782 YYYZ=             -0.0000 ZZZX=             -0.0001
 ZZZY=              0.0000 XXYY=            -55.7680 XXZZ=            -40.3223 YYZZ=            -24.6117
 XXYZ=              0.0000 YYXZ=              0.0000 ZZXY=             -0.9811
 N-N= 7.433544742679D+01 E-N=-4.215332060945D+02  KE= 1.175161651188D+02
 Leave Link  601 at Sat Oct 12 10:09:50 2024, MaxMem=  3355443200 cpu:               0.3 elap:               0.0
 (Enter /usr/local/g16/l9999.exe)

 Test job not archived.
 1\1\GINC-N132\SP\UMP2-FC\CBSB3\C3H7(2)\ALON\12-Oct-2024\0\\#P Geom=All
 Check Guess=TCheck SCRF=Check Test MP2/CBSB3 CBSExtrap=(NMin=10,MinPop
 )\\TS6\\0,2\C,0,-1.263167,0.249728,0.\H,0,-1.873585,0.019978,-0.879508
 \H,0,-1.04499,1.318256,-0.000017\H,0,-1.873568,0.020004,0.879527\C,0,-
 0.003237,-0.57148,0.\H,0,-0.146203,-1.657301,0.000001\C,0,1.230885,-0.
 116434,0.\H,0,1.43052,1.354633,0.\H,0,1.538667,2.206418,0.000001\H,0,2
 .182268,-0.632878,0.000001\\Version=EM64L-G16RevC.01\State=2-A\HF=-117
 .5736526\MP2=-118.0677762\E2(CBS)=-0.544095\CBS-Int=-0.5263503\OIii=4.
 5611247\PUHF=-117.588689\PMP2-0=-118.0807773\S2=0.942386\S2-1=0.887903
 \S2A=0.76494\RMSD=5.260e-09\PG=C01 [X(C3H7)]\\@


 IT'S WHAT A FELLER THINKS HE KNOWS THAT HURTS HIM...
                    ------
           KIN HUBBARD
 Diagonal vibrational polarizability:
        0.0000000       0.0000000       0.0000000
    1 imaginary frequencies ignored.

 Complete Basis Set (CBS) Extrapolation:
 M. R. Nyden and G. A. Petersson, JCP 75, 1843 (1981)
 G. A. Petersson and M. A. Al-Laham, JCP 94, 6081 (1991)
 G. A. Petersson, T. Tensfeldt, and J. A. Montgomery, JCP 94, 6091 (1991)
 J. A. Montgomery, J. W. Ochterski, and G. A. Petersson, JCP 101, 5900 (1994)

 Temperature=               298.150000 Pressure=                       1.000000
 E(ZPE)=                      0.076117 E(Thermal)=                     0.081259
 E(SCF)=                   -117.573653 DE(MP2)=                       -0.494124
 DE(CBS)=                    -0.049971 DE(MP34)=                      -0.048350
 DE(CCSD)=                   -0.022427 DE(Int)=                        0.017745
 DE(Empirical)=              -0.028244
 CBS-QB3 (0 K)=            -118.122907 CBS-QB3 Energy=              -118.117765
 CBS-QB3 Enthalpy=         -118.116821 CBS-QB3 Free Energy=         -118.149682

 Test job not archived.
 1\1\GINC-N132\Mixed\CBS-QB3\CBS-QB3\C3H7(2)\ALON\12-Oct-2024\0\\#P opt
 =(calcfc,maxcycle=100,maxstep=5,noeigentest,tight,ts) guess=mix cbs-qb
 3 integral=(grid=ultrafine, Acc2E=12) IOp(2/9=2000) scf=(direct,tight)
 \\TS6\\0,2\C,0,-1.263167,0.249728,0.\H,0,-1.873585,0.019978,-0.879508\
 H,0,-1.04499,1.318256,-0.000017\H,0,-1.873568,0.020004,0.879527\C,0,-0
 .003237,-0.57148,0.\H,0,-0.146203,-1.657301,0.000001\C,0,1.230885,-0.1
 16434,0.\H,0,1.43052,1.354633,0.\H,0,1.538667,2.206418,0.000001\H,0,2.
 182268,-0.632878,0.000001\\Version=EM64L-G16RevC.01\State=2-A\HF/CbsB3
 =-117.5736526\E2(CBS)/CbsB3=-0.544095\CBS-Int/CbsB3=0.0177447\OIii/Cbs
 B3=4.5611247\MP2/CbsB4=-117.9659321\MP4(SDQ)/CbsB4=-118.0142823\MP4(SD
 Q)/6-31+G(d')=-117.9557535\QCISD(T)/6-31+G(d')=-117.9781802\CBSQB3=-11
 8.1229074\FreqCoord=-2.3870396796,0.4719175256,0.,-3.5405625211,0.0377
 529485,-1.6620292444,-1.9747449029,2.4911428021,-0.0000321253,-3.54053
 03957,0.0378020814,1.6620651492,-0.0061170435,-1.0799406857,0.,-0.2762
 836286,-3.131844996,0.0000018897,2.3260355408,-0.2200283716,0.,2.70329
 10157,2.5598853693,0.,2.9076592269,4.1695257363,0.0000018897,4.1238888
 504,-1.1959660903,0.0000018897\PG=C01 [X(C3H7)]\NImag=1\\0.49321634,0.
 04293765,0.55465076,0.00000065,-0.00000023,0.52547292,-0.11947463,-0.0
 3168414,-0.11592859,0.13465504,-0.02983730,-0.06053154,-0.04465880,0.0
 3126598,0.06029779,-0.11470851,-0.04568753,-0.21213876,0.12601504,0.05
 012631,0.23053783,-0.05966529,-0.05775142,0.00000080,-0.00404032,-0.01
 657215,0.00167161,0.06469179,-0.05433527,-0.30244155,0.00000411,-0.001
 25718,-0.00503618,-0.00002212,0.05862256,0.32876834,0.00000074,0.00000
 419,-0.04788109,-0.00473368,-0.02611383,0.00096312,-0.00000101,-0.0000
 0454,0.04549564,-0.11946983,-0.03167984,0.11592746,0.01055724,0.004100
 02,-0.01440100,-0.00404025,-0.00125707,0.00473387,0.13464986,-0.029832
 86,-0.06052870,0.04465465,0.00410032,0.00093598,-0.00617618,-0.0165717
 0,-0.00503549,0.02611434,0.03126126,0.06029472,0.11470716,0.04568361,-
 0.21214549,0.01440023,0.00617542,-0.02248320,-0.00167099,0.00002233,0.
 00096227,-0.12601377,-0.05012177,0.23054528,-0.16090179,0.06075339,-0.
 00000028,-0.02126743,0.01034070,0.00095893,0.00549361,-0.00293415,0.00
 000008,-0.02126716,0.01034036,-0.00095868,0.77999672,0.06182388,-0.125
 49245,0.00000019,-0.00586640,0.00474379,0.00074835,0.02857064,-0.01764
 272,-0.00000013,-0.00586574,0.00474336,-0.00074838,0.11098535,0.563578
 07,-0.00000006,-0.00000007,-0.06966251,-0.02158146,0.01601884,0.003143
 02,-0.00000045,0.00000021,-0.00089365,0.02158197,-0.01601899,0.0031431
 8,-0.00000007,-0.00000027,0.13996645,0.00403774,0.02656114,-0.00000012
 ,0.00086926,-0.00077255,-0.00048605,-0.00438387,0.00292908,0.00000003,
 0.00086920,-0.00077254,0.00048607,-0.05215760,-0.03314502,0.00000006,0
 .05936705,-0.00285107,-0.01611213,0.00000007,0.00011554,0.00040830,0.0
 0043344,0.00332301,-0.00029787,-0.00000003,0.00011556,0.00040823,-0.00
 043344,-0.02853644,-0.29515102,0.00000021,0.03568671,0.32211437,-0.000
 00009,-0.00000002,0.00593016,0.00115306,-0.00057421,0.00025804,0.00000
 001,0.00000004,0.00182218,-0.00115306,0.00057428,0.00025801,0.00000008
 ,0.00000019,-0.03905745,0.,-0.00000027,0.01857114,-0.03687420,-0.00456
 365,0.00000010,-0.00046928,0.00125715,0.00077900,0.00194953,-0.0016339
 7,-0.00000003,-0.00046919,0.00125704,-0.00077908,-0.51611388,-0.166829
 98,0.00000002,-0.00825850,-0.00738103,0.00000001,0.85281104,0.00985274
 ,0.01256824,-0.00000004,0.00357290,-0.00131937,0.00052675,0.00077912,0
 .00044274,0.,0.00357286,-0.00131932,-0.00052676,-0.13518671,-0.1310029
 5,0.00000007,-0.03151497,-0.01522964,0.00000002,0.02072761,0.22673452,
 0.00000009,0.00000002,0.00137447,-0.00082786,0.00008975,-0.00002883,0.
 ,-0.00000003,-0.00045039,0.00082782,-0.00008979,-0.00002882,-0.0000000
 8,0.00000006,-0.03858819,0.00000002,0.00000002,0.01406329,0.00000026,-
 0.00000017,0.05827799,0.00016867,-0.00166493,0.,-0.00005748,0.00002490
 ,0.00005249,-0.00017105,0.00018101,0.,-0.00005749,0.00002489,-0.000052
 49,-0.00219825,-0.00960634,0.,-0.00120670,-0.00041971,0.,-0.01774263,0
 .01692692,0.,0.03538659,0.00331682,-0.00133347,0.,0.00005475,-0.000161
 89,0.00009916,0.00068544,0.00058340,0.,0.00005475,-0.00016190,-0.00009
 915,-0.01005449,-0.01304190,0.00000001,0.00033955,0.00312544,-0.000000
 03,0.02442051,0.08845465,0.00000004,-0.00468956,0.00858480,0.,-0.00000
 004,-0.00251800,-0.00047300,-0.00010864,0.00000787,0.,0.00000002,0.000
 18100,0.00047301,0.00010864,0.00000786,-0.00000002,0.00000001,0.002410
 07,0.,0.,0.00329672,0.00000002,0.00000010,-0.01737145,0.00000002,0.000
 00002,0.02497982,-0.00024371,0.00054441,0.,0.00000554,-0.00006464,0.00
 002513,-0.00014182,-0.00036601,0.,0.00000553,-0.00006463,-0.00002512,0
 .00083150,0.00086287,0.,-0.00001827,0.00002850,0.,0.00366237,-0.009963
 48,0.,-0.01510186,-0.00802653,-0.00000003,0.01065682,-0.00064775,0.000
 96851,0.,-0.00005507,0.00023405,-0.00002207,-0.00090857,0.00030038,0.,
 -0.00005508,0.00023405,0.00002206,0.00407934,0.00027787,0.,-0.00162061
 ,-0.00143711,0.00000001,-0.01314513,-0.07672041,-0.00000004,-0.0074621
 1,-0.07648363,-0.00000013,0.01813603,0.15173508,0.,0.,-0.00006000,-0.0
 0004055,-0.00000143,0.00002581,0.,0.,-0.00001010,0.00004055,0.00000143
 ,0.00002581,0.,0.,-0.00089130,0.,0.,-0.00017880,-0.00000002,-0.0000000
 9,0.00730610,-0.00000001,-0.00000007,-0.01245815,0.00000002,0.00000016
 ,0.00736149,-0.00079329,-0.00345260,-0.00000003,-0.00077793,0.00025789
 ,0.00009334,0.00030765,0.00005101,0.,-0.00077791,0.00025787,-0.0000933
 2,-0.01241572,0.01907075,-0.00000001,0.00088169,-0.00008107,0.,-0.2784
 9526,0.12123302,-0.00000025,0.00098020,-0.00610124,0.,0.00034390,0.001
 67893,0.,0.29074666,-0.00042684,-0.00174767,0.00000004,-0.00024671,0.0
 0042908,-0.00002611,-0.00017692,0.00035896,-0.00000001,-0.00024671,0.0
 0042907,0.00002609,-0.01978736,0.00898796,-0.00000001,0.00230922,0.002
 17143,0.,0.14589145,-0.10260845,0.00000014,0.00668494,-0.00956550,0.,-
 0.00108651,0.00089122,0.,-0.13291455,0.10065390,0.00000002,0.00000008,
 0.01162829,0.00201682,-0.00095341,-0.00028490,0.,-0.00000003,-0.000188
 99,-0.00201686,0.00095340,-0.00028491,0.00000002,-0.00000002,0.0004303
 8,0.,0.,-0.00496330,-0.00000029,0.00000011,-0.02455419,0.,0.,0.0014642
 6,0.,0.,-0.00112085,0.00000027,-0.00000014,0.01787421\\-0.00000052,-0.
 00000055,-0.00000013,0.00000033,-0.00000025,0.00000044,-0.00000010,-0.
 00000002,0.00000001,0.00000029,-0.00000016,-0.00000031,0.00000059,0.00
 000008,-0.00000003,0.00000040,0.00000022,-0.00000003,-0.00000050,0.,0.
 00000003,-0.00000035,0.00000077,0.,-0.00000045,-0.00000022,0.00000001,
 0.00000031,0.00000014,0.\\\@
 Job cpu time:       0 days  0 hours  2 minutes 35.2 seconds.
 Elapsed time:       0 days  0 hours  0 minutes 11.8 seconds.
 File lengths (MBytes):  RWF=    609 Int=      0 D2E=      0 Chk=      4 Scr=      1
 Normal termination of Gaussian 16 at Sat Oct 12 10:09:50 2024.
