 Entering Gaussian System, Link 0=g16
 Initial command:
 /opt/g16/l1.exe "/scratch/alongd/g16/a4385-34559/Gau-9289.inp" -scrdir="/scratch/alongd/g16/a4385-34559/"
 Entering Link 1 = /opt/g16/l1.exe PID=      9291.
  
 Copyright (c) 1988-2017, Gaussian, Inc.  All Rights Reserved.
  
 This is part of the Gaussian(R) 16 program.  It is based on
 the Gaussian(R) 09 system (copyright 2009, Gaussian, Inc.),
 the Gaussian(R) 03 system (copyright 2003, Gaussian, Inc.),
 the Gaussian(R) 98 system (copyright 1998, Gaussian, Inc.),
 the Gaussian(R) 94 system (copyright 1995, Gaussian, Inc.),
 the Gaussian 92(TM) system (copyright 1992, Gaussian, Inc.),
 the Gaussian 90(TM) system (copyright 1990, Gaussian, Inc.),
 the Gaussian 88(TM) system (copyright 1988, Gaussian, Inc.),
 the Gaussian 86(TM) system (copyright 1986, Carnegie Mellon
 University), and the Gaussian 82(TM) system (copyright 1983,
 Carnegie Mellon University). Gaussian is a federally registered
 trademark of Gaussian, Inc.
  
 This software contains proprietary and confidential information,
 including trade secrets, belonging to Gaussian, Inc.
  
 This software is provided under written license and may be
 used, copied, transmitted, or stored only in accord with that
 written license.
  
 The following legend is applicable only to US Government
 contracts under FAR:
  
                    RESTRICTED RIGHTS LEGEND
  
 Use, reproduction and disclosure by the US Government is
 subject to restrictions as set forth in subparagraphs (a)
 and (c) of the Commercial Computer Software - Restricted
 Rights clause in FAR 52.227-19.
  
 Gaussian, Inc.
 340 Quinnipiac St., Bldg. 40, Wallingford CT 06492
  
  
 ---------------------------------------------------------------
 Warning -- This program may not be used in any manner that
 competes with the business of Gaussian, Inc. or will provide
 assistance to any competitor of Gaussian, Inc.  The licensee
 of this program is prohibited from giving any competitor of
 Gaussian, Inc. access to this program.  By using this program,
 the user acknowledges that Gaussian, Inc. is engaged in the
 business of creating and licensing software in the field of
 computational chemistry and represents and warrants to the
 licensee that it is not a competitor of Gaussian, Inc. and that
 it will not use this program in any manner prohibited above.
 ---------------------------------------------------------------
  

 Cite this work as:
 Gaussian 16, Revision B.01,
 M. J. Frisch, G. W. Trucks, H. B. Schlegel, G. E. Scuseria, 
 M. A. Robb, J. R. Cheeseman, G. Scalmani, V. Barone, 
 G. A. Petersson, H. Nakatsuji, X. Li, M. Caricato, A. V. Marenich, 
 J. Bloino, B. G. Janesko, R. Gomperts, B. Mennucci, H. P. Hratchian, 
 J. V. Ortiz, A. F. Izmaylov, J. L. Sonnenberg, D. Williams-Young, 
 F. Ding, F. Lipparini, F. Egidi, J. Goings, B. Peng, A. Petrone, 
 T. Henderson, D. Ranasinghe, V. G. Zakrzewski, J. Gao, N. Rega, 
 G. Zheng, W. Liang, M. Hada, M. Ehara, K. Toyota, R. Fukuda, 
 J. Hasegawa, M. Ishida, T. Nakajima, Y. Honda, O. Kitao, H. Nakai, 
 T. Vreven, K. Throssell, J. A. Montgomery, Jr., J. E. Peralta, 
 F. Ogliaro, M. J. Bearpark, J. J. Heyd, E. N. Brothers, K. N. Kudin, 
 V. N. Staroverov, T. A. Keith, R. Kobayashi, J. Normand, 
 K. Raghavachari, A. P. Rendell, J. C. Burant, S. S. Iyengar, 
 J. Tomasi, M. Cossi, J. M. Millam, M. Klene, C. Adamo, R. Cammi, 
 J. W. Ochterski, R. L. Martin, K. Morokuma, O. Farkas, 
 J. B. Foresman, and D. J. Fox, Gaussian, Inc., Wallingford CT, 2016.
 
 ******************************************
 Gaussian 16:  ES64L-G16RevB.01 20-Dec-2017
                 2-Mar-2020 
 ******************************************
 %chk=check.chk
 %mem=14336mb
 %NProcShared=36
 Will use up to   36 processors via shared memory.
 ----------------------------------------------------------------------
 #P opt=(tight) guess=read uwb97xd/def2tzvp scf=(tight, direct) integra
 l=(grid=ultrafine, Acc2E=12) scf=xqc iop(2/9=2000)
 ----------------------------------------------------------------------
 1/7=10,18=20,19=15,26=4,38=1/1,3;
 2/9=2000,12=2,17=6,18=5,40=1/2;
 3/5=44,7=101,11=2,25=1,27=12,30=1,71=1,74=-58,75=-5,116=2/1,2,3;
 4/5=1/1;
 5/5=2,8=3,13=1,32=2,38=6,87=12/2,8;
 6/7=2,8=2,9=2,10=2,28=1,87=12/1;
 7/87=12/1,2,3,16;
 1/7=10,18=20,19=15,26=4/3(2);
 2/9=2000/2;
 99//99;
 2/9=2000/2;
 3/5=44,7=101,11=2,25=1,27=12,30=1,71=1,74=-58,75=-5,116=2/1,2,3;
 4/5=5,16=3,69=1/1;
 5/5=2,8=3,13=1,32=2,38=5,87=12/2,8;
 7/87=12/1,2,3,16;
 1/7=10,18=20,19=15,26=4/3(-5);
 2/9=2000/2;
 6/7=2,8=2,9=2,10=2,19=2,28=1,87=12/1;
 99/9=1/99;
 Leave Link    1 at Mon Mar  2 00:37:40 2020, MaxMem=  1879048192 cpu:               5.5 elap:               0.2
 (Enter /opt/g16/l101.exe)
 ----
 name
 ----
 Symbolic Z-matrix:
 Charge =  0 Multiplicity = 3
 N                     2.39404  -1.00849   0.03988 
 C                     0.059    -1.48705  -0.06396 
 C                     1.14957  -0.55634   0.01595 
 C                    -1.24174  -1.05363  -0.09072 
 C                    -1.551     0.31288  -0.04096 
 C                    -0.52779   1.26503   0.03752 
 C                     0.74837   0.79642   0.06184 
 H                     0.31256  -2.53925  -0.10173 
 H                    -2.0459   -1.77559  -0.15123 
 H                    -2.58396   0.63657  -0.06312 
 H                    -0.75503   2.32318   0.07648 
 H                     3.0378   -0.2196    0.09769 
 
 ITRead=  0  0  0  0  0  0  0  0  0  0  0  0
 MicOpt= -1 -1 -1 -1 -1 -1 -1 -1 -1 -1 -1 -1
 NAtoms=     12 NQM=       12 NQMF=       0 NMMI=      0 NMMIF=      0
                NMic=       0 NMicF=      0.
                    Isotopes and Nuclear Properties:
 (Nuclear quadrupole moments (NQMom) in fm**2, nuclear magnetic moments (NMagM)
  in nuclear magnetons)

  Atom         1           2           3           4           5           6           7           8           9          10
 IAtWgt=          14          12          12          12          12          12          12           1           1           1
 AtmWgt=  14.0030740  12.0000000  12.0000000  12.0000000  12.0000000  12.0000000  12.0000000   1.0078250   1.0078250   1.0078250
 NucSpn=           2           0           0           0           0           0           0           1           1           1
 AtZEff=  -0.0000000  -0.0000000  -0.0000000  -0.0000000  -0.0000000  -0.0000000  -0.0000000  -0.0000000  -0.0000000  -0.0000000
 NQMom=    2.0440000   0.0000000   0.0000000   0.0000000   0.0000000   0.0000000   0.0000000   0.0000000   0.0000000   0.0000000
 NMagM=    0.4037610   0.0000000   0.0000000   0.0000000   0.0000000   0.0000000   0.0000000   2.7928460   2.7928460   2.7928460
 AtZNuc=   7.0000000   6.0000000   6.0000000   6.0000000   6.0000000   6.0000000   6.0000000   1.0000000   1.0000000   1.0000000

  Atom        11          12
 IAtWgt=           1           1
 AtmWgt=   1.0078250   1.0078250
 NucSpn=           1           1
 AtZEff=  -0.0000000  -0.0000000
 NQMom=    0.0000000   0.0000000
 NMagM=    2.7928460   2.7928460
 AtZNuc=   1.0000000   1.0000000
 Leave Link  101 at Mon Mar  2 00:37:41 2020, MaxMem=  1879048192 cpu:              30.5 elap:               1.0
 (Enter /opt/g16/l103.exe)

 GradGradGradGradGradGradGradGradGradGradGradGradGradGradGradGradGradGrad
 Berny optimization.
 Initialization pass.
                           ----------------------------
                           !    Initial Parameters    !
                           ! (Angstroms and Degrees)  !
 --------------------------                            --------------------------
 ! Name  Definition              Value          Derivative Info.                !
 --------------------------------------------------------------------------------
 ! R1    R(1,3)                  1.3243         estimate D2E/DX2                !
 ! R2    R(1,12)                 1.0199         estimate D2E/DX2                !
 ! R3    R(2,3)                  1.436          estimate D2E/DX2                !
 ! R4    R(2,4)                  1.3713         estimate D2E/DX2                !
 ! R5    R(2,8)                  1.083          estimate D2E/DX2                !
 ! R6    R(3,7)                  1.4117         estimate D2E/DX2                !
 ! R7    R(4,5)                  1.402          estimate D2E/DX2                !
 ! R8    R(4,9)                  1.0824         estimate D2E/DX2                !
 ! R9    R(5,6)                  1.3999         estimate D2E/DX2                !
 ! R10   R(5,10)                 1.0827         estimate D2E/DX2                !
 ! R11   R(6,7)                  1.3597         estimate D2E/DX2                !
 ! R12   R(6,11)                 1.083          estimate D2E/DX2                !
 ! A1    A(3,1,12)             109.2746         estimate D2E/DX2                !
 ! A2    A(3,2,4)              121.1062         estimate D2E/DX2                !
 ! A3    A(3,2,8)              116.9911         estimate D2E/DX2                !
 ! A4    A(4,2,8)              121.9027         estimate D2E/DX2                !
 ! A5    A(1,3,2)              119.565          estimate D2E/DX2                !
 ! A6    A(1,3,7)              126.4159         estimate D2E/DX2                !
 ! A7    A(2,3,7)              114.0191         estimate D2E/DX2                !
 ! A8    A(2,4,5)              121.1053         estimate D2E/DX2                !
 ! A9    A(2,4,9)              119.6696         estimate D2E/DX2                !
 ! A10   A(5,4,9)              119.2251         estimate D2E/DX2                !
 ! A11   A(4,5,6)              120.2467         estimate D2E/DX2                !
 ! A12   A(4,5,10)             120.0745         estimate D2E/DX2                !
 ! A13   A(6,5,10)             119.6788         estimate D2E/DX2                !
 ! A14   A(5,6,7)              116.9105         estimate D2E/DX2                !
 ! A15   A(5,6,11)             120.8784         estimate D2E/DX2                !
 ! A16   A(7,6,11)             122.2111         estimate D2E/DX2                !
 ! A17   A(3,7,6)              126.6122         estimate D2E/DX2                !
 ! D1    D(12,1,3,2)           180.0            estimate D2E/DX2                !
 ! D2    D(12,1,3,7)            -0.0001         estimate D2E/DX2                !
 ! D3    D(4,2,3,1)            180.0            estimate D2E/DX2                !
 ! D4    D(4,2,3,7)              0.0            estimate D2E/DX2                !
 ! D5    D(8,2,3,1)              0.0            estimate D2E/DX2                !
 ! D6    D(8,2,3,7)            180.0            estimate D2E/DX2                !
 ! D7    D(3,2,4,5)              0.0            estimate D2E/DX2                !
 ! D8    D(3,2,4,9)            180.0            estimate D2E/DX2                !
 ! D9    D(8,2,4,5)           -180.0            estimate D2E/DX2                !
 ! D10   D(8,2,4,9)              0.0            estimate D2E/DX2                !
 ! D11   D(1,3,7,6)           -180.0            estimate D2E/DX2                !
 ! D12   D(2,3,7,6)              0.0            estimate D2E/DX2                !
 ! D13   D(2,4,5,6)             -0.0001         estimate D2E/DX2                !
 ! D14   D(2,4,5,10)          -180.0            estimate D2E/DX2                !
 ! D15   D(9,4,5,6)           -180.0            estimate D2E/DX2                !
 ! D16   D(9,4,5,10)             0.0001         estimate D2E/DX2                !
 ! D17   D(4,5,6,7)              0.0001         estimate D2E/DX2                !
 ! D18   D(4,5,6,11)          -180.0            estimate D2E/DX2                !
 ! D19   D(10,5,6,7)           180.0            estimate D2E/DX2                !
 ! D20   D(10,5,6,11)            0.0            estimate D2E/DX2                !
 ! D21   D(5,6,7,3)              0.0            estimate D2E/DX2                !
 ! D22   D(11,6,7,3)           180.0            estimate D2E/DX2                !
 --------------------------------------------------------------------------------
 Trust Radius=3.00D-01 FncErr=1.00D-07 GrdErr=1.00D-06 EigMax=2.50D+02 EigMin=1.00D-04
 Number of steps in this run=     61 maximum allowed number of steps=    100.
 GradGradGradGradGradGradGradGradGradGradGradGradGradGradGradGradGradGrad

 Leave Link  103 at Mon Mar  2 00:37:42 2020, MaxMem=  1879048192 cpu:               2.3 elap:               0.1
 (Enter /opt/g16/l202.exe)
                          Input orientation:                          
 ---------------------------------------------------------------------
 Center     Atomic      Atomic             Coordinates (Angstroms)
 Number     Number       Type             X           Y           Z
 ---------------------------------------------------------------------
      1          7           0        2.394044   -1.008489    0.039884
      2          6           0        0.059001   -1.487048   -0.063962
      3          6           0        1.149574   -0.556335    0.015950
      4          6           0       -1.241743   -1.053633   -0.090718
      5          6           0       -1.550998    0.312883   -0.040961
      6          6           0       -0.527793    1.265034    0.037521
      7          6           0        0.748372    0.796415    0.061844
      8          1           0        0.312562   -2.539252   -0.101729
      9          1           0       -2.045901   -1.775588   -0.151228
     10          1           0       -2.583964    0.636571   -0.063119
     11          1           0       -0.755031    2.323177    0.076483
     12          1           0        3.037804   -0.219597    0.097693
 ---------------------------------------------------------------------
                    Distance matrix (angstroms):
                    1          2          3          4          5
     1  N    0.000000
     2  C    2.385839   0.000000
     3  C    1.324282   1.435953   0.000000
     4  C    3.638412   1.371313   2.444807   0.000000
     5  C    4.161240   2.415032   2.837581   1.401956   0.000000
     6  C    3.702167   2.815774   2.476168   2.429483   1.399893
     7  C    2.442621   2.388569   1.411737   2.721490   2.351909
     8  H    2.587635   1.082983   2.155550   2.150128   3.407524
     9  H    4.509776   2.126378   3.424264   1.082382   2.149139
    10  H    5.243796   3.390431   3.920278   2.158497   1.082720
    11  H    4.584540   3.898742   3.452937   3.415800   2.165326
    12  H    1.019862   3.241270   1.919762   4.364131   4.621673
                    6          7          8          9         10
     6  C    0.000000
     7  C    1.359703   0.000000
     8  H    3.898484   3.367991   0.000000
     9  H    3.403771   3.803756   2.479512   0.000000
    10  H    2.152425   3.338507   4.298512   2.473012   0.000000
    11  H    1.082969   2.142764   4.981439   4.303263   2.491811
    12  H    3.862801   2.505008   3.584343   5.322323   5.688863
                   11         12
    11  H    0.000000
    12  H    4.566371   0.000000
 Stoichiometry    C6H5N(3)
 Framework group  CS[SG(C6H5N)]
 Deg. of freedom    21
 Full point group                 CS      NOp   2
 Largest Abelian subgroup         CS      NOp   2
 Largest concise Abelian subgroup C1      NOp   1
                         Standard orientation:                         
 ---------------------------------------------------------------------
 Center     Atomic      Atomic             Coordinates (Angstroms)
 Number     Number       Type             X           Y           Z
 ---------------------------------------------------------------------
      1          7           0       -2.301219    0.590831   -0.000000
      2          6           0       -0.000000    1.220609    0.000000
      3          6           0       -1.029919    0.219995   -0.000000
      4          6           0        1.326301    0.872149    0.000000
      5          6           0        1.721772   -0.472872    0.000000
      6          6           0        0.760480   -1.490526    0.000000
      7          6           0       -0.543512   -1.105301   -0.000000
      8          1           0       -0.319923    2.255260   -0.000000
      9          1           0        2.083472    1.645611    0.000000
     10          1           0        2.773733   -0.729115    0.000000
     11          1           0        1.054496   -2.532819    0.000000
     12          1           0       -2.893984   -0.239078   -0.000000
 ---------------------------------------------------------------------
 Rotational constants (GHZ):           5.9909348           2.7646676           1.8916966
 Leave Link  202 at Mon Mar  2 00:37:42 2020, MaxMem=  1879048192 cpu:               2.7 elap:               0.1
 (Enter /opt/g16/l301.exe)
 Standard basis: def2TZVP (5D, 7F)
 Ernie: Thresh=  0.10000D-02 Tol=  0.10000D-05 Strict=F.
 There are   200 symmetry adapted cartesian basis functions of A'  symmetry.
 There are    82 symmetry adapted cartesian basis functions of A"  symmetry.
 There are   172 symmetry adapted basis functions of A'  symmetry.
 There are    75 symmetry adapted basis functions of A"  symmetry.
   247 basis functions,   397 primitive gaussians,   282 cartesian basis functions
    25 alpha electrons       23 beta electrons
       nuclear repulsion energy       251.5544933009 Hartrees.
 IExCor= 4639 DFT=T Ex+Corr=wB97XD ExCW=0 ScaHFX=  1.000000
 ScaDFX=  1.000000  1.000000  1.000000  1.000000 ScalE2=  1.000000  1.000000
 IRadAn=      5 IRanWt=     -1 IRanGd=            0 ICorTp=0 IEmpDi=121
 HFx  wShort=  0.000000 wLong=  0.200000 cFull=  0.222036 cShort=  0.000000 cLong=  0.777964
 DFx  wShort=  0.000000 wLong=  0.200000 cFull=  0.000000 cShort=  0.000000 cLong=  1.000000
 NAtoms=   12 NActive=   12 NUniq=   12 SFac= 1.00D+00 NAtFMM=   60 NAOKFM=F Big=F
 Integral buffers will be    131072 words long.
 Raffenetti 2 integral format.
 Two-electron integral symmetry is turned on.
 R6Disp:  Grimme-D2 Dispersion energy=       -0.0040870075 Hartrees.
 Nuclear repulsion after empirical dispersion term =      251.5504062934 Hartrees.
 Leave Link  301 at Mon Mar  2 00:37:42 2020, MaxMem=  1879048192 cpu:               2.5 elap:               0.1
 (Enter /opt/g16/l302.exe)
 NPDir=0 NMtPBC=     1 NCelOv=     1 NCel=       1 NClECP=     1 NCelD=      1
         NCelK=      1 NCelE2=     1 NClLst=     1 CellRange=     0.0.
 One-electron integrals computed using PRISM.
 One-electron integral symmetry used in STVInt
   2 Symmetry operations used in ECPInt.
 ECPInt:  NShTT=    4753 NPrTT=   14704 LenC2=    4696 LenP2D=   11982.
 LDataN:  DoStor=T MaxTD1= 6 Len=  172
 NBasis=   247 RedAO= T EigKep=  1.67D-05  NBF=   172    75
 NBsUse=   247 1.00D-06 EigRej= -1.00D+00 NBFU=   172    75
 Precomputing XC quadrature grid using
 IXCGrd= 4 IRadAn=           5 IRanWt=          -1 IRanGd=           0 AccXCQ= 1.00D-12.
 Generated NRdTot=       0 NPtTot=           0 NUsed=           0 NTot=          32
 NSgBfM=   281   281   281   281   281 MxSgAt=    12 MxSgA2=    12.
 Leave Link  302 at Mon Mar  2 00:37:42 2020, MaxMem=  1879048192 cpu:              18.8 elap:               0.6
 (Enter /opt/g16/l303.exe)
 DipDrv:  MaxL=1.
 Leave Link  303 at Mon Mar  2 00:37:43 2020, MaxMem=  1879048192 cpu:              10.9 elap:               0.4
 (Enter /opt/g16/l401.exe)
 Initial guess from the checkpoint file:  "check.chk"
 B after Tr=     0.000000    0.000000    0.000000
         Rot=   -0.000000    0.777461    0.628931    0.000000 Ang= 180.00 deg.
 Guess basis will be translated and rotated to current coordinates.
 JPrj=2 DoOrth=T DoCkMO=T.
 Initial guess orbital symmetries:
 Alpha Orbitals:
       Occupied  (A') (A') (A') (A') (A') (A') (A') (A') (A') (A')
                 (A') (A') (A') (A') (A') (A') (A') (A") (A') (A')
                 (A") (A') (A") (A') (A")
       Virtual   (A") (A") (A') (A') (A') (A') (A') (A') (A") (A')
                 (A') (A') (A") (A') (A") (A') (A') (A") (A') (A')
                 (A") (A') (A") (A') (A') (A') (A') (A') (A") (A')
                 (A") (A') (A') (A') (A') (A') (A') (A') (A") (A')
                 (A') (A') (A") (A') (A') (A') (A') (A') (A") (A')
                 (A") (A') (A") (A') (A") (A') (A') (A') (A") (A')
                 (A') (A') (A") (A") (A') (A') (A") (A') (A') (A")
                 (A') (A") (A') (A') (A') (A") (A') (A') (A') (A')
                 (A") (A") (A') (A') (A') (A") (A') (A") (A') (A")
                 (A') (A") (A') (A') (A") (A') (A") (A') (A") (A')
                 (A") (A') (A") (A') (A') (A') (A') (A') (A') (A')
                 (A") (A') (A') (A") (A") (A') (A') (A') (A') (A')
                 (A") (A") (A') (A') (A') (A") (A") (A') (A') (A')
                 (A") (A') (A") (A') (A") (A') (A') (A") (A") (A')
                 (A') (A') (A") (A") (A') (A") (A') (A") (A') (A')
                 (A") (A') (A') (A') (A") (A') (A") (A") (A') (A")
                 (A') (A') (A') (A") (A') (A") (A') (A') (A') (A')
                 (A") (A') (A") (A') (A') (A') (A') (A") (A') (A")
                 (A') (A") (A') (A') (A') (A") (A") (A") (A') (A')
                 (A') (A") (A') (A') (A") (A") (A') (A') (A") (A')
                 (A') (A") (A') (A') (A') (A') (A') (A") (A') (A')
                 (A') (A') (A') (A') (A') (A') (A') (A') (A') (A')
                 (A') (A')
 Beta  Orbitals:
       Occupied  (A') (A') (A') (A') (A') (A') (A') (A') (A') (A')
                 (A') (A') (A') (A') (A') (A') (A') (A") (A') (A')
                 (A") (A') (A")
       Virtual   (A") (A') (A") (A") (A') (A') (A') (A') (A') (A')
                 (A") (A') (A') (A') (A") (A') (A") (A') (A') (A")
                 (A') (A') (A") (A') (A") (A') (A') (A') (A') (A")
                 (A') (A') (A') (A") (A') (A') (A') (A') (A') (A')
                 (A") (A') (A') (A') (A") (A') (A') (A') (A') (A')
                 (A') (A") (A") (A') (A") (A') (A") (A') (A') (A')
                 (A') (A") (A') (A") (A') (A") (A') (A') (A') (A")
                 (A') (A") (A') (A") (A') (A') (A') (A") (A') (A')
                 (A') (A') (A") (A") (A') (A') (A') (A") (A') (A")
                 (A') (A") (A') (A") (A') (A') (A") (A') (A") (A')
                 (A") (A') (A") (A') (A") (A') (A') (A') (A') (A')
                 (A') (A') (A") (A') (A') (A") (A") (A') (A') (A')
                 (A') (A') (A") (A") (A') (A') (A') (A") (A") (A')
                 (A') (A') (A") (A') (A") (A') (A") (A') (A') (A")
                 (A') (A") (A') (A') (A") (A") (A') (A") (A') (A")
                 (A') (A') (A") (A') (A') (A') (A") (A') (A") (A')
                 (A") (A") (A') (A') (A') (A") (A') (A") (A') (A')
                 (A') (A') (A") (A') (A") (A') (A') (A') (A') (A")
                 (A') (A") (A') (A") (A') (A') (A') (A") (A") (A")
                 (A') (A') (A') (A") (A') (A') (A") (A") (A') (A')
                 (A") (A') (A') (A") (A') (A') (A') (A') (A') (A")
                 (A') (A') (A') (A') (A') (A') (A') (A') (A') (A')
                 (A') (A') (A') (A')
 The electronic state of the initial guess is 3-A".
 Initial guess <Sx>= 0.0000 <Sy>= 0.0000 <Sz>= 1.0000 <S**2>= 2.0820 S= 1.0271
 Leave Link  401 at Mon Mar  2 00:37:50 2020, MaxMem=  1879048192 cpu:             216.9 elap:               7.3
 (Enter /opt/g16/l502.exe)
 Keep R1 and R2 ints in memory in symmetry-blocked form, NReq=1418894295.
 FoFCou: FMM=F IPFlag=           0 FMFlag=           0 FMFlg1=           0
         NFxFlg=           0 DoJE=F BraDBF=F KetDBF=F FulRan=T
         wScrn=  0.000000 ICntrl=       600 IOpCl=  0 I1Cent=           0 NGrid=           0
         NMat0=    1 NMatS0=  30628 NMatT0=    0 NMatD0=    1 NMtDS0=    0 NMtDT0=    0
 Petite list used in FoFCou.
 UHF open shell SCF:
 Using DIIS extrapolation, IDIIS=  1040.
 NGot=  1879048192 LenX=  1398088733 LenY=  1398008768
 Requested convergence on RMS density matrix=1.00D-08 within  32 cycles.
 Requested convergence on MAX density matrix=1.00D-06.
 Requested convergence on             energy=1.00D-06.
 No special actions if energy rises.

 Cycle   1  Pass 1  IDiag  1:
 E= -286.265111111526    
 DIIS: error= 4.92D-06 at cycle   1 NSaved=   1.
 NSaved= 1 IEnMin= 1 EnMin= -286.265111111526     IErMin= 1 ErrMin= 4.92D-06
 ErrMax= 4.92D-06  0.00D+00 EMaxC= 1.00D-01 BMatC= 1.65D-08 BMatP= 1.65D-08
 IDIUse=1 WtCom= 1.00D+00 WtEn= 0.00D+00
 Coeff-Com:  0.100D+01
 Coeff:      0.100D+01
 Gap=     0.341 Goal=   None    Shift=    0.000
 Gap=     0.297 Goal=   None    Shift=    0.000
 RMSDP=8.61D-07 MaxDP=2.15D-05              OVMax= 1.54D-05

 Cycle   2  Pass 1  IDiag  1:
 E= -286.265111115026     Delta-E=       -0.000000003500 Rises=F Damp=F
 DIIS: error= 6.34D-07 at cycle   2 NSaved=   2.
 NSaved= 2 IEnMin= 2 EnMin= -286.265111115026     IErMin= 2 ErrMin= 6.34D-07
 ErrMax= 6.34D-07  0.00D+00 EMaxC= 1.00D-01 BMatC= 3.50D-10 BMatP= 1.65D-08
 IDIUse=1 WtCom= 1.00D+00 WtEn= 0.00D+00
 Coeff-Com: -0.119D+00 0.112D+01
 Coeff:     -0.119D+00 0.112D+01
 Gap=     0.341 Goal=   None    Shift=    0.000
 Gap=     0.297 Goal=   None    Shift=    0.000
 RMSDP=1.13D-07 MaxDP=4.54D-06 DE=-3.50D-09 OVMax= 4.07D-06

 Cycle   3  Pass 1  IDiag  1:
 E= -286.265111115143     Delta-E=       -0.000000000117 Rises=F Damp=F
 DIIS: error= 3.42D-07 at cycle   3 NSaved=   3.
 NSaved= 3 IEnMin= 3 EnMin= -286.265111115143     IErMin= 3 ErrMin= 3.42D-07
 ErrMax= 3.42D-07  0.00D+00 EMaxC= 1.00D-01 BMatC= 4.85D-11 BMatP= 3.50D-10
 IDIUse=1 WtCom= 1.00D+00 WtEn= 0.00D+00
 Coeff-Com: -0.397D-01 0.289D+00 0.750D+00
 Coeff:     -0.397D-01 0.289D+00 0.750D+00
 Gap=     0.341 Goal=   None    Shift=    0.000
 Gap=     0.297 Goal=   None    Shift=    0.000
 RMSDP=1.74D-08 MaxDP=5.56D-07 DE=-1.17D-10 OVMax= 1.83D-06

 Cycle   4  Pass 1  IDiag  1:
 E= -286.265111115152     Delta-E=       -0.000000000009 Rises=F Damp=F
 DIIS: error= 2.70D-07 at cycle   4 NSaved=   4.
 NSaved= 4 IEnMin= 4 EnMin= -286.265111115152     IErMin= 4 ErrMin= 2.70D-07
 ErrMax= 2.70D-07  0.00D+00 EMaxC= 1.00D-01 BMatC= 1.36D-11 BMatP= 4.85D-11
 IDIUse=1 WtCom= 1.00D+00 WtEn= 0.00D+00
 Coeff-Com:  0.535D-02-0.837D-01 0.315D+00 0.763D+00
 Coeff:      0.535D-02-0.837D-01 0.315D+00 0.763D+00
 Gap=     0.341 Goal=   None    Shift=    0.000
 Gap=     0.297 Goal=   None    Shift=    0.000
 RMSDP=8.98D-09 MaxDP=2.65D-07 DE=-8.98D-12 OVMax= 1.45D-06

 SCF Done:  E(UwB97XD) =  -286.265111115     A.U. after    4 cycles
            NFock=  4  Conv=0.90D-08     -V/T= 2.0046
 <Sx>= 0.0000 <Sy>= 0.0000 <Sz>= 1.0000 <S**2>= 2.0820 S= 1.0271
 <L.S>= 0.000000000000E+00
 KE= 2.849430500672D+02 PE=-1.168134274828D+03 EE= 3.453757073521D+02
 Annihilation of the first spin contaminant:
 S**2 before annihilation     2.0820,   after     2.0032
 Leave Link  502 at Mon Mar  2 00:39:06 2020, MaxMem=  1879048192 cpu:            2228.9 elap:              75.6
 (Enter /opt/g16/l508.exe)
 QCSCF skips out because SCF is already converged.
 Leave Link  508 at Mon Mar  2 00:39:06 2020, MaxMem=  1879048192 cpu:               1.5 elap:               0.1
 (Enter /opt/g16/l601.exe)
 Copying SCF densities to generalized density rwf, IOpCl= 1 IROHF=0.

 **********************************************************************

            Population analysis using the SCF Density.

 **********************************************************************

 Orbital symmetries:
 Alpha Orbitals:
       Occupied  (A') (A') (A') (A') (A') (A') (A') (A') (A') (A')
                 (A') (A') (A') (A') (A') (A') (A') (A") (A') (A')
                 (A") (A') (A") (A') (A")
       Virtual   (A") (A") (A') (A') (A') (A') (A') (A') (A") (A')
                 (A') (A') (A") (A') (A") (A') (A') (A") (A') (A')
                 (A") (A') (A") (A') (A') (A') (A') (A') (A") (A')
                 (A") (A') (A') (A') (A') (A') (A') (A') (A") (A')
                 (A') (A') (A") (A') (A') (A') (A') (A') (A") (A')
                 (A") (A') (A") (A') (A") (A') (A') (A') (A") (A')
                 (A') (A') (A") (A") (A') (A') (A") (A') (A') (A")
                 (A') (A") (A') (A') (A') (A") (A') (A') (A') (A')
                 (A") (A") (A') (A') (A') (A") (A') (A") (A') (A")
                 (A') (A") (A') (A') (A") (A') (A") (A') (A") (A')
                 (A") (A') (A") (A') (A') (A') (A') (A') (A') (A')
                 (A") (A') (A') (A") (A") (A') (A') (A') (A') (A')
                 (A") (A") (A') (A') (A') (A") (A") (A') (A') (A')
                 (A") (A') (A") (A') (A") (A') (A') (A") (A") (A')
                 (A') (A') (A") (A") (A') (A") (A') (A") (A') (A')
                 (A") (A') (A') (A') (A") (A') (A") (A") (A') (A")
                 (A') (A') (A') (A") (A') (A") (A') (A') (A') (A')
                 (A") (A') (A") (A') (A') (A') (A') (A") (A') (A")
                 (A') (A") (A') (A') (A') (A") (A") (A") (A') (A')
                 (A') (A") (A') (A') (A") (A") (A') (A') (A") (A')
                 (A') (A") (A') (A') (A') (A') (A') (A") (A') (A')
                 (A') (A') (A') (A') (A') (A') (A') (A') (A') (A')
                 (A') (A')
 Beta  Orbitals:
       Occupied  (A') (A') (A') (A') (A') (A') (A') (A') (A') (A')
                 (A') (A') (A') (A') (A') (A') (A') (A") (A') (A')
                 (A") (A') (A")
       Virtual   (A") (A') (A") (A") (A') (A') (A') (A') (A') (A')
                 (A") (A') (A') (A') (A") (A') (A") (A') (A') (A")
                 (A') (A') (A") (A') (A") (A') (A') (A') (A') (A")
                 (A') (A') (A') (A") (A') (A') (A') (A') (A') (A')
                 (A") (A') (A') (A') (A") (A') (A') (A') (A') (A')
                 (A') (A") (A") (A') (A") (A') (A") (A') (A') (A')
                 (A') (A") (A') (A") (A') (A") (A') (A') (A') (A")
                 (A') (A") (A') (A") (A') (A') (A') (A") (A') (A')
                 (A') (A') (A") (A") (A') (A') (A') (A") (A') (A")
                 (A') (A") (A') (A") (A') (A') (A") (A') (A") (A')
                 (A") (A') (A") (A') (A") (A') (A') (A') (A') (A')
                 (A') (A') (A") (A') (A') (A") (A") (A') (A') (A')
                 (A') (A') (A") (A") (A') (A') (A') (A") (A") (A')
                 (A') (A') (A") (A') (A") (A') (A") (A') (A') (A")
                 (A') (A") (A') (A') (A") (A") (A') (A") (A') (A")
                 (A') (A') (A") (A') (A') (A') (A") (A') (A") (A')
                 (A") (A") (A') (A') (A') (A") (A') (A") (A') (A')
                 (A') (A') (A") (A') (A") (A') (A') (A') (A') (A")
                 (A') (A") (A') (A") (A') (A') (A') (A") (A") (A")
                 (A') (A') (A') (A") (A') (A') (A") (A") (A') (A')
                 (A") (A') (A') (A") (A') (A') (A') (A') (A') (A")
                 (A') (A') (A') (A') (A') (A') (A') (A') (A') (A')
                 (A') (A') (A') (A')
 The electronic state is 3-A".
 Alpha  occ. eigenvalues --  -14.43702 -10.33889 -10.33248 -10.31873 -10.31043
 Alpha  occ. eigenvalues --  -10.30858 -10.30333  -1.02752  -0.96213  -0.86983
 Alpha  occ. eigenvalues --   -0.83579  -0.71629  -0.70219  -0.61572  -0.59008
 Alpha  occ. eigenvalues --   -0.55955  -0.53200  -0.50498  -0.49099  -0.47168
 Alpha  occ. eigenvalues --   -0.42522  -0.37959  -0.36534  -0.34662  -0.30018
 Alpha virt. eigenvalues --    0.04123   0.06217   0.12405   0.14681   0.15415
 Alpha virt. eigenvalues --    0.17209   0.18782   0.20013   0.21592   0.25564
 Alpha virt. eigenvalues --    0.26175   0.27243   0.27342   0.29542   0.31642
 Alpha virt. eigenvalues --    0.31754   0.32433   0.32846   0.34144   0.37436
 Alpha virt. eigenvalues --    0.39782   0.39832   0.40591   0.41311   0.42596
 Alpha virt. eigenvalues --    0.44240   0.46715   0.48021   0.48061   0.48788
 Alpha virt. eigenvalues --    0.49389   0.49791   0.51293   0.53591   0.54108
 Alpha virt. eigenvalues --    0.55760   0.57351   0.57680   0.58391   0.60885
 Alpha virt. eigenvalues --    0.65684   0.68985   0.69446   0.69819   0.72285
 Alpha virt. eigenvalues --    0.75085   0.77034   0.78088   0.81085   0.81113
 Alpha virt. eigenvalues --    0.83664   0.86328   0.88281   0.91055   0.93182
 Alpha virt. eigenvalues --    0.94331   0.95821   1.06590   1.06663   1.07108
 Alpha virt. eigenvalues --    1.09970   1.13465   1.13691   1.15502   1.19703
 Alpha virt. eigenvalues --    1.23150   1.27132   1.27375   1.28543   1.29288
 Alpha virt. eigenvalues --    1.30946   1.34699   1.35071   1.36295   1.41728
 Alpha virt. eigenvalues --    1.46453   1.46957   1.47866   1.51039   1.54992
 Alpha virt. eigenvalues --    1.55945   1.56988   1.57688   1.61405   1.62875
 Alpha virt. eigenvalues --    1.63950   1.67829   1.70283   1.72846   1.73818
 Alpha virt. eigenvalues --    1.75718   1.75786   1.79406   1.84076   1.84356
 Alpha virt. eigenvalues --    1.90467   1.92263   1.94086   1.98875   2.01605
 Alpha virt. eigenvalues --    2.06963   2.07987   2.09313   2.13914   2.16162
 Alpha virt. eigenvalues --    2.19134   2.20750   2.23485   2.26919   2.30380
 Alpha virt. eigenvalues --    2.30606   2.36948   2.40617   2.40825   2.43546
 Alpha virt. eigenvalues --    2.51688   2.57698   2.60913   2.63324   2.64367
 Alpha virt. eigenvalues --    2.65810   2.66805   2.67889   2.70902   2.73672
 Alpha virt. eigenvalues --    2.75480   2.76968   2.79961   2.80858   2.82092
 Alpha virt. eigenvalues --    2.83389   2.84797   2.88555   2.89626   2.90406
 Alpha virt. eigenvalues --    2.91497   2.94661   2.95168   3.01809   3.02144
 Alpha virt. eigenvalues --    3.06785   3.10278   3.11620   3.13433   3.15491
 Alpha virt. eigenvalues --    3.18148   3.19023   3.20333   3.20801   3.27181
 Alpha virt. eigenvalues --    3.28453   3.28850   3.29984   3.34065   3.35237
 Alpha virt. eigenvalues --    3.37416   3.39337   3.40929   3.41743   3.43531
 Alpha virt. eigenvalues --    3.45063   3.47573   3.49562   3.53984   3.56938
 Alpha virt. eigenvalues --    3.56941   3.59080   3.61381   3.64316   3.69505
 Alpha virt. eigenvalues --    3.71347   3.77178   3.78564   3.86074   3.87500
 Alpha virt. eigenvalues --    3.99181   4.03084   4.03293   4.05890   4.06056
 Alpha virt. eigenvalues --    4.12013   4.14214   4.18658   4.22689   4.28728
 Alpha virt. eigenvalues --    4.29536   4.32480   4.33254   4.38210   4.42143
 Alpha virt. eigenvalues --    4.46265   4.46586   4.56182   4.64458   4.67261
 Alpha virt. eigenvalues --    4.73614   4.76483   4.81313   4.82982   4.84537
 Alpha virt. eigenvalues --    4.88244   4.93235   5.00047   5.02755   5.14404
 Alpha virt. eigenvalues --    5.22172   5.29509   5.31118   5.33580   5.40746
 Alpha virt. eigenvalues --    5.50053   5.55951   5.62624   5.72393   6.08528
 Alpha virt. eigenvalues --   22.10442  22.59806  22.65120  22.75973  22.90332
 Alpha virt. eigenvalues --   23.29465  32.12229
  Beta  occ. eigenvalues --  -14.42632 -10.34103 -10.31603 -10.31380 -10.31240
  Beta  occ. eigenvalues --  -10.30560 -10.30446  -1.00727  -0.94637  -0.85857
  Beta  occ. eigenvalues --   -0.81091  -0.70257  -0.69009  -0.60566  -0.57884
  Beta  occ. eigenvalues --   -0.54920  -0.52341  -0.48188  -0.47586  -0.46426
  Beta  occ. eigenvalues --   -0.38228  -0.35957  -0.34826
  Beta virt. eigenvalues --   -0.05086  -0.03258   0.06157   0.09079   0.12501
  Beta virt. eigenvalues --    0.15218   0.15731   0.17386   0.18938   0.20174
  Beta virt. eigenvalues --    0.22823   0.25950   0.26331   0.27334   0.27802
  Beta virt. eigenvalues --    0.29898   0.31715   0.32024   0.33040   0.34017
  Beta virt. eigenvalues --    0.34884   0.38321   0.40179   0.40304   0.40980
  Beta virt. eigenvalues --    0.41745   0.42939   0.44691   0.47128   0.48386
  Beta virt. eigenvalues --    0.48436   0.49142   0.50215   0.51114   0.51557
  Beta virt. eigenvalues --    0.54473   0.54639   0.56027   0.58052   0.58350
  Beta virt. eigenvalues --    0.59345   0.61207   0.65773   0.68941   0.70164
  Beta virt. eigenvalues --    0.70259   0.72922   0.75649   0.77867   0.79194
  Beta virt. eigenvalues --    0.81260   0.81527   0.84950   0.87194   0.89989
  Beta virt. eigenvalues --    0.91372   0.93971   0.94959   0.96182   1.07285
  Beta virt. eigenvalues --    1.07690   1.08096   1.11159   1.14428   1.14544
  Beta virt. eigenvalues --    1.16729   1.20518   1.24115   1.27810   1.28422
  Beta virt. eigenvalues --    1.28993   1.30011   1.31720   1.35655   1.35949
  Beta virt. eigenvalues --    1.36851   1.42789   1.47568   1.47637   1.50033
  Beta virt. eigenvalues --    1.52175   1.55989   1.56659   1.58004   1.58263
  Beta virt. eigenvalues --    1.62306   1.63510   1.65368   1.68526   1.70946
  Beta virt. eigenvalues --    1.73275   1.74528   1.76546   1.76809   1.80782
  Beta virt. eigenvalues --    1.84919   1.84934   1.91020   1.92915   1.95232
  Beta virt. eigenvalues --    1.99368   2.02246   2.07559   2.08471   2.10198
  Beta virt. eigenvalues --    2.14640   2.16864   2.20081   2.21730   2.24349
  Beta virt. eigenvalues --    2.27990   2.30961   2.32962   2.37841   2.41001
  Beta virt. eigenvalues --    2.41621   2.46244   2.52475   2.58362   2.61758
  Beta virt. eigenvalues --    2.64326   2.65188   2.66770   2.68456   2.68586
  Beta virt. eigenvalues --    2.71236   2.74072   2.76029   2.77828   2.80831
  Beta virt. eigenvalues --    2.81808   2.82761   2.84424   2.86424   2.89359
  Beta virt. eigenvalues --    2.90834   2.91517   2.92116   2.95265   2.96178
  Beta virt. eigenvalues --    3.03354   3.03751   3.07574   3.10946   3.12372
  Beta virt. eigenvalues --    3.14222   3.17346   3.19437   3.19742   3.21534
  Beta virt. eigenvalues --    3.22179   3.28042   3.29542   3.29801   3.30722
  Beta virt. eigenvalues --    3.35222   3.37660   3.38742   3.39953   3.43190
  Beta virt. eigenvalues --    3.43226   3.45922   3.47907   3.48269   3.50109
  Beta virt. eigenvalues --    3.54803   3.57938   3.58366   3.61248   3.62791
  Beta virt. eigenvalues --    3.65842   3.70223   3.72688   3.78778   3.80315
  Beta virt. eigenvalues --    3.87465   3.88764   3.99856   4.04050   4.04160
  Beta virt. eigenvalues --    4.06684   4.08091   4.13105   4.15588   4.19106
  Beta virt. eigenvalues --    4.23343   4.29467   4.30697   4.34268   4.35168
  Beta virt. eigenvalues --    4.40430   4.43482   4.48113   4.48165   4.58145
  Beta virt. eigenvalues --    4.65805   4.68898   4.76893   4.77817   4.82616
  Beta virt. eigenvalues --    4.85105   4.85374   4.89665   4.97000   5.01628
  Beta virt. eigenvalues --    5.05312   5.15276   5.23344   5.30954   5.33459
  Beta virt. eigenvalues --    5.34469   5.41820   5.51399   5.56624   5.63817
  Beta virt. eigenvalues --    5.73513   6.09411  22.11318  22.61039  22.65774
  Beta virt. eigenvalues --   22.76575  22.90292  23.29440  32.13618
          Condensed to atoms (all electrons):
               1          2          3          4          5          6
     1  N    6.550014  -0.063881   0.578186  -0.000636  -0.000868   0.018176
     2  C   -0.063881   4.931960   0.430378   0.540567  -0.035657  -0.023399
     3  C    0.578186   0.430378   4.699656  -0.013555  -0.040691   0.018162
     4  C   -0.000636   0.540567  -0.013555   4.867587   0.453598  -0.000217
     5  C   -0.000868  -0.035657  -0.040691   0.453598   4.906721   0.430407
     6  C    0.018176  -0.023399   0.018162  -0.000217   0.430407   5.019000
     7  C   -0.119836  -0.052657   0.383038  -0.059828   0.007914   0.364932
     8  H    0.011211   0.412228  -0.037520  -0.050865   0.010742  -0.006140
     9  H   -0.000122  -0.046538   0.009599   0.437209  -0.051595   0.009179
    10  H    0.000024   0.007805  -0.002384  -0.048130   0.429941  -0.047851
    11  H   -0.000225  -0.001162   0.003457   0.005248  -0.044091   0.414411
    12  H    0.353151   0.013248  -0.076140  -0.000073  -0.000719   0.007082
               7          8          9         10         11         12
     1  N   -0.119836   0.011211  -0.000122   0.000024  -0.000225   0.353151
     2  C   -0.052657   0.412228  -0.046538   0.007805  -0.001162   0.013248
     3  C    0.383038  -0.037520   0.009599  -0.002384   0.003457  -0.076140
     4  C   -0.059828  -0.050865   0.437209  -0.048130   0.005248  -0.000073
     5  C    0.007914   0.010742  -0.051595   0.429941  -0.044091  -0.000719
     6  C    0.364932  -0.006140   0.009179  -0.047851   0.414411   0.007082
     7  C    5.482821   0.017506  -0.003727   0.009178  -0.027704  -0.026372
     8  H    0.017506   0.510669  -0.007437  -0.000006   0.000063  -0.001560
     9  H   -0.003727  -0.007437   0.528609  -0.005863  -0.000142   0.000035
    10  H    0.009178  -0.000006  -0.005863   0.523745  -0.004198  -0.000008
    11  H   -0.027704   0.000063  -0.000142  -0.004198   0.513455  -0.000084
    12  H   -0.026372  -0.001560   0.000035  -0.000008  -0.000084   0.516179
          Atomic-Atomic Spin Densities.
               1          2          3          4          5          6
     1  N    0.681090  -0.028425  -0.005379  -0.000402   0.001246  -0.003659
     2  C   -0.028425   0.329118   0.020609  -0.006041  -0.017727   0.002435
     3  C   -0.005379   0.020609  -0.183684   0.012299  -0.004239   0.013387
     4  C   -0.000402  -0.006041   0.012299  -0.165320   0.002185   0.016311
     5  C    0.001246  -0.017727  -0.004239   0.002185   0.405222   0.019979
     6  C   -0.003659   0.002435   0.013387   0.016311   0.019979  -0.237171
     7  C   -0.025568  -0.011506   0.001930  -0.013030  -0.037697   0.012428
     8  H    0.000298  -0.000611  -0.001522  -0.002479   0.000052  -0.000098
     9  H   -0.000027  -0.001026  -0.000341   0.004263  -0.001661   0.000115
    10  H    0.000016  -0.000252   0.000105  -0.002422  -0.003007  -0.002241
    11  H    0.000087  -0.000461   0.000184  -0.000463  -0.008559   0.011238
    12  H   -0.005507   0.002225   0.006982   0.000138   0.000113  -0.000883
               7          8          9         10         11         12
     1  N   -0.025568   0.000298  -0.000027   0.000016   0.000087  -0.005507
     2  C   -0.011506  -0.000611  -0.001026  -0.000252  -0.000461   0.002225
     3  C    0.001930  -0.001522  -0.000341   0.000105   0.000184   0.006982
     4  C   -0.013030  -0.002479   0.004263  -0.002422  -0.000463   0.000138
     5  C   -0.037697   0.000052  -0.001661  -0.003007  -0.008559   0.000113
     6  C    0.012428  -0.000098   0.000115  -0.002241   0.011238  -0.000883
     7  C    1.259900   0.001734  -0.000981   0.003186  -0.008295   0.005457
     8  H    0.001734   0.002219  -0.000530   0.000087   0.000022  -0.000056
     9  H   -0.000981  -0.000530   0.007453  -0.000777  -0.000053   0.000002
    10  H    0.003186   0.000087  -0.000777  -0.000571   0.001792  -0.000004
    11  H   -0.008295   0.000022  -0.000053   0.001792   0.031188  -0.000040
    12  H    0.005457  -0.000056   0.000002  -0.000004  -0.000040  -0.019309
 Mulliken charges and spin densities:
               1          2
     1  N   -0.325194   0.613770
     2  C   -0.112892   0.288338
     3  C    0.047813  -0.139671
     4  C   -0.130904  -0.154961
     5  C   -0.065700   0.355906
     6  C   -0.203742  -0.168159
     7  C    0.024735   1.187557
     8  H    0.141110  -0.000884
     9  H    0.130793   0.006436
    10  H    0.137747  -0.004087
    11  H    0.140973   0.026640
    12  H    0.215260  -0.010884
 Sum of Mulliken charges =  -0.00000   2.00000
 Mulliken charges and spin densities with hydrogens summed into heavy atoms:
               1          2
     1  N   -0.109934   0.602887
     2  C    0.028219   0.287453
     3  C    0.047813  -0.139671
     4  C   -0.000111  -0.148525
     5  C    0.072047   0.351818
     6  C   -0.062769  -0.141519
     7  C    0.024735   1.187557
 Electronic spatial extent (au):  <R**2>=            631.3564
 Charge=             -0.0000 electrons
 Dipole moment (field-independent basis, Debye):
    X=              2.3128    Y=             -1.2072    Z=              0.0000  Tot=              2.6089
 Quadrupole moment (field-independent basis, Debye-Ang):
   XX=            -39.0301   YY=            -38.0727   ZZ=            -43.5503
   XY=              3.6327   XZ=             -0.0000   YZ=             -0.0000
 Traceless Quadrupole moment (field-independent basis, Debye-Ang):
   XX=              1.1876   YY=              2.1450   ZZ=             -3.3326
   XY=              3.6327   XZ=             -0.0000   YZ=             -0.0000
 Octapole moment (field-independent basis, Debye-Ang**2):
  XXX=             11.3404  YYY=              0.4236  ZZZ=              0.0000  XYY=              9.7101
  XXY=            -13.5929  XXZ=              0.0000  XZZ=             -2.2184  YZZ=              0.5939
  YYZ=              0.0000  XYZ=             -0.0000
 Hexadecapole moment (field-independent basis, Debye-Ang**3):
 XXXX=           -481.1704 YYYY=           -275.0728 ZZZZ=            -48.9847 XXXY=             69.3489
 XXXZ=             -0.0000 YYYX=             29.4053 YYYZ=             -0.0000 ZZZX=             -0.0000
 ZZZY=              0.0000 XXYY=           -142.1984 XXZZ=           -100.5874 YYZZ=            -64.3675
 XXYZ=              0.0000 YYXZ=             -0.0000 ZZXY=             11.7202
 N-N= 2.515504062934D+02 E-N=-1.168134274158D+03  KE= 2.849430500672D+02
 Symmetry A'   KE= 2.767784056575D+02
 Symmetry A"   KE= 8.164644409652D+00
 Symmetry A'   SP= 1.000000000000D+00
 Symmetry A"   SP= 1.000000000000D+00
                          Isotropic Fermi Contact Couplings
        Atom                 a.u.       MegaHertz       Gauss      10(-4) cm-1
     1  N(14)              0.06594      10.65263       3.80112       3.55333
     2  C(13)              0.04330      24.33858       8.68461       8.11848
     3  C(13)             -0.02729     -15.34039      -5.47383      -5.11700
     4  C(13)             -0.02481     -13.94587      -4.97623      -4.65184
     5  C(13)              0.06462      36.32033      12.96000      12.11516
     6  C(13)             -0.01094      -6.14896      -2.19410      -2.05107
     7  C(13)              0.34655     194.79202      69.50664      64.97563
     8  H(1)               0.00037       0.81671       0.29142       0.27242
     9  H(1)               0.00275       6.13856       2.19039       2.04760
    10  H(1)              -0.00209      -4.66552      -1.66477      -1.55625
    11  H(1)               0.01359      30.37768      10.83951      10.13290
    12  H(1)              -0.00928     -20.74216      -7.40132      -6.91884
 --------------------------------------------------------
       Center         ----  Spin Dipole Couplings  ----
                      3XX-RR        3YY-RR        3ZZ-RR
 --------------------------------------------------------
     1   Atom       -0.688686     -0.672651      1.361336
     2   Atom       -0.157190     -0.126105      0.283295
     3   Atom        0.084520      0.175575     -0.260095
     4   Atom        0.094737      0.089863     -0.184600
     5   Atom       -0.165430     -0.185338      0.350768
     6   Atom        0.197581      0.061876     -0.259457
     7   Atom        0.006924      0.090546     -0.097470
     8   Atom       -0.016871      0.026879     -0.010008
     9   Atom        0.003896      0.004165     -0.008061
    10   Atom        0.032384     -0.026445     -0.005940
    11   Atom        0.021112     -0.003564     -0.017548
    12   Atom       -0.002389      0.024891     -0.022502
 --------------------------------------------------------
                        XY            XZ            YZ
 --------------------------------------------------------
     1   Atom       -0.026750      0.000000     -0.000000
     2   Atom        0.044548      0.000000      0.000000
     3   Atom       -0.034441      0.000000      0.000000
     4   Atom        0.000543     -0.000000     -0.000000
     5   Atom        0.048542      0.000000      0.000000
     6   Atom       -0.000304     -0.000000      0.000000
     7   Atom        0.767828      0.000000      0.000000
     8   Atom       -0.006880      0.000000     -0.000000
     9   Atom       -0.004761      0.000000      0.000000
    10   Atom       -0.012615     -0.000000      0.000000
    11   Atom       -0.013303      0.000000     -0.000000
    12   Atom        0.053735      0.000000     -0.000000
 --------------------------------------------------------


 ---------------------------------------------------------------------------------
              Anisotropic Spin Dipole Couplings in Principal Axis System
 ---------------------------------------------------------------------------------

       Atom             a.u.   MegaHertz   Gauss  10(-4) cm-1        Axes

              Baa    -0.7086   -27.329    -9.752    -9.116  0.8022  0.5970 -0.0000
     1 N(14)  Bbb    -0.6527   -25.175    -8.983    -8.397 -0.5970  0.8022 -0.0000
              Bcc     1.3613    52.504    18.735    17.513  0.0000  0.0000  1.0000
 
              Baa    -0.1888   -25.339    -9.042    -8.452  0.8153 -0.5790 -0.0000
     2 C(13)  Bbb    -0.0945   -12.676    -4.523    -4.228  0.5790  0.8153 -0.0000
              Bcc     0.2833    38.015    13.565    12.681  0.0000  0.0000  1.0000
 
              Baa    -0.2601   -34.902   -12.454   -11.642  0.0000  0.0000  1.0000
     3 C(13)  Bbb     0.0730     9.791     3.494     3.266  0.9480  0.3182  0.0000
              Bcc     0.1871    25.112     8.960     8.376 -0.3182  0.9480 -0.0000
 
              Baa    -0.1846   -24.772    -8.839    -8.263  0.0000  0.0000  1.0000
     4 C(13)  Bbb     0.0898    12.051     4.300     4.020 -0.1095  0.9940 -0.0000
              Bcc     0.0948    12.721     4.539     4.243  0.9940  0.1095 -0.0000
 
              Baa    -0.2249   -30.184   -10.771   -10.068 -0.6321  0.7749 -0.0000
     5 C(13)  Bbb    -0.1258   -16.885    -6.025    -5.632  0.7749  0.6321  0.0000
              Bcc     0.3508    47.070    16.796    15.701  0.0000  0.0000  1.0000
 
              Baa    -0.2595   -34.817   -12.423   -11.614  0.0000  0.0000  1.0000
     6 C(13)  Bbb     0.0619     8.303     2.963     2.770  0.0022  1.0000 -0.0000
              Bcc     0.1976    26.514     9.461     8.844  1.0000 -0.0022  0.0000
 
              Baa    -0.7202   -96.648   -34.486   -32.238  0.7261 -0.6876 -0.0000
     7 C(13)  Bbb    -0.0975   -13.080    -4.667    -4.363  0.0000  0.0000  1.0000
              Bcc     0.8177   109.728    39.154    36.601  0.6876  0.7261 -0.0000
 
              Baa    -0.0179    -9.565    -3.413    -3.191  0.9884  0.1518  0.0000
     8 H(1)   Bbb    -0.0100    -5.340    -1.905    -1.781  0.0000  0.0000  1.0000
              Bcc     0.0279    14.905     5.318     4.972 -0.1518  0.9884 -0.0000
 
              Baa    -0.0081    -4.301    -1.535    -1.435 -0.0000 -0.0000  1.0000
     9 H(1)   Bbb    -0.0007    -0.391    -0.139    -0.130  0.7170  0.6970  0.0000
              Bcc     0.0088     4.692     1.674     1.565 -0.6970  0.7170 -0.0000
 
              Baa    -0.0290   -15.492    -5.528    -5.168  0.2012  0.9796 -0.0000
    10 H(1)   Bbb    -0.0059    -3.169    -1.131    -1.057  0.0000  0.0000  1.0000
              Bcc     0.0350    18.661     6.659     6.225  0.9796 -0.2012  0.0000
 
              Baa    -0.0175    -9.363    -3.341    -3.123  0.0000  0.0000  1.0000
    11 H(1)   Bbb    -0.0094    -4.999    -1.784    -1.668  0.4000  0.9165 -0.0000
              Bcc     0.0269    14.362     5.125     4.791  0.9165 -0.4000  0.0000
 
              Baa    -0.0442   -23.576    -8.413    -7.864  0.7893 -0.6140  0.0000
    12 H(1)   Bbb    -0.0225   -12.006    -4.284    -4.005  0.0000  0.0000  1.0000
              Bcc     0.0667    35.583    12.697    11.869  0.6140  0.7893 -0.0000
 

 ---------------------------------------------------------------------------------

 No NMR shielding tensors so no spin-rotation constants.
 Leave Link  601 at Mon Mar  2 00:39:13 2020, MaxMem=  1879048192 cpu:             233.4 elap:               7.1
 (Enter /opt/g16/l701.exe)
 ... and contract with generalized density number  0.
 Compute integral first derivatives.
 R6Disp: Adding Grimme-D2 dispersion energy 1st derivatives to the gradient.
   2 Symmetry operations used in ECPInt.
 ECPInt:  NShTT=    4753 NPrTT=   14704 LenC2=    4696 LenP2D=   11982.
 LDataN:  DoStor=T MaxTD1= 7 Len=  274
 Leave Link  701 at Mon Mar  2 00:39:16 2020, MaxMem=  1879048192 cpu:              93.2 elap:               3.0
 (Enter /opt/g16/l702.exe)
 L702 exits ... SP integral derivatives will be done elsewhere.
 Leave Link  702 at Mon Mar  2 00:39:16 2020, MaxMem=  1879048192 cpu:               2.2 elap:               0.1
 (Enter /opt/g16/l703.exe)
 Integral derivatives from FoFJK, PRISM(SPDF).
 Compute integral first derivatives, UseDBF=F ICtDFT=           0.
 Calling FoFJK, ICntrl=      2127 FMM=F ISym2X=1 I1Cent= 0 IOpClX= 1 NMat=1 NMatS=1 NMatT=0.
 FoFJK:  IHMeth= 1 ICntrl=    2127 DoSepK=T KAlg= 0 I1Cent=           0 FoldK=F
 IRaf=         1 NMat=       1 IRICut=       1 DoRegI=T DoRafI=F ISym2E= 1 IDoP0=0 IntGTp=1.
 FoFCou: FMM=F IPFlag=           0 FMFlag=      100000 FMFlg1=         800
         NFxFlg=           0 DoJE=F BraDBF=F KetDBF=F FulRan=T
         wScrn=  0.000000 ICntrl=      2527 IOpCl=  0 I1Cent=           0 NGrid=           0
         NMat0=    1 NMatS0=      1 NMatT0=    0 NMatD0=    1 NMtDS0=    0 NMtDT0=    0
 Petite list used in FoFCou.
 Leave Link  703 at Mon Mar  2 00:39:32 2020, MaxMem=  1879048192 cpu:             535.8 elap:              15.2
 (Enter /opt/g16/l716.exe)
 Dipole        = 9.09916355D-01-4.74930351D-01 1.12039058D-17
 ***** Axes restored to original set *****
 -------------------------------------------------------------------
 Center     Atomic                   Forces (Hartrees/Bohr)
 Number     Number              X              Y              Z
 -------------------------------------------------------------------
      1        7           0.000023786   -0.000070851   -0.000002306
      2        6           0.000173368   -0.000008878    0.000005738
      3        6          -0.000037401    0.000186089    0.000006943
      4        6           0.000013159    0.000115254    0.000005585
      5        6          -0.000079063   -0.000155069   -0.000009684
      6        6           0.000249601    0.000118258    0.000014081
      7        6          -0.000100334   -0.000136298   -0.000009603
      8        1          -0.000029404   -0.000047140   -0.000003134
      9        1          -0.000028112   -0.000025289   -0.000002118
     10        1          -0.000025965    0.000004417   -0.000000722
     11        1          -0.000038783    0.000020629   -0.000000455
     12        1          -0.000120852   -0.000001122   -0.000004324
 -------------------------------------------------------------------
 Cartesian Forces:  Max     0.000249601 RMS     0.000082110
 Leave Link  716 at Mon Mar  2 00:39:32 2020, MaxMem=  1879048192 cpu:               2.4 elap:               0.1
 (Enter /opt/g16/l103.exe)

 GradGradGradGradGradGradGradGradGradGradGradGradGradGradGradGradGradGrad
 Berny optimization.
 FormGI is forming the generalized inverse of G from B-inverse, IUseBI=4.
 GSVD:  received Info=                   1 from GESDD.
 Internal  Forces:  Max     0.000178898 RMS     0.000049256
 Search for a local minimum.
 Step number   1 out of a maximum of   61
 All quantities printed in internal units (Hartrees-Bohrs-Radians)
 RMS Force = .49256D-04 SwitMx=.10000D-02 MixMth= 2
 Mixed Optimization -- En-DIIS/RFO-DIIS
 Second derivative matrix not updated -- first step.
 ITU=  0
     Eigenvalues ---    0.01794   0.02030   0.02055   0.02077   0.02196
     Eigenvalues ---    0.02221   0.02310   0.02351   0.02693   0.16000
     Eigenvalues ---    0.16000   0.16000   0.16000   0.16000   0.22000
     Eigenvalues ---    0.22407   0.24400   0.25000   0.35636   0.35638
     Eigenvalues ---    0.35668   0.35708   0.38613   0.41748   0.44360
     Eigenvalues ---    0.44386   0.44778   0.48976   0.52247   0.60877
 RFO step:  Lambda=-4.68783544D-07 EMin= 1.79360657D-02
 Linear search not attempted -- first point.
 Iteration  1 RMS(Cart)=  0.00033137 RMS(Int)=  0.00000014
 Iteration  2 RMS(Cart)=  0.00000013 RMS(Int)=  0.00000001
 ITry= 1 IFail=0 DXMaxC= 1.87D-03 DCOld= 1.00D+10 DXMaxT= 3.00D-01 DXLimC= 3.00D+00 Rises=F
 ClnCor:  largest displacement from symmetrization is 2.11D-08 for atom    11.
 Variable       Old X    -DE/DX   Delta X   Delta X   Delta X     New X
                                 (Linear)    (Quad)   (Total)
    R1        2.50253  -0.00007   0.00000  -0.00011  -0.00011   2.50242
    R2        1.92726  -0.00008   0.00000  -0.00017  -0.00017   1.92709
    R3        2.71356  -0.00008   0.00000  -0.00021  -0.00021   2.71335
    R4        2.59141   0.00004   0.00000   0.00008   0.00008   2.59149
    R5        2.04654   0.00004   0.00000   0.00011   0.00011   2.04665
    R6        2.66780  -0.00010   0.00000  -0.00024  -0.00024   2.66755
    R7        2.64931  -0.00004   0.00000  -0.00008  -0.00008   2.64923
    R8        2.04541   0.00004   0.00000   0.00011   0.00011   2.04551
    R9        2.64541   0.00014   0.00000   0.00031   0.00031   2.64572
   R10        2.04605   0.00003   0.00000   0.00007   0.00007   2.04612
   R11        2.56947  -0.00010   0.00000  -0.00019  -0.00019   2.56928
   R12        2.04651   0.00003   0.00000   0.00008   0.00008   2.04659
    A1        1.90720  -0.00018   0.00000  -0.00112  -0.00112   1.90608
    A2        2.11370  -0.00006   0.00000  -0.00025  -0.00025   2.11345
    A3        2.04188   0.00007   0.00000   0.00038   0.00038   2.04226
    A4        2.12760  -0.00001   0.00000  -0.00013  -0.00013   2.12748
    A5        2.08680  -0.00006   0.00000  -0.00023  -0.00023   2.08657
    A6        2.20637   0.00001   0.00000   0.00007   0.00007   2.20644
    A7        1.99001   0.00005   0.00000   0.00016   0.00016   1.99017
    A8        2.11369   0.00003   0.00000   0.00016   0.00016   2.11385
    A9        2.08863  -0.00001   0.00000  -0.00008  -0.00008   2.08855
   A10        2.08087  -0.00001   0.00000  -0.00008  -0.00008   2.08079
   A11        2.09870  -0.00002   0.00000  -0.00002  -0.00002   2.09868
   A12        2.09570   0.00001   0.00000  -0.00001  -0.00001   2.09568
   A13        2.08879   0.00001   0.00000   0.00003   0.00003   2.08882
   A14        2.04047  -0.00006   0.00000  -0.00027  -0.00027   2.04021
   A15        2.10973  -0.00000   0.00000  -0.00008  -0.00008   2.10965
   A16        2.13299   0.00007   0.00000   0.00035   0.00035   2.13333
   A17        2.20980   0.00006   0.00000   0.00023   0.00023   2.21003
    D1        3.14159   0.00000   0.00000   0.00000   0.00000   3.14159
    D2       -0.00000   0.00000   0.00000   0.00000   0.00000   0.00000
    D3        3.14159  -0.00000   0.00000  -0.00000   0.00000  -3.14159
    D4       -0.00000  -0.00000   0.00000  -0.00000  -0.00000  -0.00000
    D5        0.00000  -0.00000   0.00000  -0.00000  -0.00000   0.00000
    D6        3.14159  -0.00000   0.00000  -0.00000   0.00000   3.14159
    D7        0.00000   0.00000   0.00000   0.00000  -0.00000  -0.00000
    D8        3.14159  -0.00000   0.00000  -0.00000   0.00000   3.14159
    D9        3.14159   0.00000   0.00000   0.00000  -0.00000   3.14159
   D10       -0.00000  -0.00000   0.00000  -0.00000   0.00000   0.00000
   D11        3.14159   0.00000   0.00000   0.00000   0.00000   3.14159
   D12        0.00000   0.00000   0.00000   0.00000   0.00000   0.00000
   D13        0.00000  -0.00000   0.00000  -0.00000   0.00000   0.00000
   D14        3.14159  -0.00000   0.00000  -0.00000  -0.00000   3.14159
   D15        3.14159   0.00000   0.00000   0.00000   0.00000   3.14159
   D16        0.00000   0.00000   0.00000   0.00000   0.00000   0.00000
   D17       -0.00000  -0.00000   0.00000  -0.00000   0.00000   0.00000
   D18       -3.14159  -0.00000   0.00000  -0.00000  -0.00000   3.14159
   D19        3.14159   0.00000   0.00000   0.00000   0.00000   3.14159
   D20        0.00000  -0.00000   0.00000  -0.00000   0.00000   0.00000
   D21        0.00000   0.00000   0.00000  -0.00000  -0.00000   0.00000
   D22        3.14159   0.00000   0.00000   0.00000   0.00000   3.14159
         Item               Value     Threshold  Converged?
 Maximum Force            0.000179     0.000015     NO 
 RMS     Force            0.000049     0.000010     NO 
 Maximum Displacement     0.001870     0.000060     NO 
 RMS     Displacement     0.000331     0.000040     NO 
 Predicted change in Energy=-2.343925D-07
 Lowest energy point so far.  Saving SCF results.
 GradGradGradGradGradGradGradGradGradGradGradGradGradGradGradGradGradGrad

 Leave Link  103 at Mon Mar  2 00:39:34 2020, MaxMem=  1879048192 cpu:              81.7 elap:               2.6
 (Enter /opt/g16/l202.exe)
                          Input orientation:                          
 ---------------------------------------------------------------------
 Center     Atomic      Atomic             Coordinates (Angstroms)
 Number     Number       Type             X           Y           Z
 ---------------------------------------------------------------------
      1          7           0        2.393923   -1.008633    0.039873
      2          6           0        0.059186   -1.487173   -0.063961
      3          6           0        1.149550   -0.556383    0.015947
      4          6           0       -1.241547   -1.053588   -0.090709
      5          6           0       -1.550847    0.312872   -0.040956
      6          6           0       -0.527539    1.265153    0.037535
      7          6           0        0.748416    0.796252    0.061838
      8          1           0        0.312501   -2.539495   -0.101742
      9          1           0       -2.045776   -1.775548   -0.151222
     10          1           0       -2.583866    0.636519   -0.063118
     11          1           0       -0.754890    2.323315    0.076494
     12          1           0        3.036815   -0.219152    0.097678
 ---------------------------------------------------------------------
                    Distance matrix (angstroms):
                    1          2          3          4          5
     1  N    0.000000
     2  C    2.385535   0.000000
     3  C    1.324224   1.435843   0.000000
     4  C    3.638092   1.371356   2.444572   0.000000
     5  C    4.161024   2.415139   2.837425   1.401911   0.000000
     6  C    3.702033   2.815998   2.476103   2.429571   1.400057
     7  C    2.442496   2.388491   1.411608   2.721237   2.351772
     8  H    2.587646   1.083041   2.155744   2.150141   3.407603
     9  H    4.509502   2.126415   3.424093   1.082438   2.149096
    10  H    5.243617   3.390544   3.920160   2.158482   1.082759
    11  H    4.584566   3.899008   3.453002   3.415885   2.165461
    12  H    1.019770   3.240413   1.918899   4.363044   4.620487
                    6          7          8          9         10
     6  C    0.000000
     7  C    1.359603   0.000000
     8  H    3.898771   3.368084   0.000000
     9  H    3.403901   3.803559   2.479422   0.000000
    10  H    2.152625   3.338447   4.298546   2.472927   0.000000
    11  H    1.083011   2.142911   4.981768   4.303362   2.491972
    12  H    3.861527   2.503817   3.584082   5.321376   5.687713
                   11         12
    11  H    0.000000
    12  H    4.565262   0.000000
 Stoichiometry    C6H5N(3)
 Framework group  CS[SG(C6H5N)]
 Deg. of freedom    21
 Full point group                 CS      NOp   2
 RotChk:  IX=0 Diff= 1.78D+00
 Largest Abelian subgroup         CS      NOp   2
 Largest concise Abelian subgroup C1      NOp   1
                         Standard orientation:                         
 ---------------------------------------------------------------------
 Center     Atomic      Atomic             Coordinates (Angstroms)
 Number     Number       Type             X           Y           Z
 ---------------------------------------------------------------------
      1          7           0        0.097163    2.373720    0.000000
      2          6           0        1.193725    0.255152    0.000000
      3          6           0       -0.000000    1.053066    0.000000
      4          6           0        1.129887   -1.114717    0.000000
      5          6           0       -0.102762   -1.782498   -0.000000
      6          6           0       -1.298949   -1.054970   -0.000000
      7          6           0       -1.194334    0.300601   -0.000000
      8          1           0        2.138883    0.783975    0.000000
      9          1           0        2.044496   -1.693650    0.000000
     10          1           0       -0.133515   -2.864820   -0.000000
     11          1           0       -2.256801   -1.560374   -0.000000
     12          1           0       -0.838606    2.779019   -0.000000
 ---------------------------------------------------------------------
 Rotational constants (GHZ):           5.9908142           2.7650616           1.8918690
 Leave Link  202 at Mon Mar  2 00:39:35 2020, MaxMem=  1879048192 cpu:               5.7 elap:               0.2
 (Enter /opt/g16/l301.exe)
 Standard basis: def2TZVP (5D, 7F)
 Ernie: Thresh=  0.10000D-02 Tol=  0.10000D-05 Strict=F.
 There are   200 symmetry adapted cartesian basis functions of A'  symmetry.
 There are    82 symmetry adapted cartesian basis functions of A"  symmetry.
 There are   172 symmetry adapted basis functions of A'  symmetry.
 There are    75 symmetry adapted basis functions of A"  symmetry.
   247 basis functions,   397 primitive gaussians,   282 cartesian basis functions
    25 alpha electrons       23 beta electrons
       nuclear repulsion energy       251.5626962438 Hartrees.
 IExCor= 4639 DFT=T Ex+Corr=wB97XD ExCW=0 ScaHFX=  1.000000
 ScaDFX=  1.000000  1.000000  1.000000  1.000000 ScalE2=  1.000000  1.000000
 IRadAn=      5 IRanWt=     -1 IRanGd=            0 ICorTp=0 IEmpDi=121
 HFx  wShort=  0.000000 wLong=  0.200000 cFull=  0.222036 cShort=  0.000000 cLong=  0.777964
 DFx  wShort=  0.000000 wLong=  0.200000 cFull=  0.000000 cShort=  0.000000 cLong=  1.000000
 NAtoms=   12 NActive=   12 NUniq=   12 SFac= 1.00D+00 NAtFMM=   60 NAOKFM=F Big=F
 Integral buffers will be    131072 words long.
 Raffenetti 2 integral format.
 Two-electron integral symmetry is turned on.
 R6Disp:  Grimme-D2 Dispersion energy=       -0.0040870078 Hartrees.
 Nuclear repulsion after empirical dispersion term =      251.5586092360 Hartrees.
 Leave Link  301 at Mon Mar  2 00:39:35 2020, MaxMem=  1879048192 cpu:               3.3 elap:               0.1
 (Enter /opt/g16/l302.exe)
 NPDir=0 NMtPBC=     1 NCelOv=     1 NCel=       1 NClECP=     1 NCelD=      1
         NCelK=      1 NCelE2=     1 NClLst=     1 CellRange=     0.0.
 One-electron integrals computed using PRISM.
 One-electron integral symmetry used in STVInt
   2 Symmetry operations used in ECPInt.
 ECPInt:  NShTT=    4753 NPrTT=   14704 LenC2=    4696 LenP2D=   11982.
 LDataN:  DoStor=T MaxTD1= 6 Len=  172
 NBasis=   247 RedAO= T EigKep=  1.67D-05  NBF=   172    75
 NBsUse=   247 1.00D-06 EigRej= -1.00D+00 NBFU=   172    75
 Precomputing XC quadrature grid using
 IXCGrd= 4 IRadAn=           5 IRanWt=          -1 IRanGd=           0 AccXCQ= 1.00D-12.
 Generated NRdTot=       0 NPtTot=           0 NUsed=           0 NTot=          32
 NSgBfM=   281   281   281   281   281 MxSgAt=    12 MxSgA2=    12.
 Leave Link  302 at Mon Mar  2 00:39:40 2020, MaxMem=  1879048192 cpu:             181.2 elap:               5.2
 (Enter /opt/g16/l303.exe)
 DipDrv:  MaxL=1.
 Leave Link  303 at Mon Mar  2 00:39:40 2020, MaxMem=  1879048192 cpu:               7.3 elap:               0.2
 (Enter /opt/g16/l401.exe)
 Initial guess from the checkpoint file:  "check.chk"
 B after Tr=    -0.000000    0.000000    0.000000
         Rot=    0.777463    0.000000    0.000000    0.628929 Ang=  77.94 deg.
 Guess basis will be translated and rotated to current coordinates.
 JPrj=2 DoOrth=T DoCkMO=T.
 Initial guess orbital symmetries:
 Alpha Orbitals:
       Occupied  (A') (A') (A') (A') (A') (A') (A') (A') (A') (A')
                 (A') (A') (A') (A') (A') (A') (A') (A") (A') (A')
                 (A") (A') (A") (A') (A")
       Virtual   (A") (A") (A') (A') (A') (A') (A') (A') (A") (A')
                 (A') (A') (A") (A') (A") (A') (A') (A") (A') (A')
                 (A") (A') (A") (A') (A') (A') (A') (A') (A") (A')
                 (A") (A') (A') (A') (A') (A') (A') (A') (A") (A')
                 (A') (A') (A") (A') (A') (A') (A') (A') (A") (A')
                 (A") (A') (A") (A') (A") (A') (A') (A') (A") (A')
                 (A') (A') (A") (A") (A') (A') (A") (A') (A') (A")
                 (A') (A") (A') (A') (A') (A") (A') (A') (A') (A')
                 (A") (A") (A') (A') (A') (A") (A') (A") (A') (A")
                 (A') (A") (A') (A') (A") (A') (A") (A') (A") (A')
                 (A") (A') (A") (A') (A') (A') (A') (A') (A') (A')
                 (A") (A') (A') (A") (A") (A') (A') (A') (A') (A')
                 (A") (A") (A') (A') (A') (A") (A") (A') (A') (A')
                 (A") (A') (A") (A') (A") (A') (A') (A") (A") (A')
                 (A') (A') (A") (A") (A') (A") (A') (A") (A') (A')
                 (A") (A') (A') (A') (A") (A') (A") (A") (A') (A")
                 (A') (A') (A') (A") (A') (A") (A') (A') (A') (A')
                 (A") (A') (A") (A') (A') (A') (A') (A") (A') (A")
                 (A') (A") (A') (A') (A') (A") (A") (A") (A') (A')
                 (A') (A") (A') (A') (A") (A") (A') (A') (A") (A')
                 (A') (A") (A') (A') (A') (A') (A') (A") (A') (A')
                 (A') (A') (A') (A') (A') (A') (A') (A') (A') (A')
                 (A') (A')
 Beta  Orbitals:
       Occupied  (A') (A') (A') (A') (A') (A') (A') (A') (A') (A')
                 (A') (A') (A') (A') (A') (A') (A') (A") (A') (A')
                 (A") (A') (A")
       Virtual   (A") (A') (A") (A") (A') (A') (A') (A') (A') (A')
                 (A") (A') (A') (A') (A") (A') (A") (A') (A') (A")
                 (A') (A') (A") (A') (A") (A') (A') (A') (A') (A")
                 (A') (A') (A') (A") (A') (A') (A') (A') (A') (A')
                 (A") (A') (A') (A') (A") (A') (A') (A') (A') (A')
                 (A') (A") (A") (A') (A") (A') (A") (A') (A') (A')
                 (A') (A") (A') (A") (A') (A") (A') (A') (A') (A")
                 (A') (A") (A') (A") (A') (A') (A') (A") (A') (A')
                 (A') (A') (A") (A") (A') (A') (A') (A") (A') (A")
                 (A') (A") (A') (A") (A') (A') (A") (A') (A") (A')
                 (A") (A') (A") (A') (A") (A') (A') (A') (A') (A')
                 (A') (A') (A") (A') (A') (A") (A") (A') (A') (A')
                 (A') (A') (A") (A") (A') (A') (A') (A") (A") (A')
                 (A') (A') (A") (A') (A") (A') (A") (A') (A') (A")
                 (A') (A") (A') (A') (A") (A") (A') (A") (A') (A")
                 (A') (A') (A") (A') (A') (A') (A") (A') (A") (A')
                 (A") (A") (A') (A') (A') (A") (A') (A") (A') (A')
                 (A') (A') (A") (A') (A") (A') (A') (A') (A') (A")
                 (A') (A") (A') (A") (A') (A') (A') (A") (A") (A")
                 (A') (A') (A') (A") (A') (A') (A") (A") (A') (A')
                 (A") (A') (A') (A") (A') (A') (A') (A') (A') (A")
                 (A') (A') (A') (A') (A') (A') (A') (A') (A') (A')
                 (A') (A') (A') (A')
 The electronic state of the initial guess is 3-A".
 Initial guess <Sx>= 0.0000 <Sy>= 0.0000 <Sz>= 1.0000 <S**2>= 2.0820 S= 1.0271
 Leave Link  401 at Mon Mar  2 00:39:44 2020, MaxMem=  1879048192 cpu:             124.0 elap:               3.8
 (Enter /opt/g16/l502.exe)
 Keep R1 and R2 ints in memory in symmetry-blocked form, NReq=1418894295.
 FoFCou: FMM=F IPFlag=           0 FMFlag=           0 FMFlg1=           0
         NFxFlg=           0 DoJE=F BraDBF=F KetDBF=F FulRan=T
         wScrn=  0.000000 ICntrl=       600 IOpCl=  0 I1Cent=           0 NGrid=           0
         NMat0=    1 NMatS0=  30628 NMatT0=    0 NMatD0=    1 NMtDS0=    0 NMtDT0=    0
 Petite list used in FoFCou.
 UHF open shell SCF:
 Using DIIS extrapolation, IDIIS=  1040.
 NGot=  1879048192 LenX=  1398088733 LenY=  1398008768
 Requested convergence on RMS density matrix=1.00D-08 within  32 cycles.
 Requested convergence on MAX density matrix=1.00D-06.
 Requested convergence on             energy=1.00D-06.
 No special actions if energy rises.

 Cycle   1  Pass 1  IDiag  1:
 E= -286.265111774717    
 DIIS: error= 2.49D-05 at cycle   1 NSaved=   1.
 NSaved= 1 IEnMin= 1 EnMin= -286.265111774717     IErMin= 1 ErrMin= 2.49D-05
 ErrMax= 2.49D-05  0.00D+00 EMaxC= 1.00D-01 BMatC= 5.36D-07 BMatP= 5.36D-07
 IDIUse=1 WtCom= 1.00D+00 WtEn= 0.00D+00
 Coeff-Com:  0.100D+01
 Coeff:      0.100D+01
 Gap=     0.341 Goal=   None    Shift=    0.000
 Gap=     0.297 Goal=   None    Shift=    0.000
 RMSDP=2.65D-06 MaxDP=6.23D-05              OVMax= 1.11D-04

 Cycle   2  Pass 1  IDiag  1:
 E= -286.265111901623     Delta-E=       -0.000000126907 Rises=F Damp=F
 DIIS: error= 6.08D-06 at cycle   2 NSaved=   2.
 NSaved= 2 IEnMin= 2 EnMin= -286.265111901623     IErMin= 2 ErrMin= 6.08D-06
 ErrMax= 6.08D-06  0.00D+00 EMaxC= 1.00D-01 BMatC= 2.80D-08 BMatP= 5.36D-07
 IDIUse=1 WtCom= 1.00D+00 WtEn= 0.00D+00
 Coeff-Com: -0.166D-01 0.102D+01
 Coeff:     -0.166D-01 0.102D+01
 Gap=     0.341 Goal=   None    Shift=    0.000
 Gap=     0.297 Goal=   None    Shift=    0.000
 RMSDP=7.47D-07 MaxDP=2.27D-05 DE=-1.27D-07 OVMax= 5.83D-05

 Cycle   3  Pass 1  IDiag  1:
 E= -286.265111907343     Delta-E=       -0.000000005720 Rises=F Damp=F
 DIIS: error= 7.27D-06 at cycle   3 NSaved=   3.
 NSaved= 3 IEnMin= 3 EnMin= -286.265111907343     IErMin= 2 ErrMin= 6.08D-06
 ErrMax= 7.27D-06  0.00D+00 EMaxC= 1.00D-01 BMatC= 2.09D-08 BMatP= 2.80D-08
 IDIUse=1 WtCom= 1.00D+00 WtEn= 0.00D+00
 Coeff-Com: -0.565D-01 0.488D+00 0.569D+00
 Coeff:     -0.565D-01 0.488D+00 0.569D+00
 Gap=     0.341 Goal=   None    Shift=    0.000
 Gap=     0.297 Goal=   None    Shift=    0.000
 RMSDP=2.86D-07 MaxDP=1.03D-05 DE=-5.72D-09 OVMax= 3.24D-05

 Cycle   4  Pass 1  IDiag  1:
 E= -286.265111913278     Delta-E=       -0.000000005935 Rises=F Damp=F
 DIIS: error= 2.63D-06 at cycle   4 NSaved=   4.
 NSaved= 4 IEnMin= 4 EnMin= -286.265111913278     IErMin= 4 ErrMin= 2.63D-06
 ErrMax= 2.63D-06  0.00D+00 EMaxC= 1.00D-01 BMatC= 7.90D-10 BMatP= 2.09D-08
 IDIUse=1 WtCom= 1.00D+00 WtEn= 0.00D+00
 Coeff-Com: -0.209D-02-0.642D-01 0.677D-01 0.999D+00
 Coeff:     -0.209D-02-0.642D-01 0.677D-01 0.999D+00
 Gap=     0.341 Goal=   None    Shift=    0.000
 Gap=     0.297 Goal=   None    Shift=    0.000
 RMSDP=1.43D-07 MaxDP=6.32D-06 DE=-5.93D-09 OVMax= 2.44D-05

 Cycle   5  Pass 1  IDiag  1:
 E= -286.265111913954     Delta-E=       -0.000000000676 Rises=F Damp=F
 DIIS: error= 1.36D-06 at cycle   5 NSaved=   5.
 NSaved= 5 IEnMin= 5 EnMin= -286.265111913954     IErMin= 5 ErrMin= 1.36D-06
 ErrMax= 1.36D-06  0.00D+00 EMaxC= 1.00D-01 BMatC= 2.44D-10 BMatP= 7.90D-10
 IDIUse=1 WtCom= 1.00D+00 WtEn= 0.00D+00
 Coeff-Com:  0.769D-02-0.977D-01-0.542D-01 0.384D+00 0.760D+00
 Coeff:      0.769D-02-0.977D-01-0.542D-01 0.384D+00 0.760D+00
 Gap=     0.341 Goal=   None    Shift=    0.000
 Gap=     0.297 Goal=   None    Shift=    0.000
 RMSDP=6.58D-08 MaxDP=2.98D-06 DE=-6.76D-10 OVMax= 1.20D-05

 Cycle   6  Pass 1  IDiag  1:
 E= -286.265111914176     Delta-E=       -0.000000000222 Rises=F Damp=F
 DIIS: error= 1.21D-06 at cycle   6 NSaved=   6.
 NSaved= 6 IEnMin= 6 EnMin= -286.265111914176     IErMin= 6 ErrMin= 1.21D-06
 ErrMax= 1.21D-06  0.00D+00 EMaxC= 1.00D-01 BMatC= 5.09D-11 BMatP= 2.44D-10
 IDIUse=1 WtCom= 1.00D+00 WtEn= 0.00D+00
 Coeff-Com:  0.137D-02 0.914D-02-0.252D-01-0.255D+00-0.157D-01 0.129D+01
 Coeff:      0.137D-02 0.914D-02-0.252D-01-0.255D+00-0.157D-01 0.129D+01
 Gap=     0.341 Goal=   None    Shift=    0.000
 Gap=     0.297 Goal=   None    Shift=    0.000
 RMSDP=5.76D-08 MaxDP=2.28D-06 DE=-2.22D-10 OVMax= 1.64D-05

 Cycle   7  Pass 1  IDiag  1:
 E= -286.265111914297     Delta-E=       -0.000000000121 Rises=F Damp=F
 DIIS: error= 4.68D-07 at cycle   7 NSaved=   7.
 NSaved= 7 IEnMin= 7 EnMin= -286.265111914297     IErMin= 7 ErrMin= 4.68D-07
 ErrMax= 4.68D-07  0.00D+00 EMaxC= 1.00D-01 BMatC= 1.35D-11 BMatP= 5.09D-11
 IDIUse=1 WtCom= 1.00D+00 WtEn= 0.00D+00
 Coeff-Com: -0.170D-02 0.264D-01 0.107D-01-0.136D+00-0.224D+00 0.227D+00
 Coeff-Com:  0.110D+01
 Coeff:     -0.170D-02 0.264D-01 0.107D-01-0.136D+00-0.224D+00 0.227D+00
 Coeff:      0.110D+01
 Gap=     0.341 Goal=   None    Shift=    0.000
 Gap=     0.297 Goal=   None    Shift=    0.000
 RMSDP=2.74D-08 MaxDP=1.05D-06 DE=-1.21D-10 OVMax= 8.55D-06

 Cycle   8  Pass 1  IDiag  1:
 E= -286.265111914325     Delta-E=       -0.000000000028 Rises=F Damp=F
 DIIS: error= 2.14D-07 at cycle   8 NSaved=   8.
 NSaved= 8 IEnMin= 8 EnMin= -286.265111914325     IErMin= 8 ErrMin= 2.14D-07
 ErrMax= 2.14D-07  0.00D+00 EMaxC= 1.00D-01 BMatC= 2.89D-12 BMatP= 1.35D-11
 IDIUse=1 WtCom= 1.00D+00 WtEn= 0.00D+00
 Coeff-Com: -0.661D-03 0.408D-02 0.879D-02 0.267D-01-0.589D-01-0.207D+00
 Coeff-Com:  0.287D+00 0.941D+00
 Coeff:     -0.661D-03 0.408D-02 0.879D-02 0.267D-01-0.589D-01-0.207D+00
 Coeff:      0.287D+00 0.941D+00
 Gap=     0.341 Goal=   None    Shift=    0.000
 Gap=     0.297 Goal=   None    Shift=    0.000
 RMSDP=1.03D-08 MaxDP=4.29D-07 DE=-2.80D-11 OVMax= 3.23D-06

 Cycle   9  Pass 1  IDiag  1:
 E= -286.265111914332     Delta-E=       -0.000000000007 Rises=F Damp=F
 DIIS: error= 5.93D-08 at cycle   9 NSaved=   9.
 NSaved= 9 IEnMin= 9 EnMin= -286.265111914332     IErMin= 9 ErrMin= 5.93D-08
 ErrMax= 5.93D-08  0.00D+00 EMaxC= 1.00D-01 BMatC= 6.40D-13 BMatP= 2.89D-12
 IDIUse=1 WtCom= 1.00D+00 WtEn= 0.00D+00
 Coeff-Com:  0.409D-03-0.667D-02-0.227D-02 0.361D-01 0.454D-01-0.640D-01
 Coeff-Com: -0.264D+00 0.713D-01 0.118D+01
 Coeff:      0.409D-03-0.667D-02-0.227D-02 0.361D-01 0.454D-01-0.640D-01
 Coeff:     -0.264D+00 0.713D-01 0.118D+01
 Gap=     0.341 Goal=   None    Shift=    0.000
 Gap=     0.297 Goal=   None    Shift=    0.000
 RMSDP=5.90D-09 MaxDP=2.72D-07 DE=-6.82D-12 OVMax= 1.63D-06

 SCF Done:  E(UwB97XD) =  -286.265111914     A.U. after    9 cycles
            NFock=  9  Conv=0.59D-08     -V/T= 2.0046
 <Sx>= 0.0000 <Sy>= 0.0000 <Sz>= 1.0000 <S**2>= 2.0820 S= 1.0271
 <L.S>= 0.000000000000E+00
 KE= 2.849437272602D+02 PE=-1.168150926155D+03 EE= 3.453834777447D+02
 Annihilation of the first spin contaminant:
 S**2 before annihilation     2.0820,   after     2.0032
 Leave Link  502 at Mon Mar  2 00:42:09 2020, MaxMem=  1879048192 cpu:            4245.6 elap:             145.0
 (Enter /opt/g16/l508.exe)
 QCSCF skips out because SCF is already converged.
 Leave Link  508 at Mon Mar  2 00:42:10 2020, MaxMem=  1879048192 cpu:               1.7 elap:               0.1
 (Enter /opt/g16/l701.exe)
 ... and contract with generalized density number  0.
 Compute integral first derivatives.
 R6Disp: Adding Grimme-D2 dispersion energy 1st derivatives to the gradient.
   2 Symmetry operations used in ECPInt.
 ECPInt:  NShTT=    4753 NPrTT=   14704 LenC2=    4696 LenP2D=   11982.
 LDataN:  DoStor=T MaxTD1= 7 Len=  274
 Leave Link  701 at Mon Mar  2 00:42:12 2020, MaxMem=  1879048192 cpu:              74.8 elap:               2.4
 (Enter /opt/g16/l702.exe)
 L702 exits ... SP integral derivatives will be done elsewhere.
 Leave Link  702 at Mon Mar  2 00:42:12 2020, MaxMem=  1879048192 cpu:               2.5 elap:               0.1
 (Enter /opt/g16/l703.exe)
 Integral derivatives from FoFJK, PRISM(SPDF).
 Compute integral first derivatives, UseDBF=F ICtDFT=           0.
 Calling FoFJK, ICntrl=      2127 FMM=F ISym2X=1 I1Cent= 0 IOpClX= 1 NMat=1 NMatS=1 NMatT=0.
 FoFJK:  IHMeth= 1 ICntrl=    2127 DoSepK=T KAlg= 0 I1Cent=           0 FoldK=F
 IRaf=         1 NMat=       1 IRICut=       1 DoRegI=T DoRafI=F ISym2E= 1 IDoP0=0 IntGTp=1.
 FoFCou: FMM=F IPFlag=           0 FMFlag=      100000 FMFlg1=         800
         NFxFlg=           0 DoJE=F BraDBF=F KetDBF=F FulRan=T
         wScrn=  0.000000 ICntrl=      2527 IOpCl=  0 I1Cent=           0 NGrid=           0
         NMat0=    1 NMatS0=      1 NMatT0=    0 NMatD0=    1 NMtDS0=    0 NMtDT0=    0
 Petite list used in FoFCou.
 Leave Link  703 at Mon Mar  2 00:42:28 2020, MaxMem=  1879048192 cpu:             549.2 elap:              16.1
[...]
 Alpha virt. eigenvalues --    2.83389   2.84797   2.88556   2.89621   2.90401
 Alpha virt. eigenvalues --    2.91488   2.94682   2.95174   3.01803   3.02143
 Alpha virt. eigenvalues --    3.06786   3.10282   3.11621   3.13430   3.15491
 Alpha virt. eigenvalues --    3.18142   3.19022   3.20336   3.20799   3.27174
 Alpha virt. eigenvalues --    3.28453   3.28864   3.30001   3.34060   3.35239
 Alpha virt. eigenvalues --    3.37411   3.39340   3.40928   3.41748   3.43531
 Alpha virt. eigenvalues --    3.45046   3.47571   3.49553   3.53987   3.56934
 Alpha virt. eigenvalues --    3.56946   3.59092   3.61389   3.64312   3.69512
 Alpha virt. eigenvalues --    3.71341   3.77180   3.78583   3.86074   3.87504
 Alpha virt. eigenvalues --    3.99190   4.03060   4.03285   4.05905   4.06081
 Alpha virt. eigenvalues --    4.12008   4.14220   4.18659   4.22680   4.28721
 Alpha virt. eigenvalues --    4.29527   4.32502   4.33281   4.38221   4.42159
 Alpha virt. eigenvalues --    4.46303   4.46558   4.56231   4.64435   4.67261
 Alpha virt. eigenvalues --    4.73633   4.76507   4.81321   4.82977   4.84521
 Alpha virt. eigenvalues --    4.88260   4.93232   5.00069   5.02749   5.14411
 Alpha virt. eigenvalues --    5.22182   5.29487   5.31115   5.33599   5.40727
 Alpha virt. eigenvalues --    5.50048   5.55953   5.62631   5.72354   6.08580
 Alpha virt. eigenvalues --   22.10460  22.59815  22.65145  22.75951  22.90320
 Alpha virt. eigenvalues --   23.29478  32.12227
  Beta  occ. eigenvalues --  -14.42632 -10.34099 -10.31600 -10.31382 -10.31243
  Beta  occ. eigenvalues --  -10.30560 -10.30447  -1.00731  -0.94637  -0.85858
  Beta  occ. eigenvalues --   -0.81093  -0.70260  -0.69007  -0.60561  -0.57887
  Beta  occ. eigenvalues --   -0.54921  -0.52338  -0.48190  -0.47581  -0.46431
  Beta  occ. eigenvalues --   -0.38226  -0.35966  -0.34827
  Beta virt. eigenvalues --   -0.05086  -0.03258   0.06156   0.09078   0.12500
  Beta virt. eigenvalues --    0.15217   0.15734   0.17385   0.18938   0.20173
  Beta virt. eigenvalues --    0.22824   0.25947   0.26334   0.27334   0.27801
  Beta virt. eigenvalues --    0.29898   0.31714   0.32022   0.33036   0.34018
  Beta virt. eigenvalues --    0.34885   0.38329   0.40178   0.40312   0.40980
  Beta virt. eigenvalues --    0.41742   0.42936   0.44689   0.47130   0.48386
  Beta virt. eigenvalues --    0.48432   0.49139   0.50219   0.51115   0.51554
  Beta virt. eigenvalues --    0.54466   0.54643   0.56025   0.58053   0.58349
  Beta virt. eigenvalues --    0.59346   0.61214   0.65771   0.68936   0.70164
  Beta virt. eigenvalues --    0.70259   0.72920   0.75650   0.77870   0.79200
  Beta virt. eigenvalues --    0.81259   0.81523   0.84952   0.87198   0.89991
  Beta virt. eigenvalues --    0.91371   0.93973   0.94959   0.96187   1.07283
  Beta virt. eigenvalues --    1.07690   1.08092   1.11159   1.14428   1.14546
  Beta virt. eigenvalues --    1.16731   1.20521   1.24108   1.27805   1.28421
  Beta virt. eigenvalues --    1.28995   1.30013   1.31726   1.35658   1.35947
  Beta virt. eigenvalues --    1.36847   1.42795   1.47567   1.47636   1.50035
  Beta virt. eigenvalues --    1.52174   1.55993   1.56659   1.58003   1.58269
  Beta virt. eigenvalues --    1.62304   1.63506   1.65373   1.68520   1.70945
  Beta virt. eigenvalues --    1.73278   1.74533   1.76535   1.76813   1.80792
  Beta virt. eigenvalues --    1.84920   1.84932   1.91033   1.92909   1.95239
  Beta virt. eigenvalues --    1.99370   2.02257   2.07554   2.08464   2.10185
  Beta virt. eigenvalues --    2.14646   2.16859   2.20079   2.21736   2.24342
  Beta virt. eigenvalues --    2.27996   2.30959   2.32965   2.37842   2.41007
  Beta virt. eigenvalues --    2.41622   2.46246   2.52474   2.58364   2.61753
  Beta virt. eigenvalues --    2.64314   2.65179   2.66774   2.68459   2.68594
  Beta virt. eigenvalues --    2.71217   2.74055   2.76026   2.77818   2.80829
  Beta virt. eigenvalues --    2.81820   2.82774   2.84425   2.86425   2.89361
  Beta virt. eigenvalues --    2.90831   2.91511   2.92106   2.95289   2.96185
  Beta virt. eigenvalues --    3.03349   3.03747   3.07576   3.10950   3.12373
  Beta virt. eigenvalues --    3.14219   3.17342   3.19428   3.19744   3.21538
  Beta virt. eigenvalues --    3.22177   3.28039   3.29542   3.29817   3.30733
  Beta virt. eigenvalues --    3.35216   3.37659   3.38742   3.39955   3.43193
  Beta virt. eigenvalues --    3.43227   3.45921   3.47891   3.48265   3.50100
  Beta virt. eigenvalues --    3.54808   3.57931   3.58370   3.61262   3.62801
  Beta virt. eigenvalues --    3.65837   3.70231   3.72682   3.78781   3.80336
  Beta virt. eigenvalues --    3.87461   3.88771   3.99864   4.04028   4.04153
  Beta virt. eigenvalues --    4.06697   4.08115   4.13099   4.15592   4.19108
  Beta virt. eigenvalues --    4.23333   4.29458   4.30686   4.34293   4.35195
  Beta virt. eigenvalues --    4.40441   4.43499   4.48137   4.48152   4.58193
  Beta virt. eigenvalues --    4.65781   4.68900   4.76913   4.77842   4.82624
  Beta virt. eigenvalues --    4.85100   4.85359   4.89682   4.96999   5.01655
  Beta virt. eigenvalues --    5.05303   5.15284   5.23355   5.30931   5.33458
  Beta virt. eigenvalues --    5.34489   5.41802   5.51394   5.56626   5.63825
  Beta virt. eigenvalues --    5.73475   6.09463  22.11334  22.61043  22.65798
  Beta virt. eigenvalues --   22.76559  22.90281  23.29453  32.13617
          Condensed to atoms (all electrons):
               1          2          3          4          5          6
     1  N    6.550179  -0.063876   0.577900  -0.000629  -0.000869   0.018164
     2  C   -0.063876   4.931966   0.430479   0.540419  -0.035591  -0.023451
     3  C    0.577900   0.430479   4.699656  -0.013599  -0.040710   0.018204
     4  C   -0.000629   0.540419  -0.013599   4.867552   0.453762  -0.000166
     5  C   -0.000869  -0.035591  -0.040710   0.453762   4.906775   0.430133
     6  C    0.018164  -0.023451   0.018204  -0.000166   0.430133   5.019271
     7  C   -0.119755  -0.052472   0.382996  -0.059882   0.007909   0.365065
     8  H    0.011199   0.412267  -0.037524  -0.050858   0.010738  -0.006135
     9  H   -0.000122  -0.046547   0.009602   0.437188  -0.051587   0.009176
    10  H    0.000024   0.007801  -0.002385  -0.048117   0.429922  -0.047852
    11  H   -0.000224  -0.001161   0.003460   0.005245  -0.044094   0.414410
    12  H    0.353159   0.013234  -0.076165  -0.000073  -0.000721   0.007096
               7          8          9         10         11         12
     1  N   -0.119755   0.011199  -0.000122   0.000024  -0.000224   0.353159
     2  C   -0.052472   0.412267  -0.046547   0.007801  -0.001161   0.013234
     3  C    0.382996  -0.037524   0.009602  -0.002385   0.003460  -0.076165
     4  C   -0.059882  -0.050858   0.437188  -0.048117   0.005245  -0.000073
     5  C    0.007909   0.010738  -0.051587   0.429922  -0.044094  -0.000721
     6  C    0.365065  -0.006135   0.009176  -0.047852   0.414410   0.007096
     7  C    5.482561   0.017492  -0.003727   0.009184  -0.027688  -0.026359
     8  H    0.017492   0.510620  -0.007433  -0.000006   0.000063  -0.001557
     9  H   -0.003727  -0.007433   0.528648  -0.005867  -0.000142   0.000035
    10  H    0.009184  -0.000006  -0.005867   0.523729  -0.004189  -0.000008
    11  H   -0.027688   0.000063  -0.000142  -0.004189   0.513401  -0.000084
    12  H   -0.026359  -0.001557   0.000035  -0.000008  -0.000084   0.516243
          Atomic-Atomic Spin Densities.
               1          2          3          4          5          6
     1  N    0.681386  -0.028450  -0.005373  -0.000405   0.001245  -0.003661
     2  C   -0.028450   0.329318   0.020599  -0.006042  -0.017725   0.002435
     3  C   -0.005373   0.020599  -0.183808   0.012295  -0.004238   0.013382
     4  C   -0.000405  -0.006042   0.012295  -0.165333   0.002204   0.016306
     5  C    0.001245  -0.017725  -0.004238   0.002204   0.405287   0.020001
     6  C   -0.003661   0.002435   0.013382   0.016306   0.020001  -0.237247
     7  C   -0.025611  -0.011469   0.001875  -0.013022  -0.037704   0.012402
     8  H    0.000299  -0.000609  -0.001521  -0.002474   0.000051  -0.000098
     9  H   -0.000027  -0.001026  -0.000341   0.004266  -0.001663   0.000116
    10  H    0.000016  -0.000252   0.000106  -0.002431  -0.003009  -0.002246
    11  H    0.000087  -0.000460   0.000186  -0.000464  -0.008571   0.011234
    12  H   -0.005508   0.002229   0.006989   0.000138   0.000113  -0.000885
               7          8          9         10         11         12
     1  N   -0.025611   0.000299  -0.000027   0.000016   0.000087  -0.005508
     2  C   -0.011469  -0.000609  -0.001026  -0.000252  -0.000460   0.002229
     3  C    0.001875  -0.001521  -0.000341   0.000106   0.000186   0.006989
     4  C   -0.013022  -0.002474   0.004266  -0.002431  -0.000464   0.000138
     5  C   -0.037704   0.000051  -0.001663  -0.003009  -0.008571   0.000113
     6  C    0.012402  -0.000098   0.000116  -0.002246   0.011234  -0.000885
     7  C    1.259690   0.001731  -0.000983   0.003192  -0.008289   0.005465
     8  H    0.001731   0.002209  -0.000531   0.000087   0.000022  -0.000056
     9  H   -0.000983  -0.000531   0.007461  -0.000778  -0.000053   0.000002
    10  H    0.003192   0.000087  -0.000778  -0.000545   0.001794  -0.000004
    11  H   -0.008289   0.000022  -0.000053   0.001794   0.031209  -0.000040
    12  H    0.005465  -0.000056   0.000002  -0.000004  -0.000040  -0.019320
 Mulliken charges and spin densities:
               1          2
     1  N   -0.325152   0.613998
     2  C   -0.113068   0.288547
     3  C    0.048086  -0.139848
     4  C   -0.130842  -0.154963
     5  C   -0.065667   0.355991
     6  C   -0.203915  -0.168262
     7  C    0.024676   1.187277
     8  H    0.141135  -0.000890
     9  H    0.130777   0.006444
    10  H    0.137765  -0.004070
    11  H    0.141004   0.026654
    12  H    0.215200  -0.010878
 Sum of Mulliken charges =  -0.00000   2.00000
 Mulliken charges and spin densities with hydrogens summed into heavy atoms:
               1          2
     1  N   -0.109951   0.603120
     2  C    0.028067   0.287657
     3  C    0.048086  -0.139848
     4  C   -0.000065  -0.148519
     5  C    0.072098   0.351921
     6  C   -0.062911  -0.141608
     7  C    0.024676   1.187277
 Electronic spatial extent (au):  <R**2>=            631.3203
 Charge=             -0.0000 electrons
 Dipole moment (field-independent basis, Debye):
    X=             -0.6970    Y=             -2.5155    Z=              0.0000  Tot=              2.6103
 Quadrupole moment (field-independent basis, Debye-Ang):
   XX=            -36.6268   YY=            -40.4812   ZZ=            -43.5502
   XY=             -3.1158   XZ=              0.0000   YZ=              0.0000
 Traceless Quadrupole moment (field-independent basis, Debye-Ang):
   XX=              3.5926   YY=             -0.2618   ZZ=             -3.3308
   XY=             -3.1158   XZ=              0.0000   YZ=              0.0000
 Octapole moment (field-independent basis, Debye-Ang**2):
  XXX=              4.5802  YYY=            -20.0321  ZZZ=             -0.0000  XYY=            -13.0550
  XXY=             -3.3407  XXZ=             -0.0000  XZZ=              0.1170  YZZ=              2.2944
  YYZ=              0.0000  XYZ=             -0.0000
 Hexadecapole moment (field-independent basis, Debye-Ang**3):
 XXXX=           -262.6517 YYYY=           -531.5647 ZZZZ=            -48.9844 XXXY=             -1.6605
 XXXZ=              0.0000 YYYX=            -46.3099 YYYZ=              0.0000 ZZZX=              0.0000
 ZZZY=             -0.0000 XXYY=           -123.2348 XXZZ=            -61.1605 YYZZ=           -103.7865
 XXYZ=              0.0000 YYXZ=              0.0000 ZZXY=             -3.2969
 N-N= 2.515562953198D+02 E-N=-1.168146070748D+03  KE= 2.849434030609D+02
 Symmetry A'   KE= 2.767787386997D+02
 Symmetry A"   KE= 8.164664361237D+00
 Symmetry A'   SP= 1.000000000000D+00
 Symmetry A"   SP= 1.000000000000D+00
                          Isotropic Fermi Contact Couplings
        Atom                 a.u.       MegaHertz       Gauss      10(-4) cm-1
     1  N(14)              0.06591      10.64813       3.79952       3.55183
     2  C(13)              0.04331      24.34298       8.68618       8.11994
     3  C(13)             -0.02731     -15.34844      -5.47671      -5.11969
     4  C(13)             -0.02483     -13.95556      -4.97969      -4.65508
     5  C(13)              0.06467      36.35313      12.97170      12.12610
     6  C(13)             -0.01096      -6.15928      -2.19778      -2.05451
     7  C(13)              0.34623     194.61266      69.44263      64.91579
     8  H(1)               0.00036       0.81152       0.28957       0.27069
     9  H(1)               0.00275       6.14304       2.19199       2.04910
    10  H(1)              -0.00208      -4.65011      -1.65927      -1.55111
    11  H(1)               0.01360      30.38676      10.84275      10.13593
    12  H(1)              -0.00928     -20.74976      -7.40403      -6.92138
 --------------------------------------------------------
       Center         ----  Spin Dipole Couplings  ----
                      3XX-RR        3YY-RR        3ZZ-RR
 --------------------------------------------------------
     1   Atom       -0.684482     -0.677215      1.361697
     2   Atom       -0.109402     -0.174123      0.283524
     3   Atom        0.157435      0.102594     -0.260029
     4   Atom        0.090300      0.094309     -0.184609
     5   Atom       -0.164585     -0.186145      0.350730
     6   Atom        0.067648      0.191804     -0.259453
     7   Atom        0.400494     -0.302535     -0.097959
     8   Atom        0.022175     -0.012167     -0.010007
     9   Atom        0.002209      0.005854     -0.008063
    10   Atom       -0.029030      0.034974     -0.005944
    11   Atom       -0.007914      0.025449     -0.017536
    12   Atom        0.045793     -0.023267     -0.022527
 --------------------------------------------------------
                        XY            XZ            YZ
 --------------------------------------------------------
     1   Atom        0.027797     -0.000000     -0.000000
     2   Atom       -0.034316     -0.000000      0.000000
     3   Atom        0.050009      0.000000     -0.000000
     4   Atom       -0.001475      0.000000     -0.000000
     5   Atom       -0.048426      0.000000     -0.000000
     6   Atom       -0.027372      0.000000     -0.000000
     7   Atom       -0.683986      0.000000     -0.000000
     8   Atom        0.015221     -0.000000      0.000000
     9   Atom        0.004400      0.000000     -0.000000
    10   Atom       -0.000506      0.000000     -0.000000
    11   Atom        0.007086      0.000000      0.000000
    12   Atom       -0.043392     -0.000000      0.000000
 --------------------------------------------------------


 ---------------------------------------------------------------------------------
              Anisotropic Spin Dipole Couplings in Principal Axis System
 ---------------------------------------------------------------------------------

       Atom             a.u.   MegaHertz   Gauss  10(-4) cm-1        Axes

              Baa    -0.7089   -27.340    -9.756    -9.120  0.7515 -0.6597 -0.0000
     1 N(14)  Bbb    -0.6528   -25.178    -8.984    -8.398  0.6597  0.7515 -0.0000
              Bcc     1.3617    52.518    18.740    17.518  0.0000  0.0000  1.0000
 
              Baa    -0.1889   -25.353    -9.046    -8.457  0.3962  0.9182  0.0000
     2 C(13)  Bbb    -0.0946   -12.694    -4.529    -4.234  0.9182 -0.3962  0.0000
              Bcc     0.2835    38.046    13.576    12.691 -0.0000  0.0000  1.0000
 
              Baa    -0.2600   -34.893   -12.451   -11.639  0.0000  0.0000  1.0000
     3 C(13)  Bbb     0.0730     9.793     3.495     3.267 -0.5095  0.8605 -0.0000
              Bcc     0.1870    25.100     8.956     8.372  0.8605  0.5095  0.0000
 
              Baa    -0.1846   -24.773    -8.840    -8.263  0.0000  0.0000  1.0000
     4 C(13)  Bbb     0.0898    12.052     4.301     4.020  0.9501  0.3119  0.0000
              Bcc     0.0948    12.720     4.539     4.243 -0.3119  0.9501 -0.0000
 
              Baa    -0.2250   -30.190   -10.772   -10.070  0.6256  0.7802  0.0000
     5 C(13)  Bbb    -0.1258   -16.875    -6.021    -5.629  0.7802 -0.6256 -0.0000
              Bcc     0.3507    47.065    16.794    15.699  0.0000  0.0000  1.0000
 
              Baa    -0.2595   -34.816   -12.423   -11.613 -0.0000  0.0000  1.0000
     6 C(13)  Bbb     0.0619     8.304     2.963     2.770  0.9785  0.2062  0.0000
              Bcc     0.1976    26.512     9.460     8.843 -0.2062  0.9785 -0.0000
 
              Baa    -0.7200   -96.623   -34.478   -32.230  0.5210  0.8535  0.0000
     7 C(13)  Bbb    -0.0980   -13.145    -4.691    -4.385 -0.0000  0.0000  1.0000
              Bcc     0.8180   109.768    39.168    36.615  0.8535 -0.5210  0.0000
 
              Baa    -0.0179    -9.573    -3.416    -3.193 -0.3547  0.9350  0.0000
     8 H(1)   Bbb    -0.0100    -5.339    -1.905    -1.781  0.0000 -0.0000  1.0000
              Bcc     0.0279    14.913     5.321     4.974  0.9350  0.3547 -0.0000
 
              Baa    -0.0081    -4.302    -1.535    -1.435 -0.0000  0.0000  1.0000
     9 H(1)   Bbb    -0.0007    -0.390    -0.139    -0.130  0.8315 -0.5556  0.0000
              Bcc     0.0088     4.692     1.674     1.565  0.5556  0.8315 -0.0000
 
              Baa    -0.0290   -15.491    -5.528    -5.167  1.0000  0.0079  0.0000
    10 H(1)   Bbb    -0.0059    -3.171    -1.132    -1.058  0.0000  0.0000  1.0000
              Bcc     0.0350    18.663     6.659     6.225 -0.0079  1.0000 -0.0000
 
              Baa    -0.0175    -9.356    -3.339    -3.121 -0.0000 -0.0000  1.0000
    11 H(1)   Bbb    -0.0094    -4.992    -1.781    -1.665  0.9799 -0.1995  0.0000
              Bcc     0.0269    14.348     5.120     4.786  0.1995  0.9799  0.0000
 
              Baa    -0.0442   -23.578    -8.413    -7.865  0.4344  0.9007  0.0000
    12 H(1)   Bbb    -0.0225   -12.019    -4.289    -4.009  0.0000  0.0000  1.0000
              Bcc     0.0667    35.597    12.702    11.874  0.9007 -0.4344  0.0000
 

 ---------------------------------------------------------------------------------

 No NMR shielding tensors so no spin-rotation constants.
 Leave Link  601 at Mon Mar  2 00:47:59 2020, MaxMem=  1879048192 cpu:             210.4 elap:               6.4
 (Enter /opt/g16/l9999.exe)

 Test job not archived.
 1\1\GINC-NODE06\FOpt\UwB97XD\def2TZVP\C6H5N1(3)\ALONGD\02-Mar-2020\0\\
 #P opt=(tight) guess=read uwb97xd/def2tzvp scf=(tight, direct) integra
 l=(grid=ultrafine, Acc2E=12) scf=xqc iop(2/9=2000)\\name\\0,3\N,2.3940
 577929,-1.008524561,0.0398826822\C,0.0591928865,-1.4872384511,-0.06396
 36643\C,1.1495074983,-0.5564325175,0.0159435628\C,-1.2415952742,-1.053
 5733119,-0.0907103602\C,-1.5508463557,0.312833396,-0.0409575916\C,-0.5
 274456051,1.2651787839,0.0375396146\C,0.7483827247,0.7961364297,0.0618
 32158\H,0.3123722644,-2.5395810492,-0.1017500698\H,-2.0458681163,-1.77
 54850073,-0.1512220261\H,-2.5838440584,0.6365423745,-0.0631164657\H,-0
 .7549510599,2.3232968776,0.0764906272\H,3.0369643102,-0.2190149541,0.0
 976893193\\Version=ES64L-G16RevB.01\State=3-A"\HF=-286.265112\S2=2.081
 998\S2-1=0.\S2A=2.003248\RMSD=7.364e-09\RMSF=3.431e-06\Dipole=-0.87804
 93,0.5325649,-0.0074018\Quadrupole=1.2170656,1.2388331,-2.4558987,2.71
 36036,0.2511646,0.2609957\PG=CS [SG(C6H5N1)]\\@


 NO MATTER HOW THIN YOU SLICE IT, IT'S STILL BALONEY

                                   -- ALFRED E. SMITH
 Job cpu time:       0 days  5 hours  8 minutes 57.9 seconds.
 Elapsed time:       0 days  0 hours 10 minutes 15.4 seconds.
 File lengths (MBytes):  RWF=     45 Int=      0 D2E=      0 Chk=      7 Scr=      1
 Normal termination of Gaussian 16 at Mon Mar  2 00:47:59 2020.
