 Entering Gaussian System, Link 0=g16
 Initial command:
 /opt/g16/l1.exe "/scratch/alongd/g16/a4344-34518/Gau-13870.inp" -scrdir="/scratch/alongd/g16/a4344-34518/"
 Entering Link 1 = /opt/g16/l1.exe PID=     13872.
  
 Copyright (c) 1988-2017, Gaussian, Inc.  All Rights Reserved.
  
 This is part of the Gaussian(R) 16 program.  It is based on
 the Gaussian(R) 09 system (copyright 2009, Gaussian, Inc.),
 the Gaussian(R) 03 system (copyright 2003, Gaussian, Inc.),
 the Gaussian(R) 98 system (copyright 1998, Gaussian, Inc.),
 the Gaussian(R) 94 system (copyright 1995, Gaussian, Inc.),
 the Gaussian 92(TM) system (copyright 1992, Gaussian, Inc.),
 the Gaussian 90(TM) system (copyright 1990, Gaussian, Inc.),
 the Gaussian 88(TM) system (copyright 1988, Gaussian, Inc.),
 the Gaussian 86(TM) system (copyright 1986, Carnegie Mellon
 University), and the Gaussian 82(TM) system (copyright 1983,
 Carnegie Mellon University). Gaussian is a federally registered
 trademark of Gaussian, Inc.
  
 This software contains proprietary and confidential information,
 including trade secrets, belonging to Gaussian, Inc.
  
 This software is provided under written license and may be
 used, copied, transmitted, or stored only in accord with that
 written license.
  
 The following legend is applicable only to US Government
 contracts under FAR:
  
                    RESTRICTED RIGHTS LEGEND
  
 Use, reproduction and disclosure by the US Government is
 subject to restrictions as set forth in subparagraphs (a)
 and (c) of the Commercial Computer Software - Restricted
 Rights clause in FAR 52.227-19.
  
 Gaussian, Inc.
 340 Quinnipiac St., Bldg. 40, Wallingford CT 06492
  
  
 ---------------------------------------------------------------
 Warning -- This program may not be used in any manner that
 competes with the business of Gaussian, Inc. or will provide
 assistance to any competitor of Gaussian, Inc.  The licensee
 of this program is prohibited from giving any competitor of
 Gaussian, Inc. access to this program.  By using this program,
 the user acknowledges that Gaussian, Inc. is engaged in the
 business of creating and licensing software in the field of
 computational chemistry and represents and warrants to the
 licensee that it is not a competitor of Gaussian, Inc. and that
 it will not use this program in any manner prohibited above.
 ---------------------------------------------------------------
  

 Cite this work as:
 Gaussian 16, Revision B.01,
 M. J. Frisch, G. W. Trucks, H. B. Schlegel, G. E. Scuseria, 
 M. A. Robb, J. R. Cheeseman, G. Scalmani, V. Barone, 
 G. A. Petersson, H. Nakatsuji, X. Li, M. Caricato, A. V. Marenich, 
 J. Bloino, B. G. Janesko, R. Gomperts, B. Mennucci, H. P. Hratchian, 
 J. V. Ortiz, A. F. Izmaylov, J. L. Sonnenberg, D. Williams-Young, 
 F. Ding, F. Lipparini, F. Egidi, J. Goings, B. Peng, A. Petrone, 
 T. Henderson, D. Ranasinghe, V. G. Zakrzewski, J. Gao, N. Rega, 
 G. Zheng, W. Liang, M. Hada, M. Ehara, K. Toyota, R. Fukuda, 
 J. Hasegawa, M. Ishida, T. Nakajima, Y. Honda, O. Kitao, H. Nakai, 
 T. Vreven, K. Throssell, J. A. Montgomery, Jr., J. E. Peralta, 
 F. Ogliaro, M. J. Bearpark, J. J. Heyd, E. N. Brothers, K. N. Kudin, 
 V. N. Staroverov, T. A. Keith, R. Kobayashi, J. Normand, 
 K. Raghavachari, A. P. Rendell, J. C. Burant, S. S. Iyengar, 
 J. Tomasi, M. Cossi, J. M. Millam, M. Klene, C. Adamo, R. Cammi, 
 J. W. Ochterski, R. L. Martin, K. Morokuma, O. Farkas, 
 J. B. Foresman, and D. J. Fox, Gaussian, Inc., Wallingford CT, 2016.
 
 ******************************************
 Gaussian 16:  ES64L-G16RevB.01 20-Dec-2017
                 1-Mar-2020 
 ******************************************
 %chk=check.chk
 %mem=14336mb
 %NProcShared=36
 Will use up to   36 processors via shared memory.
 ----------------------------------------------------------------------
 #P opt=(tight) guess=read uwb97xd/def2tzvp scf=(tight, direct) integra
 l=(grid=ultrafine, Acc2E=12) scf=xqc iop(2/9=2000)
 ----------------------------------------------------------------------
 1/7=10,18=20,19=15,26=4,38=1/1,3;
 2/9=2000,12=2,17=6,18=5,40=1/2;
 3/5=44,7=101,11=2,25=1,27=12,30=1,71=1,74=-58,75=-5,116=2/1,2,3;
 4/5=1/1;
 5/5=2,8=3,13=1,32=2,38=6,87=12/2,8;
 6/7=2,8=2,9=2,10=2,28=1,87=12/1;
 7/87=12/1,2,3,16;
 1/7=10,18=20,19=15,26=4/3(2);
 2/9=2000/2;
 99//99;
 2/9=2000/2;
 3/5=44,7=101,11=2,25=1,27=12,30=1,71=1,74=-58,75=-5,116=2/1,2,3;
 4/5=5,16=3,69=1/1;
 5/5=2,8=3,13=1,32=2,38=5,87=12/2,8;
 7/87=12/1,2,3,16;
 1/7=10,18=20,19=15,26=4/3(-5);
 2/9=2000/2;
 6/7=2,8=2,9=2,10=2,19=2,28=1,87=12/1;
 99/9=1/99;
 Leave Link    1 at Sun Mar  1 23:18:15 2020, MaxMem=  1879048192 cpu:               6.8 elap:               0.3
 (Enter /opt/g16/l101.exe)
 ----
 name
 ----
 Symbolic Z-matrix:
 Charge =  0 Multiplicity = 2
 N                     2.4157    0.57542   0.17236 
 C                     1.12595   0.26833   0.08034 
 C                     0.18305   1.33574   0.01044 
 H                     0.57086   2.34571   0.03626 
 C                    -1.16324   1.08188  -0.08575 
 C                    -1.63242  -0.23285  -0.11679 
 C                    -0.7344   -1.29986  -0.05012 
 C                     0.61553  -1.06425   0.04637 
 H                     2.96916  -0.28075   0.21385 
 H                    -1.86601   1.90378  -0.1379 
 H                    -2.69464  -0.42626  -0.1927 
 H                    -1.10556  -2.31671  -0.07472 
 H                     1.31601  -1.89018   0.09836 
 
 ITRead=  0  0  0  0  0  0  0  0  0  0  0  0  0
 MicOpt= -1 -1 -1 -1 -1 -1 -1 -1 -1 -1 -1 -1 -1
 NAtoms=     13 NQM=       13 NQMF=       0 NMMI=      0 NMMIF=      0
                NMic=       0 NMicF=      0.
                    Isotopes and Nuclear Properties:
 (Nuclear quadrupole moments (NQMom) in fm**2, nuclear magnetic moments (NMagM)
  in nuclear magnetons)

  Atom         1           2           3           4           5           6           7           8           9          10
 IAtWgt=          14          12          12           1          12          12          12          12           1           1
 AtmWgt=  14.0030740  12.0000000  12.0000000   1.0078250  12.0000000  12.0000000  12.0000000  12.0000000   1.0078250   1.0078250
 NucSpn=           2           0           0           1           0           0           0           0           1           1
 AtZEff=  -0.0000000  -0.0000000  -0.0000000  -0.0000000  -0.0000000  -0.0000000  -0.0000000  -0.0000000  -0.0000000  -0.0000000
 NQMom=    2.0440000   0.0000000   0.0000000   0.0000000   0.0000000   0.0000000   0.0000000   0.0000000   0.0000000   0.0000000
 NMagM=    0.4037610   0.0000000   0.0000000   2.7928460   0.0000000   0.0000000   0.0000000   0.0000000   2.7928460   2.7928460
 AtZNuc=   7.0000000   6.0000000   6.0000000   1.0000000   6.0000000   6.0000000   6.0000000   6.0000000   1.0000000   1.0000000

  Atom        11          12          13
 IAtWgt=           1           1           1
 AtmWgt=   1.0078250   1.0078250   1.0078250
 NucSpn=           1           1           1
 AtZEff=  -0.0000000  -0.0000000  -0.0000000
 NQMom=    0.0000000   0.0000000   0.0000000
 NMagM=    2.7928460   2.7928460   2.7928460
 AtZNuc=   1.0000000   1.0000000   1.0000000
 Leave Link  101 at Sun Mar  1 23:18:16 2020, MaxMem=  1879048192 cpu:              26.9 elap:               0.8
 (Enter /opt/g16/l103.exe)

 GradGradGradGradGradGradGradGradGradGradGradGradGradGradGradGradGradGrad
 Berny optimization.
 Initialization pass.
                           ----------------------------
                           !    Initial Parameters    !
                           ! (Angstroms and Degrees)  !
 --------------------------                            --------------------------
 ! Name  Definition              Value          Derivative Info.                !
 --------------------------------------------------------------------------------
 ! R1    R(1,2)                  1.329          estimate D2E/DX2                !
 ! R2    R(1,9)                  1.0203         estimate D2E/DX2                !
 ! R3    R(2,3)                  1.4259         estimate D2E/DX2                !
 ! R4    R(2,8)                  1.4274         estimate D2E/DX2                !
 ! R5    R(3,4)                  1.0822         estimate D2E/DX2                !
 ! R6    R(3,5)                  1.3734         estimate D2E/DX2                !
 ! R7    R(5,6)                  1.3963         estimate D2E/DX2                !
 ! R8    R(5,10)                 1.0827         estimate D2E/DX2                !
 ! R9    R(6,7)                  1.3962         estimate D2E/DX2                !
 ! R10   R(6,11)                 1.0823         estimate D2E/DX2                !
 ! R11   R(7,8)                  1.3737         estimate D2E/DX2                !
 ! R12   R(7,12)                 1.0827         estimate D2E/DX2                !
 ! R13   R(8,13)                 1.0842         estimate D2E/DX2                !
 ! A1    A(2,1,9)              109.5935         estimate D2E/DX2                !
 ! A2    A(1,2,3)              118.1734         estimate D2E/DX2                !
 ! A3    A(1,2,8)              124.3604         estimate D2E/DX2                !
 ! A4    A(3,2,8)              117.4662         estimate D2E/DX2                !
 ! A5    A(2,3,4)              117.4186         estimate D2E/DX2                !
 ! A6    A(2,3,5)              120.8812         estimate D2E/DX2                !
 ! A7    A(4,3,5)              121.7002         estimate D2E/DX2                !
 ! A8    A(3,5,6)              120.3317         estimate D2E/DX2                !
 ! A9    A(3,5,10)             119.9576         estimate D2E/DX2                !
 ! A10   A(6,5,10)             119.7107         estimate D2E/DX2                !
 ! A11   A(5,6,7)              120.1582         estimate D2E/DX2                !
 ! A12   A(5,6,11)             119.9731         estimate D2E/DX2                !
 ! A13   A(7,6,11)             119.8686         estimate D2E/DX2                !
 ! A14   A(6,7,8)              120.287          estimate D2E/DX2                !
 ! A15   A(6,7,12)             119.7453         estimate D2E/DX2                !
 ! A16   A(8,7,12)             119.9677         estimate D2E/DX2                !
 ! A17   A(2,8,7)              120.8756         estimate D2E/DX2                !
 ! A18   A(2,8,13)             118.6207         estimate D2E/DX2                !
 ! A19   A(7,8,13)             120.5037         estimate D2E/DX2                !
 ! D1    D(9,1,2,3)            180.0            estimate D2E/DX2                !
 ! D2    D(9,1,2,8)              0.0            estimate D2E/DX2                !
 ! D3    D(1,2,3,4)              0.0            estimate D2E/DX2                !
 ! D4    D(1,2,3,5)            179.9999         estimate D2E/DX2                !
 ! D5    D(8,2,3,4)           -180.0            estimate D2E/DX2                !
 ! D6    D(8,2,3,5)             -0.0001         estimate D2E/DX2                !
 ! D7    D(1,2,8,7)           -179.9999         estimate D2E/DX2                !
 ! D8    D(1,2,8,13)             0.0            estimate D2E/DX2                !
 ! D9    D(3,2,8,7)              0.0001         estimate D2E/DX2                !
 ! D10   D(3,2,8,13)           180.0            estimate D2E/DX2                !
 ! D11   D(2,3,5,6)              0.0001         estimate D2E/DX2                !
 ! D12   D(2,3,5,10)           180.0            estimate D2E/DX2                !
 ! D13   D(4,3,5,6)            180.0            estimate D2E/DX2                !
 ! D14   D(4,3,5,10)            -0.0001         estimate D2E/DX2                !
 ! D15   D(3,5,6,7)              0.0            estimate D2E/DX2                !
 ! D16   D(3,5,6,11)           179.9999         estimate D2E/DX2                !
 ! D17   D(10,5,6,7)          -180.0            estimate D2E/DX2                !
 ! D18   D(10,5,6,11)            0.0            estimate D2E/DX2                !
 ! D19   D(5,6,7,8)              0.0            estimate D2E/DX2                !
 ! D20   D(5,6,7,12)           180.0            estimate D2E/DX2                !
 ! D21   D(11,6,7,8)          -179.9999         estimate D2E/DX2                !
 ! D22   D(11,6,7,12)            0.0            estimate D2E/DX2                !
 ! D23   D(6,7,8,2)              0.0            estimate D2E/DX2                !
 ! D24   D(6,7,8,13)          -180.0            estimate D2E/DX2                !
 ! D25   D(12,7,8,2)           180.0            estimate D2E/DX2                !
 ! D26   D(12,7,8,13)            0.0001         estimate D2E/DX2                !
 --------------------------------------------------------------------------------
 Trust Radius=3.00D-01 FncErr=1.00D-07 GrdErr=1.00D-06 EigMax=2.50D+02 EigMin=1.00D-04
 Number of steps in this run=     68 maximum allowed number of steps=    100.
 GradGradGradGradGradGradGradGradGradGradGradGradGradGradGradGradGradGrad

 Leave Link  103 at Sun Mar  1 23:18:16 2020, MaxMem=  1879048192 cpu:               2.0 elap:               0.1
 (Enter /opt/g16/l202.exe)
                          Input orientation:                          
 ---------------------------------------------------------------------
 Center     Atomic      Atomic             Coordinates (Angstroms)
 Number     Number       Type             X           Y           Z
 ---------------------------------------------------------------------
      1          7           0        2.415698    0.575417    0.172359
      2          6           0        1.125949    0.268326    0.080336
      3          6           0        0.183050    1.335741    0.010444
      4          1           0        0.570858    2.345707    0.036255
      5          6           0       -1.163235    1.081875   -0.085749
      6          6           0       -1.632424   -0.232847   -0.116789
      7          6           0       -0.734401   -1.299855   -0.050121
      8          6           0        0.615532   -1.064254    0.046371
      9          1           0        2.969164   -0.280747    0.213850
     10          1           0       -1.866009    1.903779   -0.137895
     11          1           0       -2.694638   -0.426255   -0.192698
     12          1           0       -1.105555   -2.316706   -0.074722
     13          1           0        1.316007   -1.890181    0.098360
 ---------------------------------------------------------------------
                    Distance matrix (angstroms):
                    1          2          3          4          5
     1  N    0.000000
     2  C    1.328994   0.000000
     3  C    2.364112   1.425945   0.000000
     4  H    2.560446   2.150716   1.082170   0.000000
     5  C    3.623794   2.435120   1.373384   2.149241   0.000000
     6  C    4.138138   2.810454   2.402624   3.395116   1.396279
     7  C    3.672774   2.436619   2.791371   3.873149   2.420290
     8  C    2.438235   1.427392   2.438915   3.410269   2.790580
     9  H    1.020325   1.927887   3.227513   3.561134   4.361562
    10  H    4.493753   3.416745   2.131505   2.482730   1.082653
    11  H    5.220359   3.892798   3.380382   4.289482   2.151997
    12  H    4.563403   3.418486   3.874032   4.955883   3.399088
    13  H    2.700735   2.166933   3.420218   4.301378   3.874746
                    6          7          8          9         10
     6  C    0.000000
     7  C    1.396208   0.000000
     8  C    2.402325   1.373731   0.000000
     9  H    4.613700   3.850280   2.486265   0.000000
    10  H    2.149460   3.398751   3.873141   5.317403   0.000000
    11  H    1.082343   2.150822   3.379559   5.680238   2.473598
    12  H    2.149844   1.082749   2.132004   4.564180   4.288913
    13  H    3.389143   2.138856   1.084216   2.310096   4.957335
                   11         12         13
    11  H    0.000000
    12  H    2.472430   0.000000
    13  H    4.279377   2.464923   0.000000
 Stoichiometry    C6H6N(2)
 Framework group  CS[SG(C6H6N)]
 Deg. of freedom    23
 Full point group                 CS      NOp   2
 Largest Abelian subgroup         CS      NOp   2
 Largest concise Abelian subgroup C1      NOp   1
                         Standard orientation:                         
 ---------------------------------------------------------------------
 Center     Atomic      Atomic             Coordinates (Angstroms)
 Number     Number       Type             X           Y           Z
 ---------------------------------------------------------------------
      1          7           0        2.216833    0.757326    0.000000
      2          6           0        0.950906    0.352782    0.000000
      3          6           0        0.692238   -1.049505    0.000000
      4          1           0        1.546509   -1.713818    0.000000
      5          6           0       -0.594761   -1.528898   -0.000000
      6          6           0       -1.676207   -0.645682   -0.000000
      7          6           0       -1.455861    0.733029   -0.000000
      8          6           0       -0.175157    1.229955    0.000000
      9          1           0        2.250156    1.777106    0.000000
     10          1           0       -0.773968   -2.596616   -0.000000
     11          1           0       -2.688087   -1.029824   -0.000000
     12          1           0       -2.299386    1.411859   -0.000000
     13          1           0        0.000000    2.299928    0.000000
 ---------------------------------------------------------------------
 Rotational constants (GHZ):           5.5989331           2.7868068           1.8606760
 Leave Link  202 at Sun Mar  1 23:18:16 2020, MaxMem=  1879048192 cpu:               3.7 elap:               0.1
 (Enter /opt/g16/l301.exe)
 Standard basis: def2TZVP (5D, 7F)
 Ernie: Thresh=  0.10000D-02 Tol=  0.10000D-05 Strict=F.
 There are   205 symmetry adapted cartesian basis functions of A'  symmetry.
 There are    83 symmetry adapted cartesian basis functions of A"  symmetry.
 There are   177 symmetry adapted basis functions of A'  symmetry.
 There are    76 symmetry adapted basis functions of A"  symmetry.
   253 basis functions,   405 primitive gaussians,   288 cartesian basis functions
    25 alpha electrons       24 beta electrons
       nuclear repulsion energy       262.2121138694 Hartrees.
 IExCor= 4639 DFT=T Ex+Corr=wB97XD ExCW=0 ScaHFX=  1.000000
 ScaDFX=  1.000000  1.000000  1.000000  1.000000 ScalE2=  1.000000  1.000000
 IRadAn=      5 IRanWt=     -1 IRanGd=            0 ICorTp=0 IEmpDi=121
 HFx  wShort=  0.000000 wLong=  0.200000 cFull=  0.222036 cShort=  0.000000 cLong=  0.777964
 DFx  wShort=  0.000000 wLong=  0.200000 cFull=  0.000000 cShort=  0.000000 cLong=  1.000000
 NAtoms=   13 NActive=   13 NUniq=   13 SFac= 1.00D+00 NAtFMM=   60 NAOKFM=F Big=F
 Integral buffers will be    131072 words long.
 Raffenetti 2 integral format.
 Two-electron integral symmetry is turned on.
 R6Disp:  Grimme-D2 Dispersion energy=       -0.0050108404 Hartrees.
 Nuclear repulsion after empirical dispersion term =      262.2071030290 Hartrees.
 Leave Link  301 at Sun Mar  1 23:18:17 2020, MaxMem=  1879048192 cpu:               4.1 elap:               0.1
 (Enter /opt/g16/l302.exe)
 NPDir=0 NMtPBC=     1 NCelOv=     1 NCel=       1 NClECP=     1 NCelD=      1
         NCelK=      1 NCelE2=     1 NClLst=     1 CellRange=     0.0.
 One-electron integrals computed using PRISM.
 One-electron integral symmetry used in STVInt
   2 Symmetry operations used in ECPInt.
 ECPInt:  NShTT=    5151 NPrTT=   15748 LenC2=    5095 LenP2D=   12865.
 LDataN:  DoStor=T MaxTD1= 6 Len=  172
 NBasis=   253 RedAO= T EigKep=  1.04D-05  NBF=   177    76
 NBsUse=   253 1.00D-06 EigRej= -1.00D+00 NBFU=   177    76
 Precomputing XC quadrature grid using
 IXCGrd= 4 IRadAn=           5 IRanWt=          -1 IRanGd=           0 AccXCQ= 1.00D-12.
 Generated NRdTot=       0 NPtTot=           0 NUsed=           0 NTot=          32
 NSgBfM=   287   287   287   287   287 MxSgAt=    13 MxSgA2=    13.
 Leave Link  302 at Sun Mar  1 23:18:17 2020, MaxMem=  1879048192 cpu:              14.2 elap:               0.4
 (Enter /opt/g16/l303.exe)
 DipDrv:  MaxL=1.
 Leave Link  303 at Sun Mar  1 23:18:17 2020, MaxMem=  1879048192 cpu:               5.3 elap:               0.2
 (Enter /opt/g16/l401.exe)
 Initial guess from the checkpoint file:  "check.chk"
 B after Tr=     0.000000   -0.000000   -0.000000
         Rot=    0.820923    0.000000   -0.000000    0.571038 Ang=  69.65 deg.
 Guess basis will be translated and rotated to current coordinates.
 JPrj=2 DoOrth=T DoCkMO=T.
 Initial guess orbital symmetries:
 Alpha Orbitals:
       Occupied  (A') (A') (A') (A') (A') (A') (A') (A') (A') (A')
                 (A') (A') (A') (A') (A') (A') (A') (A') (A") (A')
                 (A') (A") (A') (A") (A")
       Virtual   (A") (A") (A') (A') (A') (A') (A') (A') (A') (A")
                 (A') (A') (A") (A') (A') (A') (A") (A") (A') (A')
                 (A') (A") (A') (A") (A') (A') (A') (A') (A") (A')
                 (A') (A") (A') (A') (A') (A') (A') (A') (A') (A")
                 (A') (A') (A') (A") (A') (A') (A') (A') (A') (A")
                 (A') (A') (A") (A") (A') (A") (A') (A') (A') (A")
                 (A') (A') (A') (A") (A") (A') (A') (A') (A") (A')
                 (A') (A") (A') (A") (A') (A') (A') (A') (A") (A')
                 (A') (A') (A") (A") (A') (A") (A') (A') (A") (A')
                 (A') (A") (A") (A') (A') (A') (A") (A') (A") (A')
                 (A") (A') (A") (A") (A') (A") (A') (A') (A') (A')
                 (A') (A') (A') (A') (A") (A') (A") (A') (A") (A')
                 (A') (A') (A') (A') (A") (A') (A') (A') (A') (A")
                 (A") (A') (A") (A') (A") (A') (A") (A') (A') (A")
                 (A') (A') (A") (A') (A") (A') (A") (A") (A') (A')
                 (A") (A') (A") (A') (A') (A") (A') (A') (A') (A")
                 (A') (A") (A") (A") (A') (A') (A') (A') (A") (A')
                 (A") (A') (A') (A') (A") (A") (A') (A') (A') (A')
                 (A') (A') (A") (A") (A') (A') (A') (A") (A') (A')
                 (A") (A") (A') (A') (A") (A') (A") (A') (A') (A")
                 (A') (A") (A') (A") (A') (A') (A") (A') (A') (A')
                 (A') (A') (A") (A') (A') (A') (A') (A') (A') (A')
                 (A') (A') (A') (A') (A') (A') (A') (A')
 Beta  Orbitals:
       Occupied  (A') (A') (A') (A') (A') (A') (A') (A') (A') (A')
                 (A') (A') (A') (A') (A') (A') (A') (A') (A") (A')
                 (A') (A") (A') (A")
       Virtual   (A") (A") (A") (A') (A') (A') (A') (A') (A') (A')
                 (A") (A') (A') (A") (A') (A') (A') (A") (A') (A")
                 (A') (A') (A") (A') (A") (A') (A') (A') (A') (A")
                 (A') (A') (A') (A") (A') (A') (A') (A') (A') (A')
                 (A") (A') (A') (A') (A") (A') (A') (A') (A') (A')
                 (A") (A') (A') (A") (A") (A') (A') (A") (A') (A')
                 (A') (A') (A") (A') (A") (A') (A") (A') (A') (A")
                 (A') (A') (A") (A') (A") (A') (A') (A') (A') (A")
                 (A') (A') (A') (A") (A") (A') (A') (A") (A') (A")
                 (A') (A') (A") (A") (A') (A') (A') (A") (A') (A")
                 (A') (A") (A') (A") (A") (A') (A") (A') (A') (A')
                 (A') (A') (A') (A') (A') (A") (A') (A") (A') (A")
                 (A') (A') (A') (A') (A') (A") (A') (A') (A') (A')
                 (A") (A") (A') (A") (A') (A") (A') (A") (A') (A')
                 (A") (A') (A') (A") (A') (A") (A') (A") (A") (A')
                 (A') (A") (A') (A") (A') (A') (A") (A') (A') (A')
                 (A") (A') (A") (A") (A") (A') (A') (A') (A') (A")
                 (A') (A") (A') (A') (A') (A") (A') (A") (A') (A')
                 (A') (A') (A') (A") (A") (A') (A') (A') (A") (A')
                 (A') (A") (A") (A') (A') (A") (A') (A") (A') (A')
                 (A") (A') (A") (A') (A") (A') (A') (A") (A') (A')
                 (A') (A') (A') (A") (A') (A') (A') (A') (A') (A')
                 (A') (A') (A') (A') (A') (A') (A') (A') (A')
 The electronic state of the initial guess is 2-A".
 Initial guess <Sx>= 0.0000 <Sy>= 0.0000 <Sz>= 0.5000 <S**2>= 0.8078 S= 0.5285
 Leave Link  401 at Sun Mar  1 23:18:21 2020, MaxMem=  1879048192 cpu:             129.3 elap:               3.7
 (Enter /opt/g16/l502.exe)
 Integral symmetry usage will be decided dynamically.
 UHF open shell SCF:
 Using DIIS extrapolation, IDIIS=  1040.
 NGot=  1879048192 LenX=  1878868665 LenY=  1878785280
 Requested convergence on RMS density matrix=1.00D-08 within  32 cycles.
 Requested convergence on MAX density matrix=1.00D-06.
 Requested convergence on             energy=1.00D-06.
 No special actions if energy rises.
 Fock matrices will be formed incrementally for  20 cycles.

 Cycle   1  Pass 1  IDiag  1:
 FoFJK:  IHMeth= 1 ICntrl=       0 DoSepK=T KAlg= 0 I1Cent=           0 FoldK=F
 IRaf=         1 NMat=       1 IRICut=       1 DoRegI=T DoRafI=F ISym2E= 1 IDoP0=0 IntGTp=1.
 FoFCou: FMM=F IPFlag=           0 FMFlag=      100000 FMFlg1=           0
         NFxFlg=           0 DoJE=T BraDBF=F KetDBF=F FulRan=T
         wScrn=  0.000000 ICntrl=       500 IOpCl=  0 I1Cent=           0 NGrid=           0
         NMat0=    1 NMatS0=      1 NMatT0=    0 NMatD0=    1 NMtDS0=    0 NMtDT0=    0
 Petite list used in FoFCou.
 E= -286.953780048369    
 DIIS: error= 6.74D-06 at cycle   1 NSaved=   1.
 NSaved= 1 IEnMin= 1 EnMin= -286.953780048369     IErMin= 1 ErrMin= 6.74D-06
 ErrMax= 6.74D-06  0.00D+00 EMaxC= 1.00D-01 BMatC= 2.11D-08 BMatP= 2.11D-08
 IDIUse=1 WtCom= 1.00D+00 WtEn= 0.00D+00
 Coeff-Com:  0.100D+01
 Coeff:      0.100D+01
 Gap=     0.337 Goal=   None    Shift=    0.000
 Gap=     0.296 Goal=   None    Shift=    0.000
 RMSDP=9.15D-07 MaxDP=1.88D-05              OVMax= 1.76D-05

 Cycle   2  Pass 1  IDiag  1:
 RMSU=  9.15D-07    CP:  1.00D+00
 E= -286.953780052720     Delta-E=       -0.000000004351 Rises=F Damp=F
 DIIS: error= 5.69D-07 at cycle   2 NSaved=   2.
 NSaved= 2 IEnMin= 2 EnMin= -286.953780052720     IErMin= 2 ErrMin= 5.69D-07
 ErrMax= 5.69D-07  0.00D+00 EMaxC= 1.00D-01 BMatC= 3.14D-10 BMatP= 2.11D-08
 IDIUse=1 WtCom= 1.00D+00 WtEn= 0.00D+00
 Coeff-Com: -0.105D+00 0.110D+01
 Coeff:     -0.105D+00 0.110D+01
 Gap=     0.337 Goal=   None    Shift=    0.000
 Gap=     0.296 Goal=   None    Shift=    0.000
 RMSDP=1.03D-07 MaxDP=4.24D-06 DE=-4.35D-09 OVMax= 3.68D-06

 Cycle   3  Pass 1  IDiag  1:
 RMSU=  5.68D-08    CP:  1.00D+00  1.09D+00
 E= -286.953780052822     Delta-E=       -0.000000000102 Rises=F Damp=F
 DIIS: error= 3.50D-07 at cycle   3 NSaved=   3.
 NSaved= 3 IEnMin= 3 EnMin= -286.953780052822     IErMin= 3 ErrMin= 3.50D-07
 ErrMax= 3.50D-07  0.00D+00 EMaxC= 1.00D-01 BMatC= 3.62D-11 BMatP= 3.14D-10
 IDIUse=1 WtCom= 1.00D+00 WtEn= 0.00D+00
 Coeff-Com: -0.336D-01 0.299D+00 0.735D+00
 Coeff:     -0.336D-01 0.299D+00 0.735D+00
 Gap=     0.337 Goal=   None    Shift=    0.000
 Gap=     0.296 Goal=   None    Shift=    0.000
 RMSDP=2.08D-08 MaxDP=1.43D-06 DE=-1.02D-10 OVMax= 2.15D-06

 Cycle   4  Pass 1  IDiag  1:
 RMSU=  2.00D-08    CP:  1.00D+00  1.10D+00  9.35D-01
 E= -286.953780052831     Delta-E=       -0.000000000010 Rises=F Damp=F
 DIIS: error= 1.50D-07 at cycle   4 NSaved=   4.
 NSaved= 4 IEnMin= 4 EnMin= -286.953780052831     IErMin= 4 ErrMin= 1.50D-07
 ErrMax= 1.50D-07  0.00D+00 EMaxC= 1.00D-01 BMatC= 9.34D-12 BMatP= 3.62D-11
 IDIUse=1 WtCom= 1.00D+00 WtEn= 0.00D+00
 Coeff-Com:  0.242D-02-0.471D-01 0.297D+00 0.748D+00
 Coeff:      0.242D-02-0.471D-01 0.297D+00 0.748D+00
 Gap=     0.337 Goal=   None    Shift=    0.000
 Gap=     0.296 Goal=   None    Shift=    0.000
 RMSDP=8.73D-09 MaxDP=5.61D-07 DE=-9.66D-12 OVMax= 1.40D-06

 SCF Done:  E(UwB97XD) =  -286.953780053     A.U. after    4 cycles
            NFock=  4  Conv=0.87D-08     -V/T= 2.0048
 <Sx>= 0.0000 <Sy>= 0.0000 <Sz>= 0.5000 <S**2>= 0.8078 S= 0.5285
 <L.S>= 0.000000000000E+00
 KE= 2.855936677739D+02 PE=-1.190955786147D+03 EE= 3.562012352915D+02
 Annihilation of the first spin contaminant:
 S**2 before annihilation     0.8078,   after     0.7522
 Leave Link  502 at Sun Mar  1 23:19:51 2020, MaxMem=  1879048192 cpu:            3159.6 elap:              89.6
 (Enter /opt/g16/l508.exe)
 QCSCF skips out because SCF is already converged.
 Leave Link  508 at Sun Mar  1 23:19:51 2020, MaxMem=  1879048192 cpu:               2.3 elap:               0.1
 (Enter /opt/g16/l601.exe)
 Copying SCF densities to generalized density rwf, IOpCl= 1 IROHF=0.

 **********************************************************************

            Population analysis using the SCF Density.

 **********************************************************************

 Orbital symmetries:
 Alpha Orbitals:
       Occupied  (A') (A') (A') (A') (A') (A') (A') (A') (A') (A')
                 (A') (A') (A') (A') (A') (A') (A') (A') (A") (A')
                 (A') (A") (A') (A") (A")
       Virtual   (A") (A") (A') (A') (A') (A') (A') (A') (A') (A")
                 (A') (A') (A") (A') (A') (A') (A") (A") (A') (A')
                 (A') (A") (A') (A") (A') (A') (A') (A') (A") (A')
                 (A') (A") (A') (A') (A') (A') (A') (A') (A') (A")
                 (A') (A') (A') (A") (A') (A') (A') (A') (A') (A")
                 (A') (A') (A") (A") (A') (A") (A') (A') (A') (A")
                 (A') (A') (A') (A") (A") (A') (A') (A') (A") (A')
                 (A') (A") (A') (A") (A') (A') (A') (A') (A") (A')
                 (A') (A') (A") (A") (A') (A") (A') (A') (A") (A')
                 (A') (A") (A") (A') (A') (A') (A") (A') (A") (A')
                 (A") (A') (A") (A") (A') (A") (A') (A') (A') (A')
                 (A') (A') (A') (A') (A") (A') (A") (A') (A") (A')
                 (A') (A') (A') (A') (A") (A') (A') (A') (A') (A")
                 (A") (A') (A") (A') (A") (A') (A") (A') (A') (A")
                 (A') (A') (A") (A') (A") (A') (A") (A") (A') (A')
                 (A") (A') (A") (A') (A') (A") (A') (A') (A') (A")
                 (A') (A") (A") (A") (A') (A') (A') (A') (A") (A')
                 (A") (A') (A') (A') (A") (A") (A') (A') (A') (A')
                 (A') (A') (A") (A") (A') (A') (A') (A") (A') (A')
                 (A") (A") (A') (A') (A") (A') (A") (A') (A') (A")
                 (A') (A") (A') (A") (A') (A') (A") (A') (A') (A')
                 (A') (A') (A") (A') (A') (A') (A') (A') (A') (A')
                 (A') (A') (A') (A') (A') (A') (A') (A')
 Beta  Orbitals:
       Occupied  (A') (A') (A') (A') (A') (A') (A') (A') (A') (A')
                 (A') (A') (A') (A') (A') (A') (A') (A') (A") (A')
                 (A') (A") (A') (A")
       Virtual   (A") (A") (A") (A') (A') (A') (A') (A') (A') (A')
                 (A") (A') (A') (A") (A') (A') (A') (A") (A') (A")
                 (A') (A') (A") (A') (A") (A') (A') (A') (A') (A")
                 (A') (A') (A') (A") (A') (A') (A') (A') (A') (A')
                 (A") (A') (A') (A') (A") (A') (A') (A') (A') (A')
                 (A") (A') (A') (A") (A") (A') (A') (A") (A') (A')
                 (A') (A') (A") (A') (A") (A') (A") (A') (A') (A")
                 (A') (A') (A") (A') (A") (A') (A') (A') (A') (A")
                 (A') (A') (A') (A") (A") (A') (A') (A") (A') (A")
                 (A') (A') (A") (A") (A') (A') (A') (A") (A') (A")
                 (A') (A") (A') (A") (A") (A') (A") (A') (A') (A')
                 (A') (A') (A') (A') (A') (A") (A') (A") (A') (A")
                 (A') (A') (A') (A') (A') (A") (A') (A') (A') (A')
                 (A") (A") (A') (A") (A') (A") (A') (A") (A') (A')
                 (A") (A') (A') (A") (A') (A") (A') (A") (A") (A')
                 (A') (A") (A') (A") (A') (A') (A") (A') (A') (A')
                 (A") (A') (A") (A") (A") (A') (A') (A') (A') (A")
                 (A') (A") (A') (A') (A') (A") (A') (A") (A') (A')
                 (A') (A') (A') (A") (A") (A') (A') (A') (A") (A')
                 (A') (A") (A") (A') (A') (A") (A') (A") (A') (A')
                 (A") (A') (A") (A') (A") (A') (A') (A") (A') (A')
                 (A') (A') (A') (A") (A') (A') (A') (A') (A') (A')
                 (A') (A') (A') (A') (A') (A') (A') (A') (A')
 The electronic state is 2-A".
 Alpha  occ. eigenvalues --  -14.43225 -10.32749 -10.30827 -10.30574 -10.30140
 Alpha  occ. eigenvalues --  -10.30029 -10.29879  -1.02000  -0.95177  -0.86586
 Alpha  occ. eigenvalues --   -0.82721  -0.71843  -0.69350  -0.62188  -0.58372
 Alpha  occ. eigenvalues --   -0.55440  -0.52401  -0.52240  -0.49629  -0.46211
 Alpha  occ. eigenvalues --   -0.44156  -0.41950  -0.36969  -0.35723  -0.29228
 Alpha virt. eigenvalues --    0.04425   0.06818   0.11805   0.13296   0.15497
 Alpha virt. eigenvalues --    0.16796   0.18755   0.19853   0.20442   0.21590
 Alpha virt. eigenvalues --    0.26512   0.27114   0.27649   0.28650   0.29805
 Alpha virt. eigenvalues --    0.31187   0.31670   0.33166   0.33366   0.36333
 Alpha virt. eigenvalues --    0.39765   0.39962   0.40302   0.40496   0.41843
 Alpha virt. eigenvalues --    0.43527   0.44470   0.47349   0.47721   0.48639
 Alpha virt. eigenvalues --    0.49227   0.49374   0.50122   0.52062   0.53646
 Alpha virt. eigenvalues --    0.54975   0.55676   0.57121   0.57398   0.59191
 Alpha virt. eigenvalues --    0.60139   0.65619   0.68715   0.69766   0.70312
 Alpha virt. eigenvalues --    0.72527   0.74378   0.76500   0.78222   0.80874
 Alpha virt. eigenvalues --    0.81363   0.83094   0.83598   0.87657   0.89304
 Alpha virt. eigenvalues --    0.93736   0.94186   0.95188   0.96533   1.06844
 Alpha virt. eigenvalues --    1.06974   1.07883   1.10377   1.13805   1.15193
 Alpha virt. eigenvalues --    1.15572   1.20530   1.25097   1.25762   1.28007
 Alpha virt. eigenvalues --    1.28756   1.29380   1.32844   1.34908   1.36007
 Alpha virt. eigenvalues --    1.37643   1.44077   1.45151   1.46424   1.49717
 Alpha virt. eigenvalues --    1.53347   1.55600   1.56575   1.57150   1.57554
 Alpha virt. eigenvalues --    1.62183   1.63061   1.63923   1.69276   1.70348
 Alpha virt. eigenvalues --    1.72448   1.74162   1.76849   1.77896   1.79285
 Alpha virt. eigenvalues --    1.82720   1.83406   1.84780   1.92425   1.96649
 Alpha virt. eigenvalues --    1.97294   2.02876   2.03953   2.07024   2.08415
 Alpha virt. eigenvalues --    2.12471   2.15190   2.16474   2.18749   2.20779
 Alpha virt. eigenvalues --    2.24654   2.25880   2.29702   2.31500   2.31992
 Alpha virt. eigenvalues --    2.37174   2.42194   2.49052   2.54736   2.58574
 Alpha virt. eigenvalues --    2.60256   2.61846   2.63692   2.65769   2.66670
 Alpha virt. eigenvalues --    2.69503   2.73186   2.74483   2.74934   2.75959
 Alpha virt. eigenvalues --    2.76024   2.79160   2.82341   2.82939   2.82959
 Alpha virt. eigenvalues --    2.86099   2.89257   2.89845   2.91772   2.94089
 Alpha virt. eigenvalues --    2.95157   2.97177   2.97196   3.05011   3.05253
 Alpha virt. eigenvalues --    3.09867   3.13677   3.16636   3.17479   3.18446
 Alpha virt. eigenvalues --    3.20075   3.20804   3.21608   3.26192   3.28248
 Alpha virt. eigenvalues --    3.29058   3.29730   3.32593   3.33608   3.36879
 Alpha virt. eigenvalues --    3.39129   3.41331   3.42231   3.43613   3.47623
 Alpha virt. eigenvalues --    3.49028   3.53046   3.53390   3.55583   3.55870
 Alpha virt. eigenvalues --    3.57978   3.58238   3.64311   3.68443   3.76722
 Alpha virt. eigenvalues --    3.77509   3.77686   3.78744   3.86662   3.90848
 Alpha virt. eigenvalues --    4.00057   4.04854   4.06200   4.07648   4.10682
 Alpha virt. eigenvalues --    4.11855   4.13547   4.14882   4.21208   4.24425
 Alpha virt. eigenvalues --    4.28598   4.29483   4.31496   4.33686   4.34024
 Alpha virt. eigenvalues --    4.38982   4.48460   4.52207   4.64945   4.68164
 Alpha virt. eigenvalues --    4.70582   4.73463   4.76218   4.82467   4.84869
 Alpha virt. eigenvalues --    4.89609   4.91955   4.95442   5.02714   5.06710
 Alpha virt. eigenvalues --    5.17436   5.23512   5.31072   5.34042   5.36265
 Alpha virt. eigenvalues --    5.41708   5.55708   5.61723   5.68505   5.76678
 Alpha virt. eigenvalues --    6.09023  22.17558  22.67389  22.69589  22.80432
 Alpha virt. eigenvalues --   22.94880  23.34150  32.13261
  Beta  occ. eigenvalues --  -14.42165 -10.32994 -10.30452 -10.30332 -10.30226
  Beta  occ. eigenvalues --  -10.30075 -10.29683  -1.00459  -0.94048  -0.86216
  Beta  occ. eigenvalues --   -0.81139  -0.71540  -0.68931  -0.61762  -0.57861
  Beta  occ. eigenvalues --   -0.55193  -0.52245  -0.51848  -0.47748  -0.45864
  Beta  occ. eigenvalues --   -0.43891  -0.37470  -0.35454  -0.34563
  Beta virt. eigenvalues --   -0.05006   0.05615   0.09563   0.11945   0.13445
  Beta virt. eigenvalues --    0.15501   0.16964   0.18786   0.19922   0.20546
  Beta virt. eigenvalues --    0.22213   0.26516   0.27133   0.28036   0.28669
  Beta virt. eigenvalues --    0.29760   0.31205   0.31793   0.33450   0.34059
  Beta virt. eigenvalues --    0.36546   0.39910   0.40257   0.40519   0.40823
  Beta virt. eigenvalues --    0.42077   0.43590   0.44798   0.47560   0.47861
  Beta virt. eigenvalues --    0.48738   0.49492   0.50304   0.51230   0.52213
  Beta virt. eigenvalues --    0.53843   0.55003   0.55873   0.57284   0.57614
  Beta virt. eigenvalues --    0.59767   0.60503   0.65603   0.68791   0.70329
  Beta virt. eigenvalues --    0.70446   0.72741   0.74630   0.76798   0.78565
  Beta virt. eigenvalues --    0.81131   0.81526   0.83066   0.84571   0.88347
  Beta virt. eigenvalues --    0.89443   0.94266   0.94328   0.95322   0.96662
  Beta virt. eigenvalues --    1.07322   1.07877   1.07939   1.10900   1.14397
  Beta virt. eigenvalues --    1.15830   1.16173   1.21060   1.25199   1.26411
  Beta virt. eigenvalues --    1.28212   1.28850   1.29881   1.32948   1.35618
  Beta virt. eigenvalues --    1.36294   1.37757   1.44383   1.45296   1.47119
  Beta virt. eigenvalues --    1.50286   1.53613   1.56370   1.57386   1.57527
  Beta virt. eigenvalues --    1.57939   1.63124   1.63305   1.64327   1.69496
  Beta virt. eigenvalues --    1.70636   1.72593   1.74706   1.77448   1.78060
  Beta virt. eigenvalues --    1.79708   1.82936   1.84128   1.84850   1.92777
  Beta virt. eigenvalues --    1.97091   1.97521   2.03621   2.04787   2.07654
  Beta virt. eigenvalues --    2.08805   2.12805   2.15473   2.16806   2.19206
  Beta virt. eigenvalues --    2.21408   2.25074   2.26033   2.30183   2.31996
  Beta virt. eigenvalues --    2.34890   2.37463   2.42625   2.49455   2.55966
  Beta virt. eigenvalues --    2.58928   2.60958   2.62134   2.64119   2.65814
  Beta virt. eigenvalues --    2.67169   2.69802   2.73317   2.74713   2.75084
  Beta virt. eigenvalues --    2.76301   2.76495   2.79446   2.82663   2.83253
  Beta virt. eigenvalues --    2.83303   2.86261   2.89653   2.90403   2.92018
  Beta virt. eigenvalues --    2.94380   2.95669   2.97228   2.97766   3.05628
  Beta virt. eigenvalues --    3.05969   3.10316   3.13971   3.16927   3.17640
  Beta virt. eigenvalues --    3.18861   3.20427   3.21222   3.22163   3.26406
  Beta virt. eigenvalues --    3.28459   3.29447   3.29948   3.33113   3.33882
  Beta virt. eigenvalues --    3.37958   3.40014   3.41982   3.42690   3.43985
  Beta virt. eigenvalues --    3.47978   3.49311   3.53220   3.53944   3.56002
  Beta virt. eigenvalues --    3.56158   3.58421   3.58706   3.64491   3.68482
  Beta virt. eigenvalues --    3.77602   3.78031   3.78158   3.79843   3.87636
  Beta virt. eigenvalues --    3.91432   4.00275   4.05335   4.07087   4.09126
  Beta virt. eigenvalues --    4.11175   4.12244   4.14226   4.16000   4.21438
  Beta virt. eigenvalues --    4.24998   4.29168   4.30090   4.31708   4.34110
  Beta virt. eigenvalues --    4.35938   4.39329   4.49854   4.52992   4.66357
  Beta virt. eigenvalues --    4.69384   4.71557   4.76719   4.76847   4.84095
  Beta virt. eigenvalues --    4.85231   4.90085   4.95535   4.95731   5.05485
  Beta virt. eigenvalues --    5.07457   5.18321   5.24244   5.33351   5.34521
  Beta virt. eigenvalues --    5.36669   5.42355   5.56477   5.62211   5.69315
  Beta virt. eigenvalues --    5.77401   6.09431  22.17751  22.67412  22.70117
  Beta virt. eigenvalues --   22.80712  22.94740  23.34047  32.14645
          Condensed to atoms (all electrons):
               1          2          3          4          5          6
     1  N    6.541477   0.577744  -0.059464   0.010627   0.001543  -0.002646
     2  C    0.577744   4.710359   0.415150  -0.040275   0.001346  -0.061598
     3  C   -0.059464   0.415150   4.974996   0.420053   0.493079  -0.008315
     4  H    0.010627  -0.040275   0.420053   0.514126  -0.054119   0.012343
     5  C    0.001543   0.001346   0.493079  -0.054119   4.890521   0.428590
     6  C   -0.002646  -0.061598  -0.008315   0.012343   0.428590   4.932514
     7  C    0.027373   0.064491  -0.057584  -0.007521   0.024283   0.409737
     8  C   -0.129315   0.322088   0.002473   0.019770  -0.081707   0.041869
     9  H    0.356789  -0.089457   0.011575  -0.001654   0.000094  -0.001081
    10  H   -0.000104   0.010903  -0.051303  -0.007750   0.443886  -0.056440
    11  H   -0.000005  -0.003459   0.009353  -0.000015  -0.053152   0.441191
    12  H   -0.000308   0.005652  -0.001811   0.000063   0.007512  -0.048091
    13  H   -0.004836  -0.050412   0.008243  -0.000105  -0.001963   0.007103
               7          8          9         10         11         12
     1  N    0.027373  -0.129315   0.356789  -0.000104  -0.000005  -0.000308
     2  C    0.064491   0.322088  -0.089457   0.010903  -0.003459   0.005652
     3  C   -0.057584   0.002473   0.011575  -0.051303   0.009353  -0.001811
     4  H   -0.007521   0.019770  -0.001654  -0.007750  -0.000015   0.000063
     5  C    0.024283  -0.081707   0.000094   0.443886  -0.053152   0.007512
     6  C    0.409737   0.041869  -0.001081  -0.056440   0.441191  -0.048091
     7  C    5.075223   0.229689   0.010154   0.010957  -0.055013   0.423272
     8  C    0.229689   5.414680  -0.027492  -0.004558   0.012566  -0.033024
     9  H    0.010154  -0.027492   0.535376   0.000038  -0.000009  -0.000072
    10  H    0.010957  -0.004558   0.000038   0.534627  -0.006522  -0.000147
    11  H   -0.055013   0.012566  -0.000009  -0.006522   0.529853  -0.005977
    12  H    0.423272  -0.033024  -0.000072  -0.000147  -0.005977   0.532596
    13  H   -0.032915   0.424461   0.002893   0.000042  -0.000117  -0.006239
              13
     1  N   -0.004836
     2  C   -0.050412
     3  C    0.008243
     4  H   -0.000105
     5  C   -0.001963
     6  C    0.007103
     7  C   -0.032915
     8  C    0.424461
     9  H    0.002893
    10  H    0.000042
    11  H   -0.000117
    12  H   -0.006239
    13  H    0.528808
          Atomic-Atomic Spin Densities.
               1          2          3          4          5          6
     1  N    0.678775  -0.015703  -0.026530  -0.000471   0.000123   0.001099
     2  C   -0.015703  -0.173794   0.015028   0.002026   0.006094   0.001446
     3  C   -0.026530   0.015028   0.294934  -0.001998   0.001915  -0.026193
     4  H   -0.000471   0.002026  -0.001998  -0.011103   0.001214  -0.000594
     5  C    0.000123   0.006094   0.001915   0.001214  -0.154861   0.008632
     6  C    0.001099   0.001446  -0.026193  -0.000594   0.008632   0.329357
     7  C   -0.001427   0.004044   0.004959   0.000370   0.003082   0.015891
     8  C   -0.017366   0.017091  -0.001474  -0.000660   0.001693  -0.026501
     9  H   -0.002350   0.006387   0.001997   0.000118  -0.000060   0.000113
    10  H    0.000009  -0.000283  -0.000098   0.000177   0.000348   0.000297
    11  H   -0.000000   0.000128  -0.000365  -0.000000   0.001853  -0.002431
    12  H    0.000026   0.000127  -0.000042  -0.000003   0.000005  -0.000067
    13  H    0.000376   0.000468  -0.000400   0.000004   0.000087  -0.000279
               7          8          9         10         11         12
     1  N   -0.001427  -0.017366  -0.002350   0.000009  -0.000000   0.000026
     2  C    0.004044   0.017091   0.006387  -0.000283   0.000128   0.000127
     3  C    0.004959  -0.001474   0.001997  -0.000098  -0.000365  -0.000042
     4  H    0.000370  -0.000660   0.000118   0.000177  -0.000000  -0.000003
     5  C    0.003082   0.001693  -0.000060   0.000348   0.001853   0.000005
     6  C    0.015891  -0.026501   0.000113   0.000297  -0.002431  -0.000067
     7  C   -0.164979   0.007549  -0.000822  -0.000201   0.001824   0.001083
     8  C    0.007549   0.278640  -0.001245   0.000156  -0.000421  -0.000832
     9  H   -0.000822  -0.001245  -0.021582  -0.000002   0.000001   0.000002
    10  H   -0.000201   0.000156  -0.000002   0.004757   0.000167  -0.000004
    11  H    0.001824  -0.000421   0.000001   0.000167  -0.013201   0.000131
    12  H    0.001083  -0.000832   0.000002  -0.000004   0.000131   0.004821
    13  H    0.001756  -0.001581   0.000206  -0.000000   0.000005   0.000061
              13
     1  N    0.000376
     2  C    0.000468
     3  C   -0.000400
     4  H    0.000004
     5  C    0.000087
     6  C   -0.000279
     7  C    0.001756
     8  C   -0.001581
     9  H    0.000206
    10  H   -0.000000
    11  H    0.000005
    12  H    0.000061
    13  H   -0.011285
 Mulliken charges and spin densities:
               1          2
     1  N   -0.318876   0.616560
     2  C    0.137468  -0.136942
     3  C   -0.156446   0.261733
     4  H    0.134458  -0.010919
     5  C   -0.099914  -0.129875
     6  C   -0.095177   0.300769
     7  C   -0.122147  -0.126871
     8  C   -0.191501   0.255049
     9  H    0.202846  -0.017239
    10  H    0.126373   0.005322
    11  H    0.131307  -0.012310
    12  H    0.126572   0.005308
    13  H    0.125037  -0.010584
 Sum of Mulliken charges =  -0.00000   1.00000
 Mulliken charges and spin densities with hydrogens summed into heavy atoms:
               1          2
     1  N   -0.116030   0.599321
     2  C    0.137468  -0.136942
     3  C   -0.021988   0.250814
     5  C    0.026458  -0.124553
     6  C    0.036130   0.288459
     7  C    0.004425  -0.121563
     8  C   -0.066464   0.244465
 Electronic spatial extent (au):  <R**2>=            649.4883
 Charge=             -0.0000 electrons
 Dipole moment (field-independent basis, Debye):
    X=             -2.4770    Y=              0.4583    Z=             -0.0000  Tot=              2.5190
 Quadrupole moment (field-independent basis, Debye-Ang):
   XX=            -43.9211   YY=            -33.4197   ZZ=            -44.4052
   XY=              1.1421   XZ=             -0.0000   YZ=              0.0000
 Traceless Quadrupole moment (field-independent basis, Debye-Ang):
   XX=             -3.3391   YY=              7.1623   ZZ=             -3.8232
   XY=              1.1421   XZ=             -0.0000   YZ=              0.0000
 Octapole moment (field-independent basis, Debye-Ang**2):
  XXX=            -28.7208  YYY=              4.7247  ZZZ=              0.0000  XYY=              5.0683
  XXY=              1.2399  XXZ=             -0.0000  XZZ=              2.1441  YZZ=              1.0895
  YYZ=              0.0000  XYZ=              0.0000
 Hexadecapole moment (field-independent basis, Debye-Ang**3):
 XXXX=           -542.7599 YYYY=           -291.4003 ZZZZ=            -50.0075 XXXY=            -35.1327
 XXXZ=             -0.0000 YYYX=            -24.3110 YYYZ=             -0.0000 ZZZX=             -0.0000
 ZZZY=             -0.0000 XXYY=           -114.5722 XXZZ=            -99.5114 YYZZ=            -70.0766
 XXYZ=             -0.0000 YYXZ=             -0.0000 ZZXY=            -12.8696
 N-N= 2.622071030290D+02 E-N=-1.190955781670D+03  KE= 2.855936677739D+02
 Symmetry A'   KE= 2.774979397657D+02
 Symmetry A"   KE= 8.095728008239D+00
 Symmetry A'   SP=-1.484604175773D-14
 Symmetry A"   SP= 1.000000000000D+00
                          Isotropic Fermi Contact Couplings
        Atom                 a.u.       MegaHertz       Gauss      10(-4) cm-1
     1  N(14)              0.05831      18.83949       6.72240       6.28418
     2  C(13)             -0.03946     -44.36573     -15.83080     -14.79882
     3  C(13)              0.01752      19.69926       7.02918       6.57096
     4  H(1)              -0.00423     -18.89605      -6.74258      -6.30304
     5  C(13)             -0.02213     -24.87771      -8.87699      -8.29831
     6  C(13)              0.02177      24.46952       8.73133       8.16215
     7  C(13)             -0.02193     -24.65592      -8.79784      -8.22433
     8  C(13)              0.01832      20.59911       7.35027       6.87112
     9  H(1)              -0.00892     -39.86861     -14.22611     -13.29874
    10  H(1)               0.00198       8.87022       3.16511       2.95879
    11  H(1)              -0.00482     -21.55416      -7.69106      -7.18969
    12  H(1)               0.00195       8.70160       3.10495       2.90254
    13  H(1)              -0.00414     -18.52101      -6.60876      -6.17794
 --------------------------------------------------------
       Center         ----  Spin Dipole Couplings  ----
                      3XX-RR        3YY-RR        3ZZ-RR
 --------------------------------------------------------
     1   Atom       -0.710172     -0.699395      1.409567
     2   Atom        0.111925      0.072718     -0.184643
     3   Atom       -0.162217     -0.158413      0.320630
     4   Atom        0.002200      0.002215     -0.004415
     5   Atom        0.085284      0.070643     -0.155927
     6   Atom       -0.178867     -0.190502      0.369369
     7   Atom        0.076970      0.075732     -0.152703
     8   Atom       -0.160230     -0.156667      0.316897
     9   Atom       -0.062883      0.074179     -0.011297
    10   Atom        0.008887     -0.003746     -0.005141
    11   Atom        0.018679     -0.018799      0.000120
    12   Atom        0.000953      0.004149     -0.005102
    13   Atom       -0.016310      0.020131     -0.003821
 --------------------------------------------------------
                        XY            XZ            YZ
 --------------------------------------------------------
     1   Atom        0.005259      0.000000     -0.000000
     2   Atom        0.013367     -0.000000     -0.000000
     3   Atom       -0.001064      0.000000     -0.000000
     4   Atom       -0.017494      0.000000      0.000000
     5   Atom        0.000023      0.000000      0.000000
     6   Atom        0.005199      0.000000      0.000000
     7   Atom        0.007107      0.000000      0.000000
     8   Atom       -0.002127     -0.000000      0.000000
     9   Atom        0.005521      0.000000     -0.000000
    10   Atom       -0.001854      0.000000      0.000000
    11   Atom        0.016970     -0.000000     -0.000000
    12   Atom        0.006159      0.000000     -0.000000
    13   Atom        0.001345     -0.000000     -0.000000
 --------------------------------------------------------


 ---------------------------------------------------------------------------------
              Anisotropic Spin Dipole Couplings in Principal Axis System
 ---------------------------------------------------------------------------------

       Atom             a.u.   MegaHertz   Gauss  10(-4) cm-1        Axes

              Baa    -0.7123   -27.472    -9.803    -9.164  0.9262 -0.3770  0.0000
     1 N(14)  Bbb    -0.6973   -26.892    -9.596    -8.970  0.3770  0.9262 -0.0000
              Bcc     1.4096    54.364    19.398    18.134  0.0000  0.0000  1.0000
 
              Baa    -0.1846   -24.777    -8.841    -8.265  0.0000  0.0000  1.0000
     2 C(13)  Bbb     0.0686     9.205     3.284     3.070 -0.2948  0.9556  0.0000
              Bcc     0.1160    15.573     5.557     5.194  0.9556  0.2948 -0.0000
 
              Baa    -0.1625   -21.805    -7.781    -7.273  0.9677  0.2522  0.0000
     3 C(13)  Bbb    -0.1581   -21.220    -7.572    -7.078 -0.2522  0.9677  0.0000
              Bcc     0.3206    43.025    15.353    14.352  0.0000  0.0000  1.0000
 
              Baa    -0.0153    -8.156    -2.910    -2.721  0.7073  0.7070  0.0000
     4 H(1)   Bbb    -0.0044    -2.356    -0.841    -0.786  0.0000  0.0000  1.0000
              Bcc     0.0197    10.512     3.751     3.506 -0.7070  0.7073 -0.0000
 
              Baa    -0.1559   -20.924    -7.466    -6.979  0.0000  0.0000  1.0000
     5 C(13)  Bbb     0.0706     9.480     3.383     3.162 -0.0016  1.0000 -0.0000
              Bcc     0.0853    11.444     4.084     3.817  1.0000  0.0016 -0.0000
 
              Baa    -0.1925   -25.830    -9.217    -8.616 -0.3566  0.9342  0.0000
     6 C(13)  Bbb    -0.1769   -23.736    -8.470    -7.917  0.9342  0.3566 -0.0000
              Bcc     0.3694    49.566    17.686    16.533  0.0000  0.0000  1.0000
 
              Baa    -0.1527   -20.491    -7.312    -6.835  0.0000  0.0000  1.0000
     7 C(13)  Bbb     0.0692     9.288     3.314     3.098 -0.6757  0.7372 -0.0000
              Bcc     0.0835    11.203     3.997     3.737  0.7372  0.6757 -0.0000
 
              Baa    -0.1612   -21.635    -7.720    -7.217  0.9061  0.4230 -0.0000
     8 C(13)  Bbb    -0.1557   -20.890    -7.454    -6.968 -0.4230  0.9061 -0.0000
              Bcc     0.3169    42.524    15.174    14.185  0.0000  0.0000  1.0000
 
              Baa    -0.0631   -33.670   -12.014   -11.231  0.9992 -0.0402  0.0000
     9 H(1)   Bbb    -0.0113    -6.027    -2.151    -2.011  0.0000  0.0000  1.0000
              Bcc     0.0744    39.697    14.165    13.241  0.0402  0.9992 -0.0000
 
              Baa    -0.0051    -2.743    -0.979    -0.915  0.0000  0.0000  1.0000
    10 H(1)   Bbb    -0.0040    -2.141    -0.764    -0.714  0.1423  0.9898 -0.0000
              Bcc     0.0092     4.884     1.743     1.629  0.9898 -0.1423 -0.0000
 
              Baa    -0.0253   -13.521    -4.824    -4.510 -0.3597  0.9331  0.0000
    11 H(1)   Bbb     0.0001     0.064     0.023     0.021  0.0000  0.0000  1.0000
              Bcc     0.0252    13.457     4.802     4.489  0.9331  0.3597 -0.0000
 
              Baa    -0.0051    -2.722    -0.971    -0.908 -0.0000  0.0000  1.0000
    12 H(1)   Bbb    -0.0038    -2.034    -0.726    -0.678  0.7909 -0.6119  0.0000
              Bcc     0.0089     4.756     1.697     1.586  0.6119  0.7909  0.0000
 
              Baa    -0.0164    -8.729    -3.115    -2.912  0.9993 -0.0368 -0.0000
    13 H(1)   Bbb    -0.0038    -2.039    -0.727    -0.680  0.0000  0.0000  1.0000
              Bcc     0.0202    10.767     3.842     3.592  0.0368  0.9993 -0.0000
 

 ---------------------------------------------------------------------------------

 No NMR shielding tensors so no spin-rotation constants.
 Leave Link  601 at Sun Mar  1 23:19:52 2020, MaxMem=  1879048192 cpu:              31.4 elap:               0.9
 (Enter /opt/g16/l701.exe)
 ... and contract with generalized density number  0.
 Compute integral first derivatives.
 R6Disp: Adding Grimme-D2 dispersion energy 1st derivatives to the gradient.
   2 Symmetry operations used in ECPInt.
 ECPInt:  NShTT=    5151 NPrTT=   15748 LenC2=    5095 LenP2D=   12865.
 LDataN:  DoStor=T MaxTD1= 7 Len=  274
 Leave Link  701 at Sun Mar  1 23:19:54 2020, MaxMem=  1879048192 cpu:              62.3 elap:               1.8
 (Enter /opt/g16/l702.exe)
 L702 exits ... SP integral derivatives will be done elsewhere.
 Leave Link  702 at Sun Mar  1 23:19:54 2020, MaxMem=  1879048192 cpu:               3.9 elap:               0.1
 (Enter /opt/g16/l703.exe)
 Integral derivatives from FoFJK, PRISM(SPDF).
 Compute integral first derivatives, UseDBF=F ICtDFT=           0.
 Calling FoFJK, ICntrl=      2127 FMM=F ISym2X=1 I1Cent= 0 IOpClX= 1 NMat=1 NMatS=1 NMatT=0.
 FoFJK:  IHMeth= 1 ICntrl=    2127 DoSepK=T KAlg= 0 I1Cent=           0 FoldK=F
 IRaf=         1 NMat=       1 IRICut=       1 DoRegI=T DoRafI=F ISym2E= 1 IDoP0=0 IntGTp=1.
 FoFCou: FMM=F IPFlag=           0 FMFlag=      100000 FMFlg1=         800
         NFxFlg=           0 DoJE=F BraDBF=F KetDBF=F FulRan=T
         wScrn=  0.000000 ICntrl=      2527 IOpCl=  0 I1Cent=           0 NGrid=           0
         NMat0=    1 NMatS0=      1 NMatT0=    0 NMatD0=    1 NMtDS0=    0 NMtDT0=    0
 Petite list used in FoFCou.
 Leave Link  703 at Sun Mar  1 23:20:09 2020, MaxMem=  1879048192 cpu:             536.2 elap:              15.0
 (Enter /opt/g16/l716.exe)
 Dipole        =-9.74522731D-01 1.80314955D-01-1.23048378D-17
 ***** Axes restored to original set *****
 -------------------------------------------------------------------
 Center     Atomic                   Forces (Hartrees/Bohr)
 Number     Number              X              Y              Z
 -------------------------------------------------------------------
      1        7           0.000035562    0.000002845    0.000002549
      2        6          -0.000073268    0.000030943   -0.000005326
      3        6           0.000043363   -0.000023480    0.000003162
      4        1          -0.000017980   -0.000018893   -0.000001253
      5        6          -0.000030019   -0.000027060   -0.000002102
      6        6           0.000024786    0.000035457    0.000001709
      7        6           0.000011355    0.000032150    0.000000751
      8        6          -0.000034784   -0.000041465   -0.000002415
      9        1           0.000025936   -0.000015312    0.000001894
     10        1           0.000008365   -0.000010542    0.000000622
     11        1           0.000009407    0.000001966    0.000000672
     12        1           0.000002116    0.000022577    0.000000106
     13        1          -0.000004838    0.000010815   -0.000000369
 -------------------------------------------------------------------
 Cartesian Forces:  Max     0.000073268 RMS     0.000022763
 Leave Link  716 at Sun Mar  1 23:20:09 2020, MaxMem=  1879048192 cpu:               2.2 elap:               0.1
 (Enter /opt/g16/l103.exe)

 GradGradGradGradGradGradGradGradGradGradGradGradGradGradGradGradGradGrad
 Berny optimization.
 FormGI is forming the generalized inverse of G from B-inverse, IUseBI=4.
 Internal  Forces:  Max     0.000061029 RMS     0.000016058
 Search for a local minimum.
 Step number   1 out of a maximum of   68
 All quantities printed in internal units (Hartrees-Bohrs-Radians)
 RMS Force = .16058D-04 SwitMx=.10000D-02 MixMth= 2
 Mixed Optimization -- En-DIIS/RFO-DIIS
 Second derivative matrix not updated -- first step.
 ITU=  0
     Eigenvalues ---    0.01788   0.01966   0.02050   0.02107   0.02138
     Eigenvalues ---    0.02220   0.02235   0.02303   0.02320   0.02631
     Eigenvalues ---    0.16000   0.16000   0.16000   0.16000   0.16000
     Eigenvalues ---    0.16000   0.22000   0.22000   0.23448   0.25000
     Eigenvalues ---    0.35490   0.35664   0.35676   0.35713   0.35733
     Eigenvalues ---    0.39216   0.40357   0.44286   0.44845   0.44976
     Eigenvalues ---    0.48064   0.50299   0.59744
 RFO step:  Lambda=-4.03735794D-08 EMin= 1.78793876D-02
 Linear search not attempted -- first point.
 Iteration  1 RMS(Cart)=  0.00007828 RMS(Int)=  0.00000001
 Iteration  2 RMS(Cart)=  0.00000001 RMS(Int)=  0.00000001
 ITry= 1 IFail=0 DXMaxC= 3.98D-04 DCOld= 1.00D+10 DXMaxT= 3.00D-01 DXLimC= 3.00D+00 Rises=F
 ClnCor:  largest displacement from symmetrization is 2.70D-08 for atom     9.
 Variable       Old X    -DE/DX   Delta X   Delta X   Delta X     New X
                                 (Linear)    (Quad)   (Total)
    R1        2.51144   0.00006   0.00000   0.00010   0.00010   2.51153
    R2        1.92813   0.00002   0.00000   0.00005   0.00005   1.92819
    R3        2.69464  -0.00003   0.00000  -0.00007  -0.00007   2.69458
    R4        2.69738   0.00000   0.00000   0.00001   0.00001   2.69739
    R5        2.04501  -0.00002   0.00000  -0.00007  -0.00007   2.04494
    R6        2.59532   0.00000   0.00000   0.00001   0.00001   2.59533
    R7        2.63859  -0.00006   0.00000  -0.00013  -0.00013   2.63845
    R8        2.04592  -0.00001   0.00000  -0.00004  -0.00004   2.04588
    R9        2.63845  -0.00003   0.00000  -0.00007  -0.00007   2.63838
   R10        2.04533  -0.00001   0.00000  -0.00003  -0.00003   2.04531
   R11        2.59598  -0.00004   0.00000  -0.00007  -0.00007   2.59590
   R12        2.04610  -0.00002   0.00000  -0.00006  -0.00006   2.04604
   R13        2.04887  -0.00001   0.00000  -0.00003  -0.00003   2.04884
    A1        1.91277   0.00003   0.00000   0.00020   0.00020   1.91297
    A2        2.06251   0.00001   0.00000   0.00004   0.00004   2.06255
    A3        2.17050  -0.00000   0.00000  -0.00001  -0.00001   2.17049
    A4        2.05017  -0.00001   0.00000  -0.00003  -0.00003   2.05014
    A5        2.04934   0.00001   0.00000   0.00007   0.00007   2.04941
    A6        2.10978   0.00001   0.00000   0.00004   0.00004   2.10982
    A7        2.12407  -0.00002   0.00000  -0.00011  -0.00011   2.12396
    A8        2.10018  -0.00001   0.00000  -0.00003  -0.00003   2.10015
    A9        2.09366   0.00001   0.00000   0.00005   0.00005   2.09370
   A10        2.08935  -0.00000   0.00000  -0.00002  -0.00002   2.08933
   A11        2.09716   0.00000   0.00000  -0.00000  -0.00000   2.09715
   A12        2.09393   0.00000   0.00000   0.00003   0.00003   2.09396
   A13        2.09210  -0.00001   0.00000  -0.00003  -0.00003   2.09208
   A14        2.09940   0.00002   0.00000   0.00007   0.00007   2.09947
   A15        2.08995  -0.00001   0.00000  -0.00004  -0.00004   2.08991
   A16        2.09383  -0.00001   0.00000  -0.00002  -0.00002   2.09381
   A17        2.10968  -0.00001   0.00000  -0.00005  -0.00005   2.10963
   A18        2.07032  -0.00000   0.00000  -0.00002  -0.00002   2.07030
   A19        2.10319   0.00001   0.00000   0.00007   0.00007   2.10326
    D1       -3.14159  -0.00000   0.00000  -0.00000  -0.00000   3.14159
    D2        0.00000  -0.00000   0.00000  -0.00000  -0.00000  -0.00000
    D3       -0.00000   0.00000   0.00000   0.00000   0.00000   0.00000
    D4        3.14159   0.00000   0.00000   0.00000   0.00000   3.14159
    D5        3.14159   0.00000   0.00000   0.00000   0.00000   3.14159
    D6        0.00000   0.00000   0.00000   0.00000  -0.00000   0.00000
    D7        3.14159  -0.00000   0.00000  -0.00000   0.00000   3.14159
    D8       -0.00000   0.00000   0.00000   0.00000   0.00000   0.00000
    D9       -0.00000  -0.00000   0.00000  -0.00000   0.00000   0.00000
   D10        3.14159   0.00000   0.00000   0.00000   0.00000   3.14159
   D11       -0.00000  -0.00000   0.00000  -0.00000   0.00000   0.00000
   D12       -3.14159  -0.00000   0.00000  -0.00000  -0.00000   3.14159
   D13        3.14159  -0.00000   0.00000  -0.00000   0.00000   3.14159
   D14        0.00000  -0.00000   0.00000  -0.00000   0.00000   0.00000
   D15        0.00000  -0.00000   0.00000  -0.00000   0.00000   0.00000
   D16        3.14159   0.00000   0.00000   0.00000   0.00000   3.14159
   D17        3.14159   0.00000   0.00000   0.00000   0.00000   3.14159
   D18       -0.00000   0.00000   0.00000   0.00000   0.00000   0.00000
   D19       -0.00000   0.00000   0.00000   0.00000   0.00000   0.00000
   D20        3.14159   0.00000   0.00000   0.00000   0.00000   3.14159
   D21        3.14159   0.00000   0.00000   0.00000   0.00000   3.14159
   D22       -0.00000   0.00000   0.00000   0.00000   0.00000   0.00000
   D23        0.00000  -0.00000   0.00000  -0.00000  -0.00000   0.00000
   D24       -3.14159  -0.00000   0.00000  -0.00000   0.00000  -3.14159
   D25       -3.14159  -0.00000   0.00000  -0.00000  -0.00000   3.14159
   D26        0.00000  -0.00000   0.00000  -0.00000  -0.00000  -0.00000
         Item               Value     Threshold  Converged?
 Maximum Force            0.000061     0.000015     NO 
 RMS     Force            0.000016     0.000010     NO 
 Maximum Displacement     0.000398     0.000060     NO 
 RMS     Displacement     0.000078     0.000040     NO 
 Predicted change in Energy=-2.018680D-08
 Lowest energy point so far.  Saving SCF results.
 GradGradGradGradGradGradGradGradGradGradGradGradGradGradGradGradGradGrad

 Leave Link  103 at Sun Mar  1 23:20:11 2020, MaxMem=  1879048192 cpu:              63.3 elap:               1.8
 (Enter /opt/g16/l202.exe)
                          Input orientation:                          
 ---------------------------------------------------------------------
 Center     Atomic      Atomic             Coordinates (Angstroms)
 Number     Number       Type             X           Y           Z
 ---------------------------------------------------------------------
      1          7           0        2.415741    0.575382    0.172362
      2          6           0        1.125935    0.268307    0.080335
      3          6           0        0.183041    1.335679    0.010443
      4          1           0        0.570750    2.345644    0.036247
      5          6           0       -1.163254    1.081849   -0.085750
      6          6           0       -1.632416   -0.232807   -0.116788
      7          6           0       -0.734410   -1.299783   -0.050122
      8          6           0        0.615498   -1.064272    0.046368
      9          1           0        2.969375   -0.280706    0.213865
     10          1           0       -1.866031    1.903724   -0.137897
     11          1           0       -2.694610   -0.426246   -0.192696
     12          1           0       -1.105592   -2.316590   -0.074725
     13          1           0        1.315970   -1.890180    0.098357
 ---------------------------------------------------------------------
                    Distance matrix (angstroms):
                    1          2          3          4          5
     1  N    0.000000
     2  C    1.329046   0.000000
     3  C    2.364153   1.425910   0.000000
     4  H    2.560536   2.150699   1.082134   0.000000
     5  C    3.623857   2.435123   1.373387   2.149147   0.000000
     6  C    4.138158   2.810422   2.402544   3.394962   1.396208
     7  C    3.672764   2.436557   2.791244   3.872989   2.420196
     8  C    2.438281   1.427398   2.438867   3.410224   2.790564
     9  H    1.020352   1.928086   3.227652   3.561273   4.361759
    10  H    4.493809   3.416734   2.131519   2.482644   1.082632
    11  H    5.220365   3.892751   3.380313   4.289331   2.151938
    12  H    4.563369   3.418398   3.873874   4.955690   3.398946
    13  H    2.700735   2.166911   3.420150   4.301327   3.874713
                    6          7          8          9         10
     6  C    0.000000
     7  C    1.396172   0.000000
     8  C    2.402305   1.373692   0.000000
     9  H    4.613903   3.850484   2.486517   0.000000
    10  H    2.149368   3.398636   3.873104   5.317576   0.000000
    11  H    1.082329   2.150762   3.379503   5.680422   2.473521
    12  H    2.149759   1.082718   2.131927   4.564368   4.288742
    13  H    3.389122   2.138849   1.084199   2.310302   4.957282
                   11         12         13
    11  H    0.000000
    12  H    2.472306   0.000000
    13  H    4.279318   2.464902   0.000000
 Stoichiometry    C6H6N(2)
 Framework group  CS[SG(C6H6N)]
 Deg. of freedom    23
 Full point group                 CS      NOp   2
 RotChk:  IX=0 Diff= 1.62D+00
 Largest Abelian subgroup         CS      NOp   2
 Largest concise Abelian subgroup C1      NOp   1
                         Standard orientation:                         
 ---------------------------------------------------------------------
 Center     Atomic      Atomic             Coordinates (Angstroms)
 Number     Number       Type             X           Y           Z
 ---------------------------------------------------------------------
      1          7           0        0.061033    2.341868   -0.000000
      2          6           0       -0.000000    1.014224   -0.000000
      3          6           0        1.224701    0.283932   -0.000000
      4          1           0        2.144699    0.853685   -0.000000
      5          6           0        1.226525   -1.089453    0.000000
      6          6           0        0.022352   -1.796109    0.000000
      7          6           0       -1.193584   -1.109963    0.000000
      8          6           0       -1.214081    0.263576   -0.000000
      9          1           0       -0.883431    2.728010   -0.000000
     10          1           0        2.165204   -1.628874    0.000000
     11          1           0        0.030498   -2.878408    0.000000
     12          1           0       -2.123388   -1.664707    0.000000
     13          1           0       -2.156293    0.799975   -0.000000
 ---------------------------------------------------------------------
 Rotational constants (GHZ):           5.5992550           2.7867705           1.8606954
 Leave Link  202 at Sun Mar  1 23:20:11 2020, MaxMem=  1879048192 cpu:               4.7 elap:               0.1
 (Enter /opt/g16/l301.exe)
 Standard basis: def2TZVP (5D, 7F)
 Ernie: Thresh=  0.10000D-02 Tol=  0.10000D-05 Strict=F.
 There are   205 symmetry adapted cartesian basis functions of A'  symmetry.
 There are    83 symmetry adapted cartesian basis functions of A"  symmetry.
 There are   177 symmetry adapted basis functions of A'  symmetry.
 There are    76 symmetry adapted basis functions of A"  symmetry.
   253 basis functions,   405 primitive gaussians,   288 cartesian basis functions
    25 alpha electrons       24 beta electrons
       nuclear repulsion energy       262.2144867854 Hartrees.
 IExCor= 4639 DFT=T Ex+Corr=wB97XD ExCW=0 ScaHFX=  1.000000
 ScaDFX=  1.000000  1.000000  1.000000  1.000000 ScalE2=  1.000000  1.000000
 IRadAn=      5 IRanWt=     -1 IRanGd=            0 ICorTp=0 IEmpDi=121
 HFx  wShort=  0.000000 wLong=  0.200000 cFull=  0.222036 cShort=  0.000000 cLong=  0.777964
 DFx  wShort=  0.000000 wLong=  0.200000 cFull=  0.000000 cShort=  0.000000 cLong=  1.000000
 NAtoms=   13 NActive=   13 NUniq=   13 SFac= 1.00D+00 NAtFMM=   60 NAOKFM=F Big=F
 Integral buffers will be    131072 words long.
 Raffenetti 2 integral format.
 Two-electron integral symmetry is turned on.
 R6Disp:  Grimme-D2 Dispersion energy=       -0.0050109051 Hartrees.
 Nuclear repulsion after empirical dispersion term =      262.2094758803 Hartrees.
 Leave Link  301 at Sun Mar  1 23:20:11 2020, MaxMem=  1879048192 cpu:               4.2 elap:               0.1
 (Enter /opt/g16/l302.exe)
 NPDir=0 NMtPBC=     1 NCelOv=     1 NCel=       1 NClECP=     1 NCelD=      1
         NCelK=      1 NCelE2=     1 NClLst=     1 CellRange=     0.0.
 One-electron integrals computed using PRISM.
 One-electron integral symmetry used in STVInt
   2 Symmetry operations used in ECPInt.
 ECPInt:  NShTT=    5151 NPrTT=   15748 LenC2=    5095 LenP2D=   12865.
 LDataN:  DoStor=T MaxTD1= 6 Len=  172
 NBasis=   253 RedAO= T EigKep=  1.04D-05  NBF=   177    76
 NBsUse=   253 1.00D-06 EigRej= -1.00D+00 NBFU=   177    76
 Precomputing XC quadrature grid using
 IXCGrd= 4 IRadAn=           5 IRanWt=          -1 IRanGd=           0 AccXCQ= 1.00D-12.
 Generated NRdTot=       0 NPtTot=           0 NUsed=           0 NTot=          32
 NSgBfM=   287   287   287   287   287 MxSgAt=    13 MxSgA2=    13.
 Leave Link  302 at Sun Mar  1 23:20:11 2020, MaxMem=  1879048192 cpu:              14.8 elap:               0.4
 (Enter /opt/g16/l303.exe)
 DipDrv:  MaxL=1.
 Leave Link  303 at Sun Mar  1 23:20:12 2020, MaxMem=  1879048192 cpu:               7.7 elap:               0.2
 (Enter /opt/g16/l401.exe)
 Initial guess from the checkpoint file:  "check.chk"
 B after Tr=    -0.000000   -0.000000   -0.000000
         Rot=    0.820924    0.000000   -0.000000   -0.571037 Ang= -69.65 deg.
 Guess basis will be translated and rotated to current coordinates.
 JPrj=2 DoOrth=T DoCkMO=T.
 Initial guess orbital symmetries:
 Alpha Orbitals:
       Occupied  (A') (A') (A') (A') (A') (A') (A') (A') (A') (A')
                 (A') (A') (A') (A') (A') (A') (A') (A') (A") (A')
                 (A') (A") (A') (A") (A")
       Virtual   (A") (A") (A') (A') (A') (A') (A') (A') (A') (A")
                 (A') (A') (A") (A') (A') (A') (A") (A") (A') (A')
                 (A') (A") (A') (A") (A') (A') (A') (A') (A") (A')
                 (A') (A") (A') (A') (A') (A') (A') (A') (A') (A")
                 (A') (A') (A') (A") (A') (A') (A') (A') (A') (A")
                 (A') (A') (A") (A") (A') (A") (A') (A') (A') (A")
                 (A') (A') (A') (A") (A") (A') (A') (A') (A") (A')
                 (A') (A") (A') (A") (A') (A') (A') (A') (A") (A')
                 (A') (A') (A") (A") (A') (A") (A') (A') (A") (A')
                 (A') (A") (A") (A') (A') (A') (A") (A') (A") (A')
                 (A") (A') (A") (A") (A') (A") (A') (A') (A') (A')
                 (A') (A') (A') (A') (A") (A') (A") (A') (A") (A')
                 (A') (A') (A') (A') (A") (A') (A') (A') (A') (A")
                 (A") (A') (A") (A') (A") (A') (A") (A') (A') (A")
                 (A') (A') (A") (A') (A") (A') (A") (A") (A') (A')
                 (A") (A') (A") (A') (A') (A") (A') (A') (A') (A")
                 (A') (A") (A") (A") (A') (A') (A') (A') (A") (A')
                 (A") (A') (A') (A') (A") (A") (A') (A') (A') (A')
                 (A') (A') (A") (A") (A') (A') (A') (A") (A') (A')
                 (A") (A") (A') (A') (A") (A') (A") (A') (A') (A")
                 (A') (A") (A') (A") (A') (A') (A") (A') (A') (A')
                 (A') (A') (A") (A') (A') (A') (A') (A') (A') (A')
                 (A') (A') (A') (A') (A') (A') (A') (A')
 Beta  Orbitals:
       Occupied  (A') (A') (A') (A') (A') (A') (A') (A') (A') (A')
                 (A') (A') (A') (A') (A') (A') (A') (A') (A") (A')
                 (A') (A") (A') (A")
       Virtual   (A") (A") (A") (A') (A') (A') (A') (A') (A') (A')
                 (A") (A') (A') (A") (A') (A') (A') (A") (A') (A")
                 (A') (A') (A") (A') (A") (A') (A') (A') (A') (A")
                 (A') (A') (A') (A") (A') (A') (A') (A') (A') (A')
                 (A") (A') (A') (A') (A") (A') (A') (A') (A') (A')
                 (A") (A') (A') (A") (A") (A') (A') (A") (A') (A')
                 (A') (A') (A") (A') (A") (A') (A") (A') (A') (A")
                 (A') (A') (A") (A') (A") (A') (A') (A') (A') (A")
                 (A') (A') (A') (A") (A") (A') (A') (A") (A') (A")
                 (A') (A') (A") (A") (A') (A') (A') (A") (A') (A")
                 (A') (A") (A') (A") (A") (A') (A") (A') (A') (A')
                 (A') (A') (A') (A') (A') (A") (A') (A") (A') (A")
                 (A') (A') (A') (A') (A') (A") (A') (A') (A') (A')
                 (A") (A") (A') (A") (A') (A") (A') (A") (A') (A')
                 (A") (A') (A') (A") (A') (A") (A') (A") (A") (A')
                 (A') (A") (A') (A") (A') (A') (A") (A') (A') (A')
                 (A") (A') (A") (A") (A") (A') (A') (A') (A') (A")
                 (A') (A") (A') (A') (A') (A") (A') (A") (A') (A')
                 (A') (A') (A') (A") (A") (A') (A') (A') (A") (A')
                 (A') (A") (A") (A') (A') (A") (A') (A") (A') (A')
                 (A") (A') (A") (A') (A") (A') (A') (A") (A') (A')
                 (A') (A') (A') (A") (A') (A') (A') (A') (A') (A')
                 (A') (A') (A') (A') (A') (A') (A') (A') (A')
 The electronic state of the initial guess is 2-A".
 Initial guess <Sx>= 0.0000 <Sy>= 0.0000 <Sz>= 0.5000 <S**2>= 0.8078 S= 0.5285
 Leave Link  401 at Sun Mar  1 23:20:12 2020, MaxMem=  1879048192 cpu:              20.9 elap:               0.6
 (Enter /opt/g16/l502.exe)
 Integral symmetry usage will be decided dynamically.
 UHF open shell SCF:
 Using DIIS extrapolation, IDIIS=  1040.
 NGot=  1879048192 LenX=  1878868665 LenY=  1878785280
 Requested convergence on RMS density matrix=1.00D-08 within  32 cycles.
 Requested convergence on MAX density matrix=1.00D-06.
 Requested convergence on             energy=1.00D-06.
 No special actions if energy rises.
 Fock matrices will be formed incrementally for  20 cycles.

 Cycle   1  Pass 1  IDiag  1:
 FoFJK:  IHMeth= 1 ICntrl=       0 DoSepK=T KAlg= 0 I1Cent=           0 FoldK=F
 IRaf=         1 NMat=       1 IRICut=       1 DoRegI=T DoRafI=F ISym2E= 1 IDoP0=0 IntGTp=1.
 FoFCou: FMM=F IPFlag=           0 FMFlag=      100000 FMFlg1=           0
         NFxFlg=           0 DoJE=T BraDBF=F KetDBF=F FulRan=T
         wScrn=  0.000000 ICntrl=       500 IOpCl=  0 I1Cent=           0 NGrid=           0
         NMat0=    1 NMatS0=      1 NMatT0=    0 NMatD0=    1 NMtDS0=    0 NMtDT0=    0
 Petite list used in FoFCou.
 E= -286.953779458185    
 DIIS: error= 6.87D-06 at cycle   1 NSaved=   1.
 NSaved= 1 IEnMin= 1 EnMin= -286.953779458185     IErMin= 1 ErrMin= 6.87D-06
 ErrMax= 6.87D-06  0.00D+00 EMaxC= 1.00D-01 BMatC= 5.81D-08 BMatP= 5.81D-08
 IDIUse=1 WtCom= 1.00D+00 WtEn= 0.00D+00
 Coeff-Com:  0.100D+01
 Coeff:      0.100D+01
 Gap=     0.337 Goal=   None    Shift=    0.000
 Gap=     0.296 Goal=   None    Shift=    0.000
 RMSDP=1.42D-06 MaxDP=3.28D-05              OVMax= 4.27D-05

 Cycle   2  Pass 1  IDiag  1:
 RMSU=  1.41D-06    CP:  1.00D+00
 E= -286.953779470529     Delta-E=       -0.000000012344 Rises=F Damp=F
 DIIS: error= 2.67D-06 at cycle   2 NSaved=   2.
 NSaved= 2 IEnMin= 2 EnMin= -286.953779470529     IErMin= 2 ErrMin= 2.67D-06
 ErrMax= 2.67D-06  0.00D+00 EMaxC= 1.00D-01 BMatC= 4.49D-09 BMatP= 5.81D-08
 IDIUse=1 WtCom= 1.00D+00 WtEn= 0.00D+00
 Coeff-Com:  0.468D-01 0.953D+00
 Coeff:      0.468D-01 0.953D+00
 Gap=     0.337 Goal=   None    Shift=    0.000
 Gap=     0.296 Goal=   None    Shift=    0.000
 RMSDP=4.20D-07 MaxDP=2.49D-05 DE=-1.23D-08 OVMax= 3.67D-05

 Cycle   3  Pass 1  IDiag  1:
 RMSU=  3.16D-07    CP:  1.00D+00  1.18D+00
 E= -286.953779471162     Delta-E=       -0.000000000633 Rises=F Damp=F
 DIIS: error= 5.16D-06 at cycle   3 NSaved=   3.
 NSaved= 3 IEnMin= 3 EnMin= -286.953779471162     IErMin= 2 ErrMin= 2.67D-06
 ErrMax= 5.16D-06  0.00D+00 EMaxC= 1.00D-01 BMatC= 3.92D-09 BMatP= 4.49D-09
 IDIUse=1 WtCom= 1.00D+00 WtEn= 0.00D+00
 Coeff-Com: -0.493D-01 0.496D+00 0.553D+00
 Coeff:     -0.493D-01 0.496D+00 0.553D+00
 Gap=     0.337 Goal=   None    Shift=    0.000
 Gap=     0.296 Goal=   None    Shift=    0.000
 RMSDP=1.71D-07 MaxDP=1.23D-05 DE=-6.33D-10 OVMax= 2.17D-05

 Cycle   4  Pass 1  IDiag  1:
 RMSU=  8.09D-08    CP:  1.00D+00  1.16D+00  5.53D-01
 E= -286.953779472226     Delta-E=       -0.000000001064 Rises=F Damp=F
 DIIS: error= 9.51D-07 at cycle   4 NSaved=   4.
 NSaved= 4 IEnMin= 4 EnMin= -286.953779472226     IErMin= 4 ErrMin= 9.51D-07
 ErrMax= 9.51D-07  0.00D+00 EMaxC= 1.00D-01 BMatC= 1.43D-10 BMatP= 3.92D-09
 IDIUse=1 WtCom= 1.00D+00 WtEn= 0.00D+00
 Coeff-Com: -0.347D-02-0.511D-01 0.550D-01 0.100D+01
 Coeff:     -0.347D-02-0.511D-01 0.550D-01 0.100D+01
 Gap=     0.337 Goal=   None    Shift=    0.000
 Gap=     0.296 Goal=   None    Shift=    0.000
 RMSDP=6.00D-08 MaxDP=3.15D-06 DE=-1.06D-09 OVMax= 1.15D-05

 Cycle   5  Pass 1  IDiag  1:
 RMSU=  3.22D-08    CP:  1.00D+00  1.17D+00  6.75D-01  1.27D+00
 E= -286.953779472408     Delta-E=       -0.000000000182 Rises=F Damp=F
 DIIS: error= 8.24D-07 at cycle   5 NSaved=   5.
 NSaved= 5 IEnMin= 5 EnMin= -286.953779472408     IErMin= 5 ErrMin= 8.24D-07
 ErrMax= 8.24D-07  0.00D+00 EMaxC= 1.00D-01 BMatC= 5.11D-11 BMatP= 1.43D-10
 IDIUse=1 WtCom= 1.00D+00 WtEn= 0.00D+00
 Coeff-Com:  0.111D-01-0.127D+00-0.104D+00 0.115D+00 0.111D+01
 Coeff:      0.111D-01-0.127D+00-0.104D+00 0.115D+00 0.111D+01
 Gap=     0.337 Goal=   None    Shift=    0.000
 Gap=     0.296 Goal=   None    Shift=    0.000
 RMSDP=3.91D-08 MaxDP=1.44D-06 DE=-1.82D-10 OVMax= 1.01D-05

 Cycle   6  Pass 1  IDiag  1:
 RMSU=  1.77D-08    CP:  1.00D+00  1.18D+00  7.20D-01  1.57D+00  1.60D+00
 E= -286.953779472513     Delta-E=       -0.000000000105 Rises=F Damp=F
 DIIS: error= 5.48D-07 at cycle   6 NSaved=   6.
 NSaved= 6 IEnMin= 6 EnMin= -286.953779472513     IErMin= 6 ErrMin= 5.48D-07
 ErrMax= 5.48D-07  0.00D+00 EMaxC= 1.00D-01 BMatC= 2.16D-11 BMatP= 5.11D-11
 IDIUse=1 WtCom= 1.00D+00 WtEn= 0.00D+00
 Coeff-Com:  0.412D-02-0.387D-02-0.447D-01-0.499D+00 0.248D+00 0.129D+01
 Coeff:      0.412D-02-0.387D-02-0.447D-01-0.499D+00 0.248D+00 0.129D+01
[...]
  Beta  occ. eigenvalues --   -0.81140  -0.71540  -0.68931  -0.61762  -0.57861
  Beta  occ. eigenvalues --   -0.55193  -0.52245  -0.51849  -0.47748  -0.45863
  Beta  occ. eigenvalues --   -0.43892  -0.37469  -0.35453  -0.34564
  Beta virt. eigenvalues --   -0.05006   0.05615   0.09563   0.11945   0.13444
  Beta virt. eigenvalues --    0.15501   0.16965   0.18787   0.19922   0.20546
  Beta virt. eigenvalues --    0.22213   0.26517   0.27133   0.28035   0.28670
  Beta virt. eigenvalues --    0.29760   0.31206   0.31793   0.33451   0.34059
  Beta virt. eigenvalues --    0.36547   0.39911   0.40257   0.40521   0.40824
  Beta virt. eigenvalues --    0.42078   0.43590   0.44799   0.47558   0.47862
  Beta virt. eigenvalues --    0.48738   0.49492   0.50304   0.51231   0.52213
  Beta virt. eigenvalues --    0.53843   0.55004   0.55873   0.57285   0.57615
  Beta virt. eigenvalues --    0.59768   0.60504   0.65603   0.68793   0.70330
  Beta virt. eigenvalues --    0.70448   0.72742   0.74632   0.76798   0.78566
  Beta virt. eigenvalues --    0.81132   0.81526   0.83067   0.84571   0.88348
  Beta virt. eigenvalues --    0.89449   0.94266   0.94329   0.95324   0.96662
  Beta virt. eigenvalues --    1.07322   1.07876   1.07940   1.10900   1.14397
  Beta virt. eigenvalues --    1.15830   1.16174   1.21062   1.25200   1.26411
  Beta virt. eigenvalues --    1.28212   1.28850   1.29883   1.32948   1.35619
  Beta virt. eigenvalues --    1.36295   1.37761   1.44387   1.45298   1.47118
  Beta virt. eigenvalues --    1.50287   1.53613   1.56371   1.57385   1.57527
  Beta virt. eigenvalues --    1.57940   1.63124   1.63305   1.64328   1.69496
  Beta virt. eigenvalues --    1.70638   1.72591   1.74708   1.77449   1.78061
  Beta virt. eigenvalues --    1.79707   1.82937   1.84129   1.84851   1.92779
  Beta virt. eigenvalues --    1.97088   1.97522   2.03622   2.04789   2.07655
  Beta virt. eigenvalues --    2.08805   2.12807   2.15475   2.16808   2.19207
  Beta virt. eigenvalues --    2.21410   2.25076   2.26034   2.30183   2.31998
  Beta virt. eigenvalues --    2.34889   2.37463   2.42624   2.49453   2.55968
  Beta virt. eigenvalues --    2.58927   2.60960   2.62134   2.64123   2.65817
  Beta virt. eigenvalues --    2.67169   2.69807   2.73321   2.74718   2.75086
  Beta virt. eigenvalues --    2.76299   2.76494   2.79449   2.82664   2.83257
  Beta virt. eigenvalues --    2.83300   2.86262   2.89654   2.90408   2.92021
  Beta virt. eigenvalues --    2.94380   2.95668   2.97229   2.97766   3.05626
  Beta virt. eigenvalues --    3.05966   3.10315   3.13973   3.16925   3.17642
  Beta virt. eigenvalues --    3.18862   3.20428   3.21225   3.22161   3.26408
  Beta virt. eigenvalues --    3.28464   3.29448   3.29950   3.33114   3.33885
  Beta virt. eigenvalues --    3.37962   3.40018   3.41985   3.42691   3.43986
  Beta virt. eigenvalues --    3.47980   3.49313   3.53223   3.53941   3.56007
  Beta virt. eigenvalues --    3.56157   3.58426   3.58706   3.64494   3.68487
  Beta virt. eigenvalues --    3.77610   3.78033   3.78160   3.79853   3.87641
  Beta virt. eigenvalues --    3.91438   4.00278   4.05339   4.07094   4.09129
  Beta virt. eigenvalues --    4.11182   4.12250   4.14226   4.16006   4.21444
  Beta virt. eigenvalues --    4.25004   4.29173   4.30092   4.31714   4.34114
  Beta virt. eigenvalues --    4.35941   4.39338   4.49855   4.52985   4.66360
  Beta virt. eigenvalues --    4.69389   4.71561   4.76718   4.76849   4.84093
  Beta virt. eigenvalues --    4.85229   4.90087   4.95528   4.95739   5.05488
  Beta virt. eigenvalues --    5.07453   5.18321   5.24248   5.33339   5.34523
  Beta virt. eigenvalues --    5.36678   5.42352   5.56473   5.62208   5.69312
  Beta virt. eigenvalues --    5.77406   6.09419  22.17750  22.67424  22.70135
  Beta virt. eigenvalues --   22.80723  22.94747  23.34049  32.14642
          Condensed to atoms (all electrons):
               1          2          3          4          5          6
     1  N    6.541595   0.577609  -0.059439   0.010620   0.001544  -0.002644
     2  C    0.577609   4.710403   0.415259  -0.040273   0.001325  -0.061597
     3  C   -0.059439   0.415259   4.974985   0.420052   0.493048  -0.008313
     4  H    0.010620  -0.040273   0.420052   0.514134  -0.054118   0.012345
     5  C    0.001544   0.001325   0.493048  -0.054118   4.890483   0.428661
     6  C   -0.002644  -0.061597  -0.008313   0.012345   0.428661   4.932514
     7  C    0.027382   0.064435  -0.057592  -0.007521   0.024254   0.409758
     8  C   -0.129293   0.322186   0.002488   0.019767  -0.081705   0.041845
     9  H    0.356772  -0.089454   0.011569  -0.001653   0.000093  -0.001081
    10  H   -0.000104   0.010904  -0.051308  -0.007750   0.443884  -0.056439
    11  H   -0.000005  -0.003460   0.009354  -0.000015  -0.053155   0.441187
    12  H   -0.000308   0.005655  -0.001812   0.000063   0.007515  -0.048101
    13  H   -0.004840  -0.050419   0.008244  -0.000105  -0.001963   0.007103
               7          8          9         10         11         12
     1  N    0.027382  -0.129293   0.356772  -0.000104  -0.000005  -0.000308
     2  C    0.064435   0.322186  -0.089454   0.010904  -0.003460   0.005655
     3  C   -0.057592   0.002488   0.011569  -0.051308   0.009354  -0.001812
     4  H   -0.007521   0.019767  -0.001653  -0.007750  -0.000015   0.000063
     5  C    0.024254  -0.081705   0.000093   0.443884  -0.053155   0.007515
     6  C    0.409758   0.041845  -0.001081  -0.056439   0.441187  -0.048101
     7  C    5.075181   0.229695   0.010155   0.010957  -0.055015   0.423284
     8  C    0.229695   5.414465  -0.027465  -0.004558   0.012569  -0.033029
     9  H    0.010155  -0.027465   0.535360   0.000038  -0.000009  -0.000072
    10  H    0.010957  -0.004558   0.000038   0.534631  -0.006524  -0.000147
    11  H   -0.055015   0.012569  -0.000009  -0.006524   0.529866  -0.005977
    12  H    0.423284  -0.033029  -0.000072  -0.000147  -0.005977   0.532596
    13  H   -0.032909   0.424463   0.002892   0.000042  -0.000117  -0.006238
              13
     1  N   -0.004840
     2  C   -0.050419
     3  C    0.008244
     4  H   -0.000105
     5  C   -0.001963
     6  C    0.007103
     7  C   -0.032909
     8  C    0.424463
     9  H    0.002892
    10  H    0.000042
    11  H   -0.000117
    12  H   -0.006238
    13  H    0.528810
          Atomic-Atomic Spin Densities.
               1          2          3          4          5          6
     1  N    0.678976  -0.015718  -0.026527  -0.000470   0.000123   0.001099
     2  C   -0.015718  -0.173795   0.015034   0.002023   0.006095   0.001445
     3  C   -0.026527   0.015034   0.294912  -0.001996   0.001906  -0.026192
     4  H   -0.000470   0.002023  -0.001996  -0.011104   0.001215  -0.000594
     5  C    0.000123   0.006095   0.001906   0.001215  -0.154826   0.008636
     6  C    0.001099   0.001445  -0.026192  -0.000594   0.008636   0.329250
     7  C   -0.001428   0.004041   0.004960   0.000370   0.003084   0.015882
     8  C   -0.017360   0.017097  -0.001477  -0.000661   0.001691  -0.026495
     9  H   -0.002354   0.006390   0.001997   0.000118  -0.000060   0.000113
    10  H    0.000009  -0.000282  -0.000097   0.000177   0.000348   0.000297
    11  H   -0.000000   0.000128  -0.000365  -0.000000   0.001852  -0.002430
    12  H    0.000026   0.000127  -0.000042  -0.000003   0.000005  -0.000067
    13  H    0.000376   0.000467  -0.000400   0.000004   0.000087  -0.000279
               7          8          9         10         11         12
     1  N   -0.001428  -0.017360  -0.002354   0.000009  -0.000000   0.000026
     2  C    0.004041   0.017097   0.006390  -0.000282   0.000128   0.000127
     3  C    0.004960  -0.001477   0.001997  -0.000097  -0.000365  -0.000042
     4  H    0.000370  -0.000661   0.000118   0.000177  -0.000000  -0.000003
     5  C    0.003084   0.001691  -0.000060   0.000348   0.001852   0.000005
     6  C    0.015882  -0.026495   0.000113   0.000297  -0.002430  -0.000067
     7  C   -0.164924   0.007556  -0.000822  -0.000201   0.001823   0.001082
     8  C    0.007556   0.278479  -0.001244   0.000155  -0.000421  -0.000832
     9  H   -0.000822  -0.001244  -0.021587  -0.000002   0.000001   0.000002
    10  H   -0.000201   0.000155  -0.000002   0.004755   0.000167  -0.000004
    11  H    0.001823  -0.000421   0.000001   0.000167  -0.013196   0.000131
    12  H    0.001082  -0.000832   0.000002  -0.000004   0.000131   0.004820
    13  H    0.001755  -0.001581   0.000206  -0.000000   0.000005   0.000061
              13
     1  N    0.000376
     2  C    0.000467
     3  C   -0.000400
     4  H    0.000004
     5  C    0.000087
     6  C   -0.000279
     7  C    0.001755
     8  C   -0.001581
     9  H    0.000206
    10  H   -0.000000
    11  H    0.000005
    12  H    0.000061
    13  H   -0.011280
 Mulliken charges and spin densities:
               1          2
     1  N   -0.318891   0.616752
     2  C    0.137428  -0.136947
     3  C   -0.156535   0.261711
     4  H    0.134454  -0.010920
     5  C   -0.099866  -0.129844
     6  C   -0.095236   0.300665
     7  C   -0.122065  -0.126823
     8  C   -0.191428   0.254908
     9  H    0.202855  -0.017244
    10  H    0.126373   0.005321
    11  H    0.131302  -0.012307
    12  H    0.126572   0.005307
    13  H    0.125037  -0.010579
 Sum of Mulliken charges =  -0.00000   1.00000
 Mulliken charges and spin densities with hydrogens summed into heavy atoms:
               1          2
     1  N   -0.116036   0.599508
     2  C    0.137428  -0.136947
     3  C   -0.022081   0.250791
     5  C    0.026507  -0.124523
     6  C    0.036065   0.288359
     7  C    0.004507  -0.121517
     8  C   -0.066391   0.244329
 Electronic spatial extent (au):  <R**2>=            649.4786
 Charge=             -0.0000 electrons
 Dipole moment (field-independent basis, Debye):
    X=             -1.2909    Y=             -2.1629    Z=             -0.0000  Tot=              2.5189
 Quadrupole moment (field-independent basis, Debye-Ang):
   XX=            -35.4344   YY=            -41.9063   ZZ=            -44.4048
   XY=             -4.2903   XZ=             -0.0000   YZ=             -0.0000
 Traceless Quadrupole moment (field-independent basis, Debye-Ang):
   XX=              5.1474   YY=             -1.3245   ZZ=             -3.8229
   XY=             -4.2903   XZ=             -0.0000   YZ=             -0.0000
 Octapole moment (field-independent basis, Debye-Ang**2):
  XXX=             -0.8732  YYY=            -20.6099  ZZZ=             -0.0000  XYY=            -12.9440
  XXY=              0.5093  XXZ=             -0.0000  XZZ=             -0.2758  YZZ=              2.3887
  YYZ=             -0.0000  XYZ=              0.0000
 Hexadecapole moment (field-independent basis, Debye-Ang**3):
 XXXX=           -272.7786 YYYY=           -540.8708 ZZZZ=            -50.0065 XXXY=             -1.1199
 XXXZ=             -0.0000 YYYX=            -35.7760 YYYZ=             -0.0000 ZZZX=             -0.0000
 ZZZY=             -0.0000 XXYY=           -124.8187 XXZZ=            -65.2416 YYZZ=           -104.3426
 XXYZ=             -0.0000 YYXZ=             -0.0000 ZZXY=              0.1597
 N-N= 2.622094818681D+02 E-N=-1.190960853571D+03  KE= 2.855939678469D+02
 Symmetry A'   KE= 2.774981981909D+02
 Symmetry A"   KE= 8.095769656008D+00
 Symmetry A'   SP=-3.242375180017D-14
 Symmetry A"   SP= 1.000000000000D+00
                          Isotropic Fermi Contact Couplings
        Atom                 a.u.       MegaHertz       Gauss      10(-4) cm-1
     1  N(14)              0.05833      18.84572       6.72462       6.28626
     2  C(13)             -0.03946     -44.35575     -15.82724     -14.79549
     3  C(13)              0.01751      19.68725       7.02490       6.56696
     4  H(1)              -0.00423     -18.89426      -6.74194      -6.30245
     5  C(13)             -0.02212     -24.86949      -8.87405      -8.29557
     6  C(13)              0.02176      24.46107       8.72832       8.15934
     7  C(13)             -0.02192     -24.64356      -8.79343      -8.22021
     8  C(13)              0.01831      20.58499       7.34523       6.86641
     9  H(1)              -0.00892     -39.87885     -14.22977     -13.30215
    10  H(1)               0.00198       8.86792       3.16429       2.95802
    11  H(1)              -0.00482     -21.54906      -7.68924      -7.18799
    12  H(1)               0.00195       8.69810       3.10370       2.90137
    13  H(1)              -0.00414     -18.51123      -6.60527      -6.17468
 --------------------------------------------------------
       Center         ----  Spin Dipole Couplings  ----
                      3XX-RR        3YY-RR        3ZZ-RR
 --------------------------------------------------------
     1   Atom       -0.704325     -0.705637      1.409962
     2   Atom        0.068748      0.115895     -0.184643
     3   Atom       -0.158173     -0.162437      0.320610
     4   Atom        0.013627     -0.009212     -0.004415
     5   Atom        0.072381      0.083508     -0.155889
     6   Atom       -0.192413     -0.176817      0.369231
     7   Atom        0.071221      0.081430     -0.152651
     8   Atom       -0.155636     -0.161109      0.316745
     9   Atom        0.054013     -0.042713     -0.011300
    10   Atom       -0.001008      0.006148     -0.005140
    11   Atom       -0.025324      0.025204      0.000120
    12   Atom       -0.000253      0.005354     -0.005101
    13   Atom        0.014838     -0.011016     -0.003823
 --------------------------------------------------------
                        XY            XZ            YZ
 --------------------------------------------------------
     1   Atom       -0.007499      0.000000      0.000000
     2   Atom        0.002641     -0.000000      0.000000
     3   Atom       -0.000430      0.000000      0.000000
     4   Atom        0.013253     -0.000000      0.000000
     5   Atom        0.004758     -0.000000      0.000000
     6   Atom       -0.000145      0.000000     -0.000000
     7   Atom       -0.004984     -0.000000     -0.000000
     8   Atom        0.000456      0.000000      0.000000
     9   Atom       -0.048892     -0.000000      0.000000
    10   Atom        0.005523     -0.000000      0.000000
    11   Atom       -0.000643     -0.000000      0.000000
    12   Atom       -0.005709     -0.000000     -0.000000
    13   Atom       -0.012894      0.000000      0.000000
 --------------------------------------------------------


 ---------------------------------------------------------------------------------
              Anisotropic Spin Dipole Couplings in Principal Axis System
 ---------------------------------------------------------------------------------

       Atom             a.u.   MegaHertz   Gauss  10(-4) cm-1        Axes

              Baa    -0.7125   -27.480    -9.806    -9.166  0.6756  0.7373 -0.0000
     1 N(14)  Bbb    -0.6975   -26.899    -9.598    -8.973  0.7373 -0.6756 -0.0000
              Bcc     1.4100    54.379    19.404    18.139  0.0000  0.0000  1.0000
 
              Baa    -0.1846   -24.777    -8.841    -8.265  0.0000  0.0000  1.0000
     2 C(13)  Bbb     0.0686     9.206     3.285     3.071  0.9984 -0.0558  0.0000
              Bcc     0.1160    15.572     5.556     5.194  0.0558  0.9984 -0.0000
 
              Baa    -0.1625   -21.803    -7.780    -7.273  0.0995  0.9950 -0.0000
     3 C(13)  Bbb    -0.1581   -21.220    -7.572    -7.078  0.9950 -0.0995 -0.0000
              Bcc     0.3206    43.023    15.352    14.351  0.0000  0.0000  1.0000
 
              Baa    -0.0153    -8.156    -2.910    -2.721 -0.4167  0.9090  0.0000
     4 H(1)   Bbb    -0.0044    -2.356    -0.841    -0.786  0.0000  0.0000  1.0000
              Bcc     0.0197    10.512     3.751     3.506  0.9090  0.4167  0.0000
 
              Baa    -0.1559   -20.919    -7.464    -6.978  0.0000  0.0000  1.0000
     5 C(13)  Bbb     0.0706     9.477     3.382     3.161  0.9381 -0.3464  0.0000
              Bcc     0.0853    11.442     4.083     3.817  0.3464  0.9381 -0.0000
 
              Baa    -0.1924   -25.820    -9.213    -8.613  1.0000  0.0093  0.0000
     6 C(13)  Bbb    -0.1768   -23.727    -8.466    -7.914 -0.0093  1.0000  0.0000
              Bcc     0.3692    49.547    17.680    16.527  0.0000  0.0000  1.0000
 
              Baa    -0.1527   -20.484    -7.309    -6.833  0.0000  0.0000  1.0000
     7 C(13)  Bbb     0.0692     9.285     3.313     3.097  0.9261  0.3772  0.0000
              Bcc     0.0835    11.199     3.996     3.736 -0.3772  0.9261 -0.0000
 
              Baa    -0.1611   -21.624    -7.716    -7.213 -0.0825  0.9966 -0.0000
     8 C(13)  Bbb    -0.1556   -20.880    -7.450    -6.965  0.9966  0.0825 -0.0000
              Bcc     0.3167    42.504    15.167    14.178  0.0000  0.0000  1.0000
 
              Baa    -0.0631   -33.678   -12.017   -11.234  0.3852  0.9228  0.0000
     9 H(1)   Bbb    -0.0113    -6.029    -2.151    -2.011  0.0000 -0.0000  1.0000
              Bcc     0.0744    39.707    14.169    13.245  0.9228 -0.3852 -0.0000
 
              Baa    -0.0051    -2.743    -0.979    -0.915  0.0000  0.0000  1.0000
    10 H(1)   Bbb    -0.0040    -2.140    -0.764    -0.714  0.8786 -0.4776  0.0000
              Bcc     0.0092     4.883     1.742     1.629  0.4776  0.8786 -0.0000
 
              Baa    -0.0253   -13.516    -4.823    -4.509  0.9999  0.0127 -0.0000
    11 H(1)   Bbb     0.0001     0.064     0.023     0.021  0.0000 -0.0000  1.0000
              Bcc     0.0252    13.452     4.800     4.487 -0.0127  0.9999  0.0000
 
              Baa    -0.0051    -2.722    -0.971    -0.908  0.0000  0.0000  1.0000
    12 H(1)   Bbb    -0.0038    -2.033    -0.725    -0.678  0.8488  0.5288 -0.0000
              Bcc     0.0089     4.754     1.696     1.586 -0.5288  0.8488  0.0000
 
              Baa    -0.0163    -8.722    -3.112    -2.909  0.3821  0.9241 -0.0000
    13 H(1)   Bbb    -0.0038    -2.040    -0.728    -0.680  0.0000  0.0000  1.0000
              Bcc     0.0202    10.761     3.840     3.590  0.9241 -0.3821 -0.0000
 

 ---------------------------------------------------------------------------------

 No NMR shielding tensors so no spin-rotation constants.
 Leave Link  601 at Sun Mar  1 23:28:30 2020, MaxMem=  1879048192 cpu:              92.3 elap:               2.7
 (Enter /opt/g16/l9999.exe)

 Test job not archived.
 1\1\GINC-NODE08\FOpt\UwB97XD\def2TZVP\C6H6N1(2)\ALONGD\01-Mar-2020\0\\
 #P opt=(tight) guess=read uwb97xd/def2tzvp scf=(tight, direct) integra
 l=(grid=ultrafine, Acc2E=12) scf=xqc iop(2/9=2000)\\name\\0,2\N,2.4157
 412875,0.5753362482,0.1723626214\C,1.1258831522,0.2683508883,0.0803311
 364\C,0.1830584501,1.3357338892,0.0104441737\H,0.5707279276,2.34573142
 29,0.0362456608\C,-1.1632388527,1.0818461001,-0.0857489996\C,-1.632380
 2824,-0.2328224085,-0.1167857137\C,-0.7343808211,-1.2998461259,-0.0501
 193709\C,0.6155037583,-1.0642311324,0.0463684935\H,2.9692281732,-0.280
 8473415,0.2138548618\H,-1.8660213327,1.9037256076,-0.1378959805\H,-2.6
 945821632,-0.4262257062,-0.192694214\H,-1.1055841028,-2.3166619508,-0.
 0747242465\H,1.3160408304,-1.8900894918,0.0983622408\\Version=ES64L-G1
 6RevB.01\State=2-A"\HF=-286.9537795\S2=0.807759\S2-1=0.\S2A=0.752196\R
 MSD=4.480e-09\RMSF=1.629e-06\Dipole=-0.7397054,-0.6574383,-0.051803\Qu
 adrupole=0.3315178,2.4932207,-2.8247385,-3.8381031,0.2357524,-0.286505
 5\PG=CS [SG(C6H6N1)]\\@


 READER, WHETHER YOU BE DILETTANTE OR PROFESSOR ... SHOW YOURSELF TO BE
 MORE HUMAN THAN CRITICAL, AND THEN YOUR PLEASURE WILL INCREASE.
                                           -- DOMENICO SCARLATTI (1738)
 Job cpu time:       0 days  6 hours  4 minutes 57.8 seconds.
 Elapsed time:       0 days  0 hours 10 minutes 13.1 seconds.
 File lengths (MBytes):  RWF=     66 Int=      0 D2E=      0 Chk=      7 Scr=      1
 Normal termination of Gaussian 16 at Sun Mar  1 23:28:30 2020.
