 Entering Gaussian System, Link 0=g16
 Input=input.gjf
 Output=input.log
 Initial command:
 /opt/g16/l1.exe "/scratch/alongd/a17800/Gau-11317.inp" -scrdir="/scratch/alongd/a17800/"
 Entering Link 1 = /opt/g16/l1.exe PID=     11319.
  
 Copyright (c) 1988-2017, Gaussian, Inc.  All Rights Reserved.
  
 This is part of the Gaussian(R) 16 program.  It is based on
 the Gaussian(R) 09 system (copyright 2009, Gaussian, Inc.),
 the Gaussian(R) 03 system (copyright 2003, Gaussian, Inc.),
 the Gaussian(R) 98 system (copyright 1998, Gaussian, Inc.),
 the Gaussian(R) 94 system (copyright 1995, Gaussian, Inc.),
 the Gaussian 92(TM) system (copyright 1992, Gaussian, Inc.),
 the Gaussian 90(TM) system (copyright 1990, Gaussian, Inc.),
 the Gaussian 88(TM) system (copyright 1988, Gaussian, Inc.),
 the Gaussian 86(TM) system (copyright 1986, Carnegie Mellon
 University), and the Gaussian 82(TM) system (copyright 1983,
 Carnegie Mellon University). Gaussian is a federally registered
 trademark of Gaussian, Inc.
  
 This software contains proprietary and confidential information,
 including trade secrets, belonging to Gaussian, Inc.
  
 This software is provided under written license and may be
 used, copied, transmitted, or stored only in accord with that
 written license.
  
 The following legend is applicable only to US Government
 contracts under FAR:
  
                    RESTRICTED RIGHTS LEGEND
  
 Use, reproduction and disclosure by the US Government is
 subject to restrictions as set forth in subparagraphs (a)
 and (c) of the Commercial Computer Software - Restricted
 Rights clause in FAR 52.227-19.
  
 Gaussian, Inc.
 340 Quinnipiac St., Bldg. 40, Wallingford CT 06492
  
  
 ---------------------------------------------------------------
 Warning -- This program may not be used in any manner that
 competes with the business of Gaussian, Inc. or will provide
 assistance to any competitor of Gaussian, Inc.  The licensee
 of this program is prohibited from giving any competitor of
 Gaussian, Inc. access to this program.  By using this program,
 the user acknowledges that Gaussian, Inc. is engaged in the
 business of creating and licensing software in the field of
 computational chemistry and represents and warrants to the
 licensee that it is not a competitor of Gaussian, Inc. and that
 it will not use this program in any manner prohibited above.
 ---------------------------------------------------------------
  

 Cite this work as:
 Gaussian 16, Revision B.01,
 M. J. Frisch, G. W. Trucks, H. B. Schlegel, G. E. Scuseria, 
 M. A. Robb, J. R. Cheeseman, G. Scalmani, V. Barone, 
 G. A. Petersson, H. Nakatsuji, X. Li, M. Caricato, A. V. Marenich, 
 J. Bloino, B. G. Janesko, R. Gomperts, B. Mennucci, H. P. Hratchian, 
 J. V. Ortiz, A. F. Izmaylov, J. L. Sonnenberg, D. Williams-Young, 
 F. Ding, F. Lipparini, F. Egidi, J. Goings, B. Peng, A. Petrone, 
 T. Henderson, D. Ranasinghe, V. G. Zakrzewski, J. Gao, N. Rega, 
 G. Zheng, W. Liang, M. Hada, M. Ehara, K. Toyota, R. Fukuda, 
 J. Hasegawa, M. Ishida, T. Nakajima, Y. Honda, O. Kitao, H. Nakai, 
 T. Vreven, K. Throssell, J. A. Montgomery, Jr., J. E. Peralta, 
 F. Ogliaro, M. J. Bearpark, J. J. Heyd, E. N. Brothers, K. N. Kudin, 
 V. N. Staroverov, T. A. Keith, R. Kobayashi, J. Normand, 
 K. Raghavachari, A. P. Rendell, J. C. Burant, S. S. Iyengar, 
 J. Tomasi, M. Cossi, J. M. Millam, M. Klene, C. Adamo, R. Cammi, 
 J. W. Ochterski, R. L. Martin, K. Morokuma, O. Farkas, 
 J. B. Foresman, and D. J. Fox, Gaussian, Inc., Wallingford CT, 2016.
 
 ******************************************
 Gaussian 16:  EM64L-G16RevB.01 20-Dec-2017
                 1-Jul-2019 
 ******************************************
 %chk=check.chk
 %mem=14000mb
 %NProcShared=6
 Will use up to    6 processors via shared memory.
 -------------------------------------------------------------
 #P opt guess=read uwb97xd/6-311++g(d,p) scf=xqc iop(2/9=2000)
 -------------------------------------------------------------
 1/18=20,19=15,26=3,38=1/1,3;
 2/9=2000,12=2,17=6,18=5,40=1/2;
 3/5=4,6=6,7=1111,11=2,25=1,30=1,71=1,74=-58,116=2/1,2,3;
 4/5=1/1;
 5/5=2,8=3,13=1,38=6/2,8;
 6/7=2,8=2,9=2,10=2,28=1/1;
 7//1,2,3,16;
 1/18=20,19=15,26=3/3(2);
 2/9=2000/2;
 99//99;
 2/9=2000/2;
 3/5=4,6=6,7=1111,11=2,25=1,30=1,71=1,74=-58,116=2/1,2,3;
 4/5=5,16=3,69=1/1;
 5/5=2,8=3,13=1,38=5/2,8;
 7//1,2,3,16;
 1/18=20,19=15,26=3/3(-5);
 2/9=2000/2;
 6/7=2,8=2,9=2,10=2,19=2,28=1/1;
 99/9=1/99;
 Leave Link    1 at Mon Jul  1 20:33:10 2019, MaxMem=  1835008000 cpu:               0.8 elap:               0.2
 (Enter /opt/g16/l101.exe)
 ----
 name
 ----
 Symbolic Z-matrix:
 Charge =  0 Multiplicity = 2
 O                     0.94221   0.02033   0.04315 
 H                     1.88202   0.02033   0.04315 
 
 ITRead=  0  0
 MicOpt= -1 -1
 NAtoms=      2 NQM=        2 NQMF=       0 NMMI=      0 NMMIF=      0
                NMic=       0 NMicF=      0.
                    Isotopes and Nuclear Properties:
 (Nuclear quadrupole moments (NQMom) in fm**2, nuclear magnetic moments (NMagM)
  in nuclear magnetons)

  Atom         1           2
 IAtWgt=          16           1
 AtmWgt=  15.9949146   1.0078250
 NucSpn=           0           1
 AtZEff=  -0.0000000  -0.0000000
 NQMom=    0.0000000   0.0000000
 NMagM=    0.0000000   2.7928460
 AtZNuc=   8.0000000   1.0000000
 Leave Link  101 at Mon Jul  1 20:33:11 2019, MaxMem=  1835008000 cpu:               4.5 elap:               0.8
 (Enter /opt/g16/l103.exe)

 GradGradGradGradGradGradGradGradGradGradGradGradGradGradGradGradGradGrad
 Berny optimization.
 Initialization pass.
                           ----------------------------
                           !    Initial Parameters    !
                           ! (Angstroms and Degrees)  !
 --------------------------                            --------------------------
 ! Name  Definition              Value          Derivative Info.                !
 --------------------------------------------------------------------------------
 ! R1    R(1,2)                  0.9398         estimate D2E/DX2                !
 --------------------------------------------------------------------------------
 Trust Radius=3.00D-01 FncErr=1.00D-07 GrdErr=1.00D-06 EigMax=2.50D+02 EigMin=1.00D-04
 Number of steps in this run=     20 maximum allowed number of steps=    100.
 GradGradGradGradGradGradGradGradGradGradGradGradGradGradGradGradGradGrad

 Leave Link  103 at Mon Jul  1 20:33:11 2019, MaxMem=  1835008000 cpu:               0.1 elap:               0.0
 (Enter /opt/g16/l202.exe)
                          Input orientation:                          
 ---------------------------------------------------------------------
 Center     Atomic      Atomic             Coordinates (Angstroms)
 Number     Number       Type             X           Y           Z
 ---------------------------------------------------------------------
      1          8           0        0.942208    0.020335    0.043152
      2          1           0        1.882015    0.020335    0.043152
 ---------------------------------------------------------------------
 Stoichiometry    HO(2)
 Framework group  C*V[C*(HO)]
 Deg. of freedom     1
 Full point group                 C*V     NOp   4
 Largest Abelian subgroup         C2V     NOp   4
 Largest concise Abelian subgroup C1      NOp   1
                         Standard orientation:                         
 ---------------------------------------------------------------------
 Center     Atomic      Atomic             Coordinates (Angstroms)
 Number     Number       Type             X           Y           Z
 ---------------------------------------------------------------------
      1          8           0        0.000000    0.000000    0.104423
      2          1           0        0.000000    0.000000   -0.835385
 ---------------------------------------------------------------------
 Rotational constants (GHZ):           0.0000000         603.5190869         603.5190869
 Leave Link  202 at Mon Jul  1 20:33:11 2019, MaxMem=  1835008000 cpu:               0.0 elap:               0.0
 (Enter /opt/g16/l301.exe)
 Standard basis: 6-311++G(d,p) (5D, 7F)
 Ernie: Thresh=  0.10000D-02 Tol=  0.10000D-05 Strict=F.
 There are    17 symmetry adapted cartesian basis functions of A1  symmetry.
 There are     1 symmetry adapted cartesian basis functions of A2  symmetry.
 There are     6 symmetry adapted cartesian basis functions of B1  symmetry.
 There are     6 symmetry adapted cartesian basis functions of B2  symmetry.
 There are    16 symmetry adapted basis functions of A1  symmetry.
 There are     1 symmetry adapted basis functions of A2  symmetry.
 There are     6 symmetry adapted basis functions of B1  symmetry.
 There are     6 symmetry adapted basis functions of B2  symmetry.
    29 basis functions,    45 primitive gaussians,    30 cartesian basis functions
     5 alpha electrons        4 beta electrons
       nuclear repulsion energy         4.5045572113 Hartrees.
 IExCor= 4639 DFT=T Ex+Corr=wB97XD ExCW=0 ScaHFX=  1.000000
 ScaDFX=  1.000000  1.000000  1.000000  1.000000 ScalE2=  1.000000  1.000000
 IRadAn=      5 IRanWt=     -1 IRanGd=            0 ICorTp=0 IEmpDi=121
 HFx  wShort=  0.000000 wLong=  0.200000 cFull=  0.222036 cShort=  0.000000 cLong=  0.777964
 DFx  wShort=  0.000000 wLong=  0.200000 cFull=  0.000000 cShort=  0.000000 cLong=  1.000000
 NAtoms=    2 NActive=    2 NUniq=    2 SFac= 1.00D+00 NAtFMM=   60 NAOKFM=F Big=F
 Integral buffers will be    131072 words long.
 Raffenetti 2 integral format.
 Two-electron integral symmetry is turned on.
 R6Disp:  Grimme-D2 Dispersion energy=       -0.0000005003 Hartrees.
 Nuclear repulsion after empirical dispersion term =        4.5045567110 Hartrees.
 Leave Link  301 at Mon Jul  1 20:33:11 2019, MaxMem=  1835008000 cpu:               0.5 elap:               0.1
 (Enter /opt/g16/l302.exe)
 NPDir=0 NMtPBC=     1 NCelOv=     1 NCel=       1 NClECP=     1 NCelD=      1
         NCelK=      1 NCelE2=     1 NClLst=     1 CellRange=     0.0.
 One-electron integrals computed using PRISM.
 One-electron integral symmetry used in STVInt
 NBasis=    29 RedAO= T EigKep=  6.23D-03  NBF=    16     1     6     6
 NBsUse=    29 1.00D-06 EigRej= -1.00D+00 NBFU=    16     1     6     6
 Precomputing XC quadrature grid using
 IXCGrd= 4 IRadAn=           5 IRanWt=          -1 IRanGd=           0 AccXCQ= 0.00D+00.
 Generated NRdTot=       0 NPtTot=           0 NUsed=           0 NTot=          32
 NSgBfM=    30    30    30    30    30 MxSgAt=     2 MxSgA2=     2.
 Leave Link  302 at Mon Jul  1 20:33:11 2019, MaxMem=  1835008000 cpu:               1.1 elap:               0.2
 (Enter /opt/g16/l303.exe)
 DipDrv:  MaxL=1.
 Leave Link  303 at Mon Jul  1 20:33:12 2019, MaxMem=  1835008000 cpu:               0.3 elap:               0.1
 (Enter /opt/g16/l401.exe)
 Initial guess from the checkpoint file:  "check.chk"
 B after Tr=     0.000000    0.000000    0.000000
         Rot=    1.000000    0.000000    0.000000    0.000000 Ang=   0.00 deg.
 Guess basis will be translated and rotated to current coordinates.
 JPrj=2 DoOrth=T DoCkMO=T.
 Initial guess orbital symmetries:
 Alpha Orbitals:
       Occupied  (SG) (SG) (SG) (PI) (PI)
       Virtual   (SG) (SG) (SG) (?A) (SG) (?A) (SG) (?A) (?A) (?A)
                 (?A) (?A) (?A) (?A) (?B) (?B) (?B) (?B) (?B) (?B)
                 (?B) (?B) (?B) (?B)
 Beta  Orbitals:
       Occupied  (SG) (SG) (SG) (?A)
       Virtual   (SG) (SG) (SG) (SG) (SG) (?B) (SG) (SG) (SG) (SG)
                 (?B) (?B) (?B) (?B) (?A) (?A) (?A) (?A) (?A) (?A)
                 (?A) (?A) (?A) (?A) (?A)
 Initial guess <Sx>= 0.0000 <Sy>= 0.0000 <Sz>= 0.5000 <S**2>= 0.7540 S= 0.5020
 Leave Link  401 at Mon Jul  1 20:33:12 2019, MaxMem=  1835008000 cpu:               1.7 elap:               0.3
 (Enter /opt/g16/l502.exe)
 Keep R1 and R2 ints in memory in symmetry-blocked form, NReq=5373737.
 FoFCou: FMM=F IPFlag=           0 FMFlag=           0 FMFlg1=           0
         NFxFlg=           0 DoJE=F BraDBF=F KetDBF=F FulRan=T
         wScrn=  0.000000 ICntrl=       600 IOpCl=  0 I1Cent=           0 NGrid=           0
         NMat0=    1 NMatS0=    435 NMatT0=    0 NMatD0=    1 NMtDS0=    0 NMtDT0=    0
 Petite list used in FoFCou.
 UHF open shell SCF:
 Using DIIS extrapolation, IDIIS=  1040.
 NGot=  1835008000 LenX=  1834947489 LenY=  1834946148
 Requested convergence on RMS density matrix=1.00D-08 within  32 cycles.
 Requested convergence on MAX density matrix=1.00D-06.
 Requested convergence on             energy=1.00D-06.
 No special actions if energy rises.
 An orbital has undefined symmetry, so N**3 symmetry is turned off.

 Cycle   1  Pass 1  IDiag  1:
 Density matrix breaks symmetry, PCut= 1.00D-04
 Density matrix has no symmetry -- integrals replicated.
 E= -75.7291417635341    
 DIIS: error= 3.38D-02 at cycle   1 NSaved=   1.
 NSaved= 1 IEnMin= 1 EnMin= -75.7291417635341     IErMin= 1 ErrMin= 3.38D-02
 ErrMax= 3.38D-02  0.00D+00 EMaxC= 1.00D-01 BMatC= 1.15D-01 BMatP= 1.15D-01
 IDIUse=3 WtCom= 6.62D-01 WtEn= 3.38D-01
 Coeff-Com:  0.100D+01
 Coeff-En:   0.100D+01
 Coeff:      0.100D+01
 Gap=     0.660 Goal=   None    Shift=    0.000
 Gap=     0.634 Goal=   None    Shift=    0.000
 GapD=    0.634 DampG=2.000 DampE=0.500 DampFc=1.0000 IDamp=-1.
 RMSDP=3.14D-03 MaxDP=2.94D-02              OVMax= 1.84D-02

 Cycle   2  Pass 1  IDiag  1:
 Density matrix breaks symmetry, PCut= 1.00D-04
 Density matrix has no symmetry -- integrals replicated.
 E= -75.7332694306472     Delta-E=       -0.004127667113 Rises=F Damp=F
 DIIS: error= 2.57D-03 at cycle   2 NSaved=   2.
 NSaved= 2 IEnMin= 2 EnMin= -75.7332694306472     IErMin= 2 ErrMin= 2.57D-03
 ErrMax= 2.57D-03  0.00D+00 EMaxC= 1.00D-01 BMatC= 7.22D-04 BMatP= 1.15D-01
 IDIUse=3 WtCom= 9.74D-01 WtEn= 2.57D-02
 Coeff-Com: -0.257D-02 0.100D+01
 Coeff-En:   0.000D+00 0.100D+01
 Coeff:     -0.251D-02 0.100D+01
 Gap=     0.484 Goal=   None    Shift=    0.000
 Gap=     0.318 Goal=   None    Shift=    0.000
 RMSDP=4.99D-04 MaxDP=6.63D-03 DE=-4.13D-03 OVMax= 5.69D-03

 Cycle   3  Pass 1  IDiag  1:
 Density matrix breaks symmetry, PCut= 1.00D-04
 Density matrix has no symmetry -- integrals replicated.
 E= -75.7333532178335     Delta-E=       -0.000083787186 Rises=F Damp=F
 DIIS: error= 1.83D-03 at cycle   3 NSaved=   3.
 NSaved= 3 IEnMin= 3 EnMin= -75.7333532178335     IErMin= 3 ErrMin= 1.83D-03
 ErrMax= 1.83D-03  0.00D+00 EMaxC= 1.00D-01 BMatC= 3.78D-04 BMatP= 7.22D-04
 IDIUse=3 WtCom= 9.82D-01 WtEn= 1.83D-02
 Coeff-Com: -0.984D-02 0.414D+00 0.596D+00
 Coeff-En:   0.000D+00 0.123D+00 0.877D+00
 Coeff:     -0.966D-02 0.409D+00 0.601D+00
 Gap=     0.489 Goal=   None    Shift=    0.000
 Gap=     0.319 Goal=   None    Shift=    0.000
 RMSDP=1.86D-04 MaxDP=2.33D-03 DE=-8.38D-05 OVMax= 3.33D-03

 Cycle   4  Pass 1  IDiag  1:
 Density matrix breaks symmetry, PCut= 1.00D-04
 Density matrix has no symmetry -- integrals replicated.
 E= -75.7334164426350     Delta-E=       -0.000063224801 Rises=F Damp=F
 DIIS: error= 3.88D-04 at cycle   4 NSaved=   4.
 NSaved= 4 IEnMin= 4 EnMin= -75.7334164426350     IErMin= 4 ErrMin= 3.88D-04
 ErrMax= 3.88D-04  0.00D+00 EMaxC= 1.00D-01 BMatC= 9.51D-06 BMatP= 3.78D-04
 IDIUse=3 WtCom= 9.96D-01 WtEn= 3.88D-03
 Coeff-Com:  0.183D-02-0.139D+00-0.325D-01 0.117D+01
 Coeff-En:   0.000D+00 0.000D+00 0.000D+00 0.100D+01
 Coeff:      0.182D-02-0.138D+00-0.324D-01 0.117D+01
 Gap=     0.488 Goal=   None    Shift=    0.000
 Gap=     0.319 Goal=   None    Shift=    0.000
 RMSDP=6.34D-05 MaxDP=7.35D-04 DE=-6.32D-05 OVMax= 1.03D-03

 Cycle   5  Pass 1  IDiag  1:
 Density matrix breaks symmetry, PCut= 1.00D-04
 Density matrix has no symmetry -- integrals replicated.
 E= -75.7334199164362     Delta-E=       -0.000003473801 Rises=F Damp=F
 DIIS: error= 6.40D-05 at cycle   5 NSaved=   5.
 NSaved= 5 IEnMin= 5 EnMin= -75.7334199164362     IErMin= 5 ErrMin= 6.40D-05
 ErrMax= 6.40D-05  0.00D+00 EMaxC= 1.00D-01 BMatC= 2.78D-07 BMatP= 9.51D-06
 IDIUse=1 WtCom= 1.00D+00 WtEn= 0.00D+00
 Coeff-Com:  0.103D-03 0.703D-02-0.250D-01-0.201D+00 0.122D+01
 Coeff:      0.103D-03 0.703D-02-0.250D-01-0.201D+00 0.122D+01
 Gap=     0.488 Goal=   None    Shift=    0.000
 Gap=     0.319 Goal=   None    Shift=    0.000
 RMSDP=1.64D-05 MaxDP=1.56D-04 DE=-3.47D-06 OVMax= 3.45D-04

 Cycle   6  Pass 1  IDiag  1:
 Density matrix breaks symmetry, PCut= 1.00D-04
 Density matrix has no symmetry -- integrals replicated.
 E= -75.7334201209760     Delta-E=       -0.000000204540 Rises=F Damp=F
 DIIS: error= 1.52D-05 at cycle   6 NSaved=   6.
 NSaved= 6 IEnMin= 6 EnMin= -75.7334201209760     IErMin= 6 ErrMin= 1.52D-05
 ErrMax= 1.52D-05  0.00D+00 EMaxC= 1.00D-01 BMatC= 1.94D-08 BMatP= 2.78D-07
 IDIUse=1 WtCom= 1.00D+00 WtEn= 0.00D+00
 Coeff-Com: -0.967D-04 0.717D-02 0.184D-02-0.588D-01-0.107D+00 0.116D+01
 Coeff:     -0.967D-04 0.717D-02 0.184D-02-0.588D-01-0.107D+00 0.116D+01
 Gap=     0.488 Goal=   None    Shift=    0.000
 Gap=     0.319 Goal=   None    Shift=    0.000
 RMSDP=4.85D-06 MaxDP=4.05D-05 DE=-2.05D-07 OVMax= 9.00D-05

 Cycle   7  Pass 1  IDiag  1:
 Density matrix breaks symmetry, PCut= 1.00D-04
 Density matrix has no symmetry -- integrals replicated.
 E= -75.7334201357720     Delta-E=       -0.000000014796 Rises=F Damp=F
 DIIS: error= 4.01D-06 at cycle   7 NSaved=   7.
 NSaved= 7 IEnMin= 7 EnMin= -75.7334201357720     IErMin= 7 ErrMin= 4.01D-06
 ErrMax= 4.01D-06  0.00D+00 EMaxC= 1.00D-01 BMatC= 9.64D-10 BMatP= 1.94D-08
 IDIUse=1 WtCom= 1.00D+00 WtEn= 0.00D+00
 Coeff-Com:  0.673D-05-0.119D-02 0.108D-02 0.193D-01-0.717D-01-0.103D+00
 Coeff-Com:  0.116D+01
 Coeff:      0.673D-05-0.119D-02 0.108D-02 0.193D-01-0.717D-01-0.103D+00
 Coeff:      0.116D+01
 Gap=     0.488 Goal=   None    Shift=    0.000
 Gap=     0.319 Goal=   None    Shift=    0.000
 RMSDP=1.17D-06 MaxDP=9.65D-06 DE=-1.48D-08 OVMax= 2.56D-05

 Cycle   8  Pass 1  IDiag  1:
 Density matrix breaks symmetry, PCut= 1.00D-04
 Density matrix has no symmetry -- integrals replicated.
 E= -75.7334201364655     Delta-E=       -0.000000000694 Rises=F Damp=F
 DIIS: error= 5.73D-07 at cycle   8 NSaved=   8.
 NSaved= 8 IEnMin= 8 EnMin= -75.7334201364655     IErMin= 8 ErrMin= 5.73D-07
 ErrMax= 5.73D-07  0.00D+00 EMaxC= 1.00D-01 BMatC= 2.61D-11 BMatP= 9.64D-10
 IDIUse=1 WtCom= 1.00D+00 WtEn= 0.00D+00
 Coeff-Com:  0.259D-05-0.323D-04-0.329D-03-0.142D-02 0.169D-01-0.140D-01
 Coeff-Com: -0.243D+00 0.124D+01
 Coeff:      0.259D-05-0.323D-04-0.329D-03-0.142D-02 0.169D-01-0.140D-01
 Coeff:     -0.243D+00 0.124D+01
 Gap=     0.488 Goal=   None    Shift=    0.000
 Gap=     0.319 Goal=   None    Shift=    0.000
 RMSDP=1.95D-07 MaxDP=1.65D-06 DE=-6.94D-10 OVMax= 4.30D-06

 Cycle   9  Pass 1  IDiag  1:
 Density matrix breaks symmetry, PCut= 1.00D-04
 Density matrix has no symmetry -- integrals replicated.
 E= -75.7334201364869     Delta-E=       -0.000000000021 Rises=F Damp=F
 DIIS: error= 1.63D-07 at cycle   9 NSaved=   9.
 NSaved= 9 IEnMin= 9 EnMin= -75.7334201364869     IErMin= 9 ErrMin= 1.63D-07
 ErrMax= 1.63D-07  0.00D+00 EMaxC= 1.00D-01 BMatC= 1.39D-12 BMatP= 2.61D-11
 IDIUse=1 WtCom= 1.00D+00 WtEn= 0.00D+00
 Coeff-Com: -0.109D-05 0.509D-04 0.844D-04-0.341D-03-0.201D-02 0.623D-02
 Coeff-Com:  0.314D-01-0.325D+00 0.129D+01
 Coeff:     -0.109D-05 0.509D-04 0.844D-04-0.341D-03-0.201D-02 0.623D-02
 Coeff:      0.314D-01-0.325D+00 0.129D+01
 Gap=     0.488 Goal=   None    Shift=    0.000
 Gap=     0.319 Goal=   None    Shift=    0.000
 RMSDP=3.91D-08 MaxDP=2.97D-07 DE=-2.13D-11 OVMax= 1.58D-06

 Cycle  10  Pass 1  IDiag  1:
 Density matrix breaks symmetry, PCut= 1.00D-04
 Density matrix has no symmetry -- integrals replicated.
 E= -75.7334201364886     Delta-E=       -0.000000000002 Rises=F Damp=F
 DIIS: error= 1.63D-07 at cycle  10 NSaved=  10.
 NSaved=10 IEnMin=10 EnMin= -75.7334201364886     IErMin= 9 ErrMin= 1.63D-07
 ErrMax= 1.63D-07  0.00D+00 EMaxC= 1.00D-01 BMatC= 3.51D-13 BMatP= 1.39D-12
 IDIUse=1 WtCom= 1.00D+00 WtEn= 0.00D+00
 Coeff-Com:  0.251D-06-0.134D-04-0.201D-04 0.126D-03 0.243D-03-0.152D-02
 Coeff-Com: -0.432D-02 0.695D-01-0.390D+00 0.133D+01
 Coeff:      0.251D-06-0.134D-04-0.201D-04 0.126D-03 0.243D-03-0.152D-02
 Coeff:     -0.432D-02 0.695D-01-0.390D+00 0.133D+01
 Gap=     0.488 Goal=   None    Shift=    0.000
 Gap=     0.319 Goal=   None    Shift=    0.000
 RMSDP=2.54D-08 MaxDP=2.56D-07 DE=-1.72D-12 OVMax= 1.55D-06

 Cycle  11  Pass 1  IDiag  1:
 Density matrix breaks symmetry, PCut= 1.00D-04
 Density matrix has no symmetry -- integrals replicated.
 E= -75.7334201364898     Delta-E=       -0.000000000001 Rises=F Damp=F
 DIIS: error= 1.63D-07 at cycle  11 NSaved=  11.
 NSaved=11 IEnMin=11 EnMin= -75.7334201364898     IErMin= 9 ErrMin= 1.63D-07
 ErrMax= 1.63D-07  0.00D+00 EMaxC= 1.00D-01 BMatC= 3.31D-13 BMatP= 3.51D-13
 IDIUse=1 WtCom= 1.00D+00 WtEn= 0.00D+00
 Coeff-Com: -0.181D-07 0.106D-05 0.135D-05-0.112D-04-0.120D-04 0.158D-03
 Coeff-Com:  0.127D-04-0.445D-02 0.350D-01-0.226D+00 0.120D+01
 Coeff:     -0.181D-07 0.106D-05 0.135D-05-0.112D-04-0.120D-04 0.158D-03
 Coeff:      0.127D-04-0.445D-02 0.350D-01-0.226D+00 0.120D+01
 Gap=     0.488 Goal=   None    Shift=    0.000
 Gap=     0.319 Goal=   None    Shift=    0.000
 RMSDP=2.25D-08 MaxDP=2.27D-07 DE=-1.22D-12 OVMax= 1.40D-06

 Cycle  12  Pass 1  IDiag  1:
 Density matrix breaks symmetry, PCut= 1.00D-04
 Density matrix has no symmetry -- integrals replicated.
 E= -75.7334201364909     Delta-E=       -0.000000000001 Rises=F Damp=F
 DIIS: error= 1.63D-07 at cycle  12 NSaved=  12.
 NSaved=12 IEnMin=12 EnMin= -75.7334201364909     IErMin= 9 ErrMin= 1.63D-07
 ErrMax= 1.63D-07  0.00D+00 EMaxC= 1.00D-01 BMatC= 3.31D-13 BMatP= 3.31D-13
 IDIUse=1 WtCom= 1.00D+00 WtEn= 0.00D+00
 Coeff-Com: -0.349D-08 0.203D-06 0.258D-06-0.207D-05-0.250D-05 0.244D-04
 Coeff-Com:  0.404D-04-0.956D-03 0.635D-02-0.331D-01 0.129D+00 0.899D+00
 Coeff:     -0.349D-08 0.203D-06 0.258D-06-0.207D-05-0.250D-05 0.244D-04
 Coeff:      0.404D-04-0.956D-03 0.635D-02-0.331D-01 0.129D+00 0.899D+00
 Gap=     0.488 Goal=   None    Shift=    0.000
 Gap=     0.319 Goal=   None    Shift=    0.000
 RMSDP=1.66D-08 MaxDP=1.67D-07 DE=-1.04D-12 OVMax= 1.04D-06

 Cycle  13  Pass 1  IDiag  1:
 Density matrix breaks symmetry, PCut= 1.00D-04
 Density matrix has no symmetry -- integrals replicated.
 E= -75.7334201364917     Delta-E=       -0.000000000001 Rises=F Damp=F
 DIIS: error= 1.63D-07 at cycle  13 NSaved=  13.
 NSaved=13 IEnMin=13 EnMin= -75.7334201364917     IErMin= 9 ErrMin= 1.63D-07
 ErrMax= 1.63D-07  0.00D+00 EMaxC= 1.00D-01 BMatC= 3.31D-13 BMatP= 3.31D-13
 IDIUse=1 WtCom= 1.00D+00 WtEn= 0.00D+00
 Large coefficients: NSaved= 13 BigCof=   29.32 CofMax=   10.00 Det=-2.42D-19
 Inversion failed.  Reducing to 12 matrices.
 Large coefficients: NSaved= 12 BigCof=   29.18 CofMax=   10.00 Det=-2.46D-19
 Inversion failed.  Reducing to 11 matrices.
 Large coefficients: NSaved= 11 BigCof=   29.07 CofMax=   10.00 Det=-2.47D-19
 Inversion failed.  Reducing to 10 matrices.
 Large coefficients: NSaved= 10 BigCof=   29.04 CofMax=   10.00 Det=-2.48D-19
 Inversion failed.  Reducing to  9 matrices.
 Large coefficients: NSaved=  9 BigCof=   27.74 CofMax=   10.00 Det=-2.63D-19
 Inversion failed.  Reducing to  8 matrices.
 Large coefficients: NSaved=  8 BigCof=   27.74 CofMax=   10.00 Det=-2.63D-19
 Inversion failed.  Reducing to  7 matrices.
 Large coefficients: NSaved=  7 BigCof=   12.81 CofMax=   10.00 Det=-6.08D-19
 Inversion failed.  Reducing to  6 matrices.
 Large coefficients: NSaved=  6 BigCof=   10.83 CofMax=   10.00 Det=-7.37D-19
 Inversion failed.  Reducing to  5 matrices.
 Large coefficients: NSaved=  5 BigCof=   10.82 CofMax=   10.00 Det=-7.38D-19
 Inversion failed.  Reducing to  4 matrices.
 Large coefficients: NSaved=  4 BigCof=   10.51 CofMax=   10.00 Det=-7.82D-19
 Inversion failed.  Reducing to  3 matrices.
 Coeff-Com: -0.296D+00 0.953D+01-0.823D+01
 Coeff:     -0.296D+00 0.953D+01-0.823D+01
 Gap=     0.488 Goal=   None    Shift=    0.000
 Gap=     0.319 Goal=   None    Shift=    0.000
 RMSDP=1.28D-07 MaxDP=1.29D-06 DE=-8.24D-13 OVMax= 8.00D-06

 Cycle  14  Pass 1  IDiag  1:
 Density matrix breaks symmetry, PCut= 1.00D-04
 Density matrix has no symmetry -- integrals replicated.
 E= -75.7334201364857     Delta-E=        0.000000000006 Rises=F Damp=F
 DIIS: error= 1.63D-07 at cycle  14 NSaved=   4.
 NSaved= 4 IEnMin= 3 EnMin= -75.7334201364917     IErMin= 4 ErrMin= 1.63D-07
 ErrMax= 1.63D-07  0.00D+00 EMaxC= 1.00D-01 BMatC= 3.31D-13 BMatP= 3.31D-13
 IDIUse=1 WtCom= 1.00D+00 WtEn= 0.00D+00
 Large coefficients: NSaved=  4 BigCof=   20.57 CofMax=   10.00 Det=-6.01D-19
 Inversion failed.  Reducing to  3 matrices.
 Large coefficients: NSaved=  3 BigCof=   21.18 CofMax=   10.00 Det=-7.36D-19
 Inversion failed.  Reducing to  2 matrices.
 Large coefficients: NSaved=  2 BigCof=   13.42 CofMax=   10.00 Det=-5.67D-18
 Coeff-Com: -0.124D+02 0.134D+02
 Coeff:     -0.124D+02 0.134D+02
 Gap=     0.488 Goal=   None    Shift=    0.000
 Gap=     0.319 Goal=   None    Shift=    0.000
 RMSDP=1.57D-06 MaxDP=1.58D-05 DE= 5.98D-12 OVMax= 9.82D-05

 Cycle  15  Pass 1  IDiag  1:
 Density matrix breaks symmetry, PCut= 1.00D-04
 Density matrix has no symmetry -- integrals replicated.
 E= -75.7334201364116     Delta-E=        0.000000000074 Rises=F Damp=F
 DIIS: error= 1.63D-07 at cycle  15 NSaved=   3.
 NSaved= 3 IEnMin= 1 EnMin= -75.7334201364917     IErMin= 3 ErrMin= 1.63D-07
 ErrMax= 1.63D-07  0.00D+00 EMaxC= 1.00D-01 BMatC= 3.29D-13 BMatP= 3.31D-13
 IDIUse=1 WtCom= 1.00D+00 WtEn= 0.00D+00
 Large coefficients: NSaved=  3 BigCof=   17.40 CofMax=   10.00 Det=-5.48D-18
 Inversion failed.  Reducing to  2 matrices.
 Coeff-Com: -0.254D+01 0.354D+01
 Coeff:     -0.254D+01 0.354D+01
 Gap=     0.488 Goal=   None    Shift=    0.000
 Gap=     0.319 Goal=   None    Shift=    0.000
 RMSDP=3.97D-06 MaxDP=4.00D-05 DE= 7.42D-11 OVMax= 2.48D-04

 Cycle  16  Pass 1  IDiag  1:
 Density matrix breaks symmetry, PCut= 1.00D-04
 Density matrix has no symmetry -- integrals replicated.
 E= -75.7334201362252     Delta-E=        0.000000000186 Rises=F Damp=F
 DIIS: error= 1.61D-07 at cycle  16 NSaved=   3.
 NSaved= 3 IEnMin= 1 EnMin= -75.7334201364857     IErMin= 3 ErrMin= 1.61D-07
 ErrMax= 1.61D-07  0.00D+00 EMaxC= 1.00D-01 BMatC= 3.26D-13 BMatP= 3.29D-13
 IDIUse=1 WtCom= 1.00D+00 WtEn= 0.00D+00
 Large coefficients: NSaved=  3 BigCof=   16.69 CofMax=   10.00 Det=-8.67D-17
 Inversion failed.  Reducing to  2 matrices.
 Coeff-Com: -0.226D-01 0.102D+01
 Coeff:     -0.226D-01 0.102D+01
 Gap=     0.488 Goal=   None    Shift=    0.000
 Gap=     0.319 Goal=   None    Shift=    0.000
 RMSDP=7.16D-08 MaxDP=7.20D-07 DE= 1.86D-10 OVMax= 4.47D-06

 Cycle  17  Pass 1  IDiag  1:
 Density matrix breaks symmetry, PCut= 1.00D-04
 Density matrix has no symmetry -- integrals replicated.
 E= -75.7334201362219     Delta-E=        0.000000000003 Rises=F Damp=F
 DIIS: error= 1.61D-07 at cycle  17 NSaved=   3.
 NSaved= 3 IEnMin= 1 EnMin= -75.7334201364116     IErMin= 3 ErrMin= 1.61D-07
 ErrMax= 1.61D-07  0.00D+00 EMaxC= 1.00D-01 BMatC= 3.25D-13 BMatP= 3.26D-13
 IDIUse=1 WtCom= 1.00D+00 WtEn= 0.00D+00
 Large coefficients: NSaved=  3 BigCof=   45.16 CofMax=   10.00 Det=-5.35D-17
 Inversion failed.  Reducing to  2 matrices.
 Coeff-Com:  0.437D+00 0.563D+00
 Coeff:      0.437D+00 0.563D+00
 Gap=     0.488 Goal=   None    Shift=    0.000
 Gap=     0.319 Goal=   None    Shift=    0.000
 RMSDP=4.94D-08 MaxDP=4.97D-07 DE= 3.33D-12 OVMax= 3.08D-06

 Cycle  18  Pass 1  IDiag  1:
 Density matrix breaks symmetry, PCut= 1.00D-04
 Density matrix has no symmetry -- integrals replicated.
 E= -75.7334201362242     Delta-E=       -0.000000000002 Rises=F Damp=F
 DIIS: error= 1.61D-07 at cycle  18 NSaved=   3.
 NSaved= 3 IEnMin= 1 EnMin= -75.7334201362252     IErMin= 2 ErrMin= 1.61D-07
 ErrMax= 1.61D-07  0.00D+00 EMaxC= 1.00D-01 BMatC= 3.24D-13 BMatP= 3.25D-13
 IDIUse=1 WtCom= 1.00D+00 WtEn= 0.00D+00
 Coeff-Com: -0.726D-01 0.214D-01 0.105D+01
 Coeff:     -0.726D-01 0.214D-01 0.105D+01
 Gap=     0.488 Goal=   None    Shift=    0.000
 Gap=     0.319 Goal=   None    Shift=    0.000
 RMSDP=1.54D-08 MaxDP=1.55D-07 DE=-2.36D-12 OVMax= 9.63D-07

 Cycle  19  Pass 1  IDiag  1:
 Density matrix breaks symmetry, PCut= 1.00D-04
 Density matrix has no symmetry -- integrals replicated.
 E= -75.7334201362249     Delta-E=       -0.000000000001 Rises=F Damp=F
 DIIS: error= 1.61D-07 at cycle  19 NSaved=   4.
 NSaved= 4 IEnMin= 1 EnMin= -75.7334201362252     IErMin= 2 ErrMin= 1.61D-07
 ErrMax= 1.61D-07  0.00D+00 EMaxC= 1.00D-01 BMatC= 3.24D-13 BMatP= 3.24D-13
 IDIUse=1 WtCom= 1.00D+00 WtEn= 0.00D+00
 Coeff-Com: -0.537D+00-0.195D+00 0.609D+01-0.435D+01
 Coeff:     -0.537D+00-0.195D+00 0.609D+01-0.435D+01
 Gap=     0.488 Goal=   None    Shift=    0.000
 Gap=     0.319 Goal=   None    Shift=    0.000
 RMSDP=6.68D-08 MaxDP=6.72D-07 DE=-6.68D-13 OVMax= 4.17D-06

 Cycle  20  Pass 1  IDiag  1:
 Density matrix breaks symmetry, PCut= 1.00D-04
 Density matrix has no symmetry -- integrals replicated.
 E= -75.7334201362218     Delta-E=        0.000000000003 Rises=F Damp=F
 DIIS: error= 1.61D-07 at cycle  20 NSaved=   5.
 NSaved= 5 IEnMin= 1 EnMin= -75.7334201362252     IErMin= 5 ErrMin= 1.61D-07
 ErrMax= 1.61D-07  0.00D+00 EMaxC= 1.00D-01 BMatC= 3.24D-13 BMatP= 3.24D-13
 IDIUse=1 WtCom= 1.00D+00 WtEn= 0.00D+00
 Large coefficients: NSaved=  5 BigCof=   26.83 CofMax=   10.00 Det=-9.60D-19
 Inversion failed.  Reducing to  4 matrices.
 Large coefficients: NSaved=  4 BigCof=   23.05 CofMax=   10.00 Det=-1.54D-18
 Inversion failed.  Reducing to  3 matrices.
 Large coefficients: NSaved=  3 BigCof=   20.83 CofMax=   10.00 Det=-1.96D-18
 Inversion failed.  Reducing to  2 matrices.
 Large coefficients: NSaved=  2 BigCof=   19.32 CofMax=   10.00 Det=-2.07D-18
 Coeff-Com: -0.183D+02 0.193D+02
 Coeff:     -0.183D+02 0.193D+02
 Gap=     0.488 Goal=   None    Shift=    0.000
 Gap=     0.319 Goal=   None    Shift=    0.000
 RMSDP=1.21D-06 MaxDP=1.21D-05 DE= 3.14D-12 OVMax= 7.53D-05

 Cycle  21  Pass 1  IDiag  1:
 Density matrix breaks symmetry, PCut= 1.00D-04
 Density matrix has no symmetry -- integrals replicated.
 E= -75.7334201361656     Delta-E=        0.000000000056 Rises=F Damp=F
 DIIS: error= 1.61D-07 at cycle  21 NSaved=   3.
 NSaved= 3 IEnMin= 1 EnMin= -75.7334201362249     IErMin= 3 ErrMin= 1.61D-07
 ErrMax= 1.61D-07  0.00D+00 EMaxC= 1.00D-01 BMatC= 3.23D-13 BMatP= 3.24D-13
 IDIUse=1 WtCom= 1.00D+00 WtEn= 0.00D+00
 Coeff-Com: -0.243D+00-0.734D+01 0.858D+01
 Coeff:     -0.243D+00-0.734D+01 0.858D+01
 Gap=     0.488 Goal=   None    Shift=    0.000
 Gap=     0.319 Goal=   None    Shift=    0.000
 RMSDP=9.14D-06 MaxDP=9.18D-05 DE= 5.62D-11 OVMax= 5.70D-04

 Cycle  22  Pass 1  IDiag  1:
 Density matrix breaks symmetry, PCut= 1.00D-04
 Density matrix has no symmetry -- integrals replicated.
 E= -75.7334201357438     Delta-E=        0.000000000422 Rises=F Damp=F
 DIIS: error= 1.58D-07 at cycle  22 NSaved=   4.
 NSaved= 4 IEnMin= 1 EnMin= -75.7334201362249     IErMin= 4 ErrMin= 1.58D-07
 ErrMax= 1.58D-07  0.00D+00 EMaxC= 1.00D-01 BMatC= 3.17D-13 BMatP= 3.23D-13
 IDIUse=1 WtCom= 1.00D+00 WtEn= 0.00D+00
 Large coefficients: NSaved=  4 BigCof=   24.86 CofMax=   10.00 Det=-1.37D-18
 Inversion failed.  Reducing to  3 matrices.
 Coeff-Com: -0.434D+01 0.463D+01 0.703D+00
 Coeff:     -0.434D+01 0.463D+01 0.703D+00
 Gap=     0.488 Goal=   None    Shift=    0.000
 Gap=     0.319 Goal=   None    Shift=    0.000
 RMSDP=2.79D-06 MaxDP=2.80D-05 DE= 4.22D-10 OVMax= 1.74D-04

 Cycle  23  Pass 1  IDiag  1:
 Density matrix breaks symmetry, PCut= 1.00D-04
 Density matrix has no symmetry -- integrals replicated.
 E= -75.7334201356166     Delta-E=        0.000000000127 Rises=F Damp=F
 DIIS: error= 1.57D-07 at cycle  23 NSaved=   4.
 NSaved= 4 IEnMin= 1 EnMin= -75.7334201362249     IErMin= 4 ErrMin= 1.57D-07
 ErrMax= 1.57D-07  0.00D+00 EMaxC= 1.00D-01 BMatC= 3.14D-13 BMatP= 3.17D-13
 IDIUse=1 WtCom= 1.00D+00 WtEn= 0.00D+00
 Large coefficients: NSaved=  4 BigCof=   31.61 CofMax=   10.00 Det=-3.25D-17
 Inversion failed.  Reducing to  3 matrices.
 Large coefficients: NSaved=  3 BigCof=   20.04 CofMax=   10.00 Det=-7.35D-17
 Inversion failed.  Reducing to  2 matrices.
 Large coefficients: NSaved=  2 BigCof=   18.99 CofMax=   10.00 Det=-8.37D-17
 Coeff-Com: -0.180D+02 0.190D+02
 Coeff:     -0.180D+02 0.190D+02
 Gap=     0.488 Goal=   None    Shift=    0.000
 Gap=     0.319 Goal=   None    Shift=    0.000
 RMSDP=5.01D-05 MaxDP=5.02D-04 DE= 1.27D-10 OVMax= 3.13D-03

 Cycle  24  Pass 1  IDiag  1:
 Density matrix breaks symmetry, PCut= 1.00D-04
 Density matrix has no symmetry -- integrals replicated.
 E= -75.7334201334582     Delta-E=        0.000000002158 Rises=F Damp=F
 DIIS: error= 2.36D-07 at cycle  24 NSaved=   3.
 NSaved= 3 IEnMin= 1 EnMin= -75.7334201357438     IErMin= 2 ErrMin= 1.57D-07
 ErrMax= 2.36D-07  0.00D+00 EMaxC= 1.00D-01 BMatC= 3.77D-12 BMatP= 3.14D-13
 IDIUse=1 WtCom= 1.00D+00 WtEn= 0.00D+00
 Large coefficients: NSaved=  3 BigCof=   21.33 CofMax=   10.00 Det=-7.96D-17
 Inversion failed.  Reducing to  2 matrices.
 Coeff-Com:  0.103D+01-0.308D-01
 Coeff:      0.103D+01-0.308D-01
 Gap=     0.488 Goal=   None    Shift=    0.000
 Gap=     0.319 Goal=   None    Shift=    0.000
 RMSDP=5.16D-05 MaxDP=5.18D-04 DE= 2.16D-09 OVMax= 3.22D-03

 Cycle  25  Pass 1  IDiag  1:
 Density matrix breaks symmetry, PCut= 1.00D-04
 Density matrix has no symmetry -- integrals replicated.
 E= -75.7334201356879     Delta-E=       -0.000000002230 Rises=F Damp=F
 DIIS: error= 1.58D-07 at cycle  25 NSaved=   3.
 NSaved= 3 IEnMin= 3 EnMin= -75.7334201356879     IErMin= 1 ErrMin= 1.57D-07
 ErrMax= 1.58D-07  0.00D+00 EMaxC= 1.00D-01 BMatC= 3.14D-13 BMatP= 3.14D-13
 IDIUse=1 WtCom= 1.00D+00 WtEn= 0.00D+00
 Coeff-Com:  0.919D+00-0.304D-01 0.111D+00
 Coeff:      0.919D+00-0.304D-01 0.111D+00
 Gap=     0.488 Goal=   None    Shift=    0.000
 Gap=     0.319 Goal=   None    Shift=    0.000
 RMSDP=1.53D-07 MaxDP=1.54D-06 DE=-2.23D-09 OVMax= 9.57D-06

 Cycle  26  Pass 1  IDiag  1:
 Density matrix breaks symmetry, PCut= 1.00D-04
 Density matrix has no symmetry -- integrals replicated.
 E= -75.7334201356949     Delta-E=       -0.000000000007 Rises=F Damp=F
 DIIS: error= 1.58D-07 at cycle  26 NSaved=   4.
 NSaved= 4 IEnMin= 4 EnMin= -75.7334201356949     IErMin= 1 ErrMin= 1.57D-07
 ErrMax= 1.58D-07  0.00D+00 EMaxC= 1.00D-01 BMatC= 3.14D-13 BMatP= 3.14D-13
 IDIUse=1 WtCom= 1.00D+00 WtEn= 0.00D+00
 Large coefficients: NSaved=  4 BigCof=   51.39 CofMax=   10.00 Det=-2.07D-18
 Inversion failed.  Reducing to  3 matrices.
 Coeff-Com:  0.379D+00-0.383D+01 0.445D+01
 Coeff:      0.379D+00-0.383D+01 0.445D+01
 Gap=     0.488 Goal=   None    Shift=    0.000
 Gap=     0.319 Goal=   None    Shift=    0.000
 RMSDP=4.44D-08 MaxDP=4.44D-07 DE=-7.01D-12 OVMax= 2.77D-06

 Cycle  27  Pass 1  IDiag  1:
 Density matrix breaks symmetry, PCut= 1.00D-04
 Density matrix has no symmetry -- integrals replicated.
 E= -75.7334201356929     Delta-E=        0.000000000002 Rises=F Damp=F
 DIIS: error= 1.58D-07 at cycle  27 NSaved=   4.
 NSaved= 4 IEnMin= 3 EnMin= -75.7334201356949     IErMin= 1 ErrMin= 1.57D-07
 ErrMax= 1.58D-07  0.00D+00 EMaxC= 1.00D-01 BMatC= 3.10D-13 BMatP= 3.14D-13
 IDIUse=1 WtCom= 1.00D+00 WtEn= 0.00D+00
 Large coefficients: NSaved=  4 BigCof=  106.15 CofMax=   10.00 Det=-1.14D-18
 Inversion failed.  Reducing to  3 matrices.
 Large coefficients: NSaved=  3 BigCof=   45.82 CofMax=   10.00 Det=-2.40D-18
 Inversion failed.  Reducing to  2 matrices.
 Coeff-Com:  0.163D-01 0.984D+00
 Coeff:      0.163D-01 0.984D+00
 Gap=     0.488 Goal=   None    Shift=    0.000
 Gap=     0.319 Goal=   None    Shift=    0.000
 RMSDP=1.84D-08 MaxDP=1.85D-07 DE= 2.00D-12 OVMax= 1.15D-06

 Cycle  28  Pass 1  IDiag  1:
 Density matrix breaks symmetry, PCut= 1.00D-04
 Density matrix has no symmetry -- integrals replicated.
 E= -75.7334201356936     Delta-E=       -0.000000000001 Rises=F Damp=F
 DIIS: error= 1.58D-07 at cycle  28 NSaved=   3.
 NSaved= 3 IEnMin= 1 EnMin= -75.7334201356949     IErMin= 2 ErrMin= 1.58D-07
 ErrMax= 1.58D-07  0.00D+00 EMaxC= 1.00D-01 BMatC= 3.10D-13 BMatP= 3.10D-13
 IDIUse=1 WtCom= 1.00D+00 WtEn= 0.00D+00
 Coeff-Com: -0.116D+00 0.311D+00 0.805D+00
 Coeff:     -0.116D+00 0.311D+00 0.805D+00
 Gap=     0.488 Goal=   None    Shift=    0.000
 Gap=     0.319 Goal=   None    Shift=    0.000
 RMSDP=8.97D-09 MaxDP=9.05D-08 DE=-7.67D-13 OVMax= 5.60D-07

 Density matrix breaks symmetry, PCut= 1.00D-04
 Density matrix has no symmetry -- integrals replicated.
 SCF Done:  E(UwB97XD) =  -75.7334201357     A.U. after   28 cycles
            NFock= 28  Conv=0.90D-08     -V/T= 2.0016
 <Sx>= 0.0000 <Sy>= 0.0000 <Sz>= 0.5000 <S**2>= 0.7525 S= 0.5012
 <L.S>= 0.000000000000E+00
 KE= 7.561100627401D+01 PE=-1.885154440881D+02 EE= 3.266646096739D+01
 Annihilation of the first spin contaminant:
 S**2 before annihilation     0.7525,   after     0.7500
 Leave Link  502 at Mon Jul  1 20:33:16 2019, MaxMem=  1835008000 cpu:              19.3 elap:               3.4
 (Enter /opt/g16/l508.exe)
 QCSCF skips out because SCF is already converged.
 Leave Link  508 at Mon Jul  1 20:33:16 2019, MaxMem=  1835008000 cpu:               0.0 elap:               0.0
 (Enter /opt/g16/l601.exe)
 Copying SCF densities to generalized density rwf, IOpCl= 1 IROHF=0.
 SCF density gives NOpUse=  1 NOpAll=  4.
 Marking SCF density as not fully symmetric.

 **********************************************************************

            Population analysis using the SCF Density.

 **********************************************************************

 Orbital symmetries:
 Alpha Orbitals:
       Occupied  (SG) (SG) (SG) (PI) (PI)
       Virtual   (SG) (SG) (PI) (PI) (SG) (SG) (SG) (PI) (SG) (PI)
                 (SG) (PI) (PI) (SG) (SG) (DLTA) (DLTA) (PI) (PI)
                 (SG) (PI) (PI) (SG) (SG)
 Beta  Orbitals:
       Occupied  (SG) (SG) (SG) (?A)
       Virtual   (?A) (SG) (SG) (?A) (SG) (?A) (SG) (SG) (SG) (PI)
                 (PI) (SG) (PI) (PI) (SG) (SG) (DLTA) (DLTA) (PI)
                 (PI) (SG) (PI) (PI) (SG) (SG)
 Unable to determine electronic state:  an orbital has unidentified symmetry.
 Alpha  occ. eigenvalues --  -19.32316  -1.13923  -0.58114  -0.51335  -0.44389
 Alpha virt. eigenvalues --    0.04382   0.20713   0.21729   0.22946   0.23327
 Alpha virt. eigenvalues --    0.28651   0.59567   1.02588   1.03927   1.06173
 Alpha virt. eigenvalues --    1.36784   1.39222   1.41004   2.12393   2.52791
 Alpha virt. eigenvalues --    2.81817   2.81944   3.14470   3.19753   3.87169
 Alpha virt. eigenvalues --    4.93024   4.99094   5.53048  49.89169
  Beta  occ. eigenvalues --  -19.30114  -1.06372  -0.55069  -0.41379
  Beta virt. eigenvalues --   -0.09493   0.04653   0.21417   0.23193   0.23647
  Beta virt. eigenvalues --    0.24696   0.28942   0.60321   1.05168   1.07473
  Beta virt. eigenvalues --    1.10489   1.39843   1.41013   1.41023   2.13972
  Beta virt. eigenvalues --    2.52936   2.90883   2.91805   3.21583   3.22727
  Beta virt. eigenvalues --    3.90475   5.01487   5.05138   5.55800  49.91890
          Condensed to atoms (all electrons):
               1          2
     1  O    7.981518   0.260398
     2  H    0.260398   0.497686
          Atomic-Atomic Spin Densities.
               1          2
     1  O    1.010677   0.008452
     2  H    0.008452  -0.027582
 Mulliken charges and spin densities:
               1          2
     1  O   -0.241916   1.019129
     2  H    0.241916  -0.019129
 Sum of Mulliken charges =  -0.00000   1.00000
 Mulliken charges and spin densities with hydrogens summed into heavy atoms:
               1          2
     1  O   -0.000000   1.000000
 Electronic spatial extent (au):  <R**2>=             15.4684
 Charge=             -0.0000 electrons
 Dipole moment (field-independent basis, Debye):
    X=             -0.0000    Y=              0.0000    Z=             -1.8281  Tot=              1.8281
 Quadrupole moment (field-independent basis, Debye-Ang):
   XX=             -6.7057   YY=             -5.5728   ZZ=             -4.7561
   XY=              0.3826   XZ=              0.0000   YZ=             -0.0000
 Traceless Quadrupole moment (field-independent basis, Debye-Ang):
   XX=             -1.0275   YY=              0.1054   ZZ=              0.9221
   XY=              0.3826   XZ=              0.0000   YZ=             -0.0000
 Octapole moment (field-independent basis, Debye-Ang**2):
  XXX=             -0.0000  YYY=              0.0000  ZZZ=             -2.0040  XYY=             -0.0000
  XXY=              0.0000  XXZ=             -0.3774  XZZ=              0.0000  YZZ=             -0.0000
  YYZ=             -0.2808  XYZ=              0.0326
 Hexadecapole moment (field-independent basis, Debye-Ang**3):
 XXXX=             -6.0088 YYYY=             -4.1473 ZZZZ=             -5.6545 XXXY=              0.3143
 XXXZ=              0.0000 YYYX=              0.3143 YYYZ=             -0.0000 ZZZX=              0.0000
 ZZZY=             -0.0000 XXYY=             -1.6927 XXZZ=             -2.1668 YYZZ=             -1.8364
 XXYZ=             -0.0000 YYXZ=              0.0000 ZZXY=              0.1116
 N-N= 4.504556710968D+00 E-N=-1.885154440591D+02  KE= 7.561100627401D+01
 Symmetry A1   KE= 6.834014760127D+01
 Symmetry A2   KE= 3.124526811321D-04
 Symmetry B1   KE= 4.550534877922D+00
 Symmetry B2   KE= 2.720011342137D+00
 Symmetry A1   SP=-4.217491347335D-05
 Symmetry A2   SP= 4.217491347221D-05
 Symmetry B1   SP= 8.566553679601D-02
 Symmetry B2   SP= 9.143344632040D-01
                          Isotropic Fermi Contact Couplings
        Atom                 a.u.       MegaHertz       Gauss      10(-4) cm-1
     1  O(17)              0.09838     -59.63715     -21.28002     -19.89281
     2  H(1)              -0.01471     -65.74586     -23.45976     -21.93046
 --------------------------------------------------------
       Center         ----  Spin Dipole Couplings  ----
                      3XX-RR        3YY-RR        3ZZ-RR
 --------------------------------------------------------
     1   Atom       -1.418928      3.328486     -1.909558
     2   Atom       -0.135545     -0.048386      0.183931
 --------------------------------------------------------
                        XY            XZ            YZ
 --------------------------------------------------------
     1   Atom        1.603360      0.000000      0.000000
     2   Atom        0.029436      0.000000     -0.000000
 --------------------------------------------------------


 ---------------------------------------------------------------------------------
              Anisotropic Spin Dipole Couplings in Principal Axis System
 ---------------------------------------------------------------------------------

       Atom             a.u.   MegaHertz   Gauss  10(-4) cm-1        Axes

              Baa    -1.9097   138.185    49.308    46.093  0.9562 -0.2927 -0.0000
     1 O(17)  Bbb    -1.9096   138.174    49.304    46.090  0.0000 -0.0000  1.0000
              Bcc     3.8193  -276.359   -98.612   -92.183  0.2927  0.9562  0.0000
 
              Baa    -0.1446   -77.128   -27.521   -25.727  0.9562 -0.2927 -0.0000
     2 H(1)   Bbb    -0.0394   -21.009    -7.497    -7.008  0.2927  0.9562  0.0000
              Bcc     0.1839    98.137    35.018    32.735  0.0000 -0.0000  1.0000
 

 ---------------------------------------------------------------------------------

 No NMR shielding tensors so no spin-rotation constants.
 Leave Link  601 at Mon Jul  1 20:33:16 2019, MaxMem=  1835008000 cpu:               1.7 elap:               0.3
 (Enter /opt/g16/l701.exe)
 ... and contract with generalized density number  0.
 Compute integral first derivatives.
 Density matrix is not symmetric, so symmetry will not be used here.
 R6Disp: Adding Grimme-D2 dispersion energy 1st derivatives to the gradient.
 Leave Link  701 at Mon Jul  1 20:33:16 2019, MaxMem=  1835008000 cpu:               1.1 elap:               0.2
 (Enter /opt/g16/l702.exe)
 L702 exits ... SP integral derivatives will be done elsewhere.
 Leave Link  702 at Mon Jul  1 20:33:17 2019, MaxMem=  1835008000 cpu:               0.3 elap:               0.1
 (Enter /opt/g16/l703.exe)
 Integral derivatives from FoFJK, PRISM(SPDF).
 Compute integral first derivatives, UseDBF=F ICtDFT=           0.
 Density matrix is not symmetric, so symmetry will not be used here.
 Calling FoFJK, ICntrl=      2127 FMM=F ISym2X=0 I1Cent= 0 IOpClX= 1 NMat=1 NMatS=1 NMatT=0.
 FoFJK:  IHMeth= 1 ICntrl=    2127 DoSepK=T KAlg= 0 I1Cent=           0 FoldK=F
 IRaf=         1 NMat=       1 IRICut=       1 DoRegI=T DoRafI=F ISym2E= 0 IDoP0=0 IntGTp=1.
 FoFCou: FMM=F IPFlag=           0 FMFlag=      100000 FMFlg1=         800
         NFxFlg=           0 DoJE=F BraDBF=F KetDBF=F FulRan=T
         wScrn=  0.000000 ICntrl=      2527 IOpCl=  0 I1Cent=           0 NGrid=           0
         NMat0=    1 NMatS0=      1 NMatT0=    0 NMatD0=    1 NMtDS0=    0 NMtDT0=    0
 Symmetry not used in FoFCou.
 Leave Link  703 at Mon Jul  1 20:33:17 2019, MaxMem=  1835008000 cpu:               3.8 elap:               0.6
 (Enter /opt/g16/l716.exe)
 Dipole        =-3.02259088D-15 7.56945120D-16-7.19245759D-01
 ***** Axes restored to original set *****
 -------------------------------------------------------------------
 Center     Atomic                   Forces (Hartrees/Bohr)
 Number     Number              X              Y              Z
 -------------------------------------------------------------------
      1        8          -0.033665319    0.000000000   -0.000000000
      2        1           0.033665319   -0.000000000    0.000000000
 -------------------------------------------------------------------
 Cartesian Forces:  Max     0.033665319 RMS     0.019436681
 Leave Link  716 at Mon Jul  1 20:33:18 2019, MaxMem=  1835008000 cpu:               0.3 elap:               0.1
 (Enter /opt/g16/l103.exe)

 GradGradGradGradGradGradGradGradGradGradGradGradGradGradGradGradGradGrad
 Berny optimization.
 FormGI is forming the generalized inverse of G from B-inverse, IUseBI=4.
 Internal  Forces:  Max     0.033665319 RMS     0.033665319
 Search for a local minimum.
 Step number   1 out of a maximum of   20
 All quantities printed in internal units (Hartrees-Bohrs-Radians)
 RMS Force = .33665D-01 SwitMx=.10000D-02 MixMth= 1
 Mixed Optimization -- RFO/linear search
 Second derivative matrix not updated -- first step.
 The second derivative matrix:
                          R1
           R1           0.60053
 ITU=  0
     Eigenvalues ---    0.60053
 RFO step:  Lambda=-1.88134698D-03 EMin= 6.00534744D-01
 Linear search not attempted -- first point.
 Iteration  1 RMS(Cart)=  0.03951584 RMS(Int)=  0.00000000
 Iteration  2 RMS(Cart)=  0.00000000 RMS(Int)=  0.00000000
 ITry= 1 IFail=0 DXMaxC= 2.79D-02 DCOld= 1.00D+10 DXMaxT= 3.00D-01 DXLimC= 3.00D+00 Rises=F
 Variable       Old X    -DE/DX   Delta X   Delta X   Delta X     New X
                                 (Linear)    (Quad)   (Total)
    R1        1.77598   0.03367   0.00000   0.05588   0.05588   1.83186
         Item               Value     Threshold  Converged?
 Maximum Force            0.033665     0.000450     NO 
 RMS     Force            0.033665     0.000300     NO 
 Maximum Displacement     0.027942     0.001800     NO 
 RMS     Displacement     0.039516     0.001200     NO 
 Predicted change in Energy=-9.436112D-04
 Lowest energy point so far.  Saving SCF results.
 GradGradGradGradGradGradGradGradGradGradGradGradGradGradGradGradGradGrad

 Leave Link  103 at Mon Jul  1 20:33:18 2019, MaxMem=  1835008000 cpu:               0.0 elap:               0.0
 (Enter /opt/g16/l202.exe)
                          Input orientation:                          
 ---------------------------------------------------------------------
 Center     Atomic      Atomic             Coordinates (Angstroms)
 Number     Number       Type             X           Y           Z
 ---------------------------------------------------------------------
      1          8           0        0.927421    0.020335    0.043152
      2          1           0        1.896802    0.020335    0.043152
 ---------------------------------------------------------------------
 Stoichiometry    HO(2)
 Framework group  C*V[C*(HO)]
 Deg. of freedom     1
 Full point group                 C*V     NOp   4
 RotChk:  IX=0 Diff= 0.00D+00
 Largest Abelian subgroup         C2V     NOp   4
 Largest concise Abelian subgroup C1      NOp   1
                         Standard orientation:                         
 ---------------------------------------------------------------------
 Center     Atomic      Atomic             Coordinates (Angstroms)
 Number     Number       Type             X           Y           Z
 ---------------------------------------------------------------------
      1          8           0        0.000000    0.000000    0.107709
      2          1           0        0.000000    0.000000   -0.861671
 ---------------------------------------------------------------------
 Rotational constants (GHZ):           0.0000000         567.2581756         567.2581756
 Leave Link  202 at Mon Jul  1 20:33:18 2019, MaxMem=  1835008000 cpu:               0.0 elap:               0.0
 (Enter /opt/g16/l301.exe)
 Standard basis: 6-311++G(d,p) (5D, 7F)
 Ernie: Thresh=  0.10000D-02 Tol=  0.10000D-05 Strict=F.
 There are    17 symmetry adapted cartesian basis functions of A1  symmetry.
 There are     1 symmetry adapted cartesian basis functions of A2  symmetry.
 There are     6 symmetry adapted cartesian basis functions of B1  symmetry.
 There are     6 symmetry adapted cartesian basis functions of B2  symmetry.
 There are    16 symmetry adapted basis functions of A1  symmetry.
 There are     1 symmetry adapted basis functions of A2  symmetry.
 There are     6 symmetry adapted basis functions of B1  symmetry.
 There are     6 symmetry adapted basis functions of B2  symmetry.
    29 basis functions,    45 primitive gaussians,    30 cartesian basis functions
     5 alpha electrons        4 beta electrons
       nuclear repulsion energy         4.3671386894 Hartrees.
 IExCor= 4639 DFT=T Ex+Corr=wB97XD ExCW=0 ScaHFX=  1.000000
 ScaDFX=  1.000000  1.000000  1.000000  1.000000 ScalE2=  1.000000  1.000000
 IRadAn=      5 IRanWt=     -1 IRanGd=            0 ICorTp=0 IEmpDi=121
 HFx  wShort=  0.000000 wLong=  0.200000 cFull=  0.222036 cShort=  0.000000 cLong=  0.777964
 DFx  wShort=  0.000000 wLong=  0.200000 cFull=  0.000000 cShort=  0.000000 cLong=  1.000000
 NAtoms=    2 NActive=    2 NUniq=    2 SFac= 1.00D+00 NAtFMM=   60 NAOKFM=F Big=F
 Integral buffers will be    131072 words long.
 Raffenetti 2 integral format.
 Two-electron integral symmetry is turned on.
 R6Disp:  Grimme-D2 Dispersion energy=       -0.0000006025 Hartrees.
 Nuclear repulsion after empirical dispersion term =        4.3671380869 Hartrees.
 Leave Link  301 at Mon Jul  1 20:33:18 2019, MaxMem=  1835008000 cpu:               0.5 elap:               0.1
 (Enter /opt/g16/l302.exe)
 NPDir=0 NMtPBC=     1 NCelOv=     1 NCel=       1 NClECP=     1 NCelD=      1
         NCelK=      1 NCelE2=     1 NClLst=     1 CellRange=     0.0.
 One-electron integrals computed using PRISM.
 One-electron integral symmetry used in STVInt
 NBasis=    29 RedAO= T EigKep=  6.93D-03  NBF=    16     1     6     6
 NBsUse=    29 1.00D-06 EigRej= -1.00D+00 NBFU=    16     1     6     6
 Precomputing XC quadrature grid using
 IXCGrd= 4 IRadAn=           5 IRanWt=          -1 IRanGd=           0 AccXCQ= 0.00D+00.
 Generated NRdTot=       0 NPtTot=           0 NUsed=           0 NTot=          32
 NSgBfM=    30    30    30    30    30 MxSgAt=     2 MxSgA2=     2.
 Leave Link  302 at Mon Jul  1 20:33:18 2019, MaxMem=  1835008000 cpu:               1.1 elap:               0.2
 (Enter /opt/g16/l303.exe)
 DipDrv:  MaxL=1.
 Leave Link  303 at Mon Jul  1 20:33:18 2019, MaxMem=  1835008000 cpu:               0.3 elap:               0.1
 (Enter /opt/g16/l401.exe)
 Initial guess from the checkpoint file:  "check.chk"
 B after Tr=     0.000000    0.000000   -0.000000
         Rot=    1.000000    0.000000    0.000000    0.000000 Ang=   0.00 deg.
 Guess basis will be translated and rotated to current coordinates.
 JPrj=2 DoOrth=T DoCkMO=T.
 Initial guess orbital symmetries:
 Alpha Orbitals:
       Occupied  (SG) (SG) (SG) (PI) (PI)
       Virtual   (SG) (SG) (PI) (PI) (SG) (SG) (SG) (PI) (SG) (PI)
                 (SG) (PI) (PI) (SG) (SG) (DLTA) (DLTA) (PI) (PI)
                 (SG) (PI) (PI) (SG) (SG)
 Beta  Orbitals:
       Occupied  (SG) (SG) (SG) (?A)
       Virtual   (?A) (SG) (SG) (?A) (SG) (?A) (SG) (SG) (SG) (PI)
                 (PI) (SG) (PI) (PI) (SG) (SG) (DLTA) (DLTA) (PI)
                 (PI) (SG) (PI) (PI) (SG) (SG)
 Initial guess <Sx>= 0.0000 <Sy>= 0.0000 <Sz>= 0.5000 <S**2>= 0.7525 S= 0.5013
 Generating alternative initial guess.
 ExpMin= 3.60D-02 ExpMax= 8.59D+03 ExpMxC= 1.30D+03 IAcc=3 IRadAn=         5 AccDes= 0.00D+00
 Harris functional with IExCor= 4639 and IRadAn=       5 diagonalized for initial guess.
 HarFok:  IExCor= 4639 AccDes= 0.00D+00 IRadAn=         5 IDoV= 1 UseB2=F ITyADJ=14
 ICtDFT=  3500011 ScaDFX=  1.000000  1.000000  1.000000  1.000000
 FoFCou: FMM=F IPFlag=           0 FMFlag=      100000 FMFlg1=           0
         NFxFlg=           0 DoJE=T BraDBF=F KetDBF=T FulRan=T
         wScrn=  0.000000 ICntrl=       500 IOpCl=  0 I1Cent=   200000004 NGrid=           0
         NMat0=    1 NMatS0=      1 NMatT0=    0 NMatD0=    1 NMtDS0=    0 NMtDT0=    0
 Petite list used in FoFCou.
 Harris En= -73.0766160595366    
 Leave Link  401 at Mon Jul  1 20:33:19 2019, MaxMem=  1835008000 cpu:               2.0 elap:               0.3
 (Enter /opt/g16/l502.exe)
 Keep R1 and R2 ints in memory in symmetry-blocked form, NReq=5373737.
 FoFCou: FMM=F IPFlag=           0 FMFlag=           0 FMFlg1=           0
         NFxFlg=           0 DoJE=F BraDBF=F KetDBF=F FulRan=T
         wScrn=  0.000000 ICntrl=       600 IOpCl=  0 I1Cent=           0 NGrid=           0
         NMat0=    1 NMatS0=    435 NMatT0=    0 NMatD0=    1 NMtDS0=    0 NMtDT0=    0
 Petite list used in FoFCou.
 UHF open shell SCF:
 Using DIIS extrapolation, IDIIS=  1040.
 NGot=  1835008000 LenX=  1834947489 LenY=  1834946148
 Requested convergence on RMS density matrix=1.00D-08 within  32 cycles.
 Requested convergence on MAX density matrix=1.00D-06.
 Requested convergence on             energy=1.00D-06.
 No special actions if energy rises.
 An orbital has undefined symmetry, so N**3 symmetry is turned off.

 Cycle   1  Pass 1  IDiag  1:
 Density matrix breaks symmetry, PCut= 1.00D-04
 Density matrix has no symmetry -- integrals replicated.
 E= -75.7341173659381    
 DIIS: error= 3.75D-03 at cycle   1 NSaved=   1.
 NSaved= 1 IEnMin= 1 EnMin= -75.7341173659381     IErMin= 1 ErrMin= 3.75D-03
 ErrMax= 3.75D-03  0.00D+00 EMaxC= 1.00D-01 BMatC= 1.33D-03 BMatP= 1.33D-03
 IDIUse=3 WtCom= 9.62D-01 WtEn= 3.75D-02
 Coeff-Com:  0.100D+01
 Coeff-En:   0.100D+01
 Coeff:      0.100D+01
 Gap=     0.483 Goal=   None    Shift=    0.000
 Gap=     0.319 Goal=   None    Shift=    0.000
 GapD=    0.319 DampG=1.000 DampE=1.000 DampFc=1.0000 IDamp=-1.
 RMSDP=3.77D-04 MaxDP=3.25D-03              OVMax= 6.56D-03

 Cycle   2  Pass 1  IDiag  1:
 Density matrix breaks symmetry, PCut= 1.00D-04
 Density matrix has no symmetry -- integrals replicated.
 E= -75.7343540012065     Delta-E=       -0.000236635268 Rises=F Damp=F
 DIIS: error= 8.68D-04 at cycle   2 NSaved=   2.
 NSaved= 2 IEnMin= 2 EnMin= -75.7343540012065     IErMin= 2 ErrMin= 8.68D-04
 ErrMax= 8.68D-04  0.00D+00 EMaxC= 1.00D-01 BMatC= 7.48D-05 BMatP= 1.33D-03
 IDIUse=3 WtCom= 9.91D-01 WtEn= 8.68D-03
 Coeff-Com:  0.550D-01 0.945D+00
 Coeff-En:   0.000D+00 0.100D+01
 Coeff:      0.545D-01 0.945D+00
 Gap=     0.486 Goal=   None    Shift=    0.000
 Gap=     0.319 Goal=   None    Shift=    0.000
 RMSDP=1.16D-04 MaxDP=1.86D-03 DE=-2.37D-04 OVMax= 1.68D-03

 Cycle   3  Pass 1  IDiag  1:
 Density matrix breaks symmetry, PCut= 1.00D-04
 Density matrix has no symmetry -- integrals replicated.
 E= -75.7343644406350     Delta-E=       -0.000010439428 Rises=F Damp=F
 DIIS: error= 4.11D-04 at cycle   3 NSaved=   3.
 NSaved= 3 IEnMin= 3 EnMin= -75.7343644406350     IErMin= 3 ErrMin= 4.11D-04
 ErrMax= 4.11D-04  0.00D+00 EMaxC= 1.00D-01 BMatC= 2.72D-05 BMatP= 7.48D-05
 IDIUse=3 WtCom= 9.96D-01 WtEn= 4.11D-03
 Coeff-Com: -0.255D-01 0.360D+00 0.665D+00
 Coeff-En:   0.000D+00 0.000D+00 0.100D+01
 Coeff:     -0.254D-01 0.359D+00 0.667D+00
 Gap=     0.485 Goal=   None    Shift=    0.000
 Gap=     0.319 Goal=   None    Shift=    0.000
 RMSDP=4.92D-05 MaxDP=6.12D-04 DE=-1.04D-05 OVMax= 1.04D-03

 Cycle   4  Pass 1  IDiag  1:
 Density matrix breaks symmetry, PCut= 1.00D-04
 Density matrix has no symmetry -- integrals replicated.
 E= -75.7343690709368     Delta-E=       -0.000004630302 Rises=F Damp=F
 DIIS: error= 1.25D-04 at cycle   4 NSaved=   4.
 NSaved= 4 IEnMin= 4 EnMin= -75.7343690709368     IErMin= 4 ErrMin= 1.25D-04
 ErrMax= 1.25D-04  0.00D+00 EMaxC= 1.00D-01 BMatC= 9.85D-07 BMatP= 2.72D-05
 IDIUse=3 WtCom= 9.99D-01 WtEn= 1.25D-03
 Coeff-Com: -0.986D-02 0.797D-02 0.154D+00 0.847D+00
 Coeff-En:   0.000D+00 0.000D+00 0.000D+00 0.100D+01
 Coeff:     -0.984D-02 0.796D-02 0.154D+00 0.848D+00
 Gap=     0.485 Goal=   None    Shift=    0.000
 Gap=     0.319 Goal=   None    Shift=    0.000
 RMSDP=1.24D-05 MaxDP=1.36D-04 DE=-4.63D-06 OVMax= 2.48D-04

 Cycle   5  Pass 1  IDiag  1:
 Density matrix breaks symmetry, PCut= 1.00D-04
 Density matrix has no symmetry -- integrals replicated.
 E= -75.7343693243004     Delta-E=       -0.000000253364 Rises=F Damp=F
 DIIS: error= 2.03D-05 at cycle   5 NSaved=   5.
 NSaved= 5 IEnMin= 5 EnMin= -75.7343693243004     IErMin= 5 ErrMin= 2.03D-05
 ErrMax= 2.03D-05  0.00D+00 EMaxC= 1.00D-01 BMatC= 2.28D-08 BMatP= 9.85D-07
 IDIUse=1 WtCom= 1.00D+00 WtEn= 0.00D+00
 Coeff-Com:  0.192D-02-0.208D-01-0.543D-01-0.967D-01 0.117D+01
 Coeff:      0.192D-02-0.208D-01-0.543D-01-0.967D-01 0.117D+01
 Gap=     0.485 Goal=   None    Shift=    0.000
 Gap=     0.319 Goal=   None    Shift=    0.000
 RMSDP=5.32D-06 MaxDP=6.27D-05 DE=-2.53D-07 OVMax= 1.48D-04

 Cycle   6  Pass 1  IDiag  1:
 Density matrix breaks symmetry, PCut= 1.00D-04
 Density matrix has no symmetry -- integrals replicated.
 E= -75.7343693427922     Delta-E=       -0.000000018492 Rises=F Damp=F
 DIIS: error= 3.63D-06 at cycle   6 NSaved=   6.
 NSaved= 6 IEnMin= 6 EnMin= -75.7343693427922     IErMin= 6 ErrMin= 3.63D-06
 ErrMax= 3.63D-06  0.00D+00 EMaxC= 1.00D-01 BMatC= 8.11D-10 BMatP= 2.28D-08
 IDIUse=1 WtCom= 1.00D+00 WtEn= 0.00D+00
 Coeff-Com: -0.155D-03 0.430D-02 0.681D-02 0.171D-02-0.254D+00 0.124D+01
 Coeff:     -0.155D-03 0.430D-02 0.681D-02 0.171D-02-0.254D+00 0.124D+01
 Gap=     0.485 Goal=   None    Shift=    0.000
 Gap=     0.319 Goal=   None    Shift=    0.000
 RMSDP=1.04D-06 MaxDP=1.14D-05 DE=-1.85D-08 OVMax= 2.69D-05

 Cycle   7  Pass 1  IDiag  1:
 Density matrix breaks symmetry, PCut= 1.00D-04
 Density matrix has no symmetry -- integrals replicated.
 E= -75.7343693434892     Delta-E=       -0.000000000697 Rises=F Damp=F
 DIIS: error= 9.31D-07 at cycle   7 NSaved=   7.
 NSaved= 7 IEnMin= 7 EnMin= -75.7343693434892     IErMin= 7 ErrMin= 9.31D-07
 ErrMax= 9.31D-07  0.00D+00 EMaxC= 1.00D-01 BMatC= 7.26D-11 BMatP= 8.11D-10
 IDIUse=1 WtCom= 1.00D+00 WtEn= 0.00D+00
 Coeff-Com: -0.126D-04-0.996D-03-0.698D-03 0.196D-02 0.625D-01-0.577D+00
 Coeff-Com:  0.151D+01
 Coeff:     -0.126D-04-0.996D-03-0.698D-03 0.196D-02 0.625D-01-0.577D+00
 Coeff:      0.151D+01
 Gap=     0.485 Goal=   None    Shift=    0.000
 Gap=     0.319 Goal=   None    Shift=    0.000
 RMSDP=3.69D-07 MaxDP=3.41D-06 DE=-6.97D-10 OVMax= 7.71D-06

 Cycle   8  Pass 1  IDiag  1:
 Density matrix breaks symmetry, PCut= 1.00D-04
 Density matrix has no symmetry -- integrals replicated.
 E= -75.7343693435586     Delta-E=       -0.000000000069 Rises=F Damp=F
 DIIS: error= 1.88D-07 at cycle   8 NSaved=   8.
 NSaved= 8 IEnMin= 8 EnMin= -75.7343693435586     IErMin= 8 ErrMin= 1.88D-07
 ErrMax= 1.88D-07  0.00D+00 EMaxC= 1.00D-01 BMatC= 2.18D-12 BMatP= 7.26D-11
 IDIUse=1 WtCom= 1.00D+00 WtEn= 0.00D+00
 Coeff-Com:  0.754D-05-0.141D-04-0.109D-03 0.378D-03-0.868D-03 0.453D-01
 Coeff-Com: -0.276D+00 0.123D+01
 Coeff:      0.754D-05-0.141D-04-0.109D-03 0.378D-03-0.868D-03 0.453D-01
 Coeff:     -0.276D+00 0.123D+01
 Gap=     0.485 Goal=   None    Shift=    0.000
 Gap=     0.319 Goal=   None    Shift=    0.000
 RMSDP=6.26D-08 MaxDP=4.64D-07 DE=-6.95D-11 OVMax= 1.73D-06

 Cycle   9  Pass 1  IDiag  1:
 Density matrix breaks symmetry, PCut= 1.00D-04
 Density matrix has no symmetry -- integrals replicated.
 E= -75.7343693435616     Delta-E=       -0.000000000003 Rises=F Damp=F
 DIIS: error= 1.78D-07 at cycle   9 NSaved=   9.
 NSaved= 9 IEnMin= 9 EnMin= -75.7343693435616     IErMin= 9 ErrMin= 1.78D-07
 ErrMax= 1.78D-07  0.00D+00 EMaxC= 1.00D-01 BMatC= 4.27D-13 BMatP= 2.18D-12
 IDIUse=1 WtCom= 1.00D+00 WtEn= 0.00D+00
 Coeff-Com: -0.220D-06 0.812D-05 0.257D-04-0.197D-03-0.334D-03 0.483D-03
 Coeff-Com:  0.247D-01-0.209D+00 0.118D+01
 Coeff:     -0.220D-06 0.812D-05 0.257D-04-0.197D-03-0.334D-03 0.483D-03
 Coeff:      0.247D-01-0.209D+00 0.118D+01
 Gap=     0.485 Goal=   None    Shift=    0.000
 Gap=     0.319 Goal=   None    Shift=    0.000
 RMSDP=2.54D-08 MaxDP=2.44D-07 DE=-2.91D-12 OVMax= 1.50D-06

 Cycle  10  Pass 1  IDiag  1:
 Density matrix breaks symmetry, PCut= 1.00D-04
 Density matrix has no symmetry -- integrals replicated.
 E= -75.7343693435628     Delta-E=       -0.000000000001 Rises=F Damp=F
 DIIS: error= 1.78D-07 at cycle  10 NSaved=  10.
 NSaved=10 IEnMin=10 EnMin= -75.7343693435628     IErMin= 9 ErrMin= 1.78D-07
 ErrMax= 1.78D-07  0.00D+00 EMaxC= 1.00D-01 BMatC= 3.95D-13 BMatP= 4.27D-13
 IDIUse=1 WtCom= 1.00D+00 WtEn= 0.00D+00
 Coeff-Com: -0.735D-07-0.716D-06-0.212D-05 0.337D-04 0.352D-04-0.501D-03
 Coeff-Com: -0.118D-02 0.221D-01-0.218D+00 0.120D+01
 Coeff:     -0.735D-07-0.716D-06-0.212D-05 0.337D-04 0.352D-04-0.501D-03
 Coeff:     -0.118D-02 0.221D-01-0.218D+00 0.120D+01
 Gap=     0.485 Goal=   None    Shift=    0.000
 Gap=     0.319 Goal=   None    Shift=    0.000
 RMSDP=2.43D-08 MaxDP=2.45D-07 DE=-1.24D-12 OVMax= 1.51D-06

 Cycle  11  Pass 1  IDiag  1:
 Density matrix breaks symmetry, PCut= 1.00D-04
 Density matrix has no symmetry -- integrals replicated.
 E= -75.7343693435640     Delta-E=       -0.000000000001 Rises=F Damp=F
 DIIS: error= 1.78D-07 at cycle  11 NSaved=  11.
 NSaved=11 IEnMin=11 EnMin= -75.7343693435640     IErMin= 9 ErrMin= 1.78D-07
 ErrMax= 1.78D-07  0.00D+00 EMaxC= 1.00D-01 BMatC= 3.95D-13 BMatP= 3.95D-13
 IDIUse=1 WtCom= 1.00D+00 WtEn= 0.00D+00
 Coeff-Com:  0.132D-07-0.783D-07-0.578D-07 0.815D-06-0.462D-05 0.975D-04
 Coeff-Com: -0.554D-03 0.243D-02 0.115D-02-0.188D+00 0.118D+01
 Coeff:      0.132D-07-0.783D-07-0.578D-07 0.815D-06-0.462D-05 0.975D-04
 Coeff:     -0.554D-03 0.243D-02 0.115D-02-0.188D+00 0.118D+01
 Gap=     0.485 Goal=   None    Shift=    0.000
 Gap=     0.319 Goal=   None    Shift=    0.000
 RMSDP=2.44D-08 MaxDP=2.45D-07 DE=-1.24D-12 OVMax= 1.52D-06

 Cycle  12  Pass 1  IDiag  1:
 Density matrix breaks symmetry, PCut= 1.00D-04
 Density matrix has no symmetry -- integrals replicated.
 E= -75.7343693435653     Delta-E=       -0.000000000001 Rises=F Damp=F
 DIIS: error= 1.78D-07 at cycle  12 NSaved=  12.
 NSaved=12 IEnMin=12 EnMin= -75.7343693435653     IErMin= 9 ErrMin= 1.78D-07
 ErrMax= 1.78D-07  0.00D+00 EMaxC= 1.00D-01 BMatC= 3.95D-13 BMatP= 3.95D-13
 IDIUse=1 WtCom= 1.00D+00 WtEn= 0.00D+00
 Coeff-Com:  0.127D-06-0.223D-06 0.612D-06-0.884D-05-0.502D-04 0.930D-03
 Coeff-Com: -0.348D-02 0.783D-02 0.102D+00-0.187D+01 0.841D+01-0.565D+01
 Coeff:      0.127D-06-0.223D-06 0.612D-06-0.884D-05-0.502D-04 0.930D-03
 Coeff:     -0.348D-02 0.783D-02 0.102D+00-0.187D+01 0.841D+01-0.565D+01
 Gap=     0.485 Goal=   None    Shift=    0.000
 Gap=     0.319 Goal=   None    Shift=    0.000
 RMSDP=1.02D-07 MaxDP=1.02D-06 DE=-1.31D-12 OVMax= 6.35D-06

 Cycle  13  Pass 1  IDiag  1:
 Density matrix breaks symmetry, PCut= 1.00D-04
 Density matrix has no symmetry -- integrals replicated.
 E= -75.7343693435601     Delta-E=        0.000000000005 Rises=F Damp=F
 DIIS: error= 1.78D-07 at cycle  13 NSaved=  13.
 NSaved=13 IEnMin=12 EnMin= -75.7343693435653     IErMin=13 ErrMin= 1.78D-07
 ErrMax= 1.78D-07  0.00D+00 EMaxC= 1.00D-01 BMatC= 3.95D-13 BMatP= 3.95D-13
 IDIUse=1 WtCom= 1.00D+00 WtEn= 0.00D+00
 Large coefficients: NSaved= 13 BigCof=  111.38 CofMax=   10.00 Det=-2.34D-19
 Inversion failed.  Reducing to 12 matrices.
 Large coefficients: NSaved= 12 BigCof=   90.46 CofMax=   10.00 Det=-2.98D-19
 Inversion failed.  Reducing to 11 matrices.
 Large coefficients: NSaved= 11 BigCof=   90.33 CofMax=   10.00 Det=-3.00D-19
 Inversion failed.  Reducing to 10 matrices.
 Large coefficients: NSaved= 10 BigCof=   41.85 CofMax=   10.00 Det=-6.64D-19
 Inversion failed.  Reducing to  9 matrices.
 Large coefficients: NSaved=  9 BigCof=   31.56 CofMax=   10.00 Det=-7.75D-19
 Inversion failed.  Reducing to  8 matrices.
 Large coefficients: NSaved=  8 BigCof=   25.41 CofMax=   10.00 Det=-1.23D-18
 Inversion failed.  Reducing to  7 matrices.
 Large coefficients: NSaved=  7 BigCof=   23.52 CofMax=   10.00 Det=-1.86D-18
 Inversion failed.  Reducing to  6 matrices.
 Large coefficients: NSaved=  6 BigCof=   22.95 CofMax=   10.00 Det=-2.32D-18
 Inversion failed.  Reducing to  5 matrices.
 Large coefficients: NSaved=  5 BigCof=   21.43 CofMax=   10.00 Det=-2.82D-18
 Inversion failed.  Reducing to  4 matrices.
 Large coefficients: NSaved=  4 BigCof=   16.39 CofMax=   10.00 Det=-3.01D-18
 Inversion failed.  Reducing to  3 matrices.
 Large coefficients: NSaved=  3 BigCof=   16.11 CofMax=   10.00 Det=-5.04D-18
 Inversion failed.  Reducing to  2 matrices.
 Large coefficients: NSaved=  2 BigCof=   13.48 CofMax=   10.00 Det=-5.25D-18
 Coeff-Com: -0.125D+02 0.135D+02
 Coeff:     -0.125D+02 0.135D+02
 Gap=     0.485 Goal=   None    Shift=    0.000
 Gap=     0.319 Goal=   None    Shift=    0.000
 RMSDP=1.25D-06 MaxDP=1.26D-05 DE= 5.22D-12 OVMax= 7.81D-05

 Cycle  14  Pass 1  IDiag  1:
 Density matrix breaks symmetry, PCut= 1.00D-04
 Density matrix has no symmetry -- integrals replicated.
 E= -75.7343693434957     Delta-E=        0.000000000064 Rises=F Damp=F
 DIIS: error= 1.78D-07 at cycle  14 NSaved=   3.
 NSaved= 3 IEnMin= 1 EnMin= -75.7343693435653     IErMin= 3 ErrMin= 1.78D-07
 ErrMax= 1.78D-07  0.00D+00 EMaxC= 1.00D-01 BMatC= 3.93D-13 BMatP= 3.95D-13
 IDIUse=1 WtCom= 1.00D+00 WtEn= 0.00D+00
 Coeff-Com: -0.177D+01-0.295D+01 0.571D+01
 Coeff:     -0.177D+01-0.295D+01 0.571D+01
 Gap=     0.485 Goal=   None    Shift=    0.000
 Gap=     0.319 Goal=   None    Shift=    0.000
 RMSDP=6.06D-06 MaxDP=6.08D-05 DE= 6.44D-11 OVMax= 3.78D-04

 Cycle  15  Pass 1  IDiag  1:
 Density matrix breaks symmetry, PCut= 1.00D-04
 Density matrix has no symmetry -- integrals replicated.
 E= -75.7343693431864     Delta-E=        0.000000000309 Rises=F Damp=F
 DIIS: error= 1.76D-07 at cycle  15 NSaved=   4.
 NSaved= 4 IEnMin= 1 EnMin= -75.7343693435653     IErMin= 4 ErrMin= 1.76D-07
 ErrMax= 1.76D-07  0.00D+00 EMaxC= 1.00D-01 BMatC= 3.89D-13 BMatP= 3.93D-13
 IDIUse=1 WtCom= 1.00D+00 WtEn= 0.00D+00
 Large coefficients: NSaved=  4 BigCof=  109.92 CofMax=   10.00 Det=-1.37D-18
 Inversion failed.  Reducing to  3 matrices.
 Coeff-Com: -0.665D+01 0.642D+01 0.124D+01
 Coeff:     -0.665D+01 0.642D+01 0.124D+01
 Gap=     0.485 Goal=   None    Shift=    0.000
 Gap=     0.319 Goal=   None    Shift=    0.000
 RMSDP=1.04D-05 MaxDP=1.04D-04 DE= 3.09D-10 OVMax= 6.49D-04

 Cycle  16  Pass 1  IDiag  1:
 Density matrix breaks symmetry, PCut= 1.00D-04
 Density matrix has no symmetry -- integrals replicated.
 E= -75.7343693426629     Delta-E=        0.000000000523 Rises=F Damp=F
 DIIS: error= 1.72D-07 at cycle  16 NSaved=   4.
 NSaved= 4 IEnMin= 1 EnMin= -75.7343693435653     IErMin= 4 ErrMin= 1.72D-07
 ErrMax= 1.72D-07  0.00D+00 EMaxC= 1.00D-01 BMatC= 4.02D-13 BMatP= 3.89D-13
 IDIUse=1 WtCom= 1.00D+00 WtEn= 0.00D+00
 Coeff-Com: -0.843D+01 0.787D+01 0.186D+01-0.296D+00
 Coeff:     -0.843D+01 0.787D+01 0.186D+01-0.296D+00
 Gap=     0.485 Goal=   None    Shift=    0.000
 Gap=     0.319 Goal=   None    Shift=    0.000
 RMSDP=1.29D-06 MaxDP=1.29D-05 DE= 5.23D-10 OVMax= 8.03D-05

 Cycle  17  Pass 1  IDiag  1:
 Density matrix breaks symmetry, PCut= 1.00D-04
 Density matrix has no symmetry -- integrals replicated.
 E= -75.7343693425989     Delta-E=        0.000000000064 Rises=F Damp=F
 DIIS: error= 1.72D-07 at cycle  17 NSaved=   5.
 NSaved= 5 IEnMin= 1 EnMin= -75.7343693435653     IErMin= 5 ErrMin= 1.72D-07
 ErrMax= 1.72D-07  0.00D+00 EMaxC= 1.00D-01 BMatC= 4.29D-13 BMatP= 3.89D-13
 IDIUse=1 WtCom= 1.00D+00 WtEn= 0.00D+00
 Large coefficients: NSaved=  5 BigCof=   88.10 CofMax=   10.00 Det=-2.42D-17
 Inversion failed.  Reducing to  4 matrices.
 Large coefficients: NSaved=  4 BigCof=   73.19 CofMax=   10.00 Det=-3.28D-17
 Inversion failed.  Reducing to  3 matrices.
 Large coefficients: NSaved=  3 BigCof=   33.52 CofMax=   10.00 Det=-8.51D-17
 Inversion failed.  Reducing to  2 matrices.
 Coeff-Com:  0.342D+01-0.242D+01
 Coeff:      0.342D+01-0.242D+01
 Gap=     0.485 Goal=   None    Shift=    0.000
 Gap=     0.319 Goal=   None    Shift=    0.000
 RMSDP=4.43D-06 MaxDP=4.44D-05 DE= 6.40D-11 OVMax= 2.76D-04

 Cycle  18  Pass 1  IDiag  1:
 Density matrix breaks symmetry, PCut= 1.00D-04
 Density matrix has no symmetry -- integrals replicated.
 E= -75.7343693428193     Delta-E=       -0.000000000220 Rises=F Damp=F
 DIIS: error= 1.74D-07 at cycle  18 NSaved=   3.
 NSaved= 3 IEnMin= 3 EnMin= -75.7343693428193     IErMin= 2 ErrMin= 1.72D-07
 ErrMax= 1.74D-07  0.00D+00 EMaxC= 1.00D-01 BMatC= 3.74D-13 BMatP= 4.02D-13
 IDIUse=1 WtCom= 1.00D+00 WtEn= 0.00D+00
 Coeff-Com: -0.539D+00 0.365D+00 0.117D+01
 Coeff:     -0.539D+00 0.365D+00 0.117D+01
 Gap=     0.485 Goal=   None    Shift=    0.000
 Gap=     0.319 Goal=   None    Shift=    0.000
 RMSDP=9.58D-08 MaxDP=9.61D-07 DE=-2.20D-10 OVMax= 5.96D-06

 Cycle  19  Pass 1  IDiag  1:
 Density matrix breaks symmetry, PCut= 1.00D-04
 Density matrix has no symmetry -- integrals replicated.
 E= -75.7343693428240     Delta-E=       -0.000000000005 Rises=F Damp=F
 DIIS: error= 1.74D-07 at cycle  19 NSaved=   4.
 NSaved= 4 IEnMin= 4 EnMin= -75.7343693428240     IErMin= 2 ErrMin= 1.72D-07
 ErrMax= 1.74D-07  0.00D+00 EMaxC= 1.00D-01 BMatC= 3.74D-13 BMatP= 3.74D-13
 IDIUse=1 WtCom= 1.00D+00 WtEn= 0.00D+00
 Coeff-Com: -0.160D+01 0.125D+01-0.276D+00 0.163D+01
 Coeff:     -0.160D+01 0.125D+01-0.276D+00 0.163D+01
 Gap=     0.485 Goal=   None    Shift=    0.000
 Gap=     0.319 Goal=   None    Shift=    0.000
 RMSDP=4.10D-07 MaxDP=4.11D-06 DE=-4.68D-12 OVMax= 2.56D-05

 Cycle  20  Pass 1  IDiag  1:
 Density matrix breaks symmetry, PCut= 1.00D-04
 Density matrix has no symmetry -- integrals replicated.
 E= -75.7343693428036     Delta-E=        0.000000000020 Rises=F Damp=F
 DIIS: error= 1.73D-07 at cycle  20 NSaved=   5.
 NSaved= 5 IEnMin= 4 EnMin= -75.7343693428240     IErMin= 2 ErrMin= 1.72D-07
 ErrMax= 1.73D-07  0.00D+00 EMaxC= 1.00D-01 BMatC= 3.73D-13 BMatP= 3.74D-13
 IDIUse=1 WtCom= 1.00D+00 WtEn= 0.00D+00
 Large coefficients: NSaved=  5 BigCof=   68.29 CofMax=   10.00 Det=-4.06D-18
 Inversion failed.  Reducing to  4 matrices.
 Coeff-Com:  0.832D+00-0.664D+01-0.427D+00 0.724D+01
 Coeff:      0.832D+00-0.664D+01-0.427D+00 0.724D+01
 Gap=     0.485 Goal=   None    Shift=    0.000
 Gap=     0.319 Goal=   None    Shift=    0.000
 RMSDP=4.59D-06 MaxDP=4.60D-05 DE= 2.04D-11 OVMax= 2.86D-04

 Cycle  21  Pass 1  IDiag  1:
 Density matrix breaks symmetry, PCut= 1.00D-04
 Density matrix has no symmetry -- integrals replicated.
 E= -75.7343693425749     Delta-E=        0.000000000229 Rises=F Damp=F
 DIIS: error= 1.72D-07 at cycle  21 NSaved=   5.
 NSaved= 5 IEnMin= 3 EnMin= -75.7343693428240     IErMin= 5 ErrMin= 1.72D-07
 ErrMax= 1.72D-07  0.00D+00 EMaxC= 1.00D-01 BMatC= 3.67D-13 BMatP= 3.73D-13
 IDIUse=1 WtCom= 1.00D+00 WtEn= 0.00D+00
 Large coefficients: NSaved=  5 BigCof=  132.24 CofMax=   10.00 Det=-6.52D-18
 Inversion failed.  Reducing to  4 matrices.
 Coeff-Com:  0.167D+01-0.534D+01-0.242D+01 0.710D+01
 Coeff:      0.167D+01-0.534D+01-0.242D+01 0.710D+01
 Gap=     0.485 Goal=   None    Shift=    0.000
 Gap=     0.319 Goal=   None    Shift=    0.000
 RMSDP=2.97D-05 MaxDP=2.97D-04 DE= 2.29D-10 OVMax= 1.85D-03

 Cycle  22  Pass 1  IDiag  1:
 Density matrix breaks symmetry, PCut= 1.00D-04
 Density matrix has no symmetry -- integrals replicated.
 E= -75.7343693411502     Delta-E=        0.000000001425 Rises=F Damp=F
 DIIS: error= 1.61D-07 at cycle  22 NSaved=   5.
 NSaved= 5 IEnMin= 2 EnMin= -75.7343693428240     IErMin= 5 ErrMin= 1.61D-07
 ErrMax= 1.61D-07  0.00D+00 EMaxC= 1.00D-01 BMatC= 8.32D-13 BMatP= 3.67D-13
 IDIUse=1 WtCom= 1.00D+00 WtEn= 0.00D+00
 Large coefficients: NSaved=  5 BigCof=  103.01 CofMax=   10.00 Det=-9.55D-18
 Inversion failed.  Reducing to  4 matrices.
 Large coefficients: NSaved=  4 BigCof=   15.39 CofMax=   10.00 Det=-1.15D-16
 Inversion failed.  Reducing to  3 matrices.
 Coeff-Com: -0.565D+01 0.666D+01-0.165D-01
 Coeff:     -0.565D+01 0.666D+01-0.165D-01
 Gap=     0.485 Goal=   None    Shift=    0.000
 Gap=     0.319 Goal=   None    Shift=    0.000
 RMSDP=1.92D-06 MaxDP=1.92D-05 DE= 1.42D-09 OVMax= 1.19D-04

 Cycle  23  Pass 1  IDiag  1:
 Density matrix breaks symmetry, PCut= 1.00D-04
 Density matrix has no symmetry -- integrals replicated.
 E= -75.7343693412394     Delta-E=       -0.000000000089 Rises=F Damp=F
 DIIS: error= 1.62D-07 at cycle  23 NSaved=   4.
 NSaved= 4 IEnMin= 1 EnMin= -75.7343693428240     IErMin= 3 ErrMin= 1.61D-07
 ErrMax= 1.62D-07  0.00D+00 EMaxC= 1.00D-01 BMatC= 7.34D-13 BMatP= 3.67D-13
 IDIUse=1 WtCom= 1.00D+00 WtEn= 0.00D+00
 Coeff-Com: -0.812D+01 0.971D+01 0.463D+01-0.521D+01
 Coeff:     -0.812D+01 0.971D+01 0.463D+01-0.521D+01
 Gap=     0.485 Goal=   None    Shift=    0.000
 Gap=     0.319 Goal=   None    Shift=    0.000
 RMSDP=5.46D-06 MaxDP=5.45D-05 DE=-8.92D-11 OVMax= 3.40D-04

 Cycle  24  Pass 1  IDiag  1:
 Density matrix breaks symmetry, PCut= 1.00D-04
 Density matrix has no symmetry -- integrals replicated.
 E= -75.7343693409863     Delta-E=        0.000000000253 Rises=F Damp=F
 DIIS: error= 1.60D-07 at cycle  24 NSaved=   5.
 NSaved= 5 IEnMin= 1 EnMin= -75.7343693428240     IErMin= 5 ErrMin= 1.60D-07
 ErrMax= 1.60D-07  0.00D+00 EMaxC= 1.00D-01 BMatC= 1.11D-12 BMatP= 3.67D-13
 IDIUse=1 WtCom= 1.00D+00 WtEn= 0.00D+00
 Large coefficients: NSaved=  5 BigCof=   30.54 CofMax=   10.00 Det=-6.75D-18
 Inversion failed.  Reducing to  4 matrices.
 Coeff-Com: -0.486D+01 0.549D+01 0.135D+01-0.981D+00
 Coeff:     -0.486D+01 0.549D+01 0.135D+01-0.981D+00
 Gap=     0.485 Goal=   None    Shift=    0.000
 Gap=     0.319 Goal=   None    Shift=    0.000
 RMSDP=3.91D-06 MaxDP=3.90D-05 DE= 2.53D-10 OVMax= 2.43D-04

 Cycle  25  Pass 1  IDiag  1:
 Density matrix breaks symmetry, PCut= 1.00D-04
 Density matrix has no symmetry -- integrals replicated.
 E= -75.7343693411672     Delta-E=       -0.000000000181 Rises=F Damp=F
 DIIS: error= 1.61D-07 at cycle  25 NSaved=   5.
 NSaved= 5 IEnMin= 1 EnMin= -75.7343693428240     IErMin= 4 ErrMin= 1.60D-07
 ErrMax= 1.61D-07  0.00D+00 EMaxC= 1.00D-01 BMatC= 8.37D-13 BMatP= 3.67D-13
 IDIUse=1 WtCom= 1.00D+00 WtEn= 0.00D+00
 Large coefficients: NSaved=  5 BigCof=   94.41 CofMax=   10.00 Det=-1.23D-17
 Inversion failed.  Reducing to  4 matrices.
 Large coefficients: NSaved=  4 BigCof=   17.28 CofMax=   10.00 Det=-5.67D-17
 Inversion failed.  Reducing to  3 matrices.
 Large coefficients: NSaved=  3 BigCof=   12.77 CofMax=   10.00 Det=-3.15D-16
 Inversion failed.  Reducing to  2 matrices.
 Coeff-Com: -0.404D+01 0.504D+01
 Coeff:     -0.404D+01 0.504D+01
 Gap=     0.485 Goal=   None    Shift=    0.000
 Gap=     0.319 Goal=   None    Shift=    0.000
 RMSDP=1.58D-05 MaxDP=1.58D-04 DE=-1.81D-10 OVMax= 9.83D-04

 Cycle  26  Pass 1  IDiag  1:
 Density matrix breaks symmetry, PCut= 1.00D-04
 Density matrix has no symmetry -- integrals replicated.
 E= -75.7343693419147     Delta-E=       -0.000000000747 Rises=F Damp=F
 DIIS: error= 1.67D-07 at cycle  26 NSaved=   3.
 NSaved= 3 IEnMin= 3 EnMin= -75.7343693419147     IErMin= 1 ErrMin= 1.60D-07
 ErrMax= 1.67D-07  0.00D+00 EMaxC= 1.00D-01 BMatC= 3.97D-13 BMatP= 8.37D-13
 IDIUse=1 WtCom= 1.00D+00 WtEn= 0.00D+00
 Coeff-Com: -0.384D+01 0.477D+01 0.681D-01
 Coeff:     -0.384D+01 0.477D+01 0.681D-01
 Gap=     0.485 Goal=   None    Shift=    0.000
 Gap=     0.319 Goal=   None    Shift=    0.000
 RMSDP=3.22D-07 MaxDP=3.22D-06 DE=-7.47D-10 OVMax= 2.01D-05

 Cycle  27  Pass 1  IDiag  1:
 Density matrix breaks symmetry, PCut= 1.00D-04
 Density matrix has no symmetry -- integrals replicated.
 E= -75.7343693419301     Delta-E=       -0.000000000015 Rises=F Damp=F
 DIIS: error= 1.67D-07 at cycle  27 NSaved=   4.
 NSaved= 4 IEnMin= 4 EnMin= -75.7343693419301     IErMin= 1 ErrMin= 1.60D-07
 ErrMax= 1.67D-07  0.00D+00 EMaxC= 1.00D-01 BMatC= 3.94D-13 BMatP= 3.97D-13
 IDIUse=1 WtCom= 1.00D+00 WtEn= 0.00D+00
 Large coefficients: NSaved=  4 BigCof=   45.70 CofMax=   10.00 Det=-2.24D-18
 Inversion failed.  Reducing to  3 matrices.
 Large coefficients: NSaved=  3 BigCof=   10.52 CofMax=   10.00 Det=-3.12D-18
 Inversion failed.  Reducing to  2 matrices.
 Large coefficients: NSaved=  2 BigCof=   24.68 CofMax=   10.00 Det=-6.05D-17
 Coeff-Com: -0.237D+02 0.247D+02
 Coeff:     -0.237D+02 0.247D+02
 Gap=     0.485 Goal=   None    Shift=    0.000
 Gap=     0.319 Goal=   None    Shift=    0.000
 RMSDP=7.65D-06 MaxDP=7.65D-05 DE=-1.54D-11 OVMax= 4.76D-04

 Cycle  28  Pass 1  IDiag  1:
 Density matrix breaks symmetry, PCut= 1.00D-04
 Density matrix has no symmetry -- integrals replicated.
 E= -75.7343693423015     Delta-E=       -0.000000000371 Rises=F Damp=F
 DIIS: error= 1.70D-07 at cycle  28 NSaved=   3.
 NSaved= 3 IEnMin= 3 EnMin= -75.7343693423015     IErMin= 1 ErrMin= 1.67D-07
 ErrMax= 1.70D-07  0.00D+00 EMaxC= 1.00D-01 BMatC= 3.61D-13 BMatP= 3.94D-13
 IDIUse=1 WtCom= 1.00D+00 WtEn= 0.00D+00
 Large coefficients: NSaved=  3 BigCof=   16.69 CofMax=   10.00 Det=-1.11D-18
 Inversion failed.  Reducing to  2 matrices.
 Coeff-Com: -0.934D-01 0.109D+01
 Coeff:     -0.934D-01 0.109D+01
 Gap=     0.485 Goal=   None    Shift=    0.000
 Gap=     0.319 Goal=   None    Shift=    0.000
 RMSDP=7.33D-07 MaxDP=7.34D-06 DE=-3.71D-10 OVMax= 4.57D-05

 Cycle  29  Pass 1  IDiag  1:
 Density matrix breaks symmetry, PCut= 1.00D-04
 Density matrix has no symmetry -- integrals replicated.
 E= -75.7343693423375     Delta-E=       -0.000000000036 Rises=F Damp=F
 DIIS: error= 1.70D-07 at cycle  29 NSaved=   3.
 NSaved= 3 IEnMin= 3 EnMin= -75.7343693423375     IErMin= 1 ErrMin= 1.67D-07
 ErrMax= 1.70D-07  0.00D+00 EMaxC= 1.00D-01 BMatC= 3.60D-13 BMatP= 3.61D-13
 IDIUse=1 WtCom= 1.00D+00 WtEn= 0.00D+00
 Coeff-Com:  0.169D+01-0.688D+01 0.619D+01
 Coeff:      0.169D+01-0.688D+01 0.619D+01
 Gap=     0.485 Goal=   None    Shift=    0.000
 Gap=     0.319 Goal=   None    Shift=    0.000
 RMSDP=9.11D-06 MaxDP=9.12D-05 DE=-3.60D-11 OVMax= 5.68D-04

 Cycle  30  Pass 1  IDiag  1:
 Density matrix breaks symmetry, PCut= 1.00D-04
 Density matrix has no symmetry -- integrals replicated.
 E= -75.7343693418947     Delta-E=        0.000000000443 Rises=F Damp=F
 DIIS: error= 1.67D-07 at cycle  30 NSaved=   4.
 NSaved= 4 IEnMin= 3 EnMin= -75.7343693423375     IErMin= 4 ErrMin= 1.67D-07
 ErrMax= 1.67D-07  0.00D+00 EMaxC= 1.00D-01 BMatC= 3.47D-13 BMatP= 3.60D-13
 IDIUse=1 WtCom= 1.00D+00 WtEn= 0.00D+00
 Large coefficients: NSaved=  4 BigCof=   35.64 CofMax=   10.00 Det=-5.03D-17
 Inversion failed.  Reducing to  3 matrices.
 Coeff-Com: -0.673D+00-0.959D+00 0.263D+01
 Coeff:     -0.673D+00-0.959D+00 0.263D+01
 Gap=     0.485 Goal=   None    Shift=    0.000
 Gap=     0.319 Goal=   None    Shift=    0.000
[...]
 RMSDP=1.79D-05 MaxDP=1.53D-04              OVMax= 3.13D-04

 Cycle   2  Pass 1  IDiag  1:
 Density matrix breaks symmetry, PCut= 1.00D-04
 Density matrix has no symmetry -- integrals replicated.
 E= -75.7343712314637     Delta-E=       -0.000000532717 Rises=F Damp=F
 DIIS: error= 4.05D-05 at cycle   2 NSaved=   2.
 NSaved= 2 IEnMin= 2 EnMin= -75.7343712314637     IErMin= 2 ErrMin= 4.05D-05
 ErrMax= 4.05D-05  0.00D+00 EMaxC= 1.00D-01 BMatC= 1.63D-07 BMatP= 2.93D-06
 IDIUse=1 WtCom= 1.00D+00 WtEn= 0.00D+00
 Coeff-Com:  0.524D-01 0.948D+00
 Coeff:      0.524D-01 0.948D+00
 Gap=     0.485 Goal=   None    Shift=    0.000
 Gap=     0.319 Goal=   None    Shift=    0.000
 RMSDP=5.42D-06 MaxDP=8.73D-05 DE=-5.33D-07 OVMax= 7.80D-05

 Cycle   3  Pass 1  IDiag  1:
 Density matrix breaks symmetry, PCut= 1.00D-04
 Density matrix has no symmetry -- integrals replicated.
 E= -75.7343712548385     Delta-E=       -0.000000023375 Rises=F Damp=F
 DIIS: error= 1.89D-05 at cycle   3 NSaved=   3.
 NSaved= 3 IEnMin= 3 EnMin= -75.7343712548385     IErMin= 3 ErrMin= 1.89D-05
 ErrMax= 1.89D-05  0.00D+00 EMaxC= 1.00D-01 BMatC= 5.84D-08 BMatP= 1.63D-07
 IDIUse=1 WtCom= 1.00D+00 WtEn= 0.00D+00
 Coeff-Com: -0.258D-01 0.358D+00 0.667D+00
 Coeff:     -0.258D-01 0.358D+00 0.667D+00
 Gap=     0.485 Goal=   None    Shift=    0.000
 Gap=     0.319 Goal=   None    Shift=    0.000
 RMSDP=2.30D-06 MaxDP=2.87D-05 DE=-2.34D-08 OVMax= 4.92D-05

 Cycle   4  Pass 1  IDiag  1:
 Density matrix breaks symmetry, PCut= 1.00D-04
 Density matrix has no symmetry -- integrals replicated.
 E= -75.7343712648421     Delta-E=       -0.000000010004 Rises=F Damp=F
 DIIS: error= 5.95D-06 at cycle   4 NSaved=   4.
 NSaved= 4 IEnMin= 4 EnMin= -75.7343712648421     IErMin= 4 ErrMin= 5.95D-06
 ErrMax= 5.95D-06  0.00D+00 EMaxC= 1.00D-01 BMatC= 2.22D-09 BMatP= 5.84D-08
 IDIUse=1 WtCom= 1.00D+00 WtEn= 0.00D+00
 Coeff-Com: -0.101D-01 0.759D-02 0.156D+00 0.846D+00
 Coeff:     -0.101D-01 0.759D-02 0.156D+00 0.846D+00
 Gap=     0.485 Goal=   None    Shift=    0.000
 Gap=     0.319 Goal=   None    Shift=    0.000
 RMSDP=5.94D-07 MaxDP=6.46D-06 DE=-1.00D-08 OVMax= 1.20D-05

 Cycle   5  Pass 1  IDiag  1:
 Density matrix breaks symmetry, PCut= 1.00D-04
 Density matrix has no symmetry -- integrals replicated.
 E= -75.7343712654190     Delta-E=       -0.000000000577 Rises=F Damp=F
 DIIS: error= 9.83D-07 at cycle   5 NSaved=   5.
 NSaved= 5 IEnMin= 5 EnMin= -75.7343712654190     IErMin= 5 ErrMin= 9.83D-07
 ErrMax= 9.83D-07  0.00D+00 EMaxC= 1.00D-01 BMatC= 5.33D-11 BMatP= 2.22D-09
 IDIUse=1 WtCom= 1.00D+00 WtEn= 0.00D+00
 Coeff-Com:  0.196D-02-0.210D-01-0.554D-01-0.960D-01 0.117D+01
 Coeff:      0.196D-02-0.210D-01-0.554D-01-0.960D-01 0.117D+01
 Gap=     0.485 Goal=   None    Shift=    0.000
 Gap=     0.319 Goal=   None    Shift=    0.000
 RMSDP=2.58D-07 MaxDP=3.05D-06 DE=-5.77D-10 OVMax= 7.22D-06

 Cycle   6  Pass 1  IDiag  1:
 Density matrix breaks symmetry, PCut= 1.00D-04
 Density matrix has no symmetry -- integrals replicated.
 E= -75.7343712654624     Delta-E=       -0.000000000043 Rises=F Damp=F
 DIIS: error= 1.79D-07 at cycle   6 NSaved=   6.
 NSaved= 6 IEnMin= 6 EnMin= -75.7343712654624     IErMin= 6 ErrMin= 1.79D-07
 ErrMax= 1.79D-07  0.00D+00 EMaxC= 1.00D-01 BMatC= 2.01D-12 BMatP= 5.33D-11
 IDIUse=1 WtCom= 1.00D+00 WtEn= 0.00D+00
 Coeff-Com: -0.165D-03 0.450D-02 0.735D-02 0.221D-02-0.264D+00 0.125D+01
 Coeff:     -0.165D-03 0.450D-02 0.735D-02 0.221D-02-0.264D+00 0.125D+01
 Gap=     0.485 Goal=   None    Shift=    0.000
 Gap=     0.319 Goal=   None    Shift=    0.000
 RMSDP=5.18D-08 MaxDP=5.56D-07 DE=-4.34D-11 OVMax= 1.33D-06

 Cycle   7  Pass 1  IDiag  1:
 Density matrix breaks symmetry, PCut= 1.00D-04
 Density matrix has no symmetry -- integrals replicated.
 E= -75.7343712654641     Delta-E=       -0.000000000002 Rises=F Damp=F
 DIIS: error= 4.67D-08 at cycle   7 NSaved=   7.
 NSaved= 7 IEnMin= 7 EnMin= -75.7343712654641     IErMin= 7 ErrMin= 4.67D-08
 ErrMax= 4.67D-08  0.00D+00 EMaxC= 1.00D-01 BMatC= 1.79D-13 BMatP= 2.01D-12
 IDIUse=1 WtCom= 1.00D+00 WtEn= 0.00D+00
 Coeff-Com: -0.144D-04-0.102D-02-0.725D-03 0.189D-02 0.640D-01-0.580D+00
 Coeff-Com:  0.152D+01
 Coeff:     -0.144D-04-0.102D-02-0.725D-03 0.189D-02 0.640D-01-0.580D+00
 Coeff:      0.152D+01
 Gap=     0.485 Goal=   None    Shift=    0.000
 Gap=     0.319 Goal=   None    Shift=    0.000
 RMSDP=1.84D-08 MaxDP=1.71D-07 DE=-1.71D-12 OVMax= 3.93D-07

 Cycle   8  Pass 1  IDiag  1:
 Density matrix breaks symmetry, PCut= 1.00D-04
 Density matrix has no symmetry -- integrals replicated.
 E= -75.7343712654644     Delta-E=       -0.000000000000 Rises=F Damp=F
 DIIS: error= 8.97D-09 at cycle   8 NSaved=   8.
 NSaved= 8 IEnMin= 8 EnMin= -75.7343712654644     IErMin= 8 ErrMin= 8.97D-09
 ErrMax= 8.97D-09  0.00D+00 EMaxC= 1.00D-01 BMatC= 4.02D-15 BMatP= 1.79D-13
 IDIUse=1 WtCom= 1.00D+00 WtEn= 0.00D+00
 Coeff-Com:  0.791D-05-0.135D-04-0.114D-03 0.387D-03-0.994D-03 0.457D-01
 Coeff-Com: -0.268D+00 0.122D+01
 Coeff:      0.791D-05-0.135D-04-0.114D-03 0.387D-03-0.994D-03 0.457D-01
 Coeff:     -0.268D+00 0.122D+01
 Gap=     0.485 Goal=   None    Shift=    0.000
 Gap=     0.319 Goal=   None    Shift=    0.000
 RMSDP=2.69D-09 MaxDP=2.15D-08 DE=-2.56D-13 OVMax= 6.15D-08

 Density matrix breaks symmetry, PCut= 1.00D-04
 Density matrix has no symmetry -- integrals replicated.
 SCF Done:  E(UwB97XD) =  -75.7343712655     A.U. after    8 cycles
            NFock=  8  Conv=0.27D-08     -V/T= 2.0024
 <Sx>= 0.0000 <Sy>= 0.0000 <Sz>= 0.5000 <S**2>= 0.7526 S= 0.5013
 <L.S>= 0.000000000000E+00
 KE= 7.555385731339D+01 PE=-1.882080631631D+02 EE= 3.255911320888D+01
 Annihilation of the first spin contaminant:
 S**2 before annihilation     0.7526,   after     0.7500
 Leave Link  502 at Mon Jul  1 20:34:11 2019, MaxMem=  1835008000 cpu:               6.4 elap:               1.1
 (Enter /opt/g16/l508.exe)
 QCSCF skips out because SCF is already converged.
 Leave Link  508 at Mon Jul  1 20:34:11 2019, MaxMem=  1835008000 cpu:               0.0 elap:               0.0
 (Enter /opt/g16/l701.exe)
 ... and contract with generalized density number  0.
 Compute integral first derivatives.
 Density matrix is not symmetric, so symmetry will not be used here.
 R6Disp: Adding Grimme-D2 dispersion energy 1st derivatives to the gradient.
 Leave Link  701 at Mon Jul  1 20:34:11 2019, MaxMem=  1835008000 cpu:               1.1 elap:               0.2
 (Enter /opt/g16/l702.exe)
 L702 exits ... SP integral derivatives will be done elsewhere.
 Leave Link  702 at Mon Jul  1 20:34:12 2019, MaxMem=  1835008000 cpu:               0.3 elap:               0.1
 (Enter /opt/g16/l703.exe)
 Integral derivatives from FoFJK, PRISM(SPDF).
 Compute integral first derivatives, UseDBF=F ICtDFT=           0.
 Density matrix is not symmetric, so symmetry will not be used here.
 Calling FoFJK, ICntrl=      2127 FMM=F ISym2X=0 I1Cent= 0 IOpClX= 1 NMat=1 NMatS=1 NMatT=0.
 FoFJK:  IHMeth= 1 ICntrl=    2127 DoSepK=T KAlg= 0 I1Cent=           0 FoldK=F
 IRaf=         1 NMat=       1 IRICut=       1 DoRegI=T DoRafI=F ISym2E= 0 IDoP0=0 IntGTp=1.
 FoFCou: FMM=F IPFlag=           0 FMFlag=      100000 FMFlg1=         800
         NFxFlg=           0 DoJE=F BraDBF=F KetDBF=F FulRan=T
         wScrn=  0.000000 ICntrl=      2527 IOpCl=  0 I1Cent=           0 NGrid=           0
         NMat0=    1 NMatS0=      1 NMatT0=    0 NMatD0=    1 NMtDS0=    0 NMtDT0=    0
 Symmetry not used in FoFCou.
 Leave Link  703 at Mon Jul  1 20:34:13 2019, MaxMem=  1835008000 cpu:               3.8 elap:               0.6
 (Enter /opt/g16/l716.exe)
 Dipole        = 9.63484342D-11 4.07562680D-10-7.26807162D-01
 ***** Axes restored to original set *****
 -------------------------------------------------------------------
 Center     Atomic                   Forces (Hartrees/Bohr)
 Number     Number              X              Y              Z
 -------------------------------------------------------------------
      1        8           0.000002234   -0.000000000   -0.000000000
      2        1          -0.000002234    0.000000000    0.000000000
 -------------------------------------------------------------------
 Cartesian Forces:  Max     0.000002234 RMS     0.000001290
 Leave Link  716 at Mon Jul  1 20:34:13 2019, MaxMem=  1835008000 cpu:               0.3 elap:               0.3
 (Enter /opt/g16/l103.exe)

 GradGradGradGradGradGradGradGradGradGradGradGradGradGradGradGradGradGrad
 Berny optimization.
 Using GEDIIS/GDIIS optimizer.
 Red2BG is reusing G-inverse.
 Internal  Forces:  Max     0.000002234 RMS     0.000002234
 Search for a local minimum.
 Step number   3 out of a maximum of   20
 All quantities printed in internal units (Hartrees-Bohrs-Radians)
 RMS Force = .22340D-05 SwitMx=.10000D-02 MixMth= 2
 Mixed Optimization -- En-DIIS/RFO-DIIS
 Update second derivatives using D2CorX and points    2    3
 DE= -1.87D-06 DEPred=-1.66D-06 R= 1.13D+00
 TightC=F SS=  1.41D+00  RLast= 2.70D-03 DXNew= 5.0454D-01 8.0866D-03
 Trust test= 1.13D+00 RLast= 2.70D-03 DXMaxT set to 3.00D-01
 The second derivative matrix:
                          R1
           R1           0.51822
 ITU=  1  1
 Use linear search instead of GDIIS.
     Eigenvalues ---    0.51822
 RFO step:  Lambda= 0.00000000D+00 EMin= 5.18223951D-01
 Quartic linear search produced a step of -0.00161.
 Iteration  1 RMS(Cart)=  0.00000306 RMS(Int)=  0.00000000
 Iteration  2 RMS(Cart)=  0.00000000 RMS(Int)=  0.00000000
 ITry= 1 IFail=0 DXMaxC= 2.17D-06 DCOld= 1.00D+10 DXMaxT= 3.00D-01 DXLimC= 3.00D+00 Rises=F
 Variable       Old X    -DE/DX   Delta X   Delta X   Delta X     New X
                                 (Linear)    (Quad)   (Total)
    R1        1.83456  -0.00000  -0.00000   0.00000  -0.00000   1.83455
         Item               Value     Threshold  Converged?
 Maximum Force            0.000002     0.000450     YES
 RMS     Force            0.000002     0.000300     YES
 Maximum Displacement     0.000002     0.001800     YES
 RMS     Displacement     0.000003     0.001200     YES
 Predicted change in Energy=-4.815343D-12
 Optimization completed.
    -- Stationary point found.
                           ----------------------------
                           !   Optimized Parameters   !
                           ! (Angstroms and Degrees)  !
 --------------------------                            --------------------------
 ! Name  Definition              Value          Derivative Info.                !
 --------------------------------------------------------------------------------
 ! R1    R(1,2)                  0.9708         -DE/DX =    0.0                 !
 --------------------------------------------------------------------------------
 Lowest energy point so far.  Saving SCF results.
 Largest change from initial coordinates is atom    2       0.028 Angstoms.
 GradGradGradGradGradGradGradGradGradGradGradGradGradGradGradGradGradGrad

 Leave Link  103 at Mon Jul  1 20:34:14 2019, MaxMem=  1835008000 cpu:               0.0 elap:               0.0
 (Enter /opt/g16/l202.exe)
                          Input orientation:                          
 ---------------------------------------------------------------------
 Center     Atomic      Atomic             Coordinates (Angstroms)
 Number     Number       Type             X           Y           Z
 ---------------------------------------------------------------------
      1          8           0        0.926708    0.020335    0.043152
      2          1           0        1.897515    0.020335    0.043152
 ---------------------------------------------------------------------
 Stoichiometry    HO(2)
 Framework group  C*V[C*(HO)]
 Deg. of freedom     1
 Full point group                 C*V     NOp   4
 RotChk:  IX=0 Diff= 0.00D+00
 Largest Abelian subgroup         C2V     NOp   4
 Largest concise Abelian subgroup C1      NOp   1
                         Standard orientation:                         
 ---------------------------------------------------------------------
 Center     Atomic      Atomic             Coordinates (Angstroms)
 Number     Number       Type             X           Y           Z
 ---------------------------------------------------------------------
      1          8           0        0.000000    0.000000    0.107867
      2          1           0        0.000000    0.000000   -0.862939
 ---------------------------------------------------------------------
 Rotational constants (GHZ):           0.0000000         565.5924374         565.5924374
 Leave Link  202 at Mon Jul  1 20:34:14 2019, MaxMem=  1835008000 cpu:               0.0 elap:               0.1
 (Enter /opt/g16/l601.exe)
 Copying SCF densities to generalized density rwf, IOpCl= 1 IROHF=0.
 SCF density gives NOpUse=  1 NOpAll=  4.
 Marking SCF density as not fully symmetric.

 **********************************************************************

            Population analysis using the SCF Density.

 **********************************************************************

 Orbital symmetries:
 Alpha Orbitals:
       Occupied  (SG) (SG) (SG) (PI) (PI)
       Virtual   (SG) (SG) (PI) (PI) (SG) (SG) (SG) (PI) (SG) (PI)
                 (SG) (PI) (PI) (SG) (SG) (DLTA) (DLTA) (PI) (PI)
                 (SG) (PI) (PI) (SG) (SG)
 Beta  Orbitals:
       Occupied  (SG) (SG) (SG) (?A)
       Virtual   (?A) (SG) (SG) (?A) (SG) (?A) (SG) (SG) (SG) (PI)
                 (PI) (SG) (PI) (PI) (SG) (SG) (DLTA) (DLTA) (PI)
                 (PI) (SG) (PI) (PI) (SG) (SG)
 Unable to determine electronic state:  an orbital has unidentified symmetry.
 Alpha  occ. eigenvalues --  -19.32553  -1.13029  -0.57631  -0.51191  -0.44244
 Alpha virt. eigenvalues --    0.04235   0.19806   0.21735   0.22949   0.23189
 Alpha virt. eigenvalues --    0.28763   0.57685   1.02558   1.04470   1.06143
 Alpha virt. eigenvalues --    1.37212   1.38815   1.40497   2.07198   2.54131
 Alpha virt. eigenvalues --    2.81962   2.82080   3.11310   3.16622   3.84169
 Alpha virt. eigenvalues --    4.92930   4.98997   5.46843  49.87304
  Beta  occ. eigenvalues --  -19.30342  -1.05394  -0.54649  -0.41227
  Beta virt. eigenvalues --   -0.09356   0.04508   0.20571   0.23200   0.23485
  Beta virt. eigenvalues --    0.24702   0.29046   0.58366   1.05727   1.07440
  Beta virt. eigenvalues --    1.10433   1.40299   1.40454   1.40460   2.08712
  Beta virt. eigenvalues --    2.54138   2.91027   2.91947   3.18485   3.19661
  Beta virt. eigenvalues --    3.87570   5.01391   5.05058   5.49616  49.90048
          Condensed to atoms (all electrons):
               1          2
     1  O    7.986799   0.255870
     2  H    0.255870   0.501461
          Atomic-Atomic Spin Densities.
               1          2
     1  O    1.014450   0.007783
     2  H    0.007783  -0.030017
 Mulliken charges and spin densities:
               1          2
     1  O   -0.242669   1.022234
     2  H    0.242669  -0.022234
 Sum of Mulliken charges =  -0.00000   1.00000
 Mulliken charges and spin densities with hydrogens summed into heavy atoms:
               1          2
     1  O   -0.000000   1.000000
 Electronic spatial extent (au):  <R**2>=             15.6676
 Charge=             -0.0000 electrons
 Dipole moment (field-independent basis, Debye):
    X=              0.0000    Y=              0.0000    Z=             -1.8474  Tot=              1.8474
 Quadrupole moment (field-independent basis, Debye-Ang):
   XX=             -6.7879   YY=             -5.5576   ZZ=             -4.7039
   XY=              0.3025   XZ=              0.0000   YZ=              0.0000
 Traceless Quadrupole moment (field-independent basis, Debye-Ang):
   XX=             -1.1048   YY=              0.1255   ZZ=              0.9792
   XY=              0.3025   XZ=              0.0000   YZ=              0.0000
 Octapole moment (field-independent basis, Debye-Ang**2):
  XXX=              0.0000  YYY=              0.0000  ZZZ=             -2.0741  XYY=              0.0000
  XXY=              0.0000  XXZ=             -0.3667  XZZ=              0.0000  YZZ=              0.0000
  YYZ=             -0.2565  XYZ=              0.0271
 Hexadecapole moment (field-independent basis, Debye-Ang**3):
 XXXX=             -6.1367 YYYY=             -4.1086 ZZZZ=             -5.7696 XXXY=              0.2493
 XXXZ=              0.0000 YYYX=              0.2493 YYYZ=              0.0000 ZZZX=              0.0000
 ZZZY=              0.0000 XXYY=             -1.7075 XXZZ=             -2.2368 YYZZ=             -1.8761
 XXYZ=              0.0000 YYXZ=              0.0000 ZZXY=              0.0887
 N-N= 4.360721375358D+00 E-N=-1.882080630916D+02  KE= 7.555385731339D+01
 Symmetry A1   KE= 6.828066850161D+01
 Symmetry A2   KE= 1.947711852417D-04
 Symmetry B1   KE= 4.627520601558D+00
 Symmetry B2   KE= 2.645473439039D+00
 Symmetry A1   SP=-2.627715932520D-05
 Symmetry A2   SP= 2.627715932914D-05
 Symmetry B1   SP= 5.130741819802D-02
 Symmetry B2   SP= 9.486925818020D-01
                          Isotropic Fermi Contact Couplings
        Atom                 a.u.       MegaHertz       Gauss      10(-4) cm-1
     1  O(17)              0.09800     -59.40769     -21.19814     -19.81627
     2  H(1)              -0.01500     -67.03520     -23.91982     -22.36053
 --------------------------------------------------------
       Center         ----  Spin Dipole Couplings  ----
                      3XX-RR        3YY-RR        3ZZ-RR
 --------------------------------------------------------
     1   Atom       -1.621773      3.524223     -1.902450
     2   Atom       -0.129403     -0.045913      0.175317
 --------------------------------------------------------
                        XY            XZ            YZ
 --------------------------------------------------------
     1   Atom        1.265154      0.000000      0.000000
     2   Atom        0.020526     -0.000000     -0.000000
 --------------------------------------------------------


 ---------------------------------------------------------------------------------
              Anisotropic Spin Dipole Couplings in Principal Axis System
 ---------------------------------------------------------------------------------

       Atom             a.u.   MegaHertz   Gauss  10(-4) cm-1        Axes

              Baa    -1.9160   138.640    49.470    46.245  0.9740 -0.2265  0.0000
     1 O(17)  Bbb    -1.9024   137.660    49.120    45.918 -0.0000 -0.0000  1.0000
              Bcc     3.8184  -276.300   -98.591   -92.164  0.2265  0.9740  0.0000
 
              Baa    -0.1342   -71.590   -25.545   -23.880  0.9740 -0.2265  0.0000
     2 H(1)   Bbb    -0.0411   -21.950    -7.832    -7.322  0.2265  0.9740  0.0000
              Bcc     0.1753    93.541    33.378    31.202 -0.0000 -0.0000  1.0000
 

 ---------------------------------------------------------------------------------

 No NMR shielding tensors so no spin-rotation constants.
 Leave Link  601 at Mon Jul  1 20:34:15 2019, MaxMem=  1835008000 cpu:               1.7 elap:               0.3
 (Enter /opt/g16/l9999.exe)

 Test job not archived.
 1\1\GINC-NODE36\FOpt\UwB97XD\6-311++G(d,p)\H1O1(2)\ALONGD\01-Jul-2019\
 0\\#P opt guess=read uwb97xd/6-311++g(d,p) scf=xqc iop(2/9=2000)\\name
 \\0,2\O,0.9267081744,0.02033451,0.04315222\H,1.8975147756,0.02033451,0
 .04315222\\Version=EM64L-G16RevB.01\HF=-75.7343713\S2=0.752582\S2-1=0.
 \S2A=0.750005\RMSD=2.695e-09\RMSF=1.290e-06\Dipole=0.7268072,0.,0.\Qua
 drupole=0.7280343,0.0933377,-0.821372,0.,0.,0.2248833\PG=C*V [C*(H1O1)
 ]\\@


 WE ARE REACHING THE STAGE WHERE THE PROBLEMS WE MUST SOLVE ARE 
 GOING TO BECOME INSOLUBLE WITHOUT COMPUTERS.
 I DO NOT FEAR COMPUTERS.  I FEAR THE LACK OF THEM.

                                   -- ISSAC ASIMOV
 Job cpu time:       0 days  0 hours  5 minutes 28.4 seconds.
 Elapsed time:       0 days  0 hours  0 minutes 57.0 seconds.
 File lengths (MBytes):  RWF=      6 Int=      0 D2E=      0 Chk=      1 Scr=      1
 Normal termination of Gaussian 16 at Mon Jul  1 20:34:15 2019.
