 Entering Gaussian System, Link 0=/Local/ce_dana/g09/g09
 Initial command:
 /Local/ce_dana/g09/l1.exe "/storage/ce_dana/ronnp/scratch/g09/atsqE4/Gau-3323138.inp" -scrdir="/storage/ce_dana/ronnp/scratch/g09/atsqE4/"
 Entering Link 1 = /Local/ce_dana/g09/l1.exe PID=   3323139.
  
 Copyright (c) 1988,1990,1992,1993,1995,1998,2003,2009,2013,
            Gaussian, Inc.  All Rights Reserved.
  
 This is part of the Gaussian(R) 09 program.  It is based on
 the Gaussian(R) 03 system (copyright 2003, Gaussian, Inc.),
 the Gaussian(R) 98 system (copyright 1998, Gaussian, Inc.),
 the Gaussian(R) 94 system (copyright 1995, Gaussian, Inc.),
 the Gaussian 92(TM) system (copyright 1992, Gaussian, Inc.),
 the Gaussian 90(TM) system (copyright 1990, Gaussian, Inc.),
 the Gaussian 88(TM) system (copyright 1988, Gaussian, Inc.),
 the Gaussian 86(TM) system (copyright 1986, Carnegie Mellon
 University), and the Gaussian 82(TM) system (copyright 1983,
 Carnegie Mellon University). Gaussian is a federally registered
 trademark of Gaussian, Inc.
  
 This software contains proprietary and confidential information,
 including trade secrets, belonging to Gaussian, Inc.
  
 This software is provided under written license and may be
 used, copied, transmitted, or stored only in accord with that
 written license.
  
 The following legend is applicable only to US Government
 contracts under FAR:
  
                    RESTRICTED RIGHTS LEGEND
  
 Use, reproduction and disclosure by the US Government is
 subject to restrictions as set forth in subparagraphs (a)
 and (c) of the Commercial Computer Software - Restricted
 Rights clause in FAR 52.227-19.
  
 Gaussian, Inc.
 340 Quinnipiac St., Bldg. 40, Wallingford CT 06492
  
  
 ---------------------------------------------------------------
 Warning -- This program may not be used in any manner that
 competes with the business of Gaussian, Inc. or will provide
 assistance to any competitor of Gaussian, Inc.  The licensee
 of this program is prohibited from giving any competitor of
 Gaussian, Inc. access to this program.  By using this program,
 the user acknowledges that Gaussian, Inc. is engaged in the
 business of creating and licensing software in the field of
 computational chemistry and represents and warrants to the
 licensee that it is not a competitor of Gaussian, Inc. and that
 it will not use this program in any manner prohibited above.
 ---------------------------------------------------------------
  

 Cite this work as:
 Gaussian 09, Revision D.01,
 M. J. Frisch, G. W. Trucks, H. B. Schlegel, G. E. Scuseria, 
 M. A. Robb, J. R. Cheeseman, G. Scalmani, V. Barone, B. Mennucci, 
 G. A. Petersson, H. Nakatsuji, M. Caricato, X. Li, H. P. Hratchian, 
 A. F. Izmaylov, J. Bloino, G. Zheng, J. L. Sonnenberg, M. Hada, 
 M. Ehara, K. Toyota, R. Fukuda, J. Hasegawa, M. Ishida, T. Nakajima, 
 Y. Honda, O. Kitao, H. Nakai, T. Vreven, J. A. Montgomery, Jr., 
 J. E. Peralta, F. Ogliaro, M. Bearpark, J. J. Heyd, E. Brothers, 
 K. N. Kudin, V. N. Staroverov, T. Keith, R. Kobayashi, J. Normand, 
 K. Raghavachari, A. Rendell, J. C. Burant, S. S. Iyengar, J. Tomasi, 
 M. Cossi, N. Rega, J. M. Millam, M. Klene, J. E. Knox, J. B. Cross, 
 V. Bakken, C. Adamo, J. Jaramillo, R. Gomperts, R. E. Stratmann, 
 O. Yazyev, A. J. Austin, R. Cammi, C. Pomelli, J. W. Ochterski, 
 R. L. Martin, K. Morokuma, V. G. Zakrzewski, G. A. Voth, 
 P. Salvador, J. J. Dannenberg, S. Dapprich, A. D. Daniels, 
 O. Farkas, J. B. Foresman, J. V. Ortiz, J. Cioslowski, 
 and D. J. Fox, Gaussian, Inc., Wallingford CT, 2013.
 
 ******************************************
 Gaussian 09:  ES64L-G09RevD.01 24-Apr-2013
                 8-Aug-2024 
 ******************************************
 %mem=7168mb
 %NProcShared=10
 Will use up to   10 processors via shared memory.
 ----------------------------------------------------------------------
 #P irc=(CalcAll, maxpoints=50, stepsize=7) guess=mix wb97xd/6-311++g(3
 df,3pd) IOp(2/9=2000)
 ----------------------------------------------------------------------
 1/10=4,14=-1,18=10,26=3,38=1,39=7,42=50,44=3,71=1/1,23;
 2/9=2000,12=2,17=6,18=5,29=1,40=1/2;
 3/5=4,6=6,7=1616,11=2,16=1,25=1,30=1,71=2,74=-58,140=1/1,2,3;
 4/13=-1/1;
 5/5=2,38=5/2;
 8/6=4,10=90,11=11/1;
 11/6=1,8=1,9=11,15=111,16=1/1,2,10;
 10/6=1,13=1/2;
 6/7=2,8=2,9=2,10=2,18=1,28=1/1;
 7/10=1,25=1/1,2,3,16;
 1/10=4,14=-1,18=10,26=3,39=7,42=50,44=3,71=1/23(2);
 2/9=2000,29=1/2;
 99/5=20/99;
 2/9=2000,29=1/2;
 3/5=4,6=6,7=1616,11=2,16=1,25=1,30=1,71=2,74=-58,140=1/1,2,3;
 4/5=5,16=3,69=1/1;
 5/5=2,38=5/2;
 8/6=4,10=90,11=11/1;
 11/6=1,8=1,9=11,15=111,16=1/1,2,10;
 10/6=1,13=1/2;
 7/10=1,25=1/1,2,3,16;
 1/10=4,14=-1,18=10,26=3,39=7,42=50,44=3,71=1/23(-8);
 2/9=2000,29=1/2;
 6/7=2,8=2,9=2,10=2,18=1,19=2,28=1/1;
 99/5=20/99;
 Leave Link    1 at Thu Aug  8 17:40:34 2024, MaxMem=   939524096 cpu:         0.0
 (Enter /Local/ce_dana/g09/l101.exe)
 ---
 TS1
 ---
 Symbolic Z-matrix:
 Charge =  0 Multiplicity = 1
 C                     1.34836  -0.55517   0.04233 
 H                     1.59171  -1.01487   1.00012 
 H                     1.80406  -1.00486  -0.84064 
 N                     1.1507    0.80107   0.07511 
 H                     1.31623   1.25508  -0.83247 
 H                    -0.08687   1.01309   0.23597 
 C                    -1.35593   0.51789   0.04205 
 H                    -1.71582   1.03105  -0.85399 
 H                    -1.79152   0.83999   0.9933 
 O                    -1.14494  -0.81045  -0.08213 
 H                     0.03231  -1.01965  -0.0773 
 
 NAtoms=     11 NQM=       11 NQMF=       0 NMMI=      0 NMMIF=      0
                NMic=       0 NMicF=      0.
                    Isotopes and Nuclear Properties:
 (Nuclear quadrupole moments (NQMom) in fm**2, nuclear magnetic moments (NMagM)
  in nuclear magnetons)

  Atom         1           2           3           4           5           6           7           8           9          10
 IAtWgt=          12           1           1          14           1           1          12           1           1          16
 AtmWgt=  12.0000000   1.0078250   1.0078250  14.0030740   1.0078250   1.0078250  12.0000000   1.0078250   1.0078250  15.9949146
 NucSpn=           0           1           1           2           1           1           0           1           1           0
 AtZEff=   0.0000000   0.0000000   0.0000000   0.0000000   0.0000000   0.0000000   0.0000000   0.0000000   0.0000000   0.0000000
 NQMom=    0.0000000   0.0000000   0.0000000   2.0440000   0.0000000   0.0000000   0.0000000   0.0000000   0.0000000   0.0000000
 NMagM=    0.0000000   2.7928460   2.7928460   0.4037610   2.7928460   2.7928460   0.0000000   2.7928460   2.7928460   0.0000000
 AtZNuc=   6.0000000   1.0000000   1.0000000   7.0000000   1.0000000   1.0000000   6.0000000   1.0000000   1.0000000   8.0000000

  Atom        11
 IAtWgt=           1
 AtmWgt=   1.0078250
 NucSpn=           1
 AtZEff=   0.0000000
 NQMom=    0.0000000
 NMagM=    2.7928460
 AtZNuc=   1.0000000
 Leave Link  101 at Thu Aug  8 17:40:34 2024, MaxMem=   939524096 cpu:         0.1
 (Enter /Local/ce_dana/g09/l123.exe)
 IRC-IRC-IRC-IRC-IRC-IRC-IRC-IRC-IRC-IRC-IRC-IRC-IRC-IRC-IRC-IRC-IRC-IRC
 ------------------------------------------------------------------------
 INPUT DATA FOR L123
 ------------------------------------------------------------------------
 GENERAL PARAMETERS:
 Follow reaction path in both directions.
 Maximum points per path      =  50
 Step size                    =   0.070 bohr
 Integration scheme           = HPC                                 
    Redo corrector integration= Yes                                 
    DWI Weight Power          =  2
    DWI will use Hessian update vectors when possible.
    Max correction cycles     =  20
 Initial Hessian              = CalcFC
 Hessian evaluation           = Analytic at all predictor steps
                              = Update at all corrector steps
 Hessian updating method      = Bofill                              
 ------------------------------------------------------------------------
 IRC-IRC-IRC-IRC-IRC-IRC-IRC-IRC-IRC-IRC-IRC-IRC-IRC-IRC-IRC-IRC-IRC-IRC
 Leave Link  123 at Thu Aug  8 17:40:34 2024, MaxMem=   939524096 cpu:         0.0
 (Enter /Local/ce_dana/g09/l202.exe)
                          Input orientation:                          
 ---------------------------------------------------------------------
 Center     Atomic      Atomic             Coordinates (Angstroms)
 Number     Number       Type             X           Y           Z
 ---------------------------------------------------------------------
      1          6           0        1.348355   -0.555174    0.042330
      2          1           0        1.591706   -1.014866    1.000122
      3          1           0        1.804059   -1.004862   -0.840635
      4          7           0        1.150700    0.801069    0.075108
      5          1           0        1.316225    1.255077   -0.832474
      6          1           0       -0.086866    1.013087    0.235973
      7          6           0       -1.355930    0.517892    0.042053
      8          1           0       -1.715815    1.031049   -0.853985
      9          1           0       -1.791520    0.839986    0.993300
     10          8           0       -1.144944   -0.810451   -0.082132
     11          1           0        0.032310   -1.019646   -0.077297
 ---------------------------------------------------------------------
                    Distance matrix (angstroms):
                    1          2          3          4          5
     1  C    0.000000
     2  H    1.089909   0.000000
     3  H    1.090648   1.852992   0.000000
     4  N    1.370962   2.085128   2.127640   0.000000
     5  H    2.010802   2.930348   2.312006   1.028215   0.000000
     6  H    2.134666   2.741190   2.967625   1.265859   1.780113
     7  C    2.909403   3.457716   3.617105   2.522791   2.906656
     8  H    3.564915   4.308500   4.066279   3.022087   3.040381
     9  H    3.565057   3.858334   4.437902   3.082410   3.628199
    10  O    2.509422   2.949968   3.051187   2.809217   3.299511
    11  H    1.400721   1.895408   1.929248   2.142201   2.719025
                    6          7          8          9         10
     6  H    0.000000
     7  C    1.375989   0.000000
     8  H    1.960053   1.093495   0.000000
     9  H    1.873327   1.094694   1.858682   0.000000
    10  O    2.132138   1.350715   2.076722   2.073296   0.000000
    11  H    2.060181   2.074965   2.804378   2.816161   1.195706
                   11
    11  H    0.000000
 Symmetry turned off by external request.
 Stoichiometry    C2H7NO
 Framework group  C1[X(C2H7NO)]
 Deg. of freedom    27
 Full point group                 C1      NOp   1
 Rotational constants (GHZ):     13.3333050      4.9556120      3.8548941
 Leave Link  202 at Thu Aug  8 17:40:34 2024, MaxMem=   939524096 cpu:         0.0
 (Enter /Local/ce_dana/g09/l301.exe)
 Standard basis: 6-311++G(3df,3pd) (5D, 7F)
 Ernie: Thresh=  0.10000D-02 Tol=  0.10000D-05 Strict=F.
   282 basis functions,   379 primitive gaussians,   313 cartesian basis functions
    17 alpha electrons       17 beta electrons
       nuclear repulsion energy       128.8408099003 Hartrees.
 IExCor= 4639 DFT=T Ex+Corr=wB97XD ExCW=0 ScaHFX=  1.000000
 ScaDFX=  1.000000  1.000000  1.000000  1.000000 ScalE2=  1.000000  1.000000
 IRadAn=      0 IRanWt=     -1 IRanGd=            0 ICorTp=0 IEmpDi=121
  HFx wShort=  0.000000 wLong=  0.200000 cFull=  0.222036 cShort=  0.000000 cLong=  0.777964
  DFx wShort=  0.000000 wLong=  0.200000 cFull=  0.000000 cShort=  0.000000 cLong=  1.000000
 NAtoms=   11 NActive=   11 NUniq=   11 SFac= 1.00D+00 NAtFMM=   60 NAOKFM=F Big=F
 Integral buffers will be    131072 words long.
 Raffenetti 2 integral format.
 Two-electron integral symmetry is turned off.
 R6Disp:  Grimme-D2 Dispersion energy=       -0.0037708592 Hartrees.
 Nuclear repulsion after empirical dispersion term =      128.8370390411 Hartrees.
 Leave Link  301 at Thu Aug  8 17:40:34 2024, MaxMem=   939524096 cpu:         0.0
 (Enter /Local/ce_dana/g09/l302.exe)
 NPDir=0 NMtPBC=     1 NCelOv=     1 NCel=       1 NClECP=     1 NCelD=      1
         NCelK=      1 NCelE2=     1 NClLst=     1 CellRange=     0.0.
 One-electron integrals computed using PRISM.
 NBasis=   282 RedAO= T EigKep=  1.24D-04  NBF=   282
 NBsUse=   282 1.00D-06 EigRej= -1.00D+00 NBFU=   282
 Precomputing XC quadrature grid using
 IXCGrd= 4 IRadAn=           0 IRanWt=          -1 IRanGd=           0 AccXCQ= 0.00D+00.
 Generated NRdTot=       0 NPtTot=           0 NUsed=           0 NTot=          32
 NSgBfM=   313   313   313   313   313 MxSgAt=    11 MxSgA2=    11.
 Leave Link  302 at Thu Aug  8 17:40:34 2024, MaxMem=   939524096 cpu:         2.2
 (Enter /Local/ce_dana/g09/l303.exe)
 DipDrv:  MaxL=1.
 Leave Link  303 at Thu Aug  8 17:40:35 2024, MaxMem=   939524096 cpu:         0.1
 (Enter /Local/ce_dana/g09/l401.exe)
 ExpMin= 3.60D-02 ExpMax= 8.59D+03 ExpMxC= 1.30D+03 IAcc=3 IRadAn=         5 AccDes= 0.00D+00
 Harris functional with IExCor= 4639 and IRadAn=       5 diagonalized for initial guess.
 HarFok:  IExCor= 4639 AccDes= 0.00D+00 IRadAn=         5 IDoV= 1 UseB2=F ITyADJ=14
 ICtDFT=  3500011 ScaDFX=  1.000000  1.000000  1.000000  1.000000
 FoFCou: FMM=F IPFlag=           0 FMFlag=      100000 FMFlg1=           0
         NFxFlg=           0 DoJE=T BraDBF=F KetDBF=T FulRan=T
         wScrn=  0.000000 ICntrl=     500 IOpCl=  0 I1Cent=   200000004 NGrid=           0
         NMat0=    1 NMatS0=      1 NMatT0=    0 NMatD0=    1 NMtDS0=    0 NMtDT0=    0
 Symmetry not used in FoFCou.
 Harris En= -201.397205563972    
 JPrj=0 DoOrth=F DoCkMO=T.
 Mixing orbitals, IMix= 1 IMixAn=  0 NRI=1 NE=   17 Coef=  7.07106781D-01  7.07106781D-01
 Leave Link  401 at Thu Aug  8 17:40:36 2024, MaxMem=   939524096 cpu:        16.4
 (Enter /Local/ce_dana/g09/l502.exe)
 Closed shell SCF:
 Using DIIS extrapolation, IDIIS=  1040.
 Two-electron integral symmetry not used.
 IVT=      317487 IEndB=      317487 NGot=   939524096 MDV=   939321532
 LenX=   939321532 LenY=   939223122
 Requested convergence on RMS density matrix=1.00D-08 within 128 cycles.
 Requested convergence on MAX density matrix=1.00D-06.
 Requested convergence on             energy=1.00D-06.
 No special actions if energy rises.
 Fock matrices will be formed incrementally for  20 cycles.

 Cycle   1  Pass 1  IDiag  1:
 FoFJK:  IHMeth= 1 ICntrl=       0 DoSepK=T KAlg= 0 I1Cent=   0 FoldK=F
 IRaf=         1 NMat=   1 IRICut=       1 DoRegI=T DoRafI=F ISym2E= 0.
 FoFCou: FMM=F IPFlag=           0 FMFlag=      100000 FMFlg1=           0
         NFxFlg=           0 DoJE=T BraDBF=F KetDBF=F FulRan=T
         wScrn=  0.000000 ICntrl=     500 IOpCl=  0 I1Cent=           0 NGrid=           0
         NMat0=    1 NMatS0=      1 NMatT0=    0 NMatD0=    1 NMtDS0=    0 NMtDT0=    0
 Symmetry not used in FoFCou.
 E= -210.019661799075    
 DIIS: error= 6.76D-02 at cycle   1 NSaved=   1.
 NSaved= 1 IEnMin= 1 EnMin= -210.019661799075     IErMin= 1 ErrMin= 6.76D-02
 ErrMax= 6.76D-02  0.00D+00 EMaxC= 1.00D-01 BMatC= 5.02D-01 BMatP= 5.02D-01
 IDIUse=3 WtCom= 3.24D-01 WtEn= 6.76D-01
 Coeff-Com:  0.100D+01
 Coeff-En:   0.100D+01
 Coeff:      0.100D+01
 Gap=     0.075 Goal=   None    Shift=    0.000
 GapD=    0.075 DampG=0.500 DampE=0.500 DampFc=0.2500 IDamp=-1.
 Damping current iteration by 2.50D-01
 RMSDP=3.75D-03 MaxDP=1.38D-01              OVMax= 5.44D-01

 Cycle   2  Pass 1  IDiag  1:
 RMSU=  8.36D-04    CP:  9.51D-01
 E= -210.078298235097     Delta-E=       -0.058636436021 Rises=F Damp=T
 DIIS: error= 4.87D-02 at cycle   2 NSaved=   2.
 NSaved= 2 IEnMin= 2 EnMin= -210.078298235097     IErMin= 2 ErrMin= 4.87D-02
 ErrMax= 4.87D-02  0.00D+00 EMaxC= 1.00D-01 BMatC= 2.40D-01 BMatP= 5.02D-01
 IDIUse=3 WtCom= 5.13D-01 WtEn= 4.87D-01
 Coeff-Com: -0.166D+01 0.266D+01
 Coeff-En:   0.000D+00 0.100D+01
 Coeff:     -0.853D+00 0.185D+01
 Gap=     0.256 Goal=   None    Shift=    0.000
 RMSDP=2.74D-03 MaxDP=8.79D-02 DE=-5.86D-02 OVMax= 1.16D-01

 Cycle   3  Pass 1  IDiag  1:
 RMSU=  1.10D-03    CP:  8.05D-01  3.00D+00
 E= -210.268844757288     Delta-E=       -0.190546522192 Rises=F Damp=F
 DIIS: error= 4.33D-03 at cycle   3 NSaved=   3.
 NSaved= 3 IEnMin= 3 EnMin= -210.268844757288     IErMin= 3 ErrMin= 4.33D-03
 ErrMax= 4.33D-03  0.00D+00 EMaxC= 1.00D-01 BMatC= 3.57D-03 BMatP= 2.40D-01
 IDIUse=3 WtCom= 9.57D-01 WtEn= 4.33D-02
 Coeff-Com: -0.157D+00 0.240D+00 0.917D+00
 Coeff-En:   0.000D+00 0.000D+00 0.100D+01
 Coeff:     -0.150D+00 0.230D+00 0.920D+00
 Gap=     0.299 Goal=   None    Shift=    0.000
 RMSDP=5.92D-04 MaxDP=2.11D-02 DE=-1.91D-01 OVMax= 1.13D-01

 Cycle   4  Pass 1  IDiag  1:
 RMSU=  4.86D-04    CP:  7.82D-01  3.00D+00  1.25D+00
 E= -210.284211424886     Delta-E=       -0.015366667597 Rises=F Damp=F
 DIIS: error= 2.42D-03 at cycle   4 NSaved=   4.
 NSaved= 4 IEnMin= 4 EnMin= -210.284211424886     IErMin= 4 ErrMin= 2.42D-03
 ErrMax= 2.42D-03  0.00D+00 EMaxC= 1.00D-01 BMatC= 2.19D-03 BMatP= 3.57D-03
 IDIUse=3 WtCom= 9.76D-01 WtEn= 2.42D-02
 Coeff-Com:  0.116D+00-0.154D+00 0.285D+00 0.754D+00
 Coeff-En:   0.000D+00 0.000D+00 0.000D+00 0.100D+01
 Coeff:      0.113D+00-0.151D+00 0.278D+00 0.760D+00
 Gap=     0.320 Goal=   None    Shift=    0.000
 RMSDP=2.52D-04 MaxDP=9.53D-03 DE=-1.54D-02 OVMax= 3.82D-02

 Cycle   5  Pass 1  IDiag  1:
 RMSU=  1.59D-04    CP:  7.77D-01  3.00D+00  1.37D+00  1.30D+00
 E= -210.288821603787     Delta-E=       -0.004610178902 Rises=F Damp=F
 DIIS: error= 1.52D-03 at cycle   5 NSaved=   5.
 NSaved= 5 IEnMin= 5 EnMin= -210.288821603787     IErMin= 5 ErrMin= 1.52D-03
 ErrMax= 1.52D-03  0.00D+00 EMaxC= 1.00D-01 BMatC= 8.14D-04 BMatP= 2.19D-03
 IDIUse=3 WtCom= 9.85D-01 WtEn= 1.52D-02
 Coeff-Com:  0.188D+00-0.261D+00-0.194D+00 0.414D+00 0.853D+00
 Coeff-En:   0.000D+00 0.000D+00 0.000D+00 0.000D+00 0.100D+01
 Coeff:      0.185D+00-0.257D+00-0.191D+00 0.408D+00 0.856D+00
 Gap=     0.327 Goal=   None    Shift=    0.000
 RMSDP=2.55D-04 MaxDP=1.69D-02 DE=-4.61D-03 OVMax= 3.69D-02

 Cycle   6  Pass 1  IDiag  1:
 RMSU=  1.05D-04    CP:  7.72D-01  3.00D+00  1.46D+00  1.69D+00  1.46D+00
 E= -210.291377865582     Delta-E=       -0.002556261794 Rises=F Damp=F
 DIIS: error= 5.26D-04 at cycle   6 NSaved=   6.
 NSaved= 6 IEnMin= 6 EnMin= -210.291377865582     IErMin= 6 ErrMin= 5.26D-04
 ErrMax= 5.26D-04  0.00D+00 EMaxC= 1.00D-01 BMatC= 1.07D-04 BMatP= 8.14D-04
 IDIUse=3 WtCom= 9.95D-01 WtEn= 5.26D-03
 Coeff-Com:  0.464D-01-0.637D-01-0.954D-01-0.512D-01 0.261D+00 0.902D+00
 Coeff-En:   0.000D+00 0.000D+00 0.000D+00 0.000D+00 0.000D+00 0.100D+01
 Coeff:      0.462D-01-0.633D-01-0.949D-01-0.509D-01 0.260D+00 0.903D+00
 Gap=     0.327 Goal=   None    Shift=    0.000
 RMSDP=1.08D-04 MaxDP=6.45D-03 DE=-2.56D-03 OVMax= 1.92D-02

 Cycle   7  Pass 1  IDiag  1:
 RMSU=  3.93D-05    CP:  7.71D-01  3.00D+00  1.48D+00  1.84D+00  1.79D+00
                    CP:  1.28D+00
 E= -210.291754236634     Delta-E=       -0.000376371052 Rises=F Damp=F
 DIIS: error= 2.64D-04 at cycle   7 NSaved=   7.
 NSaved= 7 IEnMin= 7 EnMin= -210.291754236634     IErMin= 7 ErrMin= 2.64D-04
 ErrMax= 2.64D-04  0.00D+00 EMaxC= 1.00D-01 BMatC= 3.00D-05 BMatP= 1.07D-04
 IDIUse=3 WtCom= 9.97D-01 WtEn= 2.64D-03
 Coeff-Com: -0.143D-01 0.197D-01-0.596D-02-0.113D+00-0.481D-01 0.433D+00
 Coeff-Com:  0.728D+00
 Coeff-En:   0.000D+00 0.000D+00 0.000D+00 0.000D+00 0.000D+00 0.000D+00
 Coeff-En:   0.100D+01
 Coeff:     -0.142D-01 0.197D-01-0.594D-02-0.113D+00-0.480D-01 0.432D+00
 Coeff:      0.729D+00
 Gap=     0.325 Goal=   None    Shift=    0.000
 RMSDP=3.88D-05 MaxDP=1.83D-03 DE=-3.76D-04 OVMax= 4.83D-03

 Cycle   8  Pass 1  IDiag  1:
 RMSU=  1.54D-05    CP:  7.70D-01  3.00D+00  1.49D+00  1.89D+00  1.91D+00
                    CP:  1.47D+00  1.09D+00
 E= -210.291805930713     Delta-E=       -0.000051694080 Rises=F Damp=F
 DIIS: error= 6.58D-05 at cycle   8 NSaved=   8.
 NSaved= 8 IEnMin= 8 EnMin= -210.291805930713     IErMin= 8 ErrMin= 6.58D-05
 ErrMax= 6.58D-05  0.00D+00 EMaxC= 1.00D-01 BMatC= 2.08D-06 BMatP= 3.00D-05
 IDIUse=1 WtCom= 1.00D+00 WtEn= 0.00D+00
 Coeff-Com: -0.399D-02 0.539D-02 0.543D-02-0.142D-01-0.295D-01 0.198D-01
 Coeff-Com:  0.222D+00 0.795D+00
 Coeff:     -0.399D-02 0.539D-02 0.543D-02-0.142D-01-0.295D-01 0.198D-01
 Coeff:      0.222D+00 0.795D+00
 Gap=     0.325 Goal=   None    Shift=    0.000
 RMSDP=7.69D-06 MaxDP=2.87D-04 DE=-5.17D-05 OVMax= 8.94D-04

 Cycle   9  Pass 1  IDiag  1:
 RMSU=  4.79D-06    CP:  7.70D-01  3.00D+00  1.49D+00  1.89D+00  1.91D+00
                    CP:  1.49D+00  1.22D+00  1.12D+00
 E= -210.291808589626     Delta-E=       -0.000002658912 Rises=F Damp=F
 DIIS: error= 3.50D-05 at cycle   9 NSaved=   9.
 NSaved= 9 IEnMin= 9 EnMin= -210.291808589626     IErMin= 9 ErrMin= 3.50D-05
 ErrMax= 3.50D-05  0.00D+00 EMaxC= 1.00D-01 BMatC= 2.61D-07 BMatP= 2.08D-06
 IDIUse=1 WtCom= 1.00D+00 WtEn= 0.00D+00
 Coeff-Com:  0.558D-03-0.702D-03 0.257D-02 0.964D-02-0.689D-02-0.490D-01
 Coeff-Com: -0.281D-01 0.240D+00 0.832D+00
 Coeff:      0.558D-03-0.702D-03 0.257D-02 0.964D-02-0.689D-02-0.490D-01
 Coeff:     -0.281D-01 0.240D+00 0.832D+00
 Gap=     0.325 Goal=   None    Shift=    0.000
 RMSDP=3.71D-06 MaxDP=1.13D-04 DE=-2.66D-06 OVMax= 5.30D-04

 Cycle  10  Pass 1  IDiag  1:
 RMSU=  1.93D-06    CP:  7.70D-01  3.00D+00  1.49D+00  1.89D+00  1.92D+00
                    CP:  1.50D+00  1.27D+00  1.24D+00  1.08D+00
 E= -210.291809088989     Delta-E=       -0.000000499363 Rises=F Damp=F
 DIIS: error= 8.57D-06 at cycle  10 NSaved=  10.
 NSaved=10 IEnMin=10 EnMin= -210.291809088989     IErMin=10 ErrMin= 8.57D-06
 ErrMax= 8.57D-06  0.00D+00 EMaxC= 1.00D-01 BMatC= 1.60D-08 BMatP= 2.61D-07
 IDIUse=1 WtCom= 1.00D+00 WtEn= 0.00D+00
 Coeff-Com:  0.288D-03-0.403D-03-0.312D-03 0.985D-03-0.383D-04 0.137D-02
 Coeff-Com: -0.154D-01-0.449D-01 0.539D-01 0.100D+01
 Coeff:      0.288D-03-0.403D-03-0.312D-03 0.985D-03-0.383D-04 0.137D-02
 Coeff:     -0.154D-01-0.449D-01 0.539D-01 0.100D+01
 Gap=     0.325 Goal=   None    Shift=    0.000
 RMSDP=1.20D-06 MaxDP=6.79D-05 DE=-4.99D-07 OVMax= 2.18D-04

 Cycle  11  Pass 1  IDiag  1:
 RMSU=  5.91D-07    CP:  7.70D-01  3.00D+00  1.49D+00  1.89D+00  1.92D+00
                    CP:  1.50D+00  1.27D+00  1.28D+00  1.21D+00  1.34D+00
 E= -210.291809145768     Delta-E=       -0.000000056780 Rises=F Damp=F
 DIIS: error= 4.14D-06 at cycle  11 NSaved=  11.
 NSaved=11 IEnMin=11 EnMin= -210.291809145768     IErMin=11 ErrMin= 4.14D-06
 ErrMax= 4.14D-06  0.00D+00 EMaxC= 1.00D-01 BMatC= 2.43D-09 BMatP= 1.60D-08
 IDIUse=1 WtCom= 1.00D+00 WtEn= 0.00D+00
 Coeff-Com: -0.162D-03 0.214D-03-0.513D-03-0.143D-02 0.111D-02 0.875D-02
 Coeff-Com:  0.221D-02-0.484D-01-0.127D+00 0.118D+00 0.105D+01
 Coeff:     -0.162D-03 0.214D-03-0.513D-03-0.143D-02 0.111D-02 0.875D-02
 Coeff:      0.221D-02-0.484D-01-0.127D+00 0.118D+00 0.105D+01
 Gap=     0.325 Goal=   None    Shift=    0.000
 RMSDP=6.05D-07 MaxDP=3.65D-05 DE=-5.68D-08 OVMax= 1.12D-04

 Cycle  12  Pass 1  IDiag  1:
 RMSU=  2.22D-07    CP:  7.70D-01  3.00D+00  1.49D+00  1.89D+00  1.91D+00
                    CP:  1.50D+00  1.27D+00  1.29D+00  1.26D+00  1.52D+00
                    CP:  1.39D+00
 E= -210.291809158196     Delta-E=       -0.000000012428 Rises=F Damp=F
 DIIS: error= 1.33D-06 at cycle  12 NSaved=  12.
 NSaved=12 IEnMin=12 EnMin= -210.291809158196     IErMin=12 ErrMin= 1.33D-06
 ErrMax= 1.33D-06  0.00D+00 EMaxC= 1.00D-01 BMatC= 2.97D-10 BMatP= 2.43D-09
 IDIUse=1 WtCom= 1.00D+00 WtEn= 0.00D+00
 Coeff-Com: -0.630D-04 0.847D-04 0.630D-04 0.219D-03-0.109D-03-0.149D-02
 Coeff-Com:  0.111D-02 0.720D-02 0.103D-01-0.951D-01-0.153D+00 0.123D+01
 Coeff:     -0.630D-04 0.847D-04 0.630D-04 0.219D-03-0.109D-03-0.149D-02
 Coeff:      0.111D-02 0.720D-02 0.103D-01-0.951D-01-0.153D+00 0.123D+01
 Gap=     0.325 Goal=   None    Shift=    0.000
 RMSDP=2.04D-07 MaxDP=7.21D-06 DE=-1.24D-08 OVMax= 3.99D-05

 Cycle  13  Pass 1  IDiag  1:
 RMSU=  7.69D-08    CP:  7.70D-01  3.00D+00  1.49D+00  1.89D+00  1.91D+00
                    CP:  1.50D+00  1.27D+00  1.29D+00  1.26D+00  1.55D+00
                    CP:  1.56D+00  1.56D+00
 E= -210.291809159706     Delta-E=       -0.000000001510 Rises=F Damp=F
 DIIS: error= 3.36D-07 at cycle  13 NSaved=  13.
 NSaved=13 IEnMin=13 EnMin= -210.291809159706     IErMin=13 ErrMin= 3.36D-07
 ErrMax= 3.36D-07  0.00D+00 EMaxC= 1.00D-01 BMatC= 2.84D-11 BMatP= 2.97D-10
 IDIUse=1 WtCom= 1.00D+00 WtEn= 0.00D+00
 Coeff-Com: -0.135D-05 0.166D-05 0.161D-04 0.806D-04-0.120D-03-0.563D-03
 Coeff-Com:  0.631D-03 0.403D-02 0.104D-01-0.260D-01-0.123D+00 0.209D+00
 Coeff-Com:  0.926D+00
 Coeff:     -0.135D-05 0.166D-05 0.161D-04 0.806D-04-0.120D-03-0.563D-03
 Coeff:      0.631D-03 0.403D-02 0.104D-01-0.260D-01-0.123D+00 0.209D+00
 Coeff:      0.926D+00
 Gap=     0.325 Goal=   None    Shift=    0.000
 RMSDP=5.73D-08 MaxDP=1.43D-06 DE=-1.51D-09 OVMax= 1.09D-05

 Cycle  14  Pass 1  IDiag  1:
 RMSU=  2.01D-08    CP:  7.70D-01  3.00D+00  1.49D+00  1.89D+00  1.91D+00
                    CP:  1.50D+00  1.27D+00  1.29D+00  1.26D+00  1.56D+00
                    CP:  1.60D+00  1.74D+00  1.26D+00
 E= -210.291809159805     Delta-E=       -0.000000000099 Rises=F Damp=F
 DIIS: error= 8.98D-08 at cycle  14 NSaved=  14.
 NSaved=14 IEnMin=14 EnMin= -210.291809159805     IErMin=14 ErrMin= 8.98D-08
 ErrMax= 8.98D-08  0.00D+00 EMaxC= 1.00D-01 BMatC= 2.39D-12 BMatP= 2.84D-11
 IDIUse=1 WtCom= 1.00D+00 WtEn= 0.00D+00
 Coeff-Com: -0.230D-05 0.316D-05-0.518D-05-0.397D-04 0.265D-04 0.154D-03
 Coeff-Com:  0.493D-04-0.113D-02-0.207D-02 0.822D-02 0.242D-01-0.106D+00
 Coeff-Com: -0.967D-01 0.117D+01
 Coeff:     -0.230D-05 0.316D-05-0.518D-05-0.397D-04 0.265D-04 0.154D-03
 Coeff:      0.493D-04-0.113D-02-0.207D-02 0.822D-02 0.242D-01-0.106D+00
 Coeff:     -0.967D-01 0.117D+01
 Gap=     0.325 Goal=   None    Shift=    0.000
 RMSDP=1.74D-08 MaxDP=6.24D-07 DE=-9.94D-11 OVMax= 2.23D-06

 Cycle  15  Pass 1  IDiag  1:
 RMSU=  6.13D-09    CP:  7.70D-01  3.00D+00  1.49D+00  1.89D+00  1.91D+00
                    CP:  1.50D+00  1.27D+00  1.29D+00  1.26D+00  1.55D+00
                    CP:  1.61D+00  1.78D+00  1.38D+00  1.34D+00
 E= -210.291809159812     Delta-E=       -0.000000000006 Rises=F Damp=F
 DIIS: error= 2.15D-08 at cycle  15 NSaved=  15.
 NSaved=15 IEnMin=15 EnMin= -210.291809159812     IErMin=15 ErrMin= 2.15D-08
 ErrMax= 2.15D-08  0.00D+00 EMaxC= 1.00D-01 BMatC= 2.15D-13 BMatP= 2.39D-12
 IDIUse=1 WtCom= 1.00D+00 WtEn= 0.00D+00
 Coeff-Com: -0.953D-06 0.129D-05-0.117D-05 0.748D-07 0.956D-05-0.651D-05
 Coeff-Com: -0.345D-04-0.167D-03-0.174D-03 0.155D-02 0.386D-02-0.103D-01
 Coeff-Com: -0.274D-01-0.495D-01 0.108D+01
 Coeff:     -0.953D-06 0.129D-05-0.117D-05 0.748D-07 0.956D-05-0.651D-05
 Coeff:     -0.345D-04-0.167D-03-0.174D-03 0.155D-02 0.386D-02-0.103D-01
 Coeff:     -0.274D-01-0.495D-01 0.108D+01
 Gap=     0.325 Goal=   None    Shift=    0.000
 RMSDP=3.28D-09 MaxDP=9.10D-08 DE=-6.42D-12 OVMax= 2.92D-07

 SCF Done:  E(RwB97XD) =  -210.291809160     A.U. after   15 cycles
            NFock= 15  Conv=0.33D-08     -V/T= 2.0055
 KE= 2.091380138172D+02 PE=-7.492915332327D+02 EE= 2.010246712146D+02
 Leave Link  502 at Thu Aug  8 17:41:56 2024, MaxMem=   939524096 cpu:       769.6
 (Enter /Local/ce_dana/g09/l801.exe)
 DoSCS=F DFT=T ScalE2(SS,OS)=  1.000000  1.000000
 Range of M.O.s used for correlation:     1   282
 NBasis=   282 NAE=    17 NBE=    17 NFC=     0 NFV=     0
 NROrb=    282 NOA=    17 NOB=    17 NVA=   265 NVB=   265

 **** Warning!!: The largest alpha MO coefficient is  0.21792590D+02

 Leave Link  801 at Thu Aug  8 17:41:56 2024, MaxMem=   939524096 cpu:         0.0
 (Enter /Local/ce_dana/g09/l1101.exe)
 Using compressed storage, NAtomX=    11.
 Will process     12 centers per pass.
 R6Disp: Adding Grimme-D2 dispersion energy 1st derivatives to the gradient.
 Leave Link 1101 at Thu Aug  8 17:41:57 2024, MaxMem=   939524096 cpu:         2.3
 (Enter /Local/ce_dana/g09/l1102.exe)
 Symmetrizing basis deriv contribution to polar:
 IMax=3 JMax=2 DiffMx= 0.00D+00
 Leave Link 1102 at Thu Aug  8 17:41:57 2024, MaxMem=   939524096 cpu:         0.1
 (Enter /Local/ce_dana/g09/l1110.exe)
 Forming Gx(P) for the SCF density, NAtomX=    11.
 Integral derivatives from FoFJK, PRISM(SPDF).
 Do as many integral derivatives as possible in FoFJK.
 G2DrvN: MDV=     939523904.
 G2DrvN: will do    12 centers at a time, making    1 passes.
 Calling FoFCou, ICntrl=  3107 FMM=F I1Cent=   0 AccDes= 0.00D+00.
 FoFJK:  IHMeth= 1 ICntrl=    3107 DoSepK=T KAlg= 0 I1Cent=   0 FoldK=F
 IRaf=         1 NMat=   1 IRICut=       1 DoRegI=T DoRafI=F ISym2E= 0.
 FoFCou: FMM=F IPFlag=           0 FMFlag=      100000 FMFlg1=           0
         NFxFlg=           0 DoJE=F BraDBF=F KetDBF=F FulRan=T
         wScrn=  0.000000 ICntrl=    3507 IOpCl=  0 I1Cent=           0 NGrid=           0
         NMat0=    1 NMatS0=      1 NMatT0=    0 NMatD0=    1 NMtDS0=    0 NMtDT0=    0
 Symmetry not used in FoFCou.
 End of G2Drv F.D. properties file   721 does not exist.
 End of G2Drv F.D. properties file   722 does not exist.
 End of G2Drv F.D. properties file   788 does not exist.
 Leave Link 1110 at Thu Aug  8 17:42:52 2024, MaxMem=   939524096 cpu:       548.4
 (Enter /Local/ce_dana/g09/l1002.exe)
 Minotr:  Closed shell wavefunction.
          IDoAtm=11111111111
          Direct CPHF calculation.
          Differentiating once with respect to nuclear coordinates.
          Requested convergence is 1.0D-08 RMS, and 1.0D-07 maximum.
          Secondary convergence is 1.0D-12 RMS, and 1.0D-12 maximum.
          NewPWx=T KeepS1=F KeepF1=F KeepIn=T MapXYZ=F SortEE=F KeepMc=T.
          MDV=     939523700 using IRadAn=       2.
 Generate precomputed XC quadrature information.
          Solving linear equations simultaneously, MaxMat=       0.
 FoFJK:  IHMeth= 1 ICntrl=       0 DoSepK=T KAlg= 0 I1Cent=   0 FoldK=F
 IRaf=         1 NMat=  36 IRICut=       1 DoRegI=T DoRafI=F ISym2E= 0.
 FoFCou: FMM=F IPFlag=           0 FMFlag=      100000 FMFlg1=           0
         NFxFlg=           0 DoJE=F BraDBF=F KetDBF=F FulRan=T
         wScrn=  0.000000 ICntrl=     500 IOpCl=  0 I1Cent=           0 NGrid=           0
         NMat0=   36 NMatS0=     36 NMatT0=    0 NMatD0=   36 NMtDS0=    0 NMtDT0=    0
 Symmetry not used in FoFCou.
          There are    36 degrees of freedom in the 1st order CPHF.  IDoFFX=6 NUNeed=     0.
     30 vectors produced by pass  0 Test12= 1.25D-14 2.78D-09 XBig12= 8.94D-02 1.06D-01.
 AX will form    30 AO Fock derivatives at one time.
     30 vectors produced by pass  1 Test12= 1.25D-14 2.78D-09 XBig12= 1.46D-02 3.57D-02.
     30 vectors produced by pass  2 Test12= 1.25D-14 2.78D-09 XBig12= 3.50D-04 4.04D-03.
     30 vectors produced by pass  3 Test12= 1.25D-14 2.78D-09 XBig12= 4.39D-06 2.69D-04.
     30 vectors produced by pass  4 Test12= 1.25D-14 2.78D-09 XBig12= 3.68D-08 3.09D-05.
     30 vectors produced by pass  5 Test12= 1.25D-14 2.78D-09 XBig12= 3.13D-10 2.50D-06.
     30 vectors produced by pass  6 Test12= 1.25D-14 2.78D-09 XBig12= 2.81D-12 2.65D-07.
     10 vectors produced by pass  7 Test12= 1.25D-14 2.78D-09 XBig12= 2.18D-14 1.79D-08.
      2 vectors produced by pass  8 Test12= 1.25D-14 2.78D-09 XBig12= 7.00D-16 3.31D-09.
 InvSVY:  IOpt=1 It=  1 EMax= 2.11D-15
 Solved reduced A of dimension   222 with    30 vectors.
 End of Minotr F.D. properties file   721 does not exist.
 End of Minotr F.D. properties file   722 does not exist.
 End of Minotr F.D. properties file   788 does not exist.
 Leave Link 1002 at Thu Aug  8 17:46:24 2024, MaxMem=   939524096 cpu:      2085.9
 (Enter /Local/ce_dana/g09/l601.exe)
 Copying SCF densities to generalized density rwf, IOpCl= 0 IROHF=0.

 **********************************************************************

            Population analysis using the SCF density.

 **********************************************************************

 Alpha  occ. eigenvalues --  -19.26218 -14.46506 -10.34002 -10.32115  -1.11753
 Alpha  occ. eigenvalues --   -1.00779  -0.77572  -0.72572  -0.61700  -0.58800
 Alpha  occ. eigenvalues --   -0.54963  -0.52636  -0.52265  -0.44753  -0.38737
 Alpha  occ. eigenvalues --   -0.36258  -0.33090
 Alpha virt. eigenvalues --   -0.00595   0.03928   0.05476   0.06126   0.07512
 Alpha virt. eigenvalues --    0.08274   0.10107   0.10530   0.11822   0.12874
 Alpha virt. eigenvalues --    0.15084   0.15955   0.16253   0.16750   0.17152
 Alpha virt. eigenvalues --    0.19609   0.21803   0.23498   0.23774   0.24314
 Alpha virt. eigenvalues --    0.25361   0.26870   0.27780   0.28391   0.29726
 Alpha virt. eigenvalues --    0.31508   0.32038   0.32974   0.34638   0.35469
 Alpha virt. eigenvalues --    0.37771   0.38818   0.40008   0.40569   0.43356
 Alpha virt. eigenvalues --    0.43896   0.45428   0.45693   0.47760   0.50676
 Alpha virt. eigenvalues --    0.53033   0.53852   0.56088   0.57963   0.59317
 Alpha virt. eigenvalues --    0.59577   0.61217   0.62475   0.64283   0.64814
 Alpha virt. eigenvalues --    0.66024   0.66744   0.67691   0.68459   0.70282
 Alpha virt. eigenvalues --    0.70847   0.72082   0.76088   0.79984   0.81191
 Alpha virt. eigenvalues --    0.81773   0.82831   0.85021   0.86331   0.88363
 Alpha virt. eigenvalues --    0.89658   0.91924   0.92330   0.92827   0.94703
 Alpha virt. eigenvalues --    0.96303   0.98223   1.00013   1.00670   1.01846
 Alpha virt. eigenvalues --    1.03526   1.07261   1.08418   1.10384   1.12100
 Alpha virt. eigenvalues --    1.13441   1.15607   1.20313   1.23235   1.27745
 Alpha virt. eigenvalues --    1.29864   1.32472   1.34270   1.39750   1.44547
 Alpha virt. eigenvalues --    1.46819   1.53946   1.55726   1.57272   1.60037
 Alpha virt. eigenvalues --    1.63610   1.72513   1.75164   1.78540   1.78812
 Alpha virt. eigenvalues --    1.80949   1.82000   1.90101   1.92027   1.94516
 Alpha virt. eigenvalues --    1.96115   1.97958   2.01011   2.05105   2.06633
 Alpha virt. eigenvalues --    2.10595   2.12168   2.13400   2.21344   2.24265
 Alpha virt. eigenvalues --    2.25039   2.30962   2.34122   2.35574   2.39185
 Alpha virt. eigenvalues --    2.41200   2.45217   2.47601   2.57371   2.59061
 Alpha virt. eigenvalues --    2.64555   2.66939   2.69745   2.70612   2.74418
 Alpha virt. eigenvalues --    2.77029   2.79608   2.80577   2.82799   2.84448
 Alpha virt. eigenvalues --    2.88487   2.91423   2.97885   3.00852   3.04891
 Alpha virt. eigenvalues --    3.07233   3.10291   3.12026   3.14521   3.16313
 Alpha virt. eigenvalues --    3.18157   3.21446   3.23641   3.26516   3.29171
 Alpha virt. eigenvalues --    3.31484   3.36282   3.36596   3.39039   3.40298
 Alpha virt. eigenvalues --    3.42353   3.46376   3.48377   3.51576   3.53516
 Alpha virt. eigenvalues --    3.54374   3.58610   3.63777   3.66837   3.69645
 Alpha virt. eigenvalues --    3.73029   3.75468   3.81678   3.85450   3.95257
 Alpha virt. eigenvalues --    3.97291   3.98776   3.99999   4.04137   4.12273
 Alpha virt. eigenvalues --    4.18373   4.21467   4.24706   4.27552   4.34633
 Alpha virt. eigenvalues --    4.37087   4.41162   4.46146   4.49632   4.53342
 Alpha virt. eigenvalues --    4.59438   4.64556   4.68030   4.70079   4.73879
 Alpha virt. eigenvalues --    4.77508   4.81838   4.83336   4.85520   4.88150
 Alpha virt. eigenvalues --    4.90503   4.96378   4.99168   5.06926   5.15407
 Alpha virt. eigenvalues --    5.23563   5.27593   5.32072   5.43163   5.48473
 Alpha virt. eigenvalues --    5.50549   5.56380   5.60358   5.64778   5.72612
 Alpha virt. eigenvalues --    5.75632   5.81221   5.89510   6.03949   6.29826
 Alpha virt. eigenvalues --    6.38947   6.47663   6.52416   6.91153   7.19635
 Alpha virt. eigenvalues --    7.58238   7.60185   7.66568   7.71438   7.92690
 Alpha virt. eigenvalues --    7.93820   8.05353   8.21579   8.28790   8.40528
 Alpha virt. eigenvalues --    8.42972   8.43500   8.48183   8.49624   8.55848
 Alpha virt. eigenvalues --    8.59993   8.60414   8.64882   8.66111   8.72852
 Alpha virt. eigenvalues --    8.73705   8.77964   8.97678   9.02624   9.41468
 Alpha virt. eigenvalues --    9.67034   9.68411   9.69289   9.71876   9.87430
 Alpha virt. eigenvalues --    9.98534  10.75226  10.85657  10.97500  11.56791
 Alpha virt. eigenvalues --   11.72266  14.59006  14.67231  14.75324  15.10744
 Alpha virt. eigenvalues --   15.37337  25.93268  26.05796  36.78706  50.41776
          Condensed to atoms (all electrons):
               1          2          3          4          5          6
     1  C    4.786505   0.468125   0.418196   0.158594  -0.042736  -0.035316
     2  H    0.468125   0.758752  -0.094215  -0.105595   0.010018   0.000305
     3  H    0.418196  -0.094215   0.779316  -0.056990  -0.023098   0.004942
     4  N    0.158594  -0.105595  -0.056990   7.693227   0.277597   0.146743
     5  H   -0.042736   0.010018  -0.023098   0.277597   0.525207  -0.022475
     6  H   -0.035316   0.000305   0.004942   0.146743  -0.022475   0.586231
     7  C   -0.011814   0.006159  -0.001181  -0.142026   0.009520   0.107244
     8  H    0.000871  -0.002224  -0.000085  -0.008499  -0.001568  -0.034317
     9  H    0.000455   0.000568  -0.000892   0.002593  -0.001246  -0.000727
    10  O   -0.136465  -0.007034   0.000407  -0.057312  -0.004118  -0.011564
    11  H    0.019220  -0.025299  -0.006514  -0.002489  -0.005428  -0.019684
               7          8          9         10         11
     1  C   -0.011814   0.000871   0.000455  -0.136465   0.019220
     2  H    0.006159  -0.002224   0.000568  -0.007034  -0.025299
     3  H   -0.001181  -0.000085  -0.000892   0.000407  -0.006514
     4  N   -0.142026  -0.008499   0.002593  -0.057312  -0.002489
     5  H    0.009520  -0.001568  -0.001246  -0.004118  -0.005428
     6  H    0.107244  -0.034317  -0.000727  -0.011564  -0.019684
     7  C    4.578808   0.446245   0.408628   0.267329  -0.045977
     8  H    0.446245   0.810525  -0.112867  -0.064101  -0.001950
     9  H    0.408628  -0.112867   0.805574  -0.078974   0.004133
    10  O    0.267329  -0.064101  -0.078974   8.588673   0.199355
    11  H   -0.045977  -0.001950   0.004133   0.199355   0.502247
 Mulliken charges:
               1
     1  C    0.374364
     2  H   -0.009560
     3  H   -0.019886
     4  N   -0.905844
     5  H    0.278327
     6  H    0.278619
     7  C    0.377066
     8  H   -0.032030
     9  H   -0.027247
    10  O   -0.696196
    11  H    0.382387
 Sum of Mulliken charges =   0.00000
 Mulliken charges with hydrogens summed into heavy atoms:
               1
     1  C    0.344918
     4  N   -0.348898
     7  C    0.317789
    10  O   -0.313809
 APT charges:
               1
     1  C   -0.321515
     2  H    0.281108
     3  H    0.273200
     4  N   -1.104519
     5  H    0.577304
     6  H    0.338831
     7  C   -0.375711
     8  H    0.289068
     9  H    0.291977
    10  O   -0.579660
    11  H    0.329916
 Sum of APT charges =   0.00000
 APT charges with hydrogens summed into heavy atoms:
               1
     1  C    0.232793
     4  N   -0.188385
     7  C    0.205335
    10  O   -0.249743
 Electronic spatial extent (au):  <R**2>=            345.7535
 Charge=              0.0000 electrons
 Dipole moment (field-independent basis, Debye):
    X=              1.0032    Y=              1.0459    Z=             -0.9419  Tot=              1.7284
 Quadrupole moment (field-independent basis, Debye-Ang):
   XX=            -27.1864   YY=            -26.8234   ZZ=            -25.2208
   XY=             -4.4810   XZ=             -2.4772   YZ=             -2.0989
 Traceless Quadrupole moment (field-independent basis, Debye-Ang):
   XX=             -0.7762   YY=             -0.4132   ZZ=              1.1893
   XY=             -4.4810   XZ=             -2.4772   YZ=             -2.0989
 Octapole moment (field-independent basis, Debye-Ang**2):
  XXX=             -2.8261  YYY=             -0.8745  ZZZ=             -1.2206  XYY=              1.6378
  XXY=              1.4564  XXZ=             -2.9450  XZZ=              0.3131  YZZ=              0.3369
  YYZ=             -2.9667  XYZ=             -2.7688
 Hexadecapole moment (field-independent basis, Debye-Ang**3):
 XXXX=           -295.5562 YYYY=           -120.6488 ZZZZ=            -41.8835 XXXY=             -5.3364
 XXXZ=             -7.3068 YYYX=              0.4938 YYYZ=             -4.7589 ZZZX=             -2.8879
 ZZZY=             -3.0535 XXYY=            -69.2215 XXZZ=            -50.0368 YYZZ=            -25.7668
 XXYZ=             -4.2364 YYXZ=             -4.1930 ZZXY=             -1.8950
 N-N= 1.288370390411D+02 E-N=-7.492915338459D+02  KE= 2.091380138172D+02
  Exact polarizability:   0.000   0.000   0.000   0.000   0.000   0.000
 Approx polarizability:  79.798  -6.211  59.743   0.034   0.350  40.636
 No NMR shielding tensors so no spin-rotation constants.
 Leave Link  601 at Thu Aug  8 17:46:24 2024, MaxMem=   939524096 cpu:         1.3
 (Enter /Local/ce_dana/g09/l701.exe)
 Compute integral second derivatives.
 ... and contract with generalized density number  0.
 R6Disp: Adding Grimme-D2 dispersion energy 2nd derivatives to the Hessian.
 Leave Link  701 at Thu Aug  8 17:46:24 2024, MaxMem=   939524096 cpu:         2.2
 (Enter /Local/ce_dana/g09/l702.exe)
 L702 exits ... SP integral derivatives will be done elsewhere.
 Leave Link  702 at Thu Aug  8 17:46:24 2024, MaxMem=   939524096 cpu:         0.0
 (Enter /Local/ce_dana/g09/l703.exe)
 Compute integral second derivatives, UseDBF=F ICtDFT=           0.
 Integral derivatives from FoFJK, PRISM(SPDF).
 Calling FoFJK, ICntrl=    100127 FMM=F ISym2X=0 I1Cent= 0 IOpClX= 0 NMat=1 NMatS=1 NMatT=0.
 FoFJK:  IHMeth= 1 ICntrl=  100127 DoSepK=T KAlg= 0 I1Cent=   0 FoldK=F
 IRaf=         1 NMat=   1 IRICut=       1 DoRegI=T DoRafI=F ISym2E= 0.
 FoFCou: FMM=F IPFlag=           0 FMFlag=      100000 FMFlg1=         800
         NFxFlg=           0 DoJE=F BraDBF=F KetDBF=F FulRan=T
         wScrn=  0.000000 ICntrl=  100527 IOpCl=  0 I1Cent=           0 NGrid=           0
         NMat0=    1 NMatS0=      1 NMatT0=    0 NMatD0=    1 NMtDS0=    0 NMtDT0=    0
 Symmetry not used in FoFCou.
 Leave Link  703 at Thu Aug  8 17:48:41 2024, MaxMem=   939524096 cpu:      1364.7
 (Enter /Local/ce_dana/g09/l716.exe)
 Dipole        = 3.94679701D-01 4.11487268D-01-3.70571184D-01
 Polarizability= 0.00000000D+00 0.00000000D+00 0.00000000D+00
                 0.00000000D+00 0.00000000D+00 0.00000000D+00
 -------------------------------------------------------------------
 Center     Atomic                   Forces (Hartrees/Bohr)
 Number     Number              X              Y              Z
 -------------------------------------------------------------------
      1        6          -0.002780523    0.020367417   -0.003244341
      2        1          -0.001090881    0.001450017   -0.001767823
      3        1          -0.002367836    0.001867325    0.001727650
      4        7           0.003620722   -0.014635978    0.001115068
      5        1          -0.004813418   -0.009017724    0.006205351
      6        1           0.000078534   -0.004961206   -0.004604207
      7        6           0.012213107   -0.038455207   -0.003652721
      8        1           0.001659805   -0.001315142    0.001415076
      9        1           0.001561023   -0.001049591   -0.001452755
     10        8           0.003544187    0.035870884    0.003979242
     11        1          -0.011624720    0.009879204    0.000279459
 -------------------------------------------------------------------
 Cartesian Forces:  Max     0.038455207 RMS     0.011106006
 Z-matrix is all fixed cartesians, so copy forces.
 Force constants in Cartesian coordinates: 
                1             2             3             4             5 
      1  0.238736D+00
      2 -0.191009D+00  0.516029D+00
      3 -0.559991D-01 -0.252946D-01  0.636720D+00
      4 -0.414079D-01  0.452928D-01 -0.556918D-01  0.474401D-01
      5  0.309996D-01 -0.825713D-01  0.852572D-01 -0.338804D-01  0.106646D+00
      6 -0.473197D-01  0.931447D-01 -0.273511D+00  0.565988D-01 -0.103881D+00
      7 -0.794552D-01  0.628480D-01  0.100636D+00  0.379839D-02 -0.400427D-02
      8  0.503967D-01 -0.845975D-01 -0.740829D-01 -0.639708D-02  0.580803D-02
      9  0.945570D-01 -0.799402D-01 -0.240239D+00  0.122914D-01 -0.100019D-01
     10 -0.100997D+00  0.982902D-03  0.177166D-01  0.310142D-02  0.620392D-02
     11  0.832026D-01 -0.290830D+00 -0.188194D-01 -0.817210D-02 -0.250730D-01
     12  0.107970D-01  0.306076D-01 -0.105067D+00 -0.711620D-03  0.297266D-01
     13  0.812567D-03  0.429316D-02 -0.242168D-02  0.723961D-02  0.475244D-02
     14 -0.304641D-02 -0.189455D-01  0.389253D-01 -0.158324D-03 -0.506827D-02
     15 -0.272851D-03 -0.983399D-02 -0.606790D-03 -0.896076D-04  0.163754D-02
     16  0.354460D-01  0.895931D-01 -0.472308D-03 -0.101502D-01 -0.144494D-02
     17  0.192649D-01 -0.790154D-02 -0.728813D-02 -0.620318D-03 -0.105844D-02
     18  0.760433D-03 -0.359187D-02 -0.780907D-03 -0.388780D-03  0.469885D-03
     19 -0.358374D-01 -0.362151D-01 -0.157976D-02  0.401213D-02 -0.323698D-04
     20 -0.493289D-01 -0.767462D-01 -0.299433D-02  0.132330D-01  0.255013D-02
     21 -0.718029D-02 -0.155745D-01  0.305594D-02  0.150491D-02  0.901187D-03
     22  0.557925D-02  0.934953D-02 -0.170855D-02 -0.246769D-02 -0.513010D-03
     23  0.192881D-02  0.436646D-02  0.479253D-04 -0.958884D-03 -0.236311D-03
     24 -0.539689D-03 -0.103232D-02 -0.239657D-04  0.398069D-03 -0.122312D-03
     25  0.576894D-02  0.102652D-01  0.220221D-02 -0.126174D-02 -0.177014D-03
     26  0.184318D-02  0.474405D-02  0.198835D-03 -0.532143D-03 -0.222563D-03
     27  0.161965D-02  0.373921D-02  0.401730D-03 -0.535615D-03 -0.907522D-04
     28 -0.920792D-01 -0.796031D-01 -0.668844D-02  0.104206D-01  0.323818D-02
     29  0.651561D-01  0.591625D-01  0.375027D-02 -0.115564D-01 -0.224315D-02
     30  0.389394D-02  0.558873D-02 -0.235525D-02 -0.129874D-02 -0.378771D-03
     31  0.634338D-01  0.842027D-01  0.400720D-02 -0.207247D-01 -0.514218D-02
     32 -0.940747D-02 -0.227098D-01  0.299795D-03  0.374986D-02  0.146862D-02
     33 -0.316342D-03  0.218722D-02 -0.175926D-01 -0.120769D-01 -0.351715D-02
                6             7             8             9            10 
      6  0.280152D+00
      7 -0.768236D-02  0.834344D-01
      8  0.826830D-02 -0.571286D-01  0.100859D+00
      9 -0.144470D-01 -0.102917D+00  0.905572D-01  0.245695D+00
     10 -0.875295D-03  0.120604D-01  0.223550D-01  0.304287D-02  0.172020D+00
     11  0.360196D-02 -0.818120D-02 -0.237472D-01 -0.238913D-02  0.194814D-01
     12  0.953685D-02 -0.133104D-02 -0.267182D-01  0.550011D-02 -0.762196D-01
     13 -0.130641D-02 -0.507613D-02 -0.751097D-03 -0.180951D-02 -0.489152D-01
     14 -0.177027D-02 -0.364201D-03  0.219609D-02 -0.337905D-03 -0.111274D-01
     15  0.154194D-02 -0.406489D-03 -0.582666D-03  0.275075D-02  0.673469D-01
     16  0.171419D-02 -0.926058D-02 -0.637176D-02 -0.509473D-02  0.300670D-01
     17  0.270868D-03  0.135953D-02 -0.288667D-02  0.710973D-03  0.548619D-02
     18 -0.336054D-03  0.905492D-03 -0.165785D-02  0.497993D-04  0.432746D-02
     19 -0.220407D-03  0.438182D-02  0.137720D-02  0.125071D-02 -0.822568D-01
     20 -0.790055D-03  0.783581D-02  0.374435D-02  0.284106D-02 -0.757930D-01
     21 -0.622248D-03  0.277367D-02  0.801784D-03  0.937740D-03 -0.277904D-01
     22  0.323096D-03 -0.119973D-03 -0.135201D-03 -0.162393D-03  0.542660D-02
     23 -0.148544D-03 -0.197050D-03 -0.197692D-03 -0.457975D-04  0.282638D-02
     24 -0.449418D-04  0.165302D-03  0.000000D+00  0.664253D-04 -0.727825D-03
     25  0.252639D-03 -0.151368D-02 -0.717785D-03 -0.748763D-03  0.107763D-01
     26  0.276327D-04 -0.689811D-03 -0.379474D-03 -0.756121D-04  0.473898D-02
     27  0.102647D-03 -0.700182D-03 -0.766617D-04 -0.248638D-03  0.436358D-02
     28 -0.101192D-02  0.696471D-02  0.331931D-02  0.256158D-02 -0.414118D-01
     29  0.434331D-03 -0.530684D-02 -0.222160D-02 -0.127120D-02  0.377098D-01
     30  0.139757D-02 -0.806209D-03  0.362135D-04  0.849240D-03  0.611590D-02
     31 -0.472579D-03 -0.152142D-01 -0.594669D-02 -0.297142D-02  0.401293D-01
     32  0.842523D-03  0.382868D-02  0.142306D-02 -0.475167D-04 -0.128641D-01
     33 -0.376908D-02  0.936280D-02  0.345487D-02 -0.914284D-03  0.269982D-02
               11            12            13            14            15 
     11  0.497588D+00
     12 -0.147317D+00  0.441792D+00
     13 -0.174720D-01  0.464397D-01  0.549782D-01
     14 -0.103701D+00  0.111126D+00  0.174255D-01  0.125776D+00
     15  0.155876D+00 -0.325855D+00 -0.602459D-01 -0.145940D+00  0.324344D+00
     16 -0.623246D-01  0.235443D-01 -0.919505D-02 -0.227266D-02 -0.647512D-02
     17 -0.343427D-01  0.714712D-02 -0.768437D-02  0.196110D-02  0.920413D-03
     18  0.887916D-02 -0.255007D-01  0.191170D-01 -0.319431D-02 -0.409083D-02
     19  0.536694D-01  0.173773D-02  0.348716D-02  0.807382D-03  0.421411D-02
     20  0.574736D-01  0.456220D-02  0.369462D-04  0.119635D-02  0.280462D-02
     21  0.999080D-02 -0.535469D-02  0.356339D-02  0.170827D-02  0.293775D-02
     22 -0.782198D-02 -0.171402D-02 -0.166343D-03  0.129411D-03 -0.154707D-04
     23 -0.281833D-02 -0.873416D-03  0.242936D-03  0.200576D-03  0.161093D-03
     24  0.460373D-03  0.132249D-02 -0.544788D-03 -0.617323D-05  0.168577D-03
     25 -0.826272D-02 -0.262056D-03 -0.543769D-03 -0.369925D-03 -0.112848D-02
     26 -0.291746D-02  0.293815D-03 -0.132889D-04 -0.143629D-03 -0.280231D-03
     27 -0.263212D-02  0.972306D-03 -0.815922D-03 -0.112382D-03 -0.190704D-03
     28  0.396042D-01  0.290456D-02 -0.898043D-03  0.113626D-02  0.229944D-03
     29 -0.604086D-01 -0.664818D-02 -0.133515D-02 -0.214065D-02 -0.424439D-02
     30 -0.547699D-02  0.555574D-02 -0.168653D-02 -0.543134D-03 -0.725649D-03
     31 -0.837229D-01 -0.518499D-02 -0.172307D-02 -0.215962D-02 -0.315703D-02
     32 -0.112227D-01 -0.190644D-02  0.504958D-03 -0.133052D-02 -0.518791D-03
     33 -0.217346D-02 -0.290181D-02 -0.289374D-03  0.144045D-03 -0.273584D-03
               16            17            18            19            20 
     16 -0.728308D-02
     17 -0.917622D-02  0.869723D-01
     18 -0.201417D-01  0.151908D-03  0.570980D-01
     19  0.477244D-01 -0.209997D-02 -0.691385D-02  0.276699D+00
     20  0.770925D-01 -0.218223D-01 -0.336040D-02 -0.176986D+00  0.423504D+00
     21  0.176957D-01  0.161227D-02 -0.248638D-01 -0.289862D-01 -0.329505D-01
     22 -0.150945D-01  0.427719D-02 -0.103189D-01 -0.611918D-01  0.546046D-01
     23 -0.452812D-02  0.223926D-02 -0.460002D-02  0.403500D-01 -0.849832D-01
     24  0.163134D-02  0.595220D-03 -0.251797D-02 -0.677999D-01  0.904174D-01
     25 -0.219192D-01  0.875614D-03  0.122661D-01 -0.737536D-01  0.453890D-01
     26 -0.691061D-02  0.899136D-03  0.432538D-02  0.303106D-01 -0.529280D-01
     27 -0.378461D-02 -0.957390D-04 -0.264482D-03  0.891015D-01 -0.477099D-01
     28  0.379581D-01 -0.119023D-01 -0.185213D-02 -0.118478D+00 -0.960011D-02
     29 -0.811923D-01 -0.217530D-01  0.205913D-02  0.680434D-01 -0.234580D+00
     30 -0.666870D-02 -0.320432D-02 -0.167020D-02  0.578416D-02 -0.141500D-01
     31 -0.782929D-01  0.219687D-03  0.223876D-02  0.352135D-01  0.113517D+00
     32  0.753565D-02 -0.230711D-02  0.518977D-03  0.207758D-01 -0.174093D-01
     33 -0.194837D-02 -0.820580D-03  0.287714D-02  0.341196D-02  0.132982D-02
               21            22            23            24            25 
     21  0.616847D+00
     22 -0.735556D-01  0.644085D-01
     23  0.881634D-01 -0.508685D-01  0.113523D+00
     24 -0.244956D+00  0.761201D-01 -0.102868D+00  0.247146D+00
     25  0.100096D+00  0.606154D-02 -0.297859D-02 -0.110644D-01  0.791658D-01
     26 -0.459378D-01 -0.577876D-02  0.536687D-02  0.947181D-02 -0.399888D-01
     27 -0.256833D+00  0.119118D-01 -0.531571D-02 -0.155246D-01 -0.100891D+00
     28 -0.556251D-02  0.777236D-02  0.214025D-01 -0.613237D-03  0.862725D-02
     29 -0.761140D-02 -0.509216D-02 -0.353863D-01  0.376844D-02 -0.558241D-02
     30 -0.895693D-01  0.486540D-03  0.236945D-01  0.146457D-01 -0.205737D-02
     31  0.174413D-01 -0.102080D-01 -0.721950D-02  0.297503D-02 -0.114079D-01
     32 -0.110357D-02  0.184893D-02 -0.207384D-02 -0.683833D-03  0.154747D-02
     33 -0.157855D-02 -0.136661D-02  0.178505D-02 -0.281563D-03  0.133513D-02
               26            27            28            29            30 
     26  0.761435D-01
     27  0.649820D-01  0.264988D+00
     28  0.239541D-01  0.576514D-02  0.163584D+00
     29 -0.285954D-01 -0.132307D-01  0.215146D-01  0.361374D+00
     30 -0.304075D-01  0.738104D-02  0.386409D-02  0.268828D-01  0.807071D-01
     31 -0.693339D-02 -0.603415D-02  0.175403D-01 -0.823588D-01 -0.762708D-02
     32 -0.196697D-02  0.542654D-03 -0.130637D-01 -0.332079D-01 -0.204147D-02
     33 -0.259837D-02 -0.784135D-03  0.402914D-03 -0.388912D-02 -0.162159D-01
               31            32            33 
     31 -0.187463D-01
     32 -0.445602D-02  0.893365D-01
     33 -0.121498D-02  0.409767D-02  0.414344D-01
 Leave Link  716 at Thu Aug  8 17:48:41 2024, MaxMem=   939524096 cpu:         0.0
 (Enter /Local/ce_dana/g09/l123.exe)
 IRC-IRC-IRC-IRC-IRC-IRC-IRC-IRC-IRC-IRC-IRC-IRC-IRC-IRC-IRC-IRC-IRC-IRC
          ******** Start new reaction path calculation ********
 Current Structure is TS -> form Hessian eigenvectors.
                            Diagonalizing Hessian.
 Supplied step size of   0.0700 bohr.
    Integration on MW PES will use step size of   0.0771 sqrt(amu)*bohr.
 Point Number:   0          Path Number:   1
 Calculating another point on the path.
 Point Number  1 in FORWARD path direction.
 Using LQA Reaction Path Following.
 IRC-IRC-IRC-IRC-IRC-IRC-IRC-IRC-IRC-IRC-IRC-IRC-IRC-IRC-IRC-IRC-IRC-IRC
 Leave Link  123 at Thu Aug  8 17:48:42 2024, MaxMem=   939524096 cpu:         0.1
 (Enter /Local/ce_dana/g09/l202.exe)
                          Input orientation:                          
 ---------------------------------------------------------------------
 Center     Atomic      Atomic             Coordinates (Angstroms)
 Number     Number       Type             X           Y           Z
 ---------------------------------------------------------------------
      1          6           0        1.368618   -0.535215    0.036284
      2          1           0        1.605248   -0.998235    0.994174
      3          1           0        1.818610   -0.988990   -0.847734
      4          7           0        1.170452    0.817277    0.069043
      5          1           0        1.333566    1.271665   -0.839259
      6          1           0       -0.092333    1.029804    0.228192
      7          6           0       -1.335995    0.538167    0.036435
      8          1           0       -1.701279    1.047052   -0.859624
      9          1           0       -1.778153    0.855596    0.985921
     10          8           0       -1.125458   -0.794314   -0.088385
     11          1           0        0.025059   -1.001231   -0.084090
 ---------------------------------------------------------------------
                    Distance matrix (angstroms):
                    1          2          3          4          5
     1  C    0.000000
     2  H    1.089924   0.000000
     3  H    1.090822   1.854247   0.000000
     4  N    1.367325   2.083506   2.126779   0.000000
     5  H    2.008138   2.930483   2.312120   1.028634   0.000000
     6  H    2.149533   2.753443   2.980746   1.290397   1.797537
     7  C    2.909825   3.453795   3.614622   2.522150   2.903690
     8  H    3.567981   4.307306   4.066353   3.026889   3.043214
     9  H    3.569080   3.857999   4.438636   3.088108   3.631418
    10  O    2.510595   2.944533   3.046645   2.809486   3.298315
    11  H    1.427169   1.913023   1.949391   2.154611   2.729199
                    6          7          8          9         10
     6  H    0.000000
     7  C    1.350989   0.000000
     8  H    1.942253   1.093306   0.000000
     9  H    1.856473   1.094435   1.857041   0.000000
    10  O    2.120135   1.354774   2.077741   2.074210   0.000000
    11  H    2.058252   2.058334   2.788756   2.800768   1.168984
                   11
    11  H    0.000000
 Symmetry turned off by external request.
 Stoichiometry    C2H7NO
 Framework group  C1[X(C2H7NO)]
 Deg. of freedom    27
 Full point group                 C1      NOp   1
 Rotational constants (GHZ):     13.3324395      4.9547853      3.8543191
 Leave Link  202 at Thu Aug  8 17:48:42 2024, MaxMem=   939524096 cpu:         0.0
 (Enter /Local/ce_dana/g09/l301.exe)
 Standard basis: 6-311++G(3df,3pd) (5D, 7F)
 Ernie: Thresh=  0.10000D-02 Tol=  0.10000D-05 Strict=F.
   282 basis functions,   379 primitive gaussians,   313 cartesian basis functions
    17 alpha electrons       17 beta electrons
       nuclear repulsion energy       128.8524878590 Hartrees.
 IExCor= 4639 DFT=T Ex+Corr=wB97XD ExCW=0 ScaHFX=  1.000000
 ScaDFX=  1.000000  1.000000  1.000000  1.000000 ScalE2=  1.000000  1.000000
 IRadAn=      0 IRanWt=     -1 IRanGd=            0 ICorTp=0 IEmpDi=121
  HFx wShort=  0.000000 wLong=  0.200000 cFull=  0.222036 cShort=  0.000000 cLong=  0.777964
  DFx wShort=  0.000000 wLong=  0.200000 cFull=  0.000000 cShort=  0.000000 cLong=  1.000000
 NAtoms=   11 NActive=   11 NUniq=   11 SFac= 1.00D+00 NAtFMM=   60 NAOKFM=F Big=F
 Integral buffers will be    131072 words long.
 Raffenetti 2 integral format.
 Two-electron integral symmetry is turned off.
 R6Disp:  Grimme-D2 Dispersion energy=       -0.0037741746 Hartrees.
 Nuclear repulsion after empirical dispersion term =      128.8487136844 Hartrees.
 Leave Link  301 at Thu Aug  8 17:48:42 2024, MaxMem=   939524096 cpu:         0.1
 (Enter /Local/ce_dana/g09/l302.exe)
 NPDir=0 NMtPBC=     1 NCelOv=     1 NCel=       1 NClECP=     1 NCelD=      1
         NCelK=      1 NCelE2=     1 NClLst=     1 CellRange=     0.0.
 One-electron integrals computed using PRISM.
 NBasis=   282 RedAO= T EigKep=  1.24D-04  NBF=   282
 NBsUse=   282 1.00D-06 EigRej= -1.00D+00 NBFU=   282
 Precomputing XC quadrature grid using
 IXCGrd= 4 IRadAn=           0 IRanWt=          -1 IRanGd=           0 AccXCQ= 0.00D+00.
 Generated NRdTot=       0 NPtTot=           0 NUsed=           0 NTot=          32
 NSgBfM=   313   313   313   313   313 MxSgAt=    11 MxSgA2=    11.
 Leave Link  302 at Thu Aug  8 17:48:42 2024, MaxMem=   939524096 cpu:         1.7
 (Enter /Local/ce_dana/g09/l303.exe)
 DipDrv:  MaxL=1.
 Leave Link  303 at Thu Aug  8 17:48:42 2024, MaxMem=   939524096 cpu:         0.1
 (Enter /Local/ce_dana/g09/l401.exe)
 Initial guess from the checkpoint file:  "/storage/ce_dana/ronnp/scratch/g09/atsqE4/Gau-3323139.chk"
 B after Tr=     0.033124    0.033336   -0.011666
         Rot=    1.000000    0.000021    0.000022    0.000003 Ang=   0.00 deg.
 Guess basis will be translated and rotated to current coordinates.
 JPrj=2 DoOrth=T DoCkMO=T.
 Generating alternative initial guess.
 ExpMin= 3.60D-02 ExpMax= 8.59D+03 ExpMxC= 1.30D+03 IAcc=3 IRadAn=         5 AccDes= 0.00D+00
 Harris functional with IExCor= 4639 and IRadAn=       5 diagonalized for initial guess.
 HarFok:  IExCor= 4639 AccDes= 0.00D+00 IRadAn=         5 IDoV= 1 UseB2=F ITyADJ=14
 ICtDFT=  3500011 ScaDFX=  1.000000  1.000000  1.000000  1.000000
 FoFCou: FMM=F IPFlag=           0 FMFlag=      100000 FMFlg1=           0
         NFxFlg=           0 DoJE=T BraDBF=F KetDBF=T FulRan=T
         wScrn=  0.000000 ICntrl=     500 IOpCl=  0 I1Cent=   200000004 NGrid=           0
         NMat0=    1 NMatS0=      1 NMatT0=    0 NMatD0=    1 NMtDS0=    0 NMtDT0=    0
 Symmetry not used in FoFCou.
 Harris En= -201.397363100266    
 Leave Link  401 at Thu Aug  8 17:48:44 2024, MaxMem=   939524096 cpu:        16.1
 (Enter /Local/ce_dana/g09/l502.exe)
 Closed shell SCF:
 Using DIIS extrapolation, IDIIS=  1040.
 Two-electron integral symmetry not used.
 IVT=      317487 IEndB=      317487 NGot=   939524096 MDV=   939321532
 LenX=   939321532 LenY=   939223122
 Requested convergence on RMS density matrix=1.00D-08 within 128 cycles.
 Requested convergence on MAX density matrix=1.00D-06.
 Requested convergence on             energy=1.00D-06.
 No special actions if energy rises.
 Fock matrices will be formed incrementally for  20 cycles.

 Cycle   1  Pass 1  IDiag  1:
 FoFJK:  IHMeth= 1 ICntrl=       0 DoSepK=T KAlg= 0 I1Cent=   0 FoldK=F
 IRaf=         1 NMat=   1 IRICut=       1 DoRegI=T DoRafI=F ISym2E= 0.
 FoFCou: FMM=F IPFlag=           0 FMFlag=      100000 FMFlg1=           0
         NFxFlg=           0 DoJE=T BraDBF=F KetDBF=F FulRan=T
         wScrn=  0.000000 ICntrl=     500 IOpCl=  0 I1Cent=           0 NGrid=           0
         NMat0=    1 NMatS0=      1 NMatT0=    0 NMatD0=    1 NMtDS0=    0 NMtDT0=    0
 Symmetry not used in FoFCou.
 E= -210.291669535535    
 DIIS: error= 1.72D-03 at cycle   1 NSaved=   1.
 NSaved= 1 IEnMin= 1 EnMin= -210.291669535535     IErMin= 1 ErrMin= 1.72D-03
 ErrMax= 1.72D-03  0.00D+00 EMaxC= 1.00D-01 BMatC= 6.10D-04 BMatP= 6.10D-04
 IDIUse=3 WtCom= 9.83D-01 WtEn= 1.72D-02
 Coeff-Com:  0.100D+01
 Coeff-En:   0.100D+01
 Coeff:      0.100D+01
 Gap=     0.575 Goal=   None    Shift=    0.000
 GapD=    0.575 DampG=2.000 DampE=1.000 DampFc=2.0000 IDamp=-1.
 RMSDP=1.31D-04 MaxDP=4.34D-03              OVMax= 1.91D-02

 Cycle   2  Pass 1  IDiag  1:
 RMSU=  1.30D-04    CP:  1.00D+00
 E= -210.292477295358     Delta-E=       -0.000807759822 Rises=F Damp=F
 DIIS: error= 8.14D-04 at cycle   2 NSaved=   2.
 NSaved= 2 IEnMin= 2 EnMin= -210.292477295358     IErMin= 2 ErrMin= 8.14D-04
 ErrMax= 8.14D-04  0.00D+00 EMaxC= 1.00D-01 BMatC= 1.77D-04 BMatP= 6.10D-04
 IDIUse=3 WtCom= 9.92D-01 WtEn= 8.14D-03
 Coeff-Com:  0.220D+00 0.780D+00
 Coeff-En:   0.000D+00 0.100D+01
 Coeff:      0.218D+00 0.782D+00
 Gap=     0.327 Goal=   None    Shift=    0.000
 RMSDP=5.76D-05 MaxDP=2.77D-03 DE=-8.08D-04 OVMax= 5.66D-03

 Cycle   3  Pass 1  IDiag  1:
 RMSU=  5.74D-05    CP:  1.00D+00  1.03D+00
 E= -210.292587639978     Delta-E=       -0.000110344621 Rises=F Damp=F
 DIIS: error= 5.57D-04 at cycle   3 NSaved=   3.
 NSaved= 3 IEnMin= 3 EnMin= -210.292587639978     IErMin= 3 ErrMin= 5.57D-04
 ErrMax= 5.57D-04  0.00D+00 EMaxC= 1.00D-01 BMatC= 1.04D-04 BMatP= 1.77D-04
 IDIUse=3 WtCom= 9.94D-01 WtEn= 5.57D-03
 Coeff-Com: -0.717D-01 0.443D+00 0.629D+00
 Coeff-En:   0.000D+00 0.230D+00 0.770D+00
 Coeff:     -0.713D-01 0.441D+00 0.630D+00
 Gap=     0.326 Goal=   None    Shift=    0.000
 RMSDP=3.03D-05 MaxDP=1.45D-03 DE=-1.10D-04 OVMax= 5.05D-03

 Cycle   4  Pass 1  IDiag  1:
 RMSU=  2.81D-05    CP:  1.00D+00  1.11D+00  9.11D-01
 E= -210.292697642642     Delta-E=       -0.000110002664 Rises=F Damp=F
 DIIS: error= 1.72D-04 at cycle   4 NSaved=   4.
 NSaved= 4 IEnMin= 4 EnMin= -210.292697642642     IErMin= 4 ErrMin= 1.72D-04
 ErrMax= 1.72D-04  0.00D+00 EMaxC= 1.00D-01 BMatC= 6.17D-06 BMatP= 1.04D-04
 IDIUse=3 WtCom= 9.98D-01 WtEn= 1.72D-03
 Coeff-Com: -0.249D-01 0.656D-02 0.177D+00 0.841D+00
 Coeff-En:   0.000D+00 0.000D+00 0.000D+00 0.100D+01
 Coeff:     -0.249D-01 0.655D-02 0.177D+00 0.842D+00
 Gap=     0.326 Goal=   None    Shift=    0.000
 RMSDP=1.39D-05 MaxDP=4.87D-04 DE=-1.10D-04 OVMax= 2.71D-03

 Cycle   5  Pass 1  IDiag  1:
 RMSU=  9.35D-06    CP:  1.00D+00  1.12D+00  1.03D+00  1.26D+00
 E= -210.292707533022     Delta-E=       -0.000009890380 Rises=F Damp=F
 DIIS: error= 1.36D-04 at cycle   5 NSaved=   5.
 NSaved= 5 IEnMin= 5 EnMin= -210.292707533022     IErMin= 5 ErrMin= 1.36D-04
 ErrMax= 1.36D-04  0.00D+00 EMaxC= 1.00D-01 BMatC= 2.83D-06 BMatP= 6.17D-06
 IDIUse=3 WtCom= 9.99D-01 WtEn= 1.36D-03
 Coeff-Com: -0.932D-03-0.106D+00-0.298D-01 0.500D+00 0.637D+00
 Coeff-En:   0.000D+00 0.000D+00 0.000D+00 0.000D+00 0.100D+01
 Coeff:     -0.930D-03-0.106D+00-0.297D-01 0.499D+00 0.638D+00
 Gap=     0.326 Goal=   None    Shift=    0.000
 RMSDP=8.57D-06 MaxDP=4.12D-04 DE=-9.89D-06 OVMax= 8.01D-04

 Cycle   6  Pass 1  IDiag  1:
 RMSU=  3.86D-06    CP:  1.00D+00  1.13D+00  1.11D+00  1.47D+00  1.03D+00
 E= -210.292711605115     Delta-E=       -0.000004072093 Rises=F Damp=F
 DIIS: error= 1.89D-05 at cycle   6 NSaved=   6.
 NSaved= 6 IEnMin= 6 EnMin= -210.292711605115     IErMin= 6 ErrMin= 1.89D-05
 ErrMax= 1.89D-05  0.00D+00 EMaxC= 1.00D-01 BMatC= 9.48D-08 BMatP= 2.83D-06
 IDIUse=1 WtCom= 1.00D+00 WtEn= 0.00D+00
 Coeff-Com:  0.558D-02-0.335D-01-0.409D-01-0.311D-01 0.485D-01 0.105D+01
 Coeff:      0.558D-02-0.335D-01-0.409D-01-0.311D-01 0.485D-01 0.105D+01
 Gap=     0.326 Goal=   None    Shift=    0.000
 RMSDP=4.96D-06 MaxDP=2.17D-04 DE=-4.07D-06 OVMax= 7.74D-04

 Cycle   7  Pass 1  IDiag  1:
 RMSU=  1.14D-06    CP:  1.00D+00  1.13D+00  1.15D+00  1.60D+00  1.25D+00
                    CP:  1.42D+00
 E= -210.292712097327     Delta-E=       -0.000000492212 Rises=F Damp=F
 DIIS: error= 6.34D-06 at cycle   7 NSaved=   7.
 NSaved= 7 IEnMin= 7 EnMin= -210.292712097327     IErMin= 7 ErrMin= 6.34D-06
 ErrMax= 6.34D-06  0.00D+00 EMaxC= 1.00D-01 BMatC= 8.00D-09 BMatP= 9.48D-08
 IDIUse=1 WtCom= 1.00D+00 WtEn= 0.00D+00
 Coeff-Com: -0.109D-02 0.136D-01 0.132D-01-0.268D-01-0.784D-01-0.149D+00
 Coeff-Com:  0.123D+01
 Coeff:     -0.109D-02 0.136D-01 0.132D-01-0.268D-01-0.784D-01-0.149D+00
 Coeff:      0.123D+01
 Gap=     0.326 Goal=   None    Shift=    0.000
 RMSDP=1.29D-06 MaxDP=7.54D-05 DE=-4.92D-07 OVMax= 1.85D-04

 Cycle   8  Pass 1  IDiag  1:
 RMSU=  3.53D-07    CP:  1.00D+00  1.13D+00  1.16D+00  1.62D+00  1.31D+00
                    CP:  1.62D+00  1.36D+00
 E= -210.292712134543     Delta-E=       -0.000000037216 Rises=F Damp=F
 DIIS: error= 1.89D-06 at cycle   8 NSaved=   8.
 NSaved= 8 IEnMin= 8 EnMin= -210.292712134543     IErMin= 8 ErrMin= 1.89D-06
 ErrMax= 1.89D-06  0.00D+00 EMaxC= 1.00D-01 BMatC= 8.23D-10 BMatP= 8.00D-09
 IDIUse=1 WtCom= 1.00D+00 WtEn= 0.00D+00
 Coeff-Com: -0.583D-03 0.455D-02 0.482D-02 0.309D-03-0.184D-01-0.100D+00
 Coeff-Com:  0.143D+00 0.966D+00
 Coeff:     -0.583D-03 0.455D-02 0.482D-02 0.309D-03-0.184D-01-0.100D+00
 Coeff:      0.143D+00 0.966D+00
 Gap=     0.326 Goal=   None    Shift=    0.000
 RMSDP=2.78D-07 MaxDP=1.64D-05 DE=-3.72D-08 OVMax= 4.48D-05

 Cycle   9  Pass 1  IDiag  1:
 RMSU=  1.14D-07    CP:  1.00D+00  1.13D+00  1.16D+00  1.62D+00  1.32D+00
                    CP:  1.65D+00  1.46D+00  1.36D+00
 E= -210.292712137652     Delta-E=       -0.000000003109 Rises=F Damp=F
 DIIS: error= 6.12D-07 at cycle   9 NSaved=   9.
 NSaved= 9 IEnMin= 9 EnMin= -210.292712137652     IErMin= 9 ErrMin= 6.12D-07
 ErrMax= 6.12D-07  0.00D+00 EMaxC= 1.00D-01 BMatC= 1.51D-10 BMatP= 8.23D-10
 IDIUse=1 WtCom= 1.00D+00 WtEn= 0.00D+00
 Coeff-Com:  0.399D-04-0.131D-02-0.106D-02 0.591D-02 0.845D-02-0.351D-03
 Coeff-Com: -0.187D+00 0.282D+00 0.893D+00
 Coeff:      0.399D-04-0.131D-02-0.106D-02 0.591D-02 0.845D-02-0.351D-03
 Coeff:     -0.187D+00 0.282D+00 0.893D+00
 Gap=     0.326 Goal=   None    Shift=    0.000
 RMSDP=1.07D-07 MaxDP=4.96D-06 DE=-3.11D-09 OVMax= 1.62D-05

 Cycle  10  Pass 1  IDiag  1:
 RMSU=  5.50D-08    CP:  1.00D+00  1.13D+00  1.16D+00  1.62D+00  1.32D+00
                    CP:  1.65D+00  1.48D+00  1.56D+00  1.30D+00
 E= -210.292712138087     Delta-E=       -0.000000000435 Rises=F Damp=F
 DIIS: error= 2.77D-07 at cycle  10 NSaved=  10.
 NSaved=10 IEnMin=10 EnMin= -210.292712138087     IErMin=10 ErrMin= 2.77D-07
 ErrMax= 2.77D-07  0.00D+00 EMaxC= 1.00D-01 BMatC= 2.85D-11 BMatP= 1.51D-10
 IDIUse=1 WtCom= 1.00D+00 WtEn= 0.00D+00
 Coeff-Com:  0.709D-04-0.988D-03-0.809D-03 0.229D-02 0.500D-02 0.950D-02
 Coeff-Com: -0.858D-01 0.108D-01 0.369D+00 0.691D+00
 Coeff:      0.709D-04-0.988D-03-0.809D-03 0.229D-02 0.500D-02 0.950D-02
 Coeff:     -0.858D-01 0.108D-01 0.369D+00 0.691D+00
 Gap=     0.326 Goal=   None    Shift=    0.000
 RMSDP=2.64D-08 MaxDP=1.07D-06 DE=-4.35D-10 OVMax= 3.54D-06

 Cycle  11  Pass 1  IDiag  1:
 RMSU=  1.51D-08    CP:  1.00D+00  1.13D+00  1.16D+00  1.62D+00  1.32D+00
                    CP:  1.65D+00  1.48D+00  1.59D+00  1.44D+00  1.15D+00
 E= -210.292712138133     Delta-E=       -0.000000000045 Rises=F Damp=F
 DIIS: error= 7.17D-08 at cycle  11 NSaved=  11.
 NSaved=11 IEnMin=11 EnMin= -210.292712138133     IErMin=11 ErrMin= 7.17D-08
 ErrMax= 7.17D-08  0.00D+00 EMaxC= 1.00D-01 BMatC= 2.78D-12 BMatP= 2.85D-11
 IDIUse=1 WtCom= 1.00D+00 WtEn= 0.00D+00
 Coeff-Com:  0.184D-04-0.142D-03-0.821D-04-0.189D-03 0.353D-03 0.333D-02
 Coeff-Com:  0.150D-02-0.454D-01-0.113D-01 0.225D+00 0.827D+00
 Coeff:      0.184D-04-0.142D-03-0.821D-04-0.189D-03 0.353D-03 0.333D-02
 Coeff:      0.150D-02-0.454D-01-0.113D-01 0.225D+00 0.827D+00
 Gap=     0.326 Goal=   None    Shift=    0.000
 RMSDP=1.32D-08 MaxDP=4.55D-07 DE=-4.55D-11 OVMax= 1.26D-06

 Cycle  12  Pass 1  IDiag  1:
 RMSU=  5.17D-09    CP:  1.00D+00  1.13D+00  1.16D+00  1.62D+00  1.32D+00
                    CP:  1.65D+00  1.48D+00  1.60D+00  1.51D+00  1.29D+00
                    CP:  1.05D+00
 E= -210.292712138135     Delta-E=       -0.000000000002 Rises=F Damp=F
 DIIS: error= 1.90D-08 at cycle  12 NSaved=  12.
 NSaved=12 IEnMin=12 EnMin= -210.292712138135     IErMin=12 ErrMin= 1.90D-08
 ErrMax= 1.90D-08  0.00D+00 EMaxC= 1.00D-01 BMatC= 1.62D-13 BMatP= 2.78D-12
 IDIUse=1 WtCom= 1.00D+00 WtEn= 0.00D+00
 Coeff-Com: -0.454D-05 0.817D-04 0.681D-04-0.276D-03-0.411D-03-0.594D-03
 Coeff-Com:  0.898D-02-0.892D-02-0.385D-01-0.394D-01 0.124D+00 0.955D+00
 Coeff:     -0.454D-05 0.817D-04 0.681D-04-0.276D-03-0.411D-03-0.594D-03
 Coeff:      0.898D-02-0.892D-02-0.385D-01-0.394D-01 0.124D+00 0.955D+00
 Gap=     0.326 Goal=   None    Shift=    0.000
 RMSDP=4.05D-09 MaxDP=1.08D-07 DE=-1.99D-12 OVMax= 3.55D-07

 SCF Done:  E(RwB97XD) =  -210.292712138     A.U. after   12 cycles
            NFock= 12  Conv=0.40D-08     -V/T= 2.0055
 KE= 2.091464682767D+02 PE=-7.493218494578D+02 EE= 2.010339553585D+02
 Leave Link  502 at Thu Aug  8 17:49:47 2024, MaxMem=   939524096 cpu:       608.9
 (Enter /Local/ce_dana/g09/l801.exe)
 DoSCS=F DFT=T ScalE2(SS,OS)=  1.000000  1.000000
 Range of M.O.s used for correlation:     1   282
 NBasis=   282 NAE=    17 NBE=    17 NFC=     0 NFV=     0
 NROrb=    282 NOA=    17 NOB=    17 NVA=   265 NVB=   265

 **** Warning!!: The largest alpha MO coefficient is  0.20073012D+02

 Leave Link  801 at Thu Aug  8 17:49:47 2024, MaxMem=   939524096 cpu:         0.0
 (Enter /Local/ce_dana/g09/l1101.exe)
 Using compressed storage, NAtomX=    11.
 Will process     12 centers per pass.
 R6Disp: Adding Grimme-D2 dispersion energy 1st derivatives to the gradient.
 Leave Link 1101 at Thu Aug  8 17:49:47 2024, MaxMem=   939524096 cpu:         2.0
 (Enter /Local/ce_dana/g09/l1102.exe)
 Symmetrizing basis deriv contribution to polar:
 IMax=3 JMax=2 DiffMx= 0.00D+00
 Leave Link 1102 at Thu Aug  8 17:49:47 2024, MaxMem=   939524096 cpu:         0.1
 (Enter /Local/ce_dana/g09/l1110.exe)
 Forming Gx(P) for the SCF density, NAtomX=    11.
 Integral derivatives from FoFJK, PRISM(SPDF).
 Do as many integral derivatives as possible in FoFJK.
 G2DrvN: MDV=     939523904.
 G2DrvN: will do    12 centers at a time, making    1 passes.
 Calling FoFCou, ICntrl=  3107 FMM=F I1Cent=   0 AccDes= 0.00D+00.
 FoFJK:  IHMeth= 1 ICntrl=    3107 DoSepK=T KAlg= 0 I1Cent=   0 FoldK=F
 IRaf=         1 NMat=   1 IRICut=       1 DoRegI=T DoRafI=F ISym2E= 0.
 FoFCou: FMM=F IPFlag=           0 FMFlag=      100000 FMFlg1=           0
         NFxFlg=           0 DoJE=F BraDBF=F KetDBF=F FulRan=T
         wScrn=  0.000000 ICntrl=    3507 IOpCl=  0 I1Cent=           0 NGrid=           0
         NMat0=    1 NMatS0=      1 NMatT0=    0 NMatD0=    1 NMtDS0=    0 NMtDT0=    0
 Symmetry not used in FoFCou.
 End of G2Drv F.D. properties file   721 does not exist.
 End of G2Drv F.D. properties file   722 does not exist.
 End of G2Drv F.D. properties file   788 does not exist.
 Leave Link 1110 at Thu Aug  8 17:50:40 2024, MaxMem=   939524096 cpu:       522.8
 (Enter /Local/ce_dana/g09/l1002.exe)
 Minotr:  Closed shell wavefunction.
          IDoAtm=11111111111
          Direct CPHF calculation.
          Differentiating once with respect to nuclear coordinates.
          Requested convergence is 1.0D-08 RMS, and 1.0D-07 maximum.
          Secondary convergence is 1.0D-12 RMS, and 1.0D-12 maximum.
          NewPWx=T KeepS1=F KeepF1=F KeepIn=T MapXYZ=F SortEE=F KeepMc=T.
          MDV=     939523700 using IRadAn=       2.
 Generate precomputed XC quadrature information.
          Solving linear equations simultaneously, MaxMat=       0.
 FoFJK:  IHMeth= 1 ICntrl=       0 DoSepK=T KAlg= 0 I1Cent=   0 FoldK=F
 IRaf=         1 NMat=  36 IRICut=       1 DoRegI=T DoRafI=F ISym2E= 0.
 FoFCou: FMM=F IPFlag=           0 FMFlag=      100000 FMFlg1=           0
         NFxFlg=           0 DoJE=F BraDBF=F KetDBF=F FulRan=T
         wScrn=  0.000000 ICntrl=     500 IOpCl=  0 I1Cent=           0 NGrid=           0
         NMat0=   36 NMatS0=     36 NMatT0=    0 NMatD0=   36 NMtDS0=    0 NMtDT0=    0
 Symmetry not used in FoFCou.
          There are    36 degrees of freedom in the 1st order CPHF.  IDoFFX=6 NUNeed=     0.
     30 vectors produced by pass  0 Test12= 1.25D-14 2.78D-09 XBig12= 9.03D-02 1.04D-01.
 AX will form    30 AO Fock derivatives at one time.
     30 vectors produced by pass  1 Test12= 1.25D-14 2.78D-09 XBig12= 1.56D-02 3.79D-02.
     30 vectors produced by pass  2 Test12= 1.25D-14 2.78D-09 XBig12= 3.68D-04 4.02D-03.
     30 vectors produced by pass  3 Test12= 1.25D-14 2.78D-09 XBig12= 4.59D-06 2.96D-04.
     30 vectors produced by pass  4 Test12= 1.25D-14 2.78D-09 XBig12= 3.84D-08 3.39D-05.
     30 vectors produced by pass  5 Test12= 1.25D-14 2.78D-09 XBig12= 3.06D-10 2.88D-06.
     30 vectors produced by pass  6 Test12= 1.25D-14 2.78D-09 XBig12= 2.64D-12 2.70D-07.
      9 vectors produced by pass  7 Test12= 1.25D-14 2.78D-09 XBig12= 1.99D-14 1.79D-08.
      2 vectors produced by pass  8 Test12= 1.25D-14 2.78D-09 XBig12= 6.08D-16 3.63D-09.
 InvSVY:  IOpt=1 It=  1 EMax= 1.78D-15
 Solved reduced A of dimension   221 with    30 vectors.
 End of Minotr F.D. properties file   721 does not exist.
 End of Minotr F.D. properties file   722 does not exist.
 End of Minotr F.D. properties file   788 does not exist.
 Leave Link 1002 at Thu Aug  8 17:54:06 2024, MaxMem=   939524096 cpu:      2030.8
 (Enter /Local/ce_dana/g09/l701.exe)
 Compute integral second derivatives.
 ... and contract with generalized density number  0.
 R6Disp: Adding Grimme-D2 dispersion energy 2nd derivatives to the Hessian.
 Leave Link  701 at Thu Aug  8 17:54:06 2024, MaxMem=   939524096 cpu:         2.1
 (Enter /Local/ce_dana/g09/l702.exe)
 L702 exits ... SP integral derivatives will be done elsewhere.
 Leave Link  702 at Thu Aug  8 17:54:06 2024, MaxMem=   939524096 cpu:         0.0
 (Enter /Local/ce_dana/g09/l703.exe)
 Compute integral second derivatives, UseDBF=F ICtDFT=           0.
 Integral derivatives from FoFJK, PRISM(SPDF).
 Calling FoFJK, ICntrl=    100127 FMM=F ISym2X=0 I1Cent= 0 IOpClX= 0 NMat=1 NMatS=1 NMatT=0.
 FoFJK:  IHMeth= 1 ICntrl=  100127 DoSepK=T KAlg= 0 I1Cent=   0 FoldK=F
 IRaf=         1 NMat=   1 IRICut=       1 DoRegI=T DoRafI=F ISym2E= 0.
 FoFCou: FMM=F IPFlag=           0 FMFlag=      100000 FMFlg1=         800
         NFxFlg=           0 DoJE=F BraDBF=F KetDBF=F FulRan=T
         wScrn=  0.000000 ICntrl=  100527 IOpCl=  0 I1Cent=           0 NGrid=           0
         NMat0=    1 NMatS0=      1 NMatT0=    0 NMatD0=    1 NMtDS0=    0 NMtDT0=    0
 Symmetry not used in FoFCou.
 Leave Link  703 at Thu Aug  8 17:56:25 2024, MaxMem=   939524096 cpu:      1381.6
 (Enter /Local/ce_dana/g09/l716.exe)
 Dipole        = 4.49625674D-01 3.74493995D-01-3.73714900D-01
 Polarizability= 0.00000000D+00 0.00000000D+00 0.00000000D+00
                 0.00000000D+00 0.00000000D+00 0.00000000D+00
 -------------------------------------------------------------------
 Center     Atomic                   Forces (Hartrees/Bohr)
 Number     Number              X              Y              Z
 -------------------------------------------------------------------
      1        6           0.002830744    0.027351311   -0.003059982
      2        1          -0.002419438    0.001151255   -0.001742726
      3        1          -0.003409044    0.001373401    0.001478031
      4        7           0.008363845   -0.020395787    0.001176002
      5        1          -0.005116441   -0.009330738    0.006034808
      6        1          -0.006421204   -0.005173309   -0.004999581
      7        6           0.016438980   -0.030617798   -0.002085240
      8        1           0.000597564   -0.001785136    0.001547727
      9        1           0.000177860   -0.001627991   -0.001806640
     10        8           0.007114706    0.029103343    0.003358874
     11        1          -0.018157571    0.009951448    0.000098726
 -------------------------------------------------------------------
 Cartesian Forces:  Max     0.030617798 RMS     0.011123170
 Z-matrix is all fixed cartesians, so copy forces.
 Force constants in Cartesian coordinates: 
                1             2             3             4             5 
      1  0.232235D+00
      2 -0.190466D+00  0.518827D+00
      3 -0.562517D-01 -0.257078D-01  0.637308D+00
      4 -0.406987D-01  0.448696D-01 -0.540088D-01  0.458655D-01
      5  0.305572D-01 -0.834372D-01  0.861468D-01 -0.333744D-01  0.107501D+00
      6 -0.452768D-01  0.941352D-01 -0.274159D+00  0.542125D-01 -0.105021D+00
      7 -0.786165D-01  0.622451D-01  0.993994D-01  0.383346D-02 -0.369210D-02
      8  0.501599D-01 -0.853527D-01 -0.748305D-01 -0.618813D-02  0.602720D-02
      9  0.927844D-01 -0.805938D-01 -0.241006D+00  0.120095D-01 -0.101527D-01
     10 -0.101553D+00  0.842184D-03  0.169373D-01  0.283080D-02  0.582974D-02
     11  0.846612D-01 -0.295732D+00 -0.194023D-01 -0.827511D-02 -0.251629D-01
     12  0.103791D-01  0.309220D-01 -0.108035D+00 -0.114494D-02  0.297557D-01
     13  0.818466D-03  0.453268D-02 -0.212246D-02  0.797353D-02  0.482206D-02
     14 -0.278501D-02 -0.192007D-01  0.392135D-01  0.409794D-05 -0.508445D-02
     15  0.298843D-04 -0.101943D-01 -0.572737D-03  0.553855D-04  0.164352D-02
     16  0.351305D-01  0.895555D-01 -0.516906D-03 -0.101897D-01 -0.167833D-02
     17  0.180174D-01 -0.699171D-02 -0.675611D-02 -0.720383D-03 -0.100716D-02
     18  0.812804D-03 -0.321706D-02 -0.528289D-03 -0.402928D-03  0.421261D-03
     19 -0.352723D-01 -0.360349D-01 -0.148142D-02  0.392167D-02  0.454782D-04
     20 -0.478563D-01 -0.755643D-01 -0.293906D-02  0.130880D-01  0.261909D-02
     21 -0.721528D-02 -0.157823D-01  0.306372D-02  0.154354D-02  0.903254D-03
     22  0.546072D-02  0.922836D-02 -0.160212D-02 -0.244104D-02 -0.524081D-03
     23  0.177870D-02  0.417784D-02  0.883513D-04 -0.927575D-03 -0.231847D-03
     24 -0.508569D-03 -0.992532D-03 -0.288492D-04  0.383298D-03 -0.118646D-03
     25  0.572130D-02  0.102795D-01  0.211709D-02 -0.130166D-02 -0.200691D-03
     26  0.171229D-02  0.460706D-02  0.144054D-03 -0.532457D-03 -0.223268D-03
     27  0.158999D-02  0.373482D-02  0.371386D-03 -0.537359D-03 -0.970321D-04
     28 -0.903871D-01 -0.787071D-01 -0.665980D-02  0.103818D-01  0.324758D-02
     29  0.639361D-01  0.581740D-01  0.378110D-02 -0.114913D-01 -0.229504D-02
     30  0.393313D-02  0.562556D-02 -0.260955D-02 -0.135487D-02 -0.411362D-03
     31  0.671625D-01  0.836549D-01  0.418948D-02 -0.201757D-01 -0.503248D-02
     32 -0.971544D-02 -0.195069D-01  0.262001D-03  0.354767D-02  0.129410D-02
     33 -0.276986D-03  0.207016D-02 -0.138040D-01 -0.107552D-01 -0.306964D-02
                6             7             8             9            10 
      6  0.280559D+00
      7 -0.736484D-02  0.810566D-01
      8  0.847634D-02 -0.569376D-01  0.101788D+00
      9 -0.144136D-01 -0.101236D+00  0.916030D-01  0.246334D+00
     10 -0.102261D-02  0.128829D-01  0.221148D-01  0.340167D-02  0.163735D+00
     11  0.360762D-02 -0.754297D-02 -0.242220D-01 -0.251493D-02  0.195772D-01
     12  0.953434D-02 -0.960301D-03 -0.269383D-01  0.569405D-02 -0.723135D-01
[...]
     6  H    2.136719   2.742794   2.971271   1.264490   1.783841
     7  C    2.911218   3.460513   3.620488   2.523196   2.911225
     8  H    3.566715   4.311284   4.069216   3.022732   3.044070
     9  H    3.566624   3.860505   4.441041   3.083128   3.632973
    10  O    2.509685   2.951488   3.053111   2.810422   3.305866
    11  H    1.393972   1.889588   1.922905   2.143085   2.725424
                    6          7          8          9         10
     6  H    0.000000
     7  C    1.379271   0.000000
     8  H    1.964208   1.093815   0.000000
     9  H    1.875109   1.094975   1.860285   0.000000
    10  O    2.137283   1.353804   2.078997   2.075560   0.000000
    11  H    2.069643   2.086957   2.815371   2.826976   1.205420
                   11
    11  H    0.000000
 Symmetry turned off by external request.
 Stoichiometry    C2H7NO
 Framework group  C1[X(C2H7NO)]
 Deg. of freedom    27
 Full point group                 C1      NOp   1
 Rotational constants (GHZ):     13.2841769      4.9529301      3.8498019
 Leave Link  202 at Fri Aug  9 00:38:07 2024, MaxMem=   939524096 cpu:         0.0
 (Enter /Local/ce_dana/g09/l301.exe)
 Standard basis: 6-311++G(3df,3pd) (5D, 7F)
 Ernie: Thresh=  0.10000D-02 Tol=  0.10000D-05 Strict=F.
   282 basis functions,   379 primitive gaussians,   313 cartesian basis functions
    17 alpha electrons       17 beta electrons
       nuclear repulsion energy       128.6805728737 Hartrees.
 IExCor= 4639 DFT=T Ex+Corr=wB97XD ExCW=0 ScaHFX=  1.000000
 ScaDFX=  1.000000  1.000000  1.000000  1.000000 ScalE2=  1.000000  1.000000
 IRadAn=      0 IRanWt=     -1 IRanGd=            0 ICorTp=0 IEmpDi=121
  HFx wShort=  0.000000 wLong=  0.200000 cFull=  0.222036 cShort=  0.000000 cLong=  0.777964
  DFx wShort=  0.000000 wLong=  0.200000 cFull=  0.000000 cShort=  0.000000 cLong=  1.000000
 NAtoms=   11 NActive=   11 NUniq=   11 SFac= 1.00D+00 NAtFMM=   60 NAOKFM=F Big=F
 Integral buffers will be    131072 words long.
 Raffenetti 2 integral format.
 Two-electron integral symmetry is turned off.
 R6Disp:  Grimme-D2 Dispersion energy=       -0.0037690290 Hartrees.
 Nuclear repulsion after empirical dispersion term =      128.6768038447 Hartrees.
 Leave Link  301 at Fri Aug  9 00:38:08 2024, MaxMem=   939524096 cpu:         0.0
 (Enter /Local/ce_dana/g09/l302.exe)
 NPDir=0 NMtPBC=     1 NCelOv=     1 NCel=       1 NClECP=     1 NCelD=      1
         NCelK=      1 NCelE2=     1 NClLst=     1 CellRange=     0.0.
 One-electron integrals computed using PRISM.
 NBasis=   282 RedAO= T EigKep=  1.25D-04  NBF=   282
 NBsUse=   282 1.00D-06 EigRej= -1.00D+00 NBFU=   282
 Precomputing XC quadrature grid using
 IXCGrd= 4 IRadAn=           0 IRanWt=          -1 IRanGd=           0 AccXCQ= 0.00D+00.
 Generated NRdTot=       0 NPtTot=           0 NUsed=           0 NTot=          32
 NSgBfM=   313   313   313   313   313 MxSgAt=    11 MxSgA2=    11.
 Leave Link  302 at Fri Aug  9 00:38:08 2024, MaxMem=   939524096 cpu:         1.7
 (Enter /Local/ce_dana/g09/l303.exe)
 DipDrv:  MaxL=1.
 Leave Link  303 at Fri Aug  9 00:38:08 2024, MaxMem=   939524096 cpu:         0.1
 (Enter /Local/ce_dana/g09/l401.exe)
 Initial guess from the checkpoint file:  "/storage/ce_dana/ronnp/scratch/g09/atsqE4/Gau-3323139.chk"
 B after Tr=    -0.001413   -0.000167   -0.000074
         Rot=    1.000000   -0.000022    0.000027   -0.000033 Ang=  -0.01 deg.
 Guess basis will be translated and rotated to current coordinates.
 JPrj=2 DoOrth=T DoCkMO=T.
 Generating alternative initial guess.
 ExpMin= 3.60D-02 ExpMax= 8.59D+03 ExpMxC= 1.30D+03 IAcc=3 IRadAn=         5 AccDes= 0.00D+00
 Harris functional with IExCor= 4639 and IRadAn=       5 diagonalized for initial guess.
 HarFok:  IExCor= 4639 AccDes= 0.00D+00 IRadAn=         5 IDoV= 1 UseB2=F ITyADJ=14
 ICtDFT=  3500011 ScaDFX=  1.000000  1.000000  1.000000  1.000000
 FoFCou: FMM=F IPFlag=           0 FMFlag=      100000 FMFlg1=           0
         NFxFlg=           0 DoJE=T BraDBF=F KetDBF=T FulRan=T
         wScrn=  0.000000 ICntrl=     500 IOpCl=  0 I1Cent=   200000004 NGrid=           0
         NMat0=    1 NMatS0=      1 NMatT0=    0 NMatD0=    1 NMtDS0=    0 NMtDT0=    0
 Symmetry not used in FoFCou.
 Harris En= -201.398176968620    
 Leave Link  401 at Fri Aug  9 00:38:10 2024, MaxMem=   939524096 cpu:        16.6
 (Enter /Local/ce_dana/g09/l502.exe)
 Closed shell SCF:
 Using DIIS extrapolation, IDIIS=  1040.
 Two-electron integral symmetry not used.
 IVT=      317487 IEndB=      317487 NGot=   939524096 MDV=   939321532
 LenX=   939321532 LenY=   939223122
 Requested convergence on RMS density matrix=1.00D-08 within 128 cycles.
 Requested convergence on MAX density matrix=1.00D-06.
 Requested convergence on             energy=1.00D-06.
 No special actions if energy rises.
 Fock matrices will be formed incrementally for  20 cycles.

 Cycle   1  Pass 1  IDiag  1:
 FoFJK:  IHMeth= 1 ICntrl=       0 DoSepK=T KAlg= 0 I1Cent=   0 FoldK=F
 IRaf=         1 NMat=   1 IRICut=       1 DoRegI=T DoRafI=F ISym2E= 0.
 FoFCou: FMM=F IPFlag=           0 FMFlag=      100000 FMFlg1=           0
         NFxFlg=           0 DoJE=T BraDBF=F KetDBF=F FulRan=T
         wScrn=  0.000000 ICntrl=     500 IOpCl=  0 I1Cent=           0 NGrid=           0
         NMat0=    1 NMatS0=      1 NMatT0=    0 NMatD0=    1 NMtDS0=    0 NMtDT0=    0
 Symmetry not used in FoFCou.
 E= -210.290308012217    
 DIIS: error= 1.07D-03 at cycle   1 NSaved=   1.
 NSaved= 1 IEnMin= 1 EnMin= -210.290308012217     IErMin= 1 ErrMin= 1.07D-03
 ErrMax= 1.07D-03  0.00D+00 EMaxC= 1.00D-01 BMatC= 3.89D-04 BMatP= 3.89D-04
 IDIUse=3 WtCom= 9.89D-01 WtEn= 1.07D-02
 Coeff-Com:  0.100D+01
 Coeff-En:   0.100D+01
 Coeff:      0.100D+01
 Gap=     0.575 Goal=   None    Shift=    0.000
 GapD=    0.575 DampG=2.000 DampE=1.000 DampFc=2.0000 IDamp=-1.
 RMSDP=1.08D-04 MaxDP=4.21D-03              OVMax= 1.51D-02

 Cycle   2  Pass 1  IDiag  1:
 RMSU=  1.08D-04    CP:  1.00D+00
 E= -210.290824123150     Delta-E=       -0.000516110933 Rises=F Damp=F
 DIIS: error= 5.45D-04 at cycle   2 NSaved=   2.
 NSaved= 2 IEnMin= 2 EnMin= -210.290824123150     IErMin= 2 ErrMin= 5.45D-04
 ErrMax= 5.45D-04  0.00D+00 EMaxC= 1.00D-01 BMatC= 9.51D-05 BMatP= 3.89D-04
 IDIUse=3 WtCom= 9.95D-01 WtEn= 5.45D-03
 Coeff-Com:  0.178D+00 0.822D+00
 Coeff-En:   0.000D+00 0.100D+01
 Coeff:      0.177D+00 0.823D+00
 Gap=     0.325 Goal=   None    Shift=    0.000
 RMSDP=4.45D-05 MaxDP=2.28D-03 DE=-5.16D-04 OVMax= 4.66D-03

 Cycle   3  Pass 1  IDiag  1:
 RMSU=  4.44D-05    CP:  1.00D+00  1.02D+00
 E= -210.290885304556     Delta-E=       -0.000061181406 Rises=F Damp=F
 DIIS: error= 3.88D-04 at cycle   3 NSaved=   3.
 NSaved= 3 IEnMin= 3 EnMin= -210.290885304556     IErMin= 3 ErrMin= 3.88D-04
 ErrMax= 3.88D-04  0.00D+00 EMaxC= 1.00D-01 BMatC= 6.18D-05 BMatP= 9.51D-05
 IDIUse=3 WtCom= 9.96D-01 WtEn= 3.88D-03
 Coeff-Com: -0.648D-01 0.459D+00 0.606D+00
 Coeff-En:   0.000D+00 0.240D+00 0.760D+00
 Coeff:     -0.645D-01 0.458D+00 0.606D+00
 Gap=     0.324 Goal=   None    Shift=    0.000
 RMSDP=2.32D-05 MaxDP=9.09D-04 DE=-6.12D-05 OVMax= 4.21D-03

 Cycle   4  Pass 1  IDiag  1:
 RMSU=  2.13D-05    CP:  1.00D+00  1.09D+00  8.83D-01
 E= -210.290953680434     Delta-E=       -0.000068375877 Rises=F Damp=F
 DIIS: error= 1.59D-04 at cycle   4 NSaved=   4.
 NSaved= 4 IEnMin= 4 EnMin= -210.290953680434     IErMin= 4 ErrMin= 1.59D-04
 ErrMax= 1.59D-04  0.00D+00 EMaxC= 1.00D-01 BMatC= 4.21D-06 BMatP= 6.18D-05
 IDIUse=3 WtCom= 9.98D-01 WtEn= 1.59D-03
 Coeff-Com: -0.248D-01 0.834D-02 0.186D+00 0.830D+00
 Coeff-En:   0.000D+00 0.000D+00 0.000D+00 0.100D+01
 Coeff:     -0.247D-01 0.833D-02 0.186D+00 0.830D+00
 Gap=     0.325 Goal=   None    Shift=    0.000
 RMSDP=1.11D-05 MaxDP=4.89D-04 DE=-6.84D-05 OVMax= 2.03D-03

 Cycle   5  Pass 1  IDiag  1:
 RMSU=  7.17D-06    CP:  1.00D+00  1.11D+00  1.02D+00  1.27D+00
 E= -210.290960120047     Delta-E=       -0.000006439614 Rises=F Damp=F
 DIIS: error= 1.05D-04 at cycle   5 NSaved=   5.
 NSaved= 5 IEnMin= 5 EnMin= -210.290960120047     IErMin= 5 ErrMin= 1.05D-04
 ErrMax= 1.05D-04  0.00D+00 EMaxC= 1.00D-01 BMatC= 1.90D-06 BMatP= 4.21D-06
 IDIUse=3 WtCom= 9.99D-01 WtEn= 1.05D-03
 Coeff-Com: -0.184D-02-0.111D+00-0.158D-01 0.503D+00 0.626D+00
 Coeff-En:   0.000D+00 0.000D+00 0.000D+00 0.000D+00 0.100D+01
 Coeff:     -0.184D-02-0.111D+00-0.158D-01 0.502D+00 0.626D+00
 Gap=     0.325 Goal=   None    Shift=    0.000
 RMSDP=6.67D-06 MaxDP=2.90D-04 DE=-6.44D-06 OVMax= 6.68D-04

 Cycle   6  Pass 1  IDiag  1:
 RMSU=  3.06D-06    CP:  1.00D+00  1.11D+00  1.10D+00  1.49D+00  1.01D+00
 E= -210.290962702889     Delta-E=       -0.000002582841 Rises=F Damp=F
 DIIS: error= 1.43D-05 at cycle   6 NSaved=   6.
 NSaved= 6 IEnMin= 6 EnMin= -210.290962702889     IErMin= 6 ErrMin= 1.43D-05
 ErrMax= 1.43D-05  0.00D+00 EMaxC= 1.00D-01 BMatC= 7.02D-08 BMatP= 1.90D-06
 IDIUse=1 WtCom= 1.00D+00 WtEn= 0.00D+00
 Coeff-Com:  0.542D-02-0.372D-01-0.380D-01-0.310D-01 0.666D-01 0.103D+01
 Coeff:      0.542D-02-0.372D-01-0.380D-01-0.310D-01 0.666D-01 0.103D+01
 Gap=     0.325 Goal=   None    Shift=    0.000
 RMSDP=3.97D-06 MaxDP=1.87D-04 DE=-2.58D-06 OVMax= 6.27D-04

 Cycle   7  Pass 1  IDiag  1:
 RMSU=  9.79D-07    CP:  1.00D+00  1.11D+00  1.14D+00  1.62D+00  1.23D+00
                    CP:  1.40D+00
 E= -210.290963033842     Delta-E=       -0.000000330953 Rises=F Damp=F
 DIIS: error= 5.01D-06 at cycle   7 NSaved=   7.
 NSaved= 7 IEnMin= 7 EnMin= -210.290963033842     IErMin= 7 ErrMin= 5.01D-06
 ErrMax= 5.01D-06  0.00D+00 EMaxC= 1.00D-01 BMatC= 7.19D-09 BMatP= 7.02D-08
 IDIUse=1 WtCom= 1.00D+00 WtEn= 0.00D+00
 Coeff-Com:  0.183D-04 0.778D-02 0.458D-02-0.375D-01-0.636D-01 0.434D-01
 Coeff-Com:  0.105D+01
 Coeff:      0.183D-04 0.778D-02 0.458D-02-0.375D-01-0.636D-01 0.434D-01
 Coeff:      0.105D+01
 Gap=     0.325 Goal=   None    Shift=    0.000
 RMSDP=1.01D-06 MaxDP=6.09D-05 DE=-3.31D-07 OVMax= 1.42D-04

 Cycle   8  Pass 1  IDiag  1:
 RMSU=  3.06D-07    CP:  1.00D+00  1.11D+00  1.15D+00  1.65D+00  1.29D+00
                    CP:  1.58D+00  1.25D+00
 E= -210.290963059291     Delta-E=       -0.000000025450 Rises=F Damp=F
 DIIS: error= 2.04D-06 at cycle   8 NSaved=   8.
 NSaved= 8 IEnMin= 8 EnMin= -210.290963059291     IErMin= 8 ErrMin= 2.04D-06
 ErrMax= 2.04D-06  0.00D+00 EMaxC= 1.00D-01 BMatC= 1.28D-09 BMatP= 7.19D-09
 IDIUse=1 WtCom= 1.00D+00 WtEn= 0.00D+00
 Coeff-Com: -0.760D-03 0.816D-02 0.724D-02-0.782D-02-0.352D-01-0.127D+00
 Coeff-Com:  0.323D+00 0.832D+00
 Coeff:     -0.760D-03 0.816D-02 0.724D-02-0.782D-02-0.352D-01-0.127D+00
 Coeff:      0.323D+00 0.832D+00
 Gap=     0.325 Goal=   None    Shift=    0.000
 RMSDP=3.06D-07 MaxDP=1.77D-05 DE=-2.54D-08 OVMax= 4.69D-05

 Cycle   9  Pass 1  IDiag  1:
 RMSU=  1.28D-07    CP:  1.00D+00  1.11D+00  1.15D+00  1.65D+00  1.31D+00
                    CP:  1.63D+00  1.38D+00  1.21D+00
 E= -210.290963063037     Delta-E=       -0.000000003746 Rises=F Damp=F
 DIIS: error= 8.05D-07 at cycle   9 NSaved=   9.
 NSaved= 9 IEnMin= 9 EnMin= -210.290963063037     IErMin= 9 ErrMin= 8.05D-07
 ErrMax= 8.05D-07  0.00D+00 EMaxC= 1.00D-01 BMatC= 1.62D-10 BMatP= 1.28D-09
 IDIUse=1 WtCom= 1.00D+00 WtEn= 0.00D+00
 Coeff-Com: -0.135D-03 0.430D-03 0.745D-03 0.487D-02 0.386D-03-0.277D-01
 Coeff-Com: -0.846D-01 0.169D+00 0.937D+00
 Coeff:     -0.135D-03 0.430D-03 0.745D-03 0.487D-02 0.386D-03-0.277D-01
 Coeff:     -0.846D-01 0.169D+00 0.937D+00
 Gap=     0.325 Goal=   None    Shift=    0.000
 RMSDP=9.85D-08 MaxDP=2.70D-06 DE=-3.75D-09 OVMax= 1.74D-05

 Cycle  10  Pass 1  IDiag  1:
 RMSU=  5.20D-08    CP:  1.00D+00  1.11D+00  1.15D+00  1.65D+00  1.31D+00
                    CP:  1.64D+00  1.42D+00  1.38D+00  1.29D+00
 E= -210.290963063515     Delta-E=       -0.000000000478 Rises=F Damp=F
 DIIS: error= 3.03D-07 at cycle  10 NSaved=  10.
 NSaved=10 IEnMin=10 EnMin= -210.290963063515     IErMin=10 ErrMin= 3.03D-07
 ErrMax= 3.03D-07  0.00D+00 EMaxC= 1.00D-01 BMatC= 4.94D-11 BMatP= 1.62D-10
 IDIUse=1 WtCom= 1.00D+00 WtEn= 0.00D+00
 Coeff-Com:  0.577D-04-0.122D-02-0.883D-03 0.353D-02 0.562D-02 0.857D-02
 Coeff-Com: -0.101D+00-0.603D-01 0.445D+00 0.701D+00
 Coeff:      0.577D-04-0.122D-02-0.883D-03 0.353D-02 0.562D-02 0.857D-02
 Coeff:     -0.101D+00-0.603D-01 0.445D+00 0.701D+00
 Gap=     0.325 Goal=   None    Shift=    0.000
 RMSDP=4.12D-08 MaxDP=2.64D-06 DE=-4.78D-10 OVMax= 4.97D-06

 Cycle  11  Pass 1  IDiag  1:
 RMSU=  2.08D-08    CP:  1.00D+00  1.11D+00  1.15D+00  1.65D+00  1.31D+00
                    CP:  1.64D+00  1.42D+00  1.45D+00  1.46D+00  1.15D+00
 E= -210.290963063591     Delta-E=       -0.000000000076 Rises=F Damp=F
 DIIS: error= 8.72D-08 at cycle  11 NSaved=  11.
 NSaved=11 IEnMin=11 EnMin= -210.290963063591     IErMin=11 ErrMin= 8.72D-08
 ErrMax= 8.72D-08  0.00D+00 EMaxC= 1.00D-01 BMatC= 2.27D-12 BMatP= 4.94D-11
 IDIUse=1 WtCom= 1.00D+00 WtEn= 0.00D+00
 Coeff-Com:  0.253D-04-0.262D-03-0.144D-03 0.107D-05 0.910D-03 0.456D-02
 Coeff-Com: -0.573D-02-0.237D-01-0.388D-01 0.106D+00 0.957D+00
 Coeff:      0.253D-04-0.262D-03-0.144D-03 0.107D-05 0.910D-03 0.456D-02
 Coeff:     -0.573D-02-0.237D-01-0.388D-01 0.106D+00 0.957D+00
 Gap=     0.325 Goal=   None    Shift=    0.000
 RMSDP=1.39D-08 MaxDP=2.81D-07 DE=-7.56D-11 OVMax= 1.56D-06

 Cycle  12  Pass 1  IDiag  1:
 RMSU=  4.56D-09    CP:  1.00D+00  1.11D+00  1.15D+00  1.65D+00  1.31D+00
                    CP:  1.64D+00  1.42D+00  1.46D+00  1.51D+00  1.32D+00
                    CP:  1.22D+00
 E= -210.290963063597     Delta-E=       -0.000000000006 Rises=F Damp=F
 DIIS: error= 1.69D-08 at cycle  12 NSaved=  12.
 NSaved=12 IEnMin=12 EnMin= -210.290963063597     IErMin=12 ErrMin= 1.69D-08
 ErrMax= 1.69D-08  0.00D+00 EMaxC= 1.00D-01 BMatC= 9.46D-14 BMatP= 2.27D-12
 IDIUse=1 WtCom= 1.00D+00 WtEn= 0.00D+00
 Coeff-Com: -0.354D-05 0.850D-04 0.617D-04-0.306D-03-0.398D-03-0.519D-03
 Coeff-Com:  0.743D-02 0.415D-02-0.393D-01-0.433D-01 0.431D-01 0.103D+01
 Coeff:     -0.354D-05 0.850D-04 0.617D-04-0.306D-03-0.398D-03-0.519D-03
 Coeff:      0.743D-02 0.415D-02-0.393D-01-0.433D-01 0.431D-01 0.103D+01
 Gap=     0.325 Goal=   None    Shift=    0.000
 RMSDP=3.93D-09 MaxDP=1.09D-07 DE=-5.91D-12 OVMax= 3.55D-07

 SCF Done:  E(RwB97XD) =  -210.290963064     A.U. after   12 cycles
            NFock= 12  Conv=0.39D-08     -V/T= 2.0056
 KE= 2.091116347554D+02 PE=-7.489610864567D+02 EE= 2.008816847930D+02
 Leave Link  502 at Fri Aug  9 00:39:08 2024, MaxMem=   939524096 cpu:       563.8
 (Enter /Local/ce_dana/g09/l801.exe)
 DoSCS=F DFT=T ScalE2(SS,OS)=  1.000000  1.000000
 Range of M.O.s used for correlation:     1   282
 NBasis=   282 NAE=    17 NBE=    17 NFC=     0 NFV=     0
 NROrb=    282 NOA=    17 NOB=    17 NVA=   265 NVB=   265

 **** Warning!!: The largest alpha MO coefficient is  0.21626800D+02

 Leave Link  801 at Fri Aug  9 00:39:08 2024, MaxMem=   939524096 cpu:         0.0
 (Enter /Local/ce_dana/g09/l1101.exe)
 Leave Link 1101 at Fri Aug  9 00:39:08 2024, MaxMem=   939524096 cpu:         0.0
 (Enter /Local/ce_dana/g09/l1102.exe)
 Symmetrizing basis deriv contribution to polar:
 IMax=3 JMax=2 DiffMx= 0.00D+00
 Leave Link 1102 at Fri Aug  9 00:39:08 2024, MaxMem=   939524096 cpu:         0.1
 (Enter /Local/ce_dana/g09/l1110.exe)
 Leave Link 1110 at Fri Aug  9 00:39:08 2024, MaxMem=   939524096 cpu:         0.0
 (Enter /Local/ce_dana/g09/l1002.exe)
 Minotr:  Closed shell wavefunction.
 Leave Link 1002 at Fri Aug  9 00:39:08 2024, MaxMem=   939524096 cpu:         0.0
 (Enter /Local/ce_dana/g09/l701.exe)
 Compute integral first derivatives.
 ... and contract with generalized density number  0.
 R6Disp: Adding Grimme-D2 dispersion energy 1st derivatives to the gradient.
 Leave Link  701 at Fri Aug  9 00:39:09 2024, MaxMem=   939524096 cpu:         1.3
 (Enter /Local/ce_dana/g09/l702.exe)
 L702 exits ... SP integral derivatives will be done elsewhere.
 Leave Link  702 at Fri Aug  9 00:39:09 2024, MaxMem=   939524096 cpu:         0.0
 (Enter /Local/ce_dana/g09/l703.exe)
 Compute integral first derivatives, UseDBF=F ICtDFT=           0.
 Integral derivatives from FoFJK, PRISM(SPDF).
 Calling FoFJK, ICntrl=      2127 FMM=F ISym2X=0 I1Cent= 0 IOpClX= 0 NMat=1 NMatS=1 NMatT=0.
 FoFJK:  IHMeth= 1 ICntrl=    2127 DoSepK=T KAlg= 0 I1Cent=   0 FoldK=F
 IRaf=         1 NMat=   1 IRICut=       1 DoRegI=T DoRafI=F ISym2E= 0.
 FoFCou: FMM=F IPFlag=           0 FMFlag=      100000 FMFlg1=         800
         NFxFlg=           0 DoJE=F BraDBF=F KetDBF=F FulRan=T
         wScrn=  0.000000 ICntrl=    2527 IOpCl=  0 I1Cent=           0 NGrid=           0
         NMat0=    1 NMatS0=      1 NMatT0=    0 NMatD0=    1 NMtDS0=    0 NMtDT0=    0
 Symmetry not used in FoFCou.
 Leave Link  703 at Fri Aug  9 00:39:32 2024, MaxMem=   939524096 cpu:       230.3
 (Enter /Local/ce_dana/g09/l716.exe)
 Dipole        = 3.88725725D-01 4.22293847D-01-3.68722712D-01
 Polarizability= 0.00000000D+00 0.00000000D+00 0.00000000D+00
                 0.00000000D+00 0.00000000D+00 0.00000000D+00
 -------------------------------------------------------------------
 Center     Atomic                   Forces (Hartrees/Bohr)
 Number     Number              X              Y              Z
 -------------------------------------------------------------------
      1        6          -0.003889017    0.019792722   -0.003827339
      2        1          -0.000864264    0.001790223   -0.002118604
      3        1          -0.002372158    0.002297021    0.002397281
      4        7           0.003489887   -0.013174212   -0.000831482
      5        1          -0.005430028   -0.010598057    0.008736117
      6        1           0.001651456   -0.005374112   -0.004969876
      7        6           0.012059646   -0.042647278   -0.004135913
      8        1           0.001994945   -0.001335382    0.001670917
      9        1           0.001847856   -0.001038356   -0.001621013
     10        8           0.002640633    0.039434569    0.004349985
     11        1          -0.011128956    0.010852863    0.000349927
 -------------------------------------------------------------------
 Cartesian Forces:  Max     0.042647278 RMS     0.011968679
 Z-matrix is all fixed cartesians, so copy forces.
 Leave Link  716 at Fri Aug  9 00:39:32 2024, MaxMem=   939524096 cpu:         0.0
 (Enter /Local/ce_dana/g09/l123.exe)
 IRC-IRC-IRC-IRC-IRC-IRC-IRC-IRC-IRC-IRC-IRC-IRC-IRC-IRC-IRC-IRC-IRC-IRC
 Error in corrector energy =          -0.0013854048
 Magnitude of corrector gradient =     0.0203408437
 Magnitude of analytic gradient =      0.0687548236
 Magnitude of difference =             0.0869980187
 Angle between gradients (degrees)=  150.2200
 Pt 51 Step number  20 out of a maximum of  20
 Using modified Bulirsch-Stoer corrector integration.
   Using distance weighted interpolants to fit PES.
 PreDWI: IReCr0= 2 IReCr1= 1 IReCr2= 1 IReCr3= 1
 Modified Bulirsch-Stoer Extrapolation Cycles:
    EPS =    0.000010000000000
    Cycle     1 NS=    48
    Cycle     2 NS=    64 Truncation Error =  0.000405759
    Cycle     3 NS=    96 Truncation Error =  0.000001115
 BS completed in    3 cycles and     208 integration steps.
 Maximum DWI energy   std dev =  0.000244959 at pt     1
 Maximum DWI gradient std dev =  1.565909821 at pt     1
 SUMMARY OF CORRECTOR INTEGRATION:
   Predictor End Point Energy =  -210.291740
   Old End Point Energy       =  -210.290963
   Corrected End Point Energy =  -210.292194
   Predictor End-Start Dist.  =     0.077136
   Old End-Start Dist.        =     0.031427
   New End-Start Dist.        =     0.075768
   New End-Old End Dist.      =     0.072957
 CORRECTOR INTEGRATION CONVERGENCE:
   Recorrection delta-x convergence threshold:    0.010000
   Delta-x Convergence NOT Met
 Maximum number of corrector steps exceded.
 Error termination via Lnk1e in /Local/ce_dana/g09/l123.exe at Fri Aug  9 00:39:32 2024.
 Job cpu time:       2 days 20 hours 40 minutes 18.5 seconds.
 File lengths (MBytes):  RWF=     68 Int=      0 D2E=      0 Chk=      7 Scr=      1
