 Entering Gaussian System, Link 0=g16
 Initial command:
 /opt/g16/l1.exe "/scratch/alongd/g16/a19798-9689/Gau-13854.inp" -scrdir="/scratch/alongd/g16/a19798-9689/"
 Entering Link 1 = /opt/g16/l1.exe PID=     13857.
  
 Copyright (c) 1988-2017, Gaussian, Inc.  All Rights Reserved.
  
 This is part of the Gaussian(R) 16 program.  It is based on
 the Gaussian(R) 09 system (copyright 2009, Gaussian, Inc.),
 the Gaussian(R) 03 system (copyright 2003, Gaussian, Inc.),
 the Gaussian(R) 98 system (copyright 1998, Gaussian, Inc.),
 the Gaussian(R) 94 system (copyright 1995, Gaussian, Inc.),
 the Gaussian 92(TM) system (copyright 1992, Gaussian, Inc.),
 the Gaussian 90(TM) system (copyright 1990, Gaussian, Inc.),
 the Gaussian 88(TM) system (copyright 1988, Gaussian, Inc.),
 the Gaussian 86(TM) system (copyright 1986, Carnegie Mellon
 University), and the Gaussian 82(TM) system (copyright 1983,
 Carnegie Mellon University). Gaussian is a federally registered
 trademark of Gaussian, Inc.
  
 This software contains proprietary and confidential information,
 including trade secrets, belonging to Gaussian, Inc.
  
 This software is provided under written license and may be
 used, copied, transmitted, or stored only in accord with that
 written license.
  
 The following legend is applicable only to US Government
 contracts under FAR:
  
                    RESTRICTED RIGHTS LEGEND
  
 Use, reproduction and disclosure by the US Government is
 subject to restrictions as set forth in subparagraphs (a)
 and (c) of the Commercial Computer Software - Restricted
 Rights clause in FAR 52.227-19.
  
 Gaussian, Inc.
 340 Quinnipiac St., Bldg. 40, Wallingford CT 06492
  
  
 ---------------------------------------------------------------
 Warning -- This program may not be used in any manner that
 competes with the business of Gaussian, Inc. or will provide
 assistance to any competitor of Gaussian, Inc.  The licensee
 of this program is prohibited from giving any competitor of
 Gaussian, Inc. access to this program.  By using this program,
 the user acknowledges that Gaussian, Inc. is engaged in the
 business of creating and licensing software in the field of
 computational chemistry and represents and warrants to the
 licensee that it is not a competitor of Gaussian, Inc. and that
 it will not use this program in any manner prohibited above.
 ---------------------------------------------------------------
  

 Cite this work as:
 Gaussian 16, Revision B.01,
 M. J. Frisch, G. W. Trucks, H. B. Schlegel, G. E. Scuseria, 
 M. A. Robb, J. R. Cheeseman, G. Scalmani, V. Barone, 
 G. A. Petersson, H. Nakatsuji, X. Li, M. Caricato, A. V. Marenich, 
 J. Bloino, B. G. Janesko, R. Gomperts, B. Mennucci, H. P. Hratchian, 
 J. V. Ortiz, A. F. Izmaylov, J. L. Sonnenberg, D. Williams-Young, 
 F. Ding, F. Lipparini, F. Egidi, J. Goings, B. Peng, A. Petrone, 
 T. Henderson, D. Ranasinghe, V. G. Zakrzewski, J. Gao, N. Rega, 
 G. Zheng, W. Liang, M. Hada, M. Ehara, K. Toyota, R. Fukuda, 
 J. Hasegawa, M. Ishida, T. Nakajima, Y. Honda, O. Kitao, H. Nakai, 
 T. Vreven, K. Throssell, J. A. Montgomery, Jr., J. E. Peralta, 
 F. Ogliaro, M. J. Bearpark, J. J. Heyd, E. N. Brothers, K. N. Kudin, 
 V. N. Staroverov, T. A. Keith, R. Kobayashi, J. Normand, 
 K. Raghavachari, A. P. Rendell, J. C. Burant, S. S. Iyengar, 
 J. Tomasi, M. Cossi, J. M. Millam, M. Klene, C. Adamo, R. Cammi, 
 J. W. Ochterski, R. L. Martin, K. Morokuma, O. Farkas, 
 J. B. Foresman, and D. J. Fox, Gaussian, Inc., Wallingford CT, 2016.
 
 ******************************************
 Gaussian 16:  ES64L-G16RevB.01 20-Dec-2017
                 6-Sep-2019 
 ******************************************
 %chk=check.chk
 %mem=14000mb
 %NProcShared=8
 Will use up to    8 processors via shared memory.
 -------------------------------------------------------------
 #P opt guess=mix ub3lyp/6-311+g(3df,2p) scf=xqc iop(2/9=2000)
 -------------------------------------------------------------
 1/18=20,19=15,26=3,38=1/1,3;
 2/9=2000,12=2,17=6,18=5,40=1/2;
 3/5=4,6=6,7=216,11=2,25=1,30=1,71=1,74=-5,116=2/1,2,3;
 4/13=-1/1;
 5/5=2,8=3,13=1,38=5/2,8;
 6/7=2,8=2,9=2,10=2,28=1/1;
 7//1,2,3,16;
 1/18=20,19=15,26=3/3(2);
 2/9=2000/2;
 99//99;
 2/9=2000/2;
 3/5=4,6=6,7=216,11=2,25=1,30=1,71=1,74=-5,116=2/1,2,3;
 4/5=5,16=3,69=1/1;
 5/5=2,8=3,13=1,38=5/2,8;
 7//1,2,3,16;
 1/18=20,19=15,26=3/3(-5);
 2/9=2000/2;
 6/7=2,8=2,9=2,10=2,19=2,28=1/1;
 99/9=1/99;
 Leave Link    1 at Fri Sep  6 22:18:03 2019, MaxMem=  1835008000 cpu:               1.2 elap:               0.2
 (Enter /opt/g16/l101.exe)
 ----
 name
 ----
 Symbolic Z-matrix:
 Charge =  0 Multiplicity = 2
 Zr                    0.9122    0.81104  -0.25827 
 Zr                    1.25414   1.07818   2.90045 
 O                     2.13171   0.4691    1.04598 
 O                    -0.26084   1.48996   1.28265 
 O                     1.922     2.63835   3.94526 
 O                     0.72504  -0.17158   3.99615 
 H                    -1.20404   1.65687   1.3272 
 
 Add atom      1 valence  3 ND=      1 dihedral       2      1      3      4
 ITRead=  0  0  0  0  0  0  0
 MicOpt= -1 -1 -1 -1 -1 -1 -1
 NAtoms=      7 NQM=        7 NQMF=       0 NMMI=      0 NMMIF=      0
                NMic=       0 NMicF=      0.
                    Isotopes and Nuclear Properties:
 (Nuclear quadrupole moments (NQMom) in fm**2, nuclear magnetic moments (NMagM)
  in nuclear magnetons)

  Atom         1           2           3           4           5           6           7
 IAtWgt=          90          90          16          16          16          16           1
 AtmWgt=  89.9043000  89.9043000  15.9949146  15.9949146  15.9949146  15.9949146   1.0078250
 NucSpn=           0           0           0           0           0           0           1
 AtZEff=  -0.0000000  -0.0000000  -0.0000000  -0.0000000  -0.0000000  -0.0000000  -0.0000000
 NQMom=    0.0000000   0.0000000   0.0000000   0.0000000   0.0000000   0.0000000   0.0000000
 NMagM=    0.0000000   0.0000000   0.0000000   0.0000000   0.0000000   0.0000000   2.7928460
 AtZNuc=  40.0000000  40.0000000   8.0000000   8.0000000   8.0000000   8.0000000   1.0000000
 Leave Link  101 at Fri Sep  6 22:18:24 2019, MaxMem=  1835008000 cpu:             152.2 elap:              21.8
 (Enter /opt/g16/l103.exe)

 GradGradGradGradGradGradGradGradGradGradGradGradGradGradGradGradGradGrad
 Berny optimization.
 Initialization pass.
                           ----------------------------
                           !    Initial Parameters    !
                           ! (Angstroms and Degrees)  !
 --------------------------                            --------------------------
 ! Name  Definition              Value          Derivative Info.                !
 --------------------------------------------------------------------------------
 ! R1    R(1,2)                  3.1884         estimate D2E/DX2                !
 ! R2    R(1,3)                  1.818          estimate D2E/DX2                !
 ! R3    R(1,4)                  2.0522         estimate D2E/DX2                !
 ! R4    R(2,3)                  2.1401         estimate D2E/DX2                !
 ! R5    R(2,4)                  2.2543         estimate D2E/DX2                !
 ! R6    R(2,5)                  1.9929         estimate D2E/DX2                !
 ! R7    R(2,6)                  1.7443         estimate D2E/DX2                !
 ! R8    R(4,7)                  0.9589         estimate D2E/DX2                !
 ! A1    A(3,1,4)               84.6623         estimate D2E/DX2                !
 ! A2    A(1,2,5)              128.3825         estimate D2E/DX2                !
 ! A3    A(1,2,6)              121.99           estimate D2E/DX2                !
 ! A4    A(3,2,4)               72.8846         estimate D2E/DX2                !
 ! A5    A(3,2,5)              122.6606         estimate D2E/DX2                !
 ! A6    A(3,2,6)              117.6971         estimate D2E/DX2                !
 ! A7    A(4,2,5)              117.2866         estimate D2E/DX2                !
 ! A8    A(4,2,6)              112.1995         estimate D2E/DX2                !
 ! A9    A(5,2,6)              109.4656         estimate D2E/DX2                !
 ! A10   A(1,4,7)              130.8992         estimate D2E/DX2                !
 ! A11   A(2,4,7)              131.2609         estimate D2E/DX2                !
 ! D1    D(2,1,3,4)              0.3425         estimate D2E/DX2                !
 ! D2    D(3,1,4,7)           -163.1117         estimate D2E/DX2                !
 ! D3    D(3,2,4,7)            163.0535         estimate D2E/DX2                !
 ! D4    D(5,2,4,7)            -78.4879         estimate D2E/DX2                !
 ! D5    D(6,2,4,7)             49.4998         estimate D2E/DX2                !
 --------------------------------------------------------------------------------
 Trust Radius=3.00D-01 FncErr=1.00D-07 GrdErr=1.00D-06 EigMax=2.50D+02 EigMin=1.00D-04
 Number of steps in this run=     34 maximum allowed number of steps=    100.
 GradGradGradGradGradGradGradGradGradGradGradGradGradGradGradGradGradGrad

 Leave Link  103 at Fri Sep  6 22:18:25 2019, MaxMem=  1835008000 cpu:               0.5 elap:               0.1
 (Enter /opt/g16/l202.exe)
                          Input orientation:                          
 ---------------------------------------------------------------------
 Center     Atomic      Atomic             Coordinates (Angstroms)
 Number     Number       Type             X           Y           Z
 ---------------------------------------------------------------------
      1         40           0        0.912201    0.811042   -0.258272
      2         40           0        1.254136    1.078179    2.900450
      3          8           0        2.131706    0.469097    1.045982
      4          8           0       -0.260842    1.489955    1.282650
      5          8           0        1.922004    2.638349    3.945260
      6          8           0        0.725041   -0.171584    3.996151
      7          1           0       -1.204038    1.656867    1.327199
 ---------------------------------------------------------------------
                    Distance matrix (angstroms):
                    1          2          3          4          5
     1  Zr   0.000000
     2  Zr   3.188386   0.000000
     3  O    1.818020   2.140131   0.000000
     4  O    2.052168   2.254328   2.611982   0.000000
     5  O    4.693446   1.992939   3.627043   3.629479   0.000000
     6  O    4.370435   1.744250   3.330567   3.331031   3.054674
     7  H    2.776258   2.975335   3.552051   0.958886   4.194006
                    6          7
     6  O    0.000000
     7  H    3.766681   0.000000
 Stoichiometry    HO4Zr2(2)
 Framework group  C1[X(HO4Zr2)]
 Deg. of freedom    15
 Full point group                 C1      NOp   1
 Largest Abelian subgroup         C1      NOp   1
 Largest concise Abelian subgroup C1      NOp   1
                         Standard orientation:                         
 ---------------------------------------------------------------------
 Center     Atomic      Atomic             Coordinates (Angstroms)
 Number     Number       Type             X           Y           Z
 ---------------------------------------------------------------------
      1         40           0        1.947317   -0.043619   -0.038639
      2         40           0       -1.240381    0.019871   -0.057563
      3          8           0        0.556611   -0.196370   -1.199588
      4          8           0        0.486196    0.220956    1.377878
      5          8           0       -2.509877   -1.486223    0.245533
      6          8           0       -2.133988    1.508303   -0.226222
      7          1           0        0.531042    0.576583    2.267249
 ---------------------------------------------------------------------
 Rotational constants (GHZ):           3.7606102           0.6996795           0.6871437
 Leave Link  202 at Fri Sep  6 22:18:25 2019, MaxMem=  1835008000 cpu:               0.4 elap:               0.1
 (Enter /opt/g16/l301.exe)
 Standard basis: 6-311+G(3df,2p) (5D, 7F)
 Atomic number out of range for 6-311G basis.
 Error termination via Lnk1e in /opt/g16/l301.exe at Fri Sep  6 22:18:25 2019.
 Job cpu time:       0 days  0 hours  2 minutes 34.8 seconds.
 Elapsed time:       0 days  0 hours  0 minutes 22.2 seconds.
 File lengths (MBytes):  RWF=      6 Int=      0 D2E=      0 Chk=      1 Scr=      1
