 Entering Gaussian System, Link 0=g09
 Initial command:
 /usr/local/g09/l1.exe "/gtmp/calvin.p/scratch/g09/477574.zeus-master/Gau-997836.inp" -scrdir="/gtmp/calvin.p/scratch/g09/477574.zeus-master/"
 Entering Link 1 = /usr/local/g09/l1.exe PID=    997837.
  
 Copyright (c) 1988,1990,1992,1993,1995,1998,2003,2009,2013,
            Gaussian, Inc.  All Rights Reserved.
  
 This is part of the Gaussian(R) 09 program.  It is based on
 the Gaussian(R) 03 system (copyright 2003, Gaussian, Inc.),
 the Gaussian(R) 98 system (copyright 1998, Gaussian, Inc.),
 the Gaussian(R) 94 system (copyright 1995, Gaussian, Inc.),
 the Gaussian 92(TM) system (copyright 1992, Gaussian, Inc.),
 the Gaussian 90(TM) system (copyright 1990, Gaussian, Inc.),
 the Gaussian 88(TM) system (copyright 1988, Gaussian, Inc.),
 the Gaussian 86(TM) system (copyright 1986, Carnegie Mellon
 University), and the Gaussian 82(TM) system (copyright 1983,
 Carnegie Mellon University). Gaussian is a federally registered
 trademark of Gaussian, Inc.
  
 This software contains proprietary and confidential information,
 including trade secrets, belonging to Gaussian, Inc.
  
 This software is provided under written license and may be
 used, copied, transmitted, or stored only in accord with that
 written license.
  
 The following legend is applicable only to US Government
 contracts under FAR:
  
                    RESTRICTED RIGHTS LEGEND
  
 Use, reproduction and disclosure by the US Government is
 subject to restrictions as set forth in subparagraphs (a)
 and (c) of the Commercial Computer Software - Restricted
 Rights clause in FAR 52.227-19.
  
 Gaussian, Inc.
 340 Quinnipiac St., Bldg. 40, Wallingford CT 06492
  
  
 ---------------------------------------------------------------
 Warning -- This program may not be used in any manner that
 competes with the business of Gaussian, Inc. or will provide
 assistance to any competitor of Gaussian, Inc.  The licensee
 of this program is prohibited from giving any competitor of
 Gaussian, Inc. access to this program.  By using this program,
 the user acknowledges that Gaussian, Inc. is engaged in the
 business of creating and licensing software in the field of
 computational chemistry and represents and warrants to the
 licensee that it is not a competitor of Gaussian, Inc. and that
 it will not use this program in any manner prohibited above.
 ---------------------------------------------------------------
  

 Cite this work as:
 Gaussian 09, Revision D.01,
 M. J. Frisch, G. W. Trucks, H. B. Schlegel, G. E. Scuseria, 
 M. A. Robb, J. R. Cheeseman, G. Scalmani, V. Barone, B. Mennucci, 
 G. A. Petersson, H. Nakatsuji, M. Caricato, X. Li, H. P. Hratchian, 
 A. F. Izmaylov, J. Bloino, G. Zheng, J. L. Sonnenberg, M. Hada, 
 M. Ehara, K. Toyota, R. Fukuda, J. Hasegawa, M. Ishida, T. Nakajima, 
 Y. Honda, O. Kitao, H. Nakai, T. Vreven, J. A. Montgomery, Jr., 
 J. E. Peralta, F. Ogliaro, M. Bearpark, J. J. Heyd, E. Brothers, 
 K. N. Kudin, V. N. Staroverov, T. Keith, R. Kobayashi, J. Normand, 
 K. Raghavachari, A. Rendell, J. C. Burant, S. S. Iyengar, J. Tomasi, 
 M. Cossi, N. Rega, J. M. Millam, M. Klene, J. E. Knox, J. B. Cross, 
 V. Bakken, C. Adamo, J. Jaramillo, R. Gomperts, R. E. Stratmann, 
 O. Yazyev, A. J. Austin, R. Cammi, C. Pomelli, J. W. Ochterski, 
 R. L. Martin, K. Morokuma, V. G. Zakrzewski, G. A. Voth, 
 P. Salvador, J. J. Dannenberg, S. Dapprich, A. D. Daniels, 
 O. Farkas, J. B. Foresman, J. V. Ortiz, J. Cioslowski, 
 and D. J. Fox, Gaussian, Inc., Wallingford CT, 2013.
 
 ******************************************
 Gaussian 09:  EM64L-G09RevD.01 24-Apr-2013
                 5-Aug-2024 
 ******************************************
 %chk=check.chk
 %mem=32768mb
 %NProcShared=16
 Will use up to   16 processors via shared memory.
 ----------------------------------------------------------------------
 #P opt=(calcfc,maxstep=5,tight) guess=read wb97xd/def2tzvp integral=(g
 rid=ultrafine, Acc2E=14) IOp(2/9=2000) scf=(direct,tight)
 ----------------------------------------------------------------------
 1/7=10,8=5,10=4,14=-1,18=20,19=15,26=4,38=1/1,3;
 2/9=2000,12=2,17=6,18=5,40=1/2;
 3/5=44,7=101,11=2,16=1,25=1,30=1,71=2,74=-58,75=-5,116=-2,140=1/1,2,3;
 4/5=1/1;
 5/5=2,32=2,38=6,87=14/2;
 8/6=4,10=90,11=11,87=14/1;
 11/6=1,8=1,9=11,15=111,16=1,87=14/1,2,10;
 10/6=1,13=1,87=14/2;
 6/7=2,8=2,9=2,10=2,28=1/1;
 7/10=1,18=20,25=1,87=14/1,2,3,16;
 1/7=10,8=5,10=4,14=-1,18=20,19=15,26=4/3(2);
 2/9=2000/2;
 99//99;
 2/9=2000/2;
 3/5=44,7=101,11=2,16=1,25=1,30=1,71=1,74=-58,75=-5/1,2,3;
 4/5=5,16=3,69=1/1;
 5/5=2,32=2,38=5,87=14/2;
 7/87=14/1,2,3,16;
 1/7=10,8=5,14=-1,18=20,19=15,26=4/3(-5);
 2/9=2000/2;
 6/7=2,8=2,9=2,10=2,19=2,28=1/1;
 99/9=1/99;
 Leave Link    1 at Mon Aug  5 14:29:40 2024, MaxMem=  4294967296 cpu:         1.1
 (Enter /usr/local/g09/l101.exe)
 ----------------------------
 rxn_3137_p1_[N-]=c1o[nHp]no1
 ----------------------------
 Symbolic Z-matrix:
 Charge =  0 Multiplicity = 1
 N                     2.22627  -0.51614   0.85602 
 C                     1.17557  -0.65118   0.40733 
 O                     0.04218  -1.05829  -0.07612 
 N                    -0.92553  -0.11053  -0.4916 
 N                    -0.88137   1.19395  -0.47545 
 O                     0.10426   1.7276   -0.0554 
 H                    -1.74138  -0.58541  -0.83922 
 
 NAtoms=      7 NQM=        7 NQMF=       0 NMMI=      0 NMMIF=      0
                NMic=       0 NMicF=      0.
                    Isotopes and Nuclear Properties:
 (Nuclear quadrupole moments (NQMom) in fm**2, nuclear magnetic moments (NMagM)
  in nuclear magnetons)

  Atom         1           2           3           4           5           6           7
 IAtWgt=          14          12          16          14          14          16           1
 AtmWgt=  14.0030740  12.0000000  15.9949146  14.0030740  14.0030740  15.9949146   1.0078250
 NucSpn=           2           0           0           2           2           0           1
 AtZEff=   0.0000000   0.0000000   0.0000000   0.0000000   0.0000000   0.0000000   0.0000000
 NQMom=    2.0440000   0.0000000   0.0000000   2.0440000   2.0440000   0.0000000   0.0000000
 NMagM=    0.4037610   0.0000000   0.0000000   0.4037610   0.4037610   0.0000000   2.7928460
 AtZNuc=   7.0000000   6.0000000   8.0000000   7.0000000   7.0000000   8.0000000   1.0000000
 Leave Link  101 at Mon Aug  5 14:29:41 2024, MaxMem=  4294967296 cpu:         6.3
 (Enter /usr/local/g09/l103.exe)

 GradGradGradGradGradGradGradGradGradGradGradGradGradGradGradGradGradGrad
 Berny optimization.
 Initialization pass.
                           ----------------------------
                           !    Initial Parameters    !
                           ! (Angstroms and Degrees)  !
 --------------------------                            --------------------------
 ! Name  Definition              Value          Derivative Info.                !
 --------------------------------------------------------------------------------
 ! R1    R(1,2)                  1.1504         calculate D2E/DX2 analytically  !
 ! R2    R(2,3)                  1.2977         calculate D2E/DX2 analytically  !
 ! R3    R(3,4)                  1.4168         calculate D2E/DX2 analytically  !
 ! R4    R(4,5)                  1.3053         calculate D2E/DX2 analytically  !
 ! R5    R(4,7)                  1.006          calculate D2E/DX2 analytically  !
 ! R6    R(5,6)                  1.197          calculate D2E/DX2 analytically  !
 ! A1    A(2,3,4)              119.7308         calculate D2E/DX2 analytically  !
 ! A2    A(3,4,5)              129.9247         calculate D2E/DX2 analytically  !
 ! A3    A(3,4,7)              109.8455         calculate D2E/DX2 analytically  !
 ! A4    A(5,4,7)              120.2298         calculate D2E/DX2 analytically  !
 ! A5    A(4,5,6)              118.5387         calculate D2E/DX2 analytically  !
 ! A6    L(1,2,3,6,-1)         191.5424         calculate D2E/DX2 analytically  !
 ! A7    L(1,2,3,6,-2)         180.0            calculate D2E/DX2 analytically  !
 ! D1    D(2,3,4,5)              0.0            calculate D2E/DX2 analytically  !
 ! D2    D(2,3,4,7)           -180.0            calculate D2E/DX2 analytically  !
 ! D3    D(3,4,5,6)              0.0            calculate D2E/DX2 analytically  !
 ! D4    D(7,4,5,6)            180.0            calculate D2E/DX2 analytically  !
 --------------------------------------------------------------------------------
 Trust Radius=5.00D-02 FncErr=1.00D-07 GrdErr=1.00D-06
 Number of steps in this run=     27 maximum allowed number of steps=    100.
 GradGradGradGradGradGradGradGradGradGradGradGradGradGradGradGradGradGrad

 Leave Link  103 at Mon Aug  5 14:29:41 2024, MaxMem=  4294967296 cpu:         0.1
 (Enter /usr/local/g09/l202.exe)
                          Input orientation:                          
 ---------------------------------------------------------------------
 Center     Atomic      Atomic             Coordinates (Angstroms)
 Number     Number       Type             X           Y           Z
 ---------------------------------------------------------------------
      1          7           0        2.226267   -0.516144    0.856015
      2          6           0        1.175573   -0.651182    0.407334
      3          8           0        0.042176   -1.058293   -0.076118
      4          7           0       -0.925528   -0.110525   -0.491595
      5          7           0       -0.881371    1.193948   -0.475447
      6          8           0        0.104261    1.727603   -0.055399
      7          1           0       -1.741377   -0.585406   -0.839217
 ---------------------------------------------------------------------
                    Distance matrix (angstroms):
                    1          2          3          4          5
     1  N    0.000000
     2  C    1.150438   0.000000
     3  O    2.435785   1.297711   0.000000
     4  N    3.451723   2.348406   1.416805   0.000000
     5  N    3.788749   2.900832   2.466778   1.305320   0.000000
     6  O    3.219936   2.649613   2.786665   2.151615   1.196954
     7  H    4.315183   3.172824   1.996748   1.005964   2.009487
                    6          7
     6  O    0.000000
     7  H    3.061170   0.000000
 Stoichiometry    CHN3O2
 Framework group  CS[SG(CHN3O2)]
 Deg. of freedom    11
 Full point group                 CS      NOp   2
 Largest Abelian subgroup         CS      NOp   2
 Largest concise Abelian subgroup C1      NOp   1
                         Standard orientation:                         
 ---------------------------------------------------------------------
 Center     Atomic      Atomic             Coordinates (Angstroms)
 Number     Number       Type             X           Y           Z
 ---------------------------------------------------------------------
      1          7           0       -0.999548   -2.045291    0.000000
      2          6           0       -0.932456   -0.896811    0.000000
      3          8           0       -1.117525    0.387636    0.000000
      4          7           0        0.000000    1.258539    0.000000
      5          7           0        1.276102    0.983906    0.000000
      6          8           0        1.613916   -0.164389    0.000000
      7          1           0       -0.312267    2.214809    0.000000
 ---------------------------------------------------------------------
 Rotational constants (GHZ):      7.6662905      3.2662265      2.2904004
 Leave Link  202 at Mon Aug  5 14:29:41 2024, MaxMem=  4294967296 cpu:         0.1
 (Enter /usr/local/g09/l301.exe)
 Standard basis: def2TZVP (5D, 7F)
 Ernie: Thresh=  0.10000D-02 Tol=  0.10000D-05 Strict=F.
 There are   155 symmetry adapted cartesian basis functions of A'  symmetry.
 There are    67 symmetry adapted cartesian basis functions of A"  symmetry.
 There are   131 symmetry adapted basis functions of A'  symmetry.
 There are    61 symmetry adapted basis functions of A"  symmetry.
   192 basis functions,   314 primitive gaussians,   222 cartesian basis functions
    22 alpha electrons       22 beta electrons
       nuclear repulsion energy       215.6957709246 Hartrees.
 IExCor= 4639 DFT=T Ex+Corr=wB97XD ExCW=0 ScaHFX=  1.000000
 ScaDFX=  1.000000  1.000000  1.000000  1.000000 ScalE2=  1.000000  1.000000
 IRadAn=      5 IRanWt=     -1 IRanGd=            0 ICorTp=0 IEmpDi=121
  HFx wShort=  0.000000 wLong=  0.200000 cFull=  0.222036 cShort=  0.000000 cLong=  0.777964
  DFx wShort=  0.000000 wLong=  0.200000 cFull=  0.000000 cShort=  0.000000 cLong=  1.000000
 NAtoms=    7 NActive=    7 NUniq=    7 SFac= 1.00D+00 NAtFMM=   60 NAOKFM=F Big=F
 Integral buffers will be    131072 words long.
 Raffenetti 2 integral format.
 Two-electron integral symmetry is turned on.
 R6Disp:  Grimme-D2 Dispersion energy=       -0.0014828032 Hartrees.
 Nuclear repulsion after empirical dispersion term =      215.6942881214 Hartrees.
 Leave Link  301 at Mon Aug  5 14:29:41 2024, MaxMem=  4294967296 cpu:         1.1
 (Enter /usr/local/g09/l302.exe)
 NPDir=0 NMtPBC=     1 NCelOv=     1 NCel=       1 NClECP=     1 NCelD=      1
         NCelK=      1 NCelE2=     1 NClLst=     1 CellRange=     0.0.
 One-electron integrals computed using PRISM.
   1 Symmetry operations used in ECPInt.
 ECPInt:  NShTT=    2485 NPrTT=    8136 LenC2=    2443 LenP2D=    6476.
 LDataN:  DoStor=T MaxTD1= 6 Len=  172
 NBasis=   192 RedAO= T EigKep=  4.32D-04  NBF=   131    61
 NBsUse=   192 1.00D-06 EigRej= -1.00D+00 NBFU=   131    61
 Precomputing XC quadrature grid using
 IXCGrd= 4 IRadAn=           5 IRanWt=          -1 IRanGd=           0 AccXCQ= 0.00D+00.
 Generated NRdTot=       0 NPtTot=           0 NUsed=           0 NTot=          32
 NSgBfM=   220   220   220   220   220 MxSgAt=     7 MxSgA2=     7.
 Leave Link  302 at Mon Aug  5 14:29:41 2024, MaxMem=  4294967296 cpu:         3.6
 (Enter /usr/local/g09/l303.exe)
 DipDrv:  MaxL=1.
 Leave Link  303 at Mon Aug  5 14:29:41 2024, MaxMem=  4294967296 cpu:         0.7
 (Enter /usr/local/g09/l401.exe)
 Initial guess from the checkpoint file:  "check.chk"
 B after Tr=     0.000000    0.000000    0.000000
         Rot=    0.937888    0.044000    0.034118   -0.342442 Ang=  40.60 deg.
 Guess basis will be translated and rotated to current coordinates.
 JPrj=2 DoOrth=T DoCkMO=T.
 Initial guess orbital symmetries:
       Occupied  (A") (A') (A") (A') (A') (A') (A") (A") (A") (A")
                 (A") (A") (A") (A") (A") (A") (A") (A") (A") (A")
                 (A") (A")
       Virtual   (A") (A") (A") (A") (A") (A") (A") (A") (A") (A")
                 (A") (A") (A") (A") (A") (A") (A") (A") (A") (A")
                 (A") (A") (A") (A") (A") (A") (A") (A") (A") (A")
                 (A") (A") (A") (A") (A") (A") (A") (A") (A") (A")
                 (A") (A") (A") (A") (A") (A") (A") (A") (A") (A")
                 (A") (A") (A") (A") (A") (A") (A") (A") (A") (A")
                 (A") (A") (A") (A") (A") (A") (A") (A") (A") (A")
                 (A") (A") (A") (A") (A") (A") (A") (A") (A") (A")
                 (A") (A") (A") (A") (A") (A") (A") (A") (A") (A")
                 (A") (A") (A") (A") (A") (A") (A") (A") (A") (A")
                 (A") (A") (A") (A") (A") (A") (A") (A") (A") (A")
                 (A") (A") (A") (A") (A") (A") (A") (A") (A") (A")
                 (A") (A") (A") (A") (A") (A") (A") (A") (A") (A")
                 (A") (A") (A") (A") (A") (A") (A") (A") (A") (A")
                 (A") (A") (A") (A") (A") (A") (A") (A") (A") (A")
                 (A") (A") (A") (A") (A") (A") (A") (A") (A") (A")
                 (A") (A") (A") (A") (A") (A") (A") (A") (A") (A")
 Leave Link  401 at Mon Aug  5 14:29:42 2024, MaxMem=  4294967296 cpu:         3.2
 (Enter /usr/local/g09/l502.exe)
 Closed shell SCF:
 Using DIIS extrapolation, IDIIS=  1040.
 Integral symmetry usage will be decided dynamically.
 Keep R1 ints in memory in symmetry-blocked form, NReq=518419670.
 IVT=      171636 IEndB=      171636 NGot=  4294967296 MDV=  4207304620
 LenX=  4207304620 LenY=  4207254895
 Requested convergence on RMS density matrix=1.00D-08 within 128 cycles.
 Requested convergence on MAX density matrix=1.00D-06.
 Requested convergence on             energy=1.00D-06.
 No special actions if energy rises.
 FoFCou: FMM=F IPFlag=           0 FMFlag=           0 FMFlg1=           0
         NFxFlg=           0 DoJE=F BraDBF=F KetDBF=F FulRan=T
         wScrn=  0.000000 ICntrl=     600 IOpCl=  0 I1Cent=           0 NGrid=           0
         NMat0=    1 NMatS0=  18528 NMatT0=    0 NMatD0=    1 NMtDS0=    0 NMtDT0=    0
 Petite list used in FoFCou.
 An orbital has undefined symmetry, so N**3 symmetry is turned off.

 Cycle   1  Pass 1  IDiag  1:
 Density matrix breaks symmetry, PCut= 1.00D-04
 Density matrix has no symmetry -- integrals replicated.
 E= -352.236747921028    
 DIIS: error= 3.54D-02 at cycle   1 NSaved=   1.
 NSaved= 1 IEnMin= 1 EnMin= -352.236747921028     IErMin= 1 ErrMin= 3.54D-02
 ErrMax= 3.54D-02  0.00D+00 EMaxC= 1.00D-01 BMatC= 7.31D-01 BMatP= 7.31D-01
 IDIUse=3 WtCom= 6.46D-01 WtEn= 3.54D-01
 Coeff-Com:  0.100D+01
 Coeff-En:   0.100D+01
 Coeff:      0.100D+01
 Gap=     1.302 Goal=   None    Shift=    0.000
 GapD=    1.302 DampG=2.000 DampE=0.500 DampFc=1.0000 IDamp=-1.
 RMSDP=4.35D-03 MaxDP=8.15D-02              OVMax= 2.56D-01

 Cycle   2  Pass 1  IDiag  1:
 Density matrix breaks symmetry, PCut= 1.00D-04
 Density matrix has no symmetry -- integrals replicated.
 E= -353.107774659826     Delta-E=       -0.871026738799 Rises=F Damp=F
 DIIS: error= 2.07D-02 at cycle   2 NSaved=   2.
 NSaved= 2 IEnMin= 2 EnMin= -353.107774659826     IErMin= 2 ErrMin= 2.07D-02
 ErrMax= 2.07D-02  0.00D+00 EMaxC= 1.00D-01 BMatC= 1.08D-01 BMatP= 7.31D-01
 IDIUse=3 WtCom= 7.93D-01 WtEn= 2.07D-01
 Coeff-Com:  0.994D-01 0.901D+00
 Coeff-En:   0.000D+00 0.100D+01
 Coeff:      0.788D-01 0.921D+00
 Gap=     0.444 Goal=   None    Shift=    0.000
 RMSDP=1.69D-03 MaxDP=6.63D-02 DE=-8.71D-01 OVMax= 1.19D-01

 Cycle   3  Pass 1  IDiag  1:
 Density matrix breaks symmetry, PCut= 1.00D-04
 Density matrix has no symmetry -- integrals replicated.
 E= -353.138816426650     Delta-E=       -0.031041766824 Rises=F Damp=F
 DIIS: error= 2.26D-02 at cycle   3 NSaved=   3.
 NSaved= 3 IEnMin= 3 EnMin= -353.138816426650     IErMin= 2 ErrMin= 2.07D-02
 ErrMax= 2.26D-02  0.00D+00 EMaxC= 1.00D-01 BMatC= 1.21D-01 BMatP= 1.08D-01
 IDIUse=2 WtCom= 0.00D+00 WtEn= 1.00D+00
 Coeff-En:   0.000D+00 0.387D+00 0.613D+00
 Coeff:      0.000D+00 0.387D+00 0.613D+00
 Gap=     0.429 Goal=   None    Shift=    0.000
 RMSDP=1.18D-03 MaxDP=5.17D-02 DE=-3.10D-02 OVMax= 8.84D-02

 Cycle   4  Pass 1  IDiag  1:
 Density matrix breaks symmetry, PCut= 1.00D-04
 Density matrix has no symmetry -- integrals replicated.
 E= -353.203985107025     Delta-E=       -0.065168680375 Rises=F Damp=F
 DIIS: error= 1.27D-02 at cycle   4 NSaved=   4.
 NSaved= 4 IEnMin= 4 EnMin= -353.203985107025     IErMin= 4 ErrMin= 1.27D-02
 ErrMax= 1.27D-02  0.00D+00 EMaxC= 1.00D-01 BMatC= 2.76D-02 BMatP= 1.08D-01
 IDIUse=3 WtCom= 8.73D-01 WtEn= 1.27D-01
 Coeff-Com: -0.328D-01 0.484D-01 0.349D+00 0.635D+00
 Coeff-En:   0.000D+00 0.000D+00 0.178D+00 0.822D+00
 Coeff:     -0.287D-01 0.423D-01 0.327D+00 0.659D+00
 Gap=     0.361 Goal=   None    Shift=    0.000
 RMSDP=5.07D-04 MaxDP=1.54D-02 DE=-6.52D-02 OVMax= 3.82D-02

 Cycle   5  Pass 1  IDiag  1:
 Density matrix breaks symmetry, PCut= 1.00D-04
 Density matrix has no symmetry -- integrals replicated.
 E= -353.223537092880     Delta-E=       -0.019551985854 Rises=F Damp=F
 DIIS: error= 5.57D-03 at cycle   5 NSaved=   5.
 NSaved= 5 IEnMin= 5 EnMin= -353.223537092880     IErMin= 5 ErrMin= 5.57D-03
 ErrMax= 5.57D-03  0.00D+00 EMaxC= 1.00D-01 BMatC= 2.39D-03 BMatP= 2.76D-02
 IDIUse=3 WtCom= 9.44D-01 WtEn= 5.57D-02
 Coeff-Com: -0.743D-03-0.921D-01 0.732D-01 0.402D+00 0.618D+00
 Coeff-En:   0.000D+00 0.000D+00 0.000D+00 0.000D+00 0.100D+01
 Coeff:     -0.701D-03-0.869D-01 0.691D-01 0.379D+00 0.639D+00
 Gap=     0.358 Goal=   None    Shift=    0.000
 RMSDP=1.80D-04 MaxDP=5.78D-03 DE=-1.96D-02 OVMax= 1.47D-02

 Cycle   6  Pass 1  IDiag  1:
 Density matrix breaks symmetry, PCut= 1.00D-04
 Density matrix has no symmetry -- integrals replicated.
 E= -353.225666301793     Delta-E=       -0.002129208913 Rises=F Damp=F
 DIIS: error= 1.25D-03 at cycle   6 NSaved=   6.
 NSaved= 6 IEnMin= 6 EnMin= -353.225666301793     IErMin= 6 ErrMin= 1.25D-03
 ErrMax= 1.25D-03  0.00D+00 EMaxC= 1.00D-01 BMatC= 1.82D-04 BMatP= 2.39D-03
 IDIUse=3 WtCom= 9.87D-01 WtEn= 1.25D-02
 Coeff-Com:  0.264D-02-0.367D-01-0.162D-01 0.574D-01 0.277D+00 0.716D+00
 Coeff-En:   0.000D+00 0.000D+00 0.000D+00 0.000D+00 0.000D+00 0.100D+01
 Coeff:      0.261D-02-0.362D-01-0.160D-01 0.567D-01 0.274D+00 0.719D+00
 Gap=     0.357 Goal=   None    Shift=    0.000
 RMSDP=6.55D-05 MaxDP=1.52D-03 DE=-2.13D-03 OVMax= 5.90D-03

 Cycle   7  Pass 1  IDiag  1:
 Density matrix breaks symmetry, PCut= 1.00D-04
 Density matrix has no symmetry -- integrals replicated.
 E= -353.225874812536     Delta-E=       -0.000208510743 Rises=F Damp=F
 DIIS: error= 3.15D-04 at cycle   7 NSaved=   7.
 NSaved= 7 IEnMin= 7 EnMin= -353.225874812536     IErMin= 7 ErrMin= 3.15D-04
 ErrMax= 3.15D-04  0.00D+00 EMaxC= 1.00D-01 BMatC= 2.07D-05 BMatP= 1.82D-04
 IDIUse=3 WtCom= 9.97D-01 WtEn= 3.15D-03
 Coeff-Com:  0.150D-02-0.561D-02-0.158D-01-0.240D-01 0.390D-01 0.297D+00
 Coeff-Com:  0.708D+00
 Coeff-En:   0.000D+00 0.000D+00 0.000D+00 0.000D+00 0.000D+00 0.000D+00
 Coeff-En:   0.100D+01
 Coeff:      0.149D-02-0.559D-02-0.158D-01-0.239D-01 0.389D-01 0.296D+00
 Coeff:      0.709D+00
 Gap=     0.357 Goal=   None    Shift=    0.000
 RMSDP=2.98D-05 MaxDP=5.92D-04 DE=-2.09D-04 OVMax= 3.36D-03

 Cycle   8  Pass 1  IDiag  1:
 Density matrix breaks symmetry, PCut= 1.00D-04
 Density matrix has no symmetry -- integrals replicated.
 E= -353.225906696918     Delta-E=       -0.000031884382 Rises=F Damp=F
 DIIS: error= 1.47D-04 at cycle   8 NSaved=   8.
 NSaved= 8 IEnMin= 8 EnMin= -353.225906696918     IErMin= 8 ErrMin= 1.47D-04
 ErrMax= 1.47D-04  0.00D+00 EMaxC= 1.00D-01 BMatC= 6.09D-06 BMatP= 2.07D-05
 IDIUse=3 WtCom= 9.99D-01 WtEn= 1.47D-03
 Coeff-Com: -0.267D-04 0.627D-02-0.307D-02-0.254D-01-0.535D-01-0.397D-01
 Coeff-Com:  0.366D+00 0.750D+00
 Coeff-En:   0.000D+00 0.000D+00 0.000D+00 0.000D+00 0.000D+00 0.000D+00
 Coeff-En:   0.000D+00 0.100D+01
 Coeff:     -0.267D-04 0.626D-02-0.307D-02-0.254D-01-0.535D-01-0.396D-01
 Coeff:      0.365D+00 0.750D+00
 Gap=     0.357 Goal=   None    Shift=    0.000
 RMSDP=2.01D-05 MaxDP=4.25D-04 DE=-3.19D-05 OVMax= 2.63D-03

 Cycle   9  Pass 1  IDiag  1:
 Density matrix breaks symmetry, PCut= 1.00D-04
 Density matrix has no symmetry -- integrals replicated.
 E= -353.225918297083     Delta-E=       -0.000011600166 Rises=F Damp=F
 DIIS: error= 7.46D-05 at cycle   9 NSaved=   9.
 NSaved= 9 IEnMin= 9 EnMin= -353.225918297083     IErMin= 9 ErrMin= 7.46D-05
 ErrMax= 7.46D-05  0.00D+00 EMaxC= 1.00D-01 BMatC= 1.23D-06 BMatP= 6.09D-06
 IDIUse=1 WtCom= 1.00D+00 WtEn= 0.00D+00
 Coeff-Com: -0.261D-03 0.374D-02 0.210D-02-0.550D-02-0.329D-01-0.842D-01
 Coeff-Com:  0.266D-01 0.358D+00 0.732D+00
 Coeff:     -0.261D-03 0.374D-02 0.210D-02-0.550D-02-0.329D-01-0.842D-01
 Coeff:      0.266D-01 0.358D+00 0.732D+00
 Gap=     0.357 Goal=   None    Shift=    0.000
 RMSDP=1.05D-05 MaxDP=2.31D-04 DE=-1.16D-05 OVMax= 1.51D-03

 Cycle  10  Pass 1  IDiag  1:
 Density matrix breaks symmetry, PCut= 1.00D-04
 Density matrix has no symmetry -- integrals replicated.
 E= -353.225921249285     Delta-E=       -0.000002952202 Rises=F Damp=F
 DIIS: error= 3.89D-05 at cycle  10 NSaved=  10.
 NSaved=10 IEnMin=10 EnMin= -353.225921249285     IErMin=10 ErrMin= 3.89D-05
 ErrMax= 3.89D-05  0.00D+00 EMaxC= 1.00D-01 BMatC= 2.62D-07 BMatP= 1.23D-06
 IDIUse=1 WtCom= 1.00D+00 WtEn= 0.00D+00
 Coeff-Com: -0.116D-03 0.620D-04 0.177D-02 0.415D-02-0.178D-02-0.304D-01
 Coeff-Com: -0.784D-01-0.225D-01 0.316D+00 0.811D+00
 Coeff:     -0.116D-03 0.620D-04 0.177D-02 0.415D-02-0.178D-02-0.304D-01
 Coeff:     -0.784D-01-0.225D-01 0.316D+00 0.811D+00
 Gap=     0.357 Goal=   None    Shift=    0.000
 RMSDP=6.03D-06 MaxDP=1.41D-04 DE=-2.95D-06 OVMax= 9.22D-04

 Cycle  11  Pass 1  IDiag  1:
 Density matrix breaks symmetry, PCut= 1.00D-04
 Density matrix has no symmetry -- integrals replicated.
 E= -353.225922121167     Delta-E=       -0.000000871882 Rises=F Damp=F
 DIIS: error= 1.68D-05 at cycle  11 NSaved=  11.
 NSaved=11 IEnMin=11 EnMin= -353.225922121167     IErMin=11 ErrMin= 1.68D-05
 ErrMax= 1.68D-05  0.00D+00 EMaxC= 1.00D-01 BMatC= 5.14D-08 BMatP= 2.62D-07
 IDIUse=1 WtCom= 1.00D+00 WtEn= 0.00D+00
 Coeff-Com:  0.274D-04-0.987D-03 0.135D-03 0.311D-02 0.849D-02 0.117D-01
 Coeff-Com: -0.369D-01-0.109D+00-0.103D+00 0.289D+00 0.937D+00
 Coeff:      0.274D-04-0.987D-03 0.135D-03 0.311D-02 0.849D-02 0.117D-01
 Coeff:     -0.369D-01-0.109D+00-0.103D+00 0.289D+00 0.937D+00
 Gap=     0.357 Goal=   None    Shift=    0.000
 RMSDP=3.66D-06 MaxDP=9.43D-05 DE=-8.72D-07 OVMax= 5.78D-04

 Cycle  12  Pass 1  IDiag  1:
 E= -353.225862217947     Delta-E=        0.000059903221 Rises=F Damp=F
 DIIS: error= 3.63D-06 at cycle  12 NSaved=  12.
 NSaved=12 IEnMin=11 EnMin= -353.225922121167     IErMin=12 ErrMin= 3.63D-06
 ErrMax= 3.63D-06  0.00D+00 EMaxC= 1.00D-01 BMatC= 2.08D-09 BMatP= 5.14D-08
 IDIUse=1 WtCom= 1.00D+00 WtEn= 0.00D+00
 Coeff-Com:  0.565D-05-0.906D-04-0.613D-04 0.582D-04 0.768D-03 0.221D-02
 Coeff-Com:  0.261D-02-0.577D-02-0.331D-01-0.251D-01 0.181D+00 0.878D+00
 Coeff:      0.565D-05-0.906D-04-0.613D-04 0.582D-04 0.768D-03 0.221D-02
 Coeff:      0.261D-02-0.577D-02-0.331D-01-0.251D-01 0.181D+00 0.878D+00
 Gap=     0.357 Goal=   None    Shift=    0.000
 RMSDP=1.37D-06 MaxDP=3.66D-05 DE= 5.99D-05 OVMax= 1.99D-04

 Cycle  13  Pass 1  IDiag  1:
 E= -353.225920701583     Delta-E=       -0.000058483637 Rises=F Damp=F
 DIIS: error= 1.33D-06 at cycle  13 NSaved=  13.
 NSaved=13 IEnMin=11 EnMin= -353.225922121167     IErMin=13 ErrMin= 1.33D-06
 ErrMax= 1.33D-06  0.00D+00 EMaxC= 1.00D-01 BMatC= 2.86D-10 BMatP= 2.08D-09
 IDIUse=1 WtCom= 1.00D+00 WtEn= 0.00D+00
 Coeff-Com:  0.184D-05-0.207D-04-0.212D-04-0.436D-05 0.123D-03 0.375D-03
 Coeff-Com:  0.174D-02 0.518D-03-0.851D-02-0.150D-01 0.488D-01 0.337D+00
 Coeff-Com:  0.635D+00
 Coeff:      0.184D-05-0.207D-04-0.212D-04-0.436D-05 0.123D-03 0.375D-03
 Coeff:      0.174D-02 0.518D-03-0.851D-02-0.150D-01 0.488D-01 0.337D+00
 Coeff:      0.635D+00
 Gap=     0.357 Goal=   None    Shift=    0.000
 RMSDP=1.03D-07 MaxDP=1.92D-06 DE=-5.85D-05 OVMax= 1.13D-05

 Cycle  14  Pass 1  IDiag  1:
 E= -353.225922860737     Delta-E=       -0.000002159154 Rises=F Damp=F
 DIIS: error= 5.42D-07 at cycle  14 NSaved=  14.
 NSaved=14 IEnMin=14 EnMin= -353.225922860737     IErMin=14 ErrMin= 5.42D-07
 ErrMax= 5.42D-07  0.00D+00 EMaxC= 1.00D-01 BMatC= 4.39D-11 BMatP= 2.86D-10
 IDIUse=1 WtCom= 1.00D+00 WtEn= 0.00D+00
 Coeff-Com:  0.194D-06-0.358D-06-0.190D-05 0.309D-05 0.160D-04 0.376D-04
 Coeff-Com: -0.893D-04 0.103D-03 0.528D-03 0.224D-03-0.228D-02-0.778D-02
 Coeff-Com: -0.539D+00 0.155D+01
 Coeff:      0.194D-06-0.358D-06-0.190D-05 0.309D-05 0.160D-04 0.376D-04
 Coeff:     -0.893D-04 0.103D-03 0.528D-03 0.224D-03-0.228D-02-0.778D-02
 Coeff:     -0.539D+00 0.155D+01
 Gap=     0.357 Goal=   None    Shift=    0.000
 RMSDP=8.28D-08 MaxDP=1.79D-06 DE=-2.16D-06 OVMax= 7.89D-06

 Cycle  15  Pass 1  IDiag  1:
 E= -353.225922124934     Delta-E=        0.000000735803 Rises=F Damp=F
 DIIS: error= 9.00D-08 at cycle  15 NSaved=  15.
 NSaved=15 IEnMin=14 EnMin= -353.225922860737     IErMin=15 ErrMin= 9.00D-08
 ErrMax= 9.00D-08  0.00D+00 EMaxC= 1.00D-01 BMatC= 1.10D-12 BMatP= 4.39D-11
 IDIUse=1 WtCom= 1.00D+00 WtEn= 0.00D+00
 Coeff-Com: -0.262D-06 0.278D-05 0.172D-05-0.212D-05-0.172D-04-0.493D-04
 Coeff-Com: -0.353D-04 0.241D-03 0.773D-03 0.280D-03-0.371D-02-0.180D-01
 Coeff-Com: -0.566D-01 0.623D-01 0.101D+01
 Coeff:     -0.262D-06 0.278D-05 0.172D-05-0.212D-05-0.172D-04-0.493D-04
 Coeff:     -0.353D-04 0.241D-03 0.773D-03 0.280D-03-0.371D-02-0.180D-01
 Coeff:     -0.566D-01 0.623D-01 0.101D+01
 Gap=     0.357 Goal=   None    Shift=    0.000
 RMSDP=1.98D-08 MaxDP=4.31D-07 DE= 7.36D-07 OVMax= 1.78D-06

 Cycle  16  Pass 1  IDiag  1:
 E= -353.225922336444     Delta-E=       -0.000000211510 Rises=F Damp=F
 DIIS: error= 3.84D-08 at cycle  16 NSaved=  16.
 NSaved=16 IEnMin=14 EnMin= -353.225922860737     IErMin=16 ErrMin= 3.84D-08
 ErrMax= 3.84D-08  0.00D+00 EMaxC= 1.00D-01 BMatC= 2.05D-13 BMatP= 1.10D-12
 IDIUse=1 WtCom= 1.00D+00 WtEn= 0.00D+00
 Coeff-Com: -0.267D-07 0.479D-06 0.553D-06 0.432D-06-0.316D-05-0.152D-04
 Coeff-Com: -0.218D-04 0.240D-04 0.298D-03 0.136D-03-0.113D-02-0.810D-02
 Coeff-Com:  0.290D-01-0.429D-01-0.126D+00 0.115D+01
 Coeff:     -0.267D-07 0.479D-06 0.553D-06 0.432D-06-0.316D-05-0.152D-04
 Coeff:     -0.218D-04 0.240D-04 0.298D-03 0.136D-03-0.113D-02-0.810D-02
 Coeff:      0.290D-01-0.429D-01-0.126D+00 0.115D+01
 Gap=     0.357 Goal=   None    Shift=    0.000
 RMSDP=6.74D-09 MaxDP=1.45D-07 DE=-2.12D-07 OVMax= 6.28D-07

 SCF Done:  E(RwB97XD) =  -353.225922336     A.U. after   16 cycles
            NFock= 16  Conv=0.67D-08     -V/T= 2.0037
 KE= 3.519175042159D+02 PE=-1.260205403598D+03 EE= 3.393676889241D+02
 Leave Link  502 at Mon Aug  5 14:30:03 2024, MaxMem=  4294967296 cpu:       338.3
 (Enter /usr/local/g09/l801.exe)
 DoSCS=F DFT=T ScalE2(SS,OS)=  1.000000  1.000000
 Range of M.O.s used for correlation:     1   192
 NBasis=   192 NAE=    22 NBE=    22 NFC=     0 NFV=     0
 NROrb=    192 NOA=    22 NOB=    22 NVA=   170 NVB=   170

 **** Warning!!: The largest alpha MO coefficient is  0.12180518D+02

 Leave Link  801 at Mon Aug  5 14:30:03 2024, MaxMem=  4294967296 cpu:         0.3
 (Enter /usr/local/g09/l1101.exe)
 Using compressed storage, NAtomX=     7.
 Will process      8 centers per pass.
   2 Symmetry operations used in ECPInt.
 ECPInt:  NShTT=    2485 NPrTT=    8136 LenC2=    2443 LenP2D=    6476.
 LDataN:  DoStor=T MaxTD1= 7 Len=  274
 R6Disp: Adding Grimme-D2 dispersion energy 1st derivatives to the gradient.
 Leave Link 1101 at Mon Aug  5 14:30:04 2024, MaxMem=  4294967296 cpu:        16.3
 (Enter /usr/local/g09/l1102.exe)
 Symmetrizing basis deriv contribution to polar:
 IMax=3 JMax=2 DiffMx= 0.00D+00
 Leave Link 1102 at Mon Aug  5 14:30:04 2024, MaxMem=  4294967296 cpu:         0.6
 (Enter /usr/local/g09/l1110.exe)
 Forming Gx(P) for the SCF density, NAtomX=     7.
 Integral derivatives from FoFJK, PRISM(SPDF).
 Do as many integral derivatives as possible in FoFJK.
 G2DrvN: MDV=    4294967136.
 G2DrvN: will do     8 centers at a time, making    1 passes.
 Calling FoFCou, ICntrl=  3107 FMM=F I1Cent=   0 AccDes= 1.00D-14.
 FoFJK:  IHMeth= 1 ICntrl=    3107 DoSepK=T KAlg= 0 I1Cent=   0 FoldK=F
 IRaf=         1 NMat=   1 IRICut=       1 DoRegI=T DoRafI=F ISym2E= 1.
 FoFCou: FMM=F IPFlag=           0 FMFlag=      100000 FMFlg1=           0
         NFxFlg=           0 DoJE=F BraDBF=F KetDBF=F FulRan=T
         wScrn=  0.000000 ICntrl=    3507 IOpCl=  0 I1Cent=           0 NGrid=           0
         NMat0=    1 NMatS0=      1 NMatT0=    0 NMatD0=    1 NMtDS0=    0 NMtDT0=    0
 Petite list used in FoFCou.
 End of G2Drv F.D. properties file   721 does not exist.
 End of G2Drv F.D. properties file   722 does not exist.
 End of G2Drv F.D. properties file   788 does not exist.
 Leave Link 1110 at Mon Aug  5 14:30:24 2024, MaxMem=  4294967296 cpu:       318.6
 (Enter /usr/local/g09/l1002.exe)
 Minotr:  Closed shell wavefunction.
          IDoAtm=1111111
          Direct CPHF calculation.
          Differentiating once with respect to nuclear coordinates.
          Using symmetry in CPHF.
          Requested convergence is 1.0D-08 RMS, and 1.0D-07 maximum.
          Secondary convergence is 1.0D-12 RMS, and 1.0D-12 maximum.
          NewPWx=T KeepS1=F KeepF1=F KeepIn=T MapXYZ=F SortEE=F KeepMc=T.
          MDV=    4294967030 using IRadAn=       1.
 Generate precomputed XC quadrature information.
 Keep R1 ints in memory in canonical form, NReq=348853725.
 FoFCou: FMM=F IPFlag=           0 FMFlag=           0 FMFlg1=           0
         NFxFlg=           0 DoJE=F BraDBF=F KetDBF=F FulRan=T
         wScrn=  0.000000 ICntrl=     600 IOpCl=  0 I1Cent=           0 NGrid=           0
         NMat0=    1 NMatS0=  18528 NMatT0=    0 NMatD0=    1 NMtDS0=    0 NMtDT0=    0
 Symmetry not used in FoFCou.
          Solving linear equations simultaneously, MaxMat=       0.
          There are    24 degrees of freedom in the 1st order CPHF.  IDoFFX=6 NUNeed=     0.
     18 vectors produced by pass  0 Test12= 1.56D-14 4.17D-09 XBig12= 8.81D-02 1.13D-01.
 AX will form    18 AO Fock derivatives at one time.
     18 vectors produced by pass  1 Test12= 1.56D-14 4.17D-09 XBig12= 3.30D-02 6.91D-02.
     18 vectors produced by pass  2 Test12= 1.56D-14 4.17D-09 XBig12= 2.14D-03 1.30D-02.
     18 vectors produced by pass  3 Test12= 1.56D-14 4.17D-09 XBig12= 4.79D-05 1.65D-03.
     18 vectors produced by pass  4 Test12= 1.56D-14 4.17D-09 XBig12= 9.55D-07 1.70D-04.
     18 vectors produced by pass  5 Test12= 1.56D-14 4.17D-09 XBig12= 1.11D-08 2.32D-05.
     18 vectors produced by pass  6 Test12= 1.56D-14 4.17D-09 XBig12= 7.81D-11 1.69D-06.
     16 vectors produced by pass  7 Test12= 1.56D-14 4.17D-09 XBig12= 4.87D-13 1.17D-07.
      3 vectors produced by pass  8 Test12= 1.56D-14 4.17D-09 XBig12= 2.67D-15 1.01D-08.
 InvSVY:  IOpt=1 It=  1 EMax= 8.88D-16
 Solved reduced A of dimension   145 with    18 vectors.
 End of Minotr F.D. properties file   721 does not exist.
 End of Minotr F.D. properties file   722 does not exist.
 End of Minotr F.D. properties file   788 does not exist.
 Leave Link 1002 at Mon Aug  5 14:30:51 2024, MaxMem=  4294967296 cpu:       430.6
 (Enter /usr/local/g09/l601.exe)
 Copying SCF densities to generalized density rwf, IOpCl= 0 IROHF=0.

 **********************************************************************

            Population analysis using the SCF density.

 **********************************************************************

 Orbital symmetries:
       Occupied  (A') (A') (A') (A') (A') (A') (A') (A') (A') (A')
                 (A') (A') (A') (A") (A') (A") (A') (A') (A") (A')
                 (A") (A')
       Virtual   (A") (A') (A') (A') (A") (A') (A') (A') (A') (A")
                 (A') (A') (A") (A') (A') (A') (A') (A") (A') (A')
                 (A') (A") (A") (A') (A') (A') (A") (A') (A') (A')
                 (A") (A') (A') (A') (A") (A') (A") (A') (A") (A')
                 (A") (A') (A') (A") (A') (A') (A') (A') (A") (A")
                 (A') (A') (A') (A") (A') (A") (A') (A') (A") (A')
                 (A') (A") (A') (A") (A') (A') (A') (A') (A") (A")
                 (A') (A') (A") (A') (A") (A') (A') (A') (A') (A')
                 (A") (A') (A') (A") (A") (A") (A') (A') (A") (A')
                 (A') (A") (A') (A') (A') (A') (A') (A") (A') (A')
                 (A") (A') (A") (A') (A') (A") (A') (A") (A') (A")
                 (A') (A') (A") (A') (A") (A') (A") (A') (A") (A')
                 (A") (A') (A") (A') (A") (A') (A') (A") (A") (A')
                 (A') (A') (A') (A') (A") (A') (A') (A") (A') (A")
                 (A') (A") (A') (A') (A') (A") (A") (A") (A') (A")
                 (A') (A') (A") (A') (A') (A') (A") (A") (A') (A')
                 (A') (A') (A') (A') (A') (A') (A') (A') (A') (A')
 The electronic state is 1-A'.
 Alpha  occ. eigenvalues --  -19.41840 -19.31496 -14.62270 -14.60942 -14.44596
 Alpha  occ. eigenvalues --  -10.39487  -1.34412  -1.28595  -1.09827  -1.02043
 Alpha  occ. eigenvalues --   -0.87956  -0.74493  -0.68508  -0.65030  -0.61164
 Alpha  occ. eigenvalues --   -0.57781  -0.55591  -0.47224  -0.45214  -0.45097
 Alpha  occ. eigenvalues --   -0.38439  -0.36017
 Alpha virt. eigenvalues --   -0.00295   0.03616   0.07804   0.10156   0.13543
 Alpha virt. eigenvalues --    0.19329   0.25026   0.26703   0.28317   0.28517
 Alpha virt. eigenvalues --    0.32608   0.37413   0.38163   0.38990   0.41104
 Alpha virt. eigenvalues --    0.43728   0.45327   0.45613   0.48013   0.50818
 Alpha virt. eigenvalues --    0.52048   0.52621   0.56015   0.57728   0.60036
 Alpha virt. eigenvalues --    0.63873   0.64489   0.67160   0.70185   0.72775
 Alpha virt. eigenvalues --    0.73038   0.79032   0.84180   0.86875   0.87525
 Alpha virt. eigenvalues --    0.97338   0.99620   0.99714   1.06092   1.06823
 Alpha virt. eigenvalues --    1.21014   1.25086   1.30887   1.30933   1.32032
 Alpha virt. eigenvalues --    1.32253   1.42695   1.44781   1.45054   1.46864
 Alpha virt. eigenvalues --    1.50159   1.57948   1.59003   1.63542   1.64971
 Alpha virt. eigenvalues --    1.70396   1.73557   1.76005   1.84892   1.85269
 Alpha virt. eigenvalues --    1.87491   1.93324   1.96996   1.98408   2.00130
 Alpha virt. eigenvalues --    2.11446   2.11932   2.15372   2.16420   2.20376
 Alpha virt. eigenvalues --    2.20537   2.29004   2.29969   2.35242   2.49172
 Alpha virt. eigenvalues --    2.51629   2.55008   2.55679   2.61396   2.69198
 Alpha virt. eigenvalues --    2.71001   2.72099   2.75243   2.76272   2.81077
 Alpha virt. eigenvalues --    2.91955   2.94342   2.98181   2.98922   2.99821
 Alpha virt. eigenvalues --    3.09011   3.11497   3.16079   3.20205   3.24403
 Alpha virt. eigenvalues --    3.34139   3.45383   3.49373   3.50315   3.66521
 Alpha virt. eigenvalues --    3.68459   3.73856   3.74148   3.81340   3.93045
 Alpha virt. eigenvalues --    3.98789   4.05413   4.05924   4.12373   4.14803
 Alpha virt. eigenvalues --    4.32871   4.36259   4.40454   4.47543   4.50901
 Alpha virt. eigenvalues --    4.52196   4.55218   4.56083   4.65777   4.65963
 Alpha virt. eigenvalues --    4.69422   4.70470   4.76148   4.77929   4.84287
 Alpha virt. eigenvalues --    4.88485   4.94288   5.04522   5.16901   5.18677
 Alpha virt. eigenvalues --    5.20390   5.22841   5.28719   5.31052   5.31614
 Alpha virt. eigenvalues --    5.37676   5.41411   5.46353   5.47733   5.55984
 Alpha virt. eigenvalues --    5.62441   5.74797   5.77485   5.85530   5.91140
 Alpha virt. eigenvalues --    6.02543   6.34125   6.34760   6.40764   6.42121
 Alpha virt. eigenvalues --    6.46820   6.57460   6.58564   6.68052   6.83860
 Alpha virt. eigenvalues --    6.85698   6.87309   6.96002   7.01549   7.17701
 Alpha virt. eigenvalues --    7.22837   7.30314   7.46079   7.67807  23.29875
 Alpha virt. eigenvalues --   31.86918  31.95663  32.21131  43.87469  44.34859
          Condensed to atoms (all electrons):
               1          2          3          4          5          6
     1  N    6.248212   0.846706  -0.028545   0.002347   0.000725  -0.013888
     2  C    0.846706   4.776258   0.319669  -0.042093  -0.005915   0.025792
     3  O   -0.028545   0.319669   7.820771   0.062566   0.000513   0.008426
     4  N    0.002347  -0.042093   0.062566   6.604525   0.148797  -0.128465
     5  N    0.000725  -0.005915   0.000513   0.148797   6.396318   0.324718
     6  O   -0.013888   0.025792   0.008426  -0.128465   0.324718   8.081610
     7  H   -0.000148   0.001933  -0.026160   0.364209  -0.018707   0.005957
               7
     1  N   -0.000148
     2  C    0.001933
     3  O   -0.026160
     4  N    0.364209
     5  N   -0.018707
     6  O    0.005957
     7  H    0.375434
 Mulliken charges:
               1
     1  N   -0.055410
     2  C    0.077652
     3  O   -0.157239
     4  N   -0.011885
     5  N    0.153550
     6  O   -0.304150
     7  H    0.297482
 Sum of Mulliken charges =   0.00000
 Mulliken charges with hydrogens summed into heavy atoms:
               1
     1  N   -0.055410
     2  C    0.077652
     3  O   -0.157239
     4  N    0.285598
     5  N    0.153550
     6  O   -0.304150
 APT charges:
               1
     1  N    0.548404
     2  C   -0.475302
     3  O   -0.258761
     4  N   -0.304457
     5  N    0.040382
     6  O   -0.279057
     7  H    0.728791
 Sum of APT charges =   0.00000
 APT charges with hydrogens summed into heavy atoms:
               1
     1  N    0.548404
     2  C   -0.475302
     3  O   -0.258761
     4  N    0.424334
     5  N    0.040382
     6  O   -0.279057
 Electronic spatial extent (au):  <R**2>=            478.9523
 Charge=              0.0000 electrons
 Dipole moment (field-independent basis, Debye):
    X=             -1.1651    Y=              5.3389    Z=              0.0000  Tot=              5.4645
 Quadrupole moment (field-independent basis, Debye-Ang):
   XX=            -36.5858   YY=            -33.7581   ZZ=            -31.9105
   XY=             -3.7648   XZ=              0.0000   YZ=              0.0000
 Traceless Quadrupole moment (field-independent basis, Debye-Ang):
   XX=             -2.5010   YY=              0.3267   ZZ=              2.1743
   XY=             -3.7648   XZ=              0.0000   YZ=              0.0000
 Octapole moment (field-independent basis, Debye-Ang**2):
  XXX=             -2.7816  YYY=             41.1264  ZZZ=              0.0000  XYY=              3.6204
  XXY=              4.1957  XXZ=              0.0000  XZZ=              1.6434  YZZ=              2.3951
  YYZ=              0.0000  XYZ=              0.0000
 Hexadecapole moment (field-independent basis, Debye-Ang**3):
 XXXX=           -275.9242 YYYY=           -306.4966 ZZZZ=            -27.2024 XXXY=            -60.6278
 XXXZ=              0.0000 YYYX=            -87.9442 YYYZ=              0.0000 ZZZX=              0.0000
 ZZZY=              0.0000 XXYY=           -104.6336 XXZZ=            -47.4787 YYZZ=            -56.3721
 XXYZ=              0.0000 YYXZ=              0.0000 ZZXY=            -19.0166
 N-N= 2.156942881214D+02 E-N=-1.260205401943D+03  KE= 3.519175042159D+02
 Symmetry A'   KE= 3.362837980446D+02
 Symmetry A"   KE= 1.563370617133D+01
  Exact polarizability:   0.000   0.000   0.000   0.000   0.000   0.000
 Approx polarizability:  52.722  -2.703  67.058   0.000   0.000  27.665
 No NMR shielding tensors so no spin-rotation constants.
 Leave Link  601 at Mon Aug  5 14:30:52 2024, MaxMem=  4294967296 cpu:         3.9
 (Enter /usr/local/g09/l701.exe)
 Compute integral second derivatives.
 ... and contract with generalized density number  0.
 R6Disp: Adding Grimme-D2 dispersion energy 2nd derivatives to the Hessian.
   2 Symmetry operations used in ECPInt.
 ECPInt:  NShTT=    2485 NPrTT=    8136 LenC2=    2443 LenP2D=    6476.
 LDataN:  DoStor=T MaxTD1= 8 Len=  415
 Leave Link  701 at Mon Aug  5 14:30:53 2024, MaxMem=  4294967296 cpu:        15.9
 (Enter /usr/local/g09/l702.exe)
 L702 exits ... SP integral derivatives will be done elsewhere.
 Leave Link  702 at Mon Aug  5 14:30:53 2024, MaxMem=  4294967296 cpu:         0.3
 (Enter /usr/local/g09/l703.exe)
 Compute integral second derivatives, UseDBF=F ICtDFT=           0.
 Integral derivatives from FoFJK, PRISM(SPDF).
 Calling FoFJK, ICntrl=    100147 FMM=F ISym2X=1 I1Cent= 0 IOpClX= 0 NMat=1 NMatS=1 NMatT=0.
 FoFJK:  IHMeth= 1 ICntrl=  100147 DoSepK=T KAlg= 0 I1Cent=   0 FoldK=F
 IRaf=         1 NMat=   1 IRICut=       1 DoRegI=T DoRafI=F ISym2E= 1.
 FoFCou: FMM=F IPFlag=           0 FMFlag=      100000 FMFlg1=         800
         NFxFlg=           0 DoJE=F BraDBF=F KetDBF=F FulRan=T
         wScrn=  0.000000 ICntrl=  100547 IOpCl=  0 I1Cent=           0 NGrid=           0
         NMat0=    1 NMatS0=      1 NMatT0=    0 NMatD0=    1 NMtDS0=    0 NMtDT0=    0
 Petite list used in FoFCou.
 Leave Link  703 at Mon Aug  5 14:31:41 2024, MaxMem=  4294967296 cpu:       767.8
 (Enter /usr/local/g09/l716.exe)
 Dipole        =-4.58373213D-01 2.10047291D+00 4.43200353D-17
 Polarizability= 0.00000000D+00 0.00000000D+00 0.00000000D+00
                 0.00000000D+00 0.00000000D+00 0.00000000D+00
 ***** Axes restored to original set *****
 -------------------------------------------------------------------
 Center     Atomic                   Forces (Hartrees/Bohr)
 Number     Number              X              Y              Z
 -------------------------------------------------------------------
      1        7           0.000255609   -0.000022594    0.000109269
      2        6          -0.000216310    0.000249370   -0.000092949
      3        8           0.000063418   -0.000467104    0.000028072
      4        7          -0.000086164    0.000395809   -0.000037643
      5        7          -0.000148329   -0.000160890   -0.000063046
      6        8           0.000153917    0.000013542    0.000065741
      7        1          -0.000022142   -0.000008132   -0.000009445
 -------------------------------------------------------------------
 Cartesian Forces:  Max     0.000467104 RMS     0.000177899
 Force constants in Cartesian coordinates: 
                1             2             3             4             5 
      1  0.103601D+01
      2  0.136616D+00  0.419150D-01
      3  0.432224D+00  0.583384D-01  0.208384D+00
      4 -0.101361D+01 -0.124669D+00 -0.413880D+00  0.142080D+01
      5 -0.129017D+00 -0.523289D-01 -0.551124D-01  0.212354D+00  0.145894D+00
      6 -0.413871D+00 -0.532544D-01 -0.221147D+00  0.573652D+00  0.905961D-01
      7 -0.327696D-01 -0.167343D-01 -0.212343D-01 -0.343616D+00 -0.102848D+00
      8 -0.440785D-02  0.190275D-01 -0.188769D-02 -0.916352D-01 -0.120913D+00
      9 -0.212600D-01 -0.715478D-02  0.793672D-02 -0.136896D+00 -0.437422D-01
     10  0.123126D-01  0.177797D-02  0.428235D-02 -0.657714D-01  0.127294D-01
     11 -0.420428D-02 -0.213764D-02 -0.178727D-02 -0.152874D-01  0.236028D-01
     12  0.429483D-02  0.768946D-03  0.411563D-02 -0.239031D-01  0.536972D-02
     13 -0.843977D-02 -0.463879D-02 -0.287702D-02  0.243515D-01  0.172968D-01
     14 -0.215745D-02 -0.392418D-02 -0.917208D-03  0.121708D-01  0.726215D-02
     15 -0.288219D-02 -0.197748D-02 -0.291156D-02  0.854955D-02  0.738474D-02
     16  0.548323D-02  0.790520D-02  0.132753D-02 -0.195963D-01 -0.128312D-01
     17  0.264188D-02 -0.342886D-02  0.114090D-02  0.355222D-02  0.209920D-02
     18  0.133851D-02  0.338992D-02  0.290274D-02 -0.737286D-02 -0.549206D-02
     19  0.101837D-02 -0.257643D-03  0.156773D-03 -0.255924D-02  0.231470D-02
     20  0.528402D-03  0.877086D-03  0.225318D-03  0.351361D-02 -0.561571D-02
     21  0.155135D-03 -0.110559D-03  0.719259D-03 -0.149483D-03  0.996140D-03
                6             7             8             9            10 
      6  0.322196D+00
      7 -0.136873D+00  0.505665D+00
      8 -0.389512D-01  0.460005D-01  0.245795D+00
      9 -0.811984D-01  0.214711D+00  0.191496D-01  0.946636D-01
     10 -0.239615D-01 -0.113261D+00  0.132364D-01 -0.515207D-01  0.642879D+00
     11 -0.660187D-02  0.296989D-01 -0.136271D+00  0.129896D-01  0.234185D+00
     12 -0.199820D-01 -0.515550D-01  0.595523D-02 -0.147947D-01  0.279548D+00
     13  0.853886D-02 -0.372617D-01  0.682564D-01 -0.225890D-01 -0.124842D+00
     14  0.519439D-02  0.191204D-01 -0.388279D-01  0.828298D-02  0.551076D-02
     15  0.792165D-02 -0.224865D-01  0.292788D-01  0.560005D-02 -0.457432D-01
     16 -0.733870D-02  0.343386D-01 -0.229095D-01  0.205868D-01 -0.269470D-01
     17  0.150857D-02 -0.868738D-02  0.231625D-01 -0.378906D-02 -0.997287D-01
     18 -0.549812D-02  0.205572D-01 -0.986617D-02 -0.492373D-02 -0.186979D-01
     19 -0.146982D-03 -0.130954D-01 -0.854082D-02 -0.303193D-02 -0.324370D+00
     20  0.150844D-02  0.334494D-01  0.802729D-02  0.142638D-01 -0.167711D+00
     21 -0.229251D-02 -0.311950D-02 -0.367866D-02 -0.728347D-02 -0.143907D+00
               11            12            13            14            15 
     11  0.607201D+00
     12  0.987752D-01  0.106762D+00
     13  0.212811D-02 -0.457361D-01  0.665194D+00
     14 -0.214079D+00  0.276405D-02  0.135792D+00  0.411402D+00
     15  0.131864D-02 -0.373664D-01  0.260024D+00  0.572827D-01  0.166993D+00
     16 -0.875833D-01 -0.187233D-01 -0.523556D+00 -0.173578D+00 -0.207931D+00
     17 -0.123717D+00 -0.423201D-01 -0.186138D+00 -0.153257D+00 -0.792925D-01
     18 -0.371303D-01  0.938580D-02 -0.207904D+00 -0.739258D-01 -0.124778D+00
     19 -0.158937D+00 -0.143925D+00  0.455368D-02  0.314210D-02  0.104687D-01
     20 -0.154600D+00 -0.713131D-01 -0.326963D-01 -0.857690D-02 -0.139949D-01
     21 -0.675640D-01 -0.481203D-01  0.105434D-01  0.131888D-02 -0.154588D-01
               16            17            18            19            20 
     16  0.526116D+00
     17  0.284813D+00  0.261663D+00
     18  0.215159D+00  0.121199D+00  0.112881D+00
     19  0.416103D-02  0.354741D-02 -0.307908D-02  0.330292D+00
     20  0.418444D-02 -0.652201D-02  0.182528D-02  0.158732D+00  0.166410D+00
     21 -0.308041D-02  0.155308D-02  0.100301D-01  0.139558D+00  0.674852D-01
               21 
     21  0.624057D-01
 FormGI is forming the generalized inverse of G from B-inverse, IUseBI=4.
 Force constants in internal coordinates: 
                1             2             3             4             5 
      1  0.123896D+01
      2  0.321334D-01  0.525748D+00
      3 -0.120270D-01  0.417903D-01  0.255504D+00
      4 -0.426231D-03  0.175541D-01  0.292280D-01  0.370993D+00
      5 -0.124237D-02 -0.605586D-03 -0.697940D-02  0.870162D-03  0.483562D+00
      6  0.738723D-02 -0.130035D-01  0.283690D-01  0.158272D+00 -0.431233D-02
      7 -0.747366D-02  0.928442D-01  0.708447D-01  0.237762D-01 -0.114008D-02
      8  0.370327D-02  0.122670D-01  0.527283D-03 -0.148416D-01 -0.243680D-02
      9 -0.174485D-02 -0.352976D-02  0.265440D-01 -0.966173D-02 -0.129200D-02
     10 -0.195842D-02 -0.873727D-02 -0.270713D-01  0.245034D-01  0.372880D-02
     11 -0.210247D-02  0.298091D-01 -0.740435D-01  0.105178D+00  0.401926D-02
     12 -0.153865D-01 -0.115881D-01  0.181915D-01  0.155727D-01  0.638757D-04
     13  0.000000D+00  0.000000D+00  0.000000D+00  0.000000D+00  0.000000D+00
     14  0.000000D+00  0.000000D+00  0.000000D+00  0.000000D+00  0.000000D+00
     15  0.000000D+00  0.000000D+00  0.000000D+00  0.000000D+00  0.000000D+00
     16  0.000000D+00  0.000000D+00  0.000000D+00  0.000000D+00  0.000000D+00
     17  0.000000D+00  0.000000D+00  0.000000D+00  0.000000D+00  0.000000D+00
                6             7             8             9            10 
      6  0.794032D+00
      7 -0.812506D-02  0.349585D+00
      8 -0.985791D-02  0.697525D-01  0.161755D+00
      9  0.397303D-02 -0.215602D-01 -0.854832D-01  0.110650D+00
     10  0.588488D-02 -0.481923D-01 -0.762722D-01 -0.251668D-01  0.101439D+00
     11  0.100372D+00  0.503229D-01 -0.386980D-01  0.218863D-02  0.365093D-01
     12 -0.116660D-01  0.396883D-01  0.388262D-01 -0.213111D-01 -0.175151D-01
     13  0.000000D+00  0.000000D+00  0.000000D+00  0.000000D+00  0.000000D+00
     14  0.000000D+00  0.000000D+00  0.000000D+00  0.000000D+00  0.000000D+00
     15  0.000000D+00  0.000000D+00  0.000000D+00  0.000000D+00  0.000000D+00
     16  0.000000D+00  0.000000D+00  0.000000D+00  0.000000D+00  0.000000D+00
     17  0.000000D+00  0.000000D+00  0.000000D+00  0.000000D+00  0.000000D+00
               11            12            13            14            15 
     11  0.437327D+00
     12  0.336003D-01  0.111742D+00
     13  0.000000D+00  0.000000D+00  0.100419D+00
     14  0.000000D+00  0.000000D+00  0.434318D-02 -0.929534D-02
     15  0.000000D+00  0.000000D+00  0.285324D-02 -0.436643D-02 -0.572558D-02
     16  0.000000D+00  0.000000D+00 -0.122737D-02 -0.141735D-02 -0.610132D-03
     17  0.000000D+00  0.000000D+00  0.394667D-03 -0.678323D-02  0.869511D-03
               16            17 
     16  0.235830D-01
     17  0.227042D-01  0.143730D-01
 Leave Link  716 at Mon Aug  5 14:31:41 2024, MaxMem=  4294967296 cpu:         0.4
 (Enter /usr/local/g09/l103.exe)

 GradGradGradGradGradGradGradGradGradGradGradGradGradGradGradGradGradGrad
 Berny optimization.
 Red2BG is reusing G-inverse.
 Internal  Forces:  Max     0.000403254 RMS     0.000153836
 Search for a local minimum.
 Step number   1 out of a maximum of   27
 All quantities printed in internal units (Hartrees-Bohrs-Radians)
 RMS Force = .15384D-03 SwitMx=.10000D-02 MixMth= 2
 Mixed Optimization -- En-DIIS/RFO-DIIS
 Second derivative matrix not updated -- analytic derivatives used.
 The second derivative matrix:
                          R1        R2        R3        R4        R5
           R1           1.23896
           R2           0.03213   0.52575
           R3          -0.01203   0.04179   0.25550
           R4          -0.00043   0.01755   0.02923   0.37099
           R5          -0.00124  -0.00061  -0.00698   0.00087   0.48356
           R6           0.00739  -0.01300   0.02837   0.15827  -0.00431
           A1          -0.00747   0.09284   0.07084   0.02378  -0.00114
           A2           0.00370   0.01227   0.00053  -0.01484  -0.00244
           A3          -0.00174  -0.00353   0.02654  -0.00966  -0.00129
           A4          -0.00196  -0.00874  -0.02707   0.02450   0.00373
           A5          -0.00210   0.02981  -0.07404   0.10518   0.00402
           A6          -0.01539  -0.01159   0.01819   0.01557   0.00006
           A7           0.00000   0.00000   0.00000   0.00000   0.00000
           D1           0.00000   0.00000   0.00000   0.00000   0.00000
           D2           0.00000   0.00000   0.00000   0.00000   0.00000
           D3           0.00000   0.00000   0.00000   0.00000   0.00000
           D4           0.00000   0.00000   0.00000   0.00000   0.00000
                          R6        A1        A2        A3        A4
           R6           0.79403
           A1          -0.00813   0.34958
           A2          -0.00986   0.06975   0.16176
           A3           0.00397  -0.02156  -0.08548   0.11065
           A4           0.00588  -0.04819  -0.07627  -0.02517   0.10144
           A5           0.10037   0.05032  -0.03870   0.00219   0.03651
           A6          -0.01167   0.03969   0.03883  -0.02131  -0.01752
           A7           0.00000   0.00000   0.00000   0.00000   0.00000
           D1           0.00000   0.00000   0.00000   0.00000   0.00000
           D2           0.00000   0.00000   0.00000   0.00000   0.00000
           D3           0.00000   0.00000   0.00000   0.00000   0.00000
           D4           0.00000   0.00000   0.00000   0.00000   0.00000
                          A5        A6        A7        D1        D2
           A5           0.43733
           A6           0.03360   0.11174
           A7           0.00000   0.00000   0.10042
           D1           0.00000   0.00000   0.00434  -0.00930
           D2           0.00000   0.00000   0.00285  -0.00437  -0.00573
           D3           0.00000   0.00000  -0.00123  -0.00142  -0.00061
           D4           0.00000   0.00000   0.00039  -0.00678   0.00087
                          D3        D4
           D3           0.02358
           D4           0.02270   0.01437
 ITU=  0
     Eigenvalues ---   -0.01395  -0.00607   0.04269   0.08141   0.10068
     Eigenvalues ---    0.11514   0.15133   0.23626   0.30470   0.37651
     Eigenvalues ---    0.46313   0.48714   0.59814   0.88665   1.24089
 Eigenvalue     1 is  -1.39D-02 should be greater than     0.000000 Eigenvector:
                          D1        D2        D4        D3        A7
   1                   -0.83977  -0.41785  -0.30926   0.15006   0.04499
                          R3        A5        A6        A2        A4
   1                    0.00000   0.00000   0.00000   0.00000   0.00000
 Eigenvalue     2 is  -6.07D-03 should be greater than     0.000000 Eigenvector:
                          D2        D4        D3        D1        A7
   1                   -0.74393   0.51897  -0.40714   0.10677   0.00896
                          A5        A4        A6        A3        A2
   1                    0.00000   0.00000   0.00000   0.00000   0.00000
 RFO step:  Lambda=-1.39454725D-02 EMin=-1.39454696D-02
 I=     1 Eig=   -1.39D-02 Dot1= -4.30D-12
 I=     1 Stepn=  1.25D-01 RXN=   1.25D-01 EDone=F
 I=     2 Eig=   -6.07D-03 Dot1=  1.97D-11
 I=     2 Stepn= -6.25D-02 RXN=   1.40D-01 EDone=F
 Mixed    2 eigenvectors in step.  Raw Step.Grad= -2.40D-11.
 RFO eigenvector is Hessian eigenvector with negative curvature.
 Taking step of  1.40D-01 in eigenvector direction(s).  Step.Grad= -7.34D-06.
 Linear search not attempted -- first point.
 Iteration  1 RMS(Cart)=  0.02651488 RMS(Int)=  0.00118585
 Iteration  2 RMS(Cart)=  0.00154453 RMS(Int)=  0.00065577
 Iteration  3 RMS(Cart)=  0.00000165 RMS(Int)=  0.00065576
 Iteration  4 RMS(Cart)=  0.00000000 RMS(Int)=  0.00065576
 ITry= 1 IFail=0 DXMaxC= 6.17D-02 DCOld= 1.00D+10 DXMaxT= 5.00D-02 DXLimC= 3.00D+00 Rises=F
 ClnCor:  largest displacement from symmetrization is 6.71D-02 for atom     3.
 Variable       Old X    -DE/DX   Delta X   Delta X   Delta X     New X
                                 (Linear)    (Quad)   (Total)
    R1        2.17401   0.00028   0.00000   0.00000  -0.00046   2.17355
    R2        2.45232   0.00012   0.00000   0.00000  -0.00076   2.45156
    R3        2.67737   0.00024   0.00000   0.00000  -0.00288   2.67449
    R4        2.46670  -0.00015   0.00000   0.00000  -0.00022   2.46647
    R5        1.90100   0.00003   0.00000   0.00000  -0.00090   1.90009
    R6        2.26191   0.00015   0.00000   0.00000  -0.00106   2.26085
    A1        2.08970  -0.00040   0.00000   0.00000   0.00213   2.09182
    A2        2.26761  -0.00010   0.00000   0.00000   0.00023   2.26785
    A3        1.91717   0.00005   0.00000   0.00000   0.00052   1.91768
    A4        2.09841   0.00005   0.00000   0.00000  -0.00075   2.09765
    A5        2.06889  -0.00014   0.00000   0.00000  -0.00016   2.06873
    A6        3.34304   0.00011   0.00000   0.00000   0.00006   3.34311
    A7        3.14159   0.00000   0.00000   0.00506   0.00000   3.14159
    D1        0.00000   0.00000   0.00000  -0.11164   0.00000   0.00000
    D2       -3.14159   0.00000   0.00000  -0.00574   0.00000  -3.14159
    D3        0.00000   0.00000   0.00000   0.04420   0.00000   0.00000
    D4        3.14159   0.00000   0.00000  -0.07109   0.00000   3.14159
         Item               Value     Threshold  Converged?
 Maximum Force            0.000403     0.000015     NO 
 RMS     Force            0.000154     0.000010     NO 
 Maximum Displacement     0.003592     0.000060     NO 
 RMS     Displacement     0.001544     0.000040     NO 
 Predicted change in Energy=-4.399825D-06
 Lowest energy point so far.  Saving SCF results.
 GradGradGradGradGradGradGradGradGradGradGradGradGradGradGradGradGradGrad

 Leave Link  103 at Mon Aug  5 14:31:41 2024, MaxMem=  4294967296 cpu:         0.1
 (Enter /usr/local/g09/l202.exe)
                          Input orientation:                          
 ---------------------------------------------------------------------
 Center     Atomic      Atomic             Coordinates (Angstroms)
 Number     Number       Type             X           Y           Z
 ---------------------------------------------------------------------
      1          7           0        2.226489   -0.518045    0.856114
      2          6           0        1.175834   -0.651349    0.407446
      3          8           0        0.042257   -1.056573   -0.076087
      4          7           0       -0.925014   -0.110561   -0.491375
      5          7           0       -0.881980    1.193838   -0.475707
      6          8           0        0.102813    1.728065   -0.056019
      7          1           0       -1.740397   -0.585376   -0.838799
 ---------------------------------------------------------------------
                    Distance matrix (angstroms):
                    1          2          3          4          5
     1  N    0.000000
     2  C    1.150195   0.000000
     3  O    2.435135   1.297308   0.000000
     4  N    3.451629   2.348168   1.415279   0.000000
     5  N    3.790366   2.901598   2.465412   1.305202   0.000000
     6  O    3.222887   2.650997   2.785368   2.150932   1.196392
     7  H    4.314331   3.172047   1.995397   1.005486   2.008560
                    6          7
     6  O    0.000000
     7  H    3.059767   0.000000
 Stoichiometry    CHN3O2
 Framework group  CS[SG(CHN3O2)]
 Deg. of freedom    11
 Full point group                 CS      NOp   2
 RotChk:  IX=2 Diff= 1.64D+00
 Largest Abelian subgroup         CS      NOp   2
 Largest concise Abelian subgroup C1      NOp   1
                         Standard orientation:                         
 ---------------------------------------------------------------------
 Center     Atomic      Atomic             Coordinates (Angstroms)
 Number     Number       Type             X           Y           Z
 ---------------------------------------------------------------------
      1          7           0       -2.260639    0.275948    0.000000
      2          6           0       -1.153360    0.587210    0.000000
      3          8           0        0.000000    1.181153    0.000000
      4          7           0        1.188292    0.412402    0.000000
      5          7           0        1.348210   -0.882966    0.000000
      6          8           0        0.375023   -1.578854    0.000000
      7          1           0        1.988932    1.020660    0.000000
 ---------------------------------------------------------------------
 Rotational constants (GHZ):      7.6792441      3.2634694      2.2901978
 Leave Link  202 at Mon Aug  5 14:31:41 2024, MaxMem=  4294967296 cpu:         0.3
 (Enter /usr/local/g09/l301.exe)
 Standard basis: def2TZVP (5D, 7F)
 Ernie: Thresh=  0.10000D-02 Tol=  0.10000D-05 Strict=F.
 There are   155 symmetry adapted cartesian basis functions of A'  symmetry.
 There are    67 symmetry adapted cartesian basis functions of A"  symmetry.
 There are   131 symmetry adapted basis functions of A'  symmetry.
 There are    61 symmetry adapted basis functions of A"  symmetry.
   192 basis functions,   314 primitive gaussians,   222 cartesian basis functions
    22 alpha electrons       22 beta electrons
       nuclear repulsion energy       215.7496978468 Hartrees.
 IExCor= 4639 DFT=T Ex+Corr=wB97XD ExCW=0 ScaHFX=  1.000000
 ScaDFX=  1.000000  1.000000  1.000000  1.000000 ScalE2=  1.000000  1.000000
 IRadAn=      5 IRanWt=     -1 IRanGd=            0 ICorTp=0 IEmpDi=121
  HFx wShort=  0.000000 wLong=  0.200000 cFull=  0.222036 cShort=  0.000000 cLong=  0.777964
  DFx wShort=  0.000000 wLong=  0.200000 cFull=  0.000000 cShort=  0.000000 cLong=  1.000000
 NAtoms=    7 NActive=    7 NUniq=    7 SFac= 1.00D+00 NAtFMM=   60 NAOKFM=F Big=F
 Integral buffers will be    131072 words long.
 Raffenetti 2 integral format.
 Two-electron integral symmetry is turned on.
 R6Disp:  Grimme-D2 Dispersion energy=       -0.0014823347 Hartrees.
 Nuclear repulsion after empirical dispersion term =      215.7482155121 Hartrees.
 Leave Link  301 at Mon Aug  5 14:31:41 2024, MaxMem=  4294967296 cpu:         0.9
 (Enter /usr/local/g09/l302.exe)
 NPDir=0 NMtPBC=     1 NCelOv=     1 NCel=       1 NClECP=     1 NCelD=      1
         NCelK=      1 NCelE2=     1 NClLst=     1 CellRange=     0.0.
 One-electron integrals computed using PRISM.
   1 Symmetry operations used in ECPInt.
 ECPInt:  NShTT=    2485 NPrTT=    8136 LenC2=    2443 LenP2D=    6477.
 LDataN:  DoStor=T MaxTD1= 6 Len=  172
 NBasis=   192 RedAO= T EigKep=  4.31D-04  NBF=   131    61
 NBsUse=   192 1.00D-06 EigRej= -1.00D+00 NBFU=   131    61
 Precomputing XC quadrature grid using
 IXCGrd= 4 IRadAn=           5 IRanWt=          -1 IRanGd=           0 AccXCQ= 0.00D+00.
 Generated NRdTot=       0 NPtTot=           0 NUsed=           0 NTot=          32
 NSgBfM=   219   219   219   219   219 MxSgAt=     7 MxSgA2=     7.
 Leave Link  302 at Mon Aug  5 14:31:42 2024, MaxMem=  4294967296 cpu:         3.5
 (Enter /usr/local/g09/l303.exe)
 DipDrv:  MaxL=1.
 Leave Link  303 at Mon Aug  5 14:31:42 2024, MaxMem=  4294967296 cpu:         0.6
 (Enter /usr/local/g09/l401.exe)
 Initial guess from the checkpoint file:  "check.chk"
 B after Tr=     0.000000    0.000000    0.000000
         Rot=    0.814768    0.000000    0.000000    0.579787 Ang=  70.87 deg.
 Guess basis will be translated and rotated to current coordinates.
 JPrj=2 DoOrth=T DoCkMO=T.
 Initial guess orbital symmetries:
       Occupied  (A') (A') (A') (A') (A') (A') (A') (A') (A') (A')
                 (A') (A') (A') (A") (A') (A") (A') (A') (A") (A')
                 (A") (A')
       Virtual   (A') (A') (A') (A') (A') (A') (A') (A') (A') (A')
                 (A') (A') (A') (A') (A') (A') (A') (A') (A') (A')
                 (A') (A') (A') (A') (A') (A') (A') (A') (A') (A')
                 (A') (A') (A') (A') (A') (A') (A') (A') (A') (A')
                 (A') (A') (A') (A') (A') (A') (A') (A') (A') (A')
                 (A') (A') (A') (A') (A') (A') (A') (A') (A') (A')
                 (A') (A') (A') (A') (A') (A') (A') (A') (A') (A')
                 (A') (A') (A') (A') (A') (A') (A') (A') (A') (A')
                 (A') (A') (A') (A') (A') (A') (A') (A') (A') (A')
                 (A') (A') (A') (A') (A') (A') (A') (A') (A') (A')
                 (A') (A') (A') (A') (A') (A') (A') (A') (A') (A')
                 (A') (A') (A') (A") (A") (A") (A") (A") (A") (A")
                 (A") (A") (A") (A") (A") (A") (A") (A") (A") (A")
                 (A") (A") (A") (A") (A") (A") (A") (A") (A") (A")
                 (A") (A") (A") (A") (A") (A") (A") (A") (A") (A")
                 (A") (A") (A") (A") (A") (A") (A") (A") (A") (A")
                 (A") (A") (A") (A") (A") (A") (A") (A") (A") (A")
 The electronic state of the initial guess is 1-A'.
 Leave Link  401 at Mon Aug  5 14:31:42 2024, MaxMem=  4294967296 cpu:         2.8
 (Enter /usr/local/g09/l502.exe)
 Closed shell SCF:
 Using DIIS extrapolation, IDIIS=  1040.
 Integral symmetry usage will be decided dynamically.
 Keep R1 ints in memory in symmetry-blocked form, NReq=518419670.
 IVT=      171636 IEndB=      171636 NGot=  4294967296 MDV=  4207304620
 LenX=  4207304620 LenY=  4207254895
 Requested convergence on RMS density matrix=1.00D-08 within 128 cycles.
 Requested convergence on MAX density matrix=1.00D-06.
 Requested convergence on             energy=1.00D-06.
 No special actions if energy rises.
 FoFCou: FMM=F IPFlag=           0 FMFlag=           0 FMFlg1=           0
         NFxFlg=           0 DoJE=F BraDBF=F KetDBF=F FulRan=T
         wScrn=  0.000000 ICntrl=     600 IOpCl=  0 I1Cent=           0 NGrid=           0
         NMat0=    1 NMatS0=  18528 NMatT0=    0 NMatD0=    1 NMtDS0=    0 NMtDT0=    0
 Petite list used in FoFCou.

 Cycle   1  Pass 1  IDiag  1:
 E= -353.225916555861    
 DIIS: error= 1.09D-04 at cycle   1 NSaved=   1.
 NSaved= 1 IEnMin= 1 EnMin= -353.225916555861     IErMin= 1 ErrMin= 1.09D-04
 ErrMax= 1.09D-04  0.00D+00 EMaxC= 1.00D-01 BMatC= 4.77D-06 BMatP= 4.77D-06
 IDIUse=3 WtCom= 9.99D-01 WtEn= 1.09D-03
 Coeff-Com:  0.100D+01
 Coeff-En:   0.100D+01
 Coeff:      0.100D+01
 Gap=     0.938 Goal=   None    Shift=    0.000
 RMSDP=9.28D-06 MaxDP=1.87D-04              OVMax= 5.14D-04

 Cycle   2  Pass 1  IDiag  1:
 E= -353.225921070522     Delta-E=       -0.000004514661 Rises=F Damp=F
 DIIS: error= 2.12D-05 at cycle   2 NSaved=   2.
 NSaved= 2 IEnMin= 2 EnMin= -353.225921070522     IErMin= 2 ErrMin= 2.12D-05
 ErrMax= 2.12D-05  0.00D+00 EMaxC= 1.00D-01 BMatC= 1.56D-07 BMatP= 4.77D-06
 IDIUse=1 WtCom= 1.00D+00 WtEn= 0.00D+00
 Coeff-Com: -0.598D-01 0.106D+01
 Coeff:     -0.598D-01 0.106D+01
 Gap=     0.357 Goal=   None    Shift=    0.000
 RMSDP=2.79D-06 MaxDP=8.11D-05 DE=-4.51D-06 OVMax= 1.69D-04

 Cycle   3  Pass 1  IDiag  1:
 E= -353.225921287852     Delta-E=       -0.000000217330 Rises=F Damp=F
 DIIS: error= 2.33D-05 at cycle   3 NSaved=   3.
 NSaved= 3 IEnMin= 3 EnMin= -353.225921287852     IErMin= 2 ErrMin= 2.12D-05
 ErrMax= 2.33D-05  0.00D+00 EMaxC= 1.00D-01 BMatC= 7.80D-08 BMatP= 1.56D-07
 IDIUse=1 WtCom= 1.00D+00 WtEn= 0.00D+00
 Coeff-Com: -0.504D-01 0.432D+00 0.618D+00
 Coeff:     -0.504D-01 0.432D+00 0.618D+00
 Gap=     0.357 Goal=   None    Shift=    0.000
 RMSDP=1.10D-06 MaxDP=3.47D-05 DE=-2.17D-07 OVMax= 9.37D-05

 Cycle   4  Pass 1  IDiag  1:
 E= -353.225921336229     Delta-E=       -0.000000048377 Rises=F Damp=F
 DIIS: error= 1.23D-05 at cycle   4 NSaved=   4.
 NSaved= 4 IEnMin= 4 EnMin= -353.225921336229     IErMin= 4 ErrMin= 1.23D-05
 ErrMax= 1.23D-05  0.00D+00 EMaxC= 1.00D-01 BMatC= 2.46D-08 BMatP= 7.80D-08
 IDIUse=1 WtCom= 1.00D+00 WtEn= 0.00D+00
 Coeff-Com: -0.167D-01 0.521D-01 0.360D+00 0.604D+00
 Coeff:     -0.167D-01 0.521D-01 0.360D+00 0.604D+00
 Gap=     0.357 Goal=   None    Shift=    0.000
 RMSDP=6.05D-07 MaxDP=1.40D-05 DE=-4.84D-08 OVMax= 4.49D-05

 Cycle   5  Pass 1  IDiag  1:
 E= -353.225921356644     Delta-E=       -0.000000020415 Rises=F Damp=F
 DIIS: error= 3.20D-06 at cycle   5 NSaved=   5.
 NSaved= 5 IEnMin= 5 EnMin= -353.225921356644     IErMin= 5 ErrMin= 3.20D-06
 ErrMax= 3.20D-06  0.00D+00 EMaxC= 1.00D-01 BMatC= 2.01D-09 BMatP= 2.46D-08
 IDIUse=1 WtCom= 1.00D+00 WtEn= 0.00D+00
 Coeff-Com:  0.227D-02-0.589D-01 0.451D-01 0.256D+00 0.756D+00
 Coeff:      0.227D-02-0.589D-01 0.451D-01 0.256D+00 0.756D+00
 Gap=     0.357 Goal=   None    Shift=    0.000
 RMSDP=2.62D-07 MaxDP=1.01D-05 DE=-2.04D-08 OVMax= 1.64D-05

 Cycle   6  Pass 1  IDiag  1:
 E= -353.225921358757     Delta-E=       -0.000000002114 Rises=F Damp=F
 DIIS: error= 1.02D-06 at cycle   6 NSaved=   6.
 NSaved= 6 IEnMin= 6 EnMin= -353.225921358757     IErMin= 6 ErrMin= 1.02D-06
 ErrMax= 1.02D-06  0.00D+00 EMaxC= 1.00D-01 BMatC= 2.75D-10 BMatP= 2.01D-09
 IDIUse=1 WtCom= 1.00D+00 WtEn= 0.00D+00
 Coeff-Com:  0.256D-02-0.334D-01-0.138D-01 0.647D-01 0.357D+00 0.623D+00
 Coeff:      0.256D-02-0.334D-01-0.138D-01 0.647D-01 0.357D+00 0.623D+00
 Gap=     0.357 Goal=   None    Shift=    0.000
 RMSDP=8.82D-08 MaxDP=3.92D-06 DE=-2.11D-09 OVMax= 5.11D-06

 Cycle   7  Pass 1  IDiag  1:
 E= -353.225921359025     Delta-E=       -0.000000000268 Rises=F Damp=F
 DIIS: error= 3.39D-07 at cycle   7 NSaved=   7.
 NSaved= 7 IEnMin= 7 EnMin= -353.225921359025     IErMin= 7 ErrMin= 3.39D-07
 ErrMax= 3.39D-07  0.00D+00 EMaxC= 1.00D-01 BMatC= 2.10D-11 BMatP= 2.75D-10
 IDIUse=1 WtCom= 1.00D+00 WtEn= 0.00D+00
 Coeff-Com:  0.402D-03 0.179D-03-0.122D-01-0.241D-01-0.345D-01 0.160D+00
 Coeff-Com:  0.910D+00
 Coeff:      0.402D-03 0.179D-03-0.122D-01-0.241D-01-0.345D-01 0.160D+00
 Coeff:      0.910D+00
 Gap=     0.357 Goal=   None    Shift=    0.000
 RMSDP=5.94D-08 MaxDP=1.86D-06 DE=-2.68D-10 OVMax= 4.75D-06

 Cycle   8  Pass 1  IDiag  1:
 E= -353.225921359068     Delta-E=       -0.000000000043 Rises=F Damp=F
 DIIS: error= 1.70D-07 at cycle   8 NSaved=   8.
 NSaved= 8 IEnMin= 8 EnMin= -353.225921359068     IErMin= 8 ErrMin= 1.70D-07
 ErrMax= 1.70D-07  0.00D+00 EMaxC= 1.00D-01 BMatC= 4.19D-12 BMatP= 2.10D-11
 IDIUse=1 WtCom= 1.00D+00 WtEn= 0.00D+00
 Coeff-Com: -0.180D-03 0.428D-02-0.210D-02-0.155D-01-0.562D-01-0.344D-01
 Coeff-Com:  0.347D+00 0.757D+00
 Coeff:     -0.180D-03 0.428D-02-0.210D-02-0.155D-01-0.562D-01-0.344D-01
 Coeff:      0.347D+00 0.757D+00
 Gap=     0.357 Goal=   None    Shift=    0.000
 RMSDP=2.05D-08 MaxDP=9.60D-07 DE=-4.29D-11 OVMax= 1.30D-06

 Cycle   9  Pass 1  IDiag  1:
 E= -353.225921359079     Delta-E=       -0.000000000011 Rises=F Damp=F
 DIIS: error= 4.68D-08 at cycle   9 NSaved=   9.
 NSaved= 9 IEnMin= 9 EnMin= -353.225921359079     IErMin= 9 ErrMin= 4.68D-08
 ErrMax= 4.68D-08  0.00D+00 EMaxC= 1.00D-01 BMatC= 4.78D-13 BMatP= 4.19D-12
 IDIUse=1 WtCom= 1.00D+00 WtEn= 0.00D+00
 Coeff-Com: -0.947D-04 0.143D-02 0.648D-03-0.322D-02-0.149D-01-0.287D-01
 Coeff-Com:  0.439D-01 0.256D+00 0.745D+00
 Coeff:     -0.947D-04 0.143D-02 0.648D-03-0.322D-02-0.149D-01-0.287D-01
 Coeff:      0.439D-01 0.256D+00 0.745D+00
 Gap=     0.357 Goal=   None    Shift=    0.000
 RMSDP=7.05D-09 MaxDP=1.75D-07 DE=-1.08D-11 OVMax= 5.49D-07

 SCF Done:  E(RwB97XD) =  -353.225921359     A.U. after    9 cycles
            NFock=  9  Conv=0.70D-08     -V/T= 2.0037
 KE= 3.519248557153D+02 PE=-1.260314882293D+03 EE= 3.394158897064D+02
 Leave Link  502 at Mon Aug  5 14:31:54 2024, MaxMem=  4294967296 cpu:       190.3
 (Enter /usr/local/g09/l701.exe)
 Compute integral first derivatives.
 ... and contract with generalized density number  0.
 R6Disp: Adding Grimme-D2 dispersion energy 1st derivatives to the gradient.
   2 Symmetry operations used in ECPInt.
 ECPInt:  NShTT=    2485 NPrTT=    8136 LenC2=    2443 LenP2D=    6477.
 LDataN:  DoStor=T MaxTD1= 7 Len=  274
 Leave Link  701 at Mon Aug  5 14:31:55 2024, MaxMem=  4294967296 cpu:        14.0
 (Enter /usr/local/g09/l702.exe)
 L702 exits ... SP integral derivatives will be done elsewhere.
 Leave Link  702 at Mon Aug  5 14:31:55 2024, MaxMem=  4294967296 cpu:         0.3
 (Enter /usr/local/g09/l703.exe)
 Compute integral first derivatives, UseDBF=F ICtDFT=           0.
 Integral derivatives from FoFJK, PRISM(SPDF).
 Calling FoFJK, ICntrl=      2127 FMM=F ISym2X=1 I1Cent= 0 IOpClX= 0 NMat=1 NMatS=1 NMatT=0.
 FoFJK:  IHMeth= 1 ICntrl=    2127 DoSepK=T KAlg= 0 I1Cent=   0 FoldK=F
 IRaf=         1 NMat=   1 IRICut=       1 DoRegI=T DoRafI=F ISym2E= 1.
 FoFCou: FMM=F IPFlag=           0 FMFlag=      100000 FMFlg1=         800
         NFxFlg=           0 DoJE=F BraDBF=F KetDBF=F FulRan=T
         wScrn=  0.000000 ICntrl=    2527 IOpCl=  0 I1Cent=           0 NGrid=           0
         NMat0=    1 NMatS0=      1 NMatT0=    0 NMatD0=    1 NMtDS0=    0 NMtDT0=    0
 Petite list used in FoFCou.
 Leave Link  703 at Mon Aug  5 14:32:04 2024, MaxMem=  4294967296 cpu:       142.5
 (Enter /usr/local/g09/l716.exe)
 Dipole        = 1.83263392D+00 1.12146529D+00-4.64652388D-16
 ***** Axes restored to original set *****
 -------------------------------------------------------------------
 Center     Atomic                   Forces (Hartrees/Bohr)
 Number     Number              X              Y              Z
 -------------------------------------------------------------------
      1        7           0.000763355    0.000073340    0.000326029
      2        6          -0.000515602    0.000508188   -0.000221377
      3        8           0.000171280   -0.001161899    0.000075611
      4        7          -0.000211855    0.000685984   -0.000091956
      5        7          -0.000852395   -0.000235985   -0.000363737
      6        8           0.000986595    0.000373103    0.000420794
      7        1          -0.000341378   -0.000242731   -0.000145365
 -------------------------------------------------------------------
 Cartesian Forces:  Max     0.001161899 RMS     0.000515349
 Leave Link  716 at Mon Aug  5 14:32:04 2024, MaxMem=  4294967296 cpu:         0.3
 (Enter /usr/local/g09/l103.exe)

 GradGradGradGradGradGradGradGradGradGradGradGradGradGradGradGradGradGrad
 Berny optimization.
 Using GEDIIS/GDIIS optimizer.
 FormGI is forming the generalized inverse of G from B-inverse, IUseBI=4.
 Internal  Forces:  Max     0.001132642 RMS     0.000510176
 Search for a local minimum.
 Step number   2 out of a maximum of   27
 All quantities printed in internal units (Hartrees-Bohrs-Radians)
 RMS Force = .51018D-03 SwitMx=.10000D-02 MixMth= 2
 Mixed Optimization -- En-DIIS/RFO-DIIS
 Swapping is turned off.
 Update second derivatives using D2CorX and points    1    2
 The second derivative matrix:
                          R1        R2        R3        R4        R5
           R1           1.23410
           R2           0.02934   0.52414
           R3          -0.02617   0.03379   0.23292
           R4          -0.00688   0.01389   0.01773   0.36528
           R5          -0.00316  -0.00173  -0.01579  -0.00294   0.48337
           R6           0.00296  -0.01560   0.00765   0.14932  -0.00469
           A1          -0.02023   0.08575   0.06832   0.02040  -0.01218
           A2          -0.01206   0.00344  -0.00977  -0.02183  -0.01484
           A3           0.00760   0.00171   0.03367  -0.00512   0.00588
           A4           0.00446  -0.00515  -0.02390   0.02694   0.00896
           A5          -0.01774   0.02104  -0.08680   0.09725  -0.00784
           A6          -0.01137  -0.00932   0.02292   0.01818   0.00286
           A7           0.00000   0.00000   0.00000   0.00000   0.00000
           D1           0.00000   0.00000   0.00000   0.00000   0.00000
           D2           0.00000   0.00000   0.00000   0.00000   0.00000
           D3           0.00000   0.00000   0.00000   0.00000   0.00000
           D4           0.00000   0.00000   0.00000   0.00000   0.00000
                          R6        A1        A2        A3        A4
           R6           0.79333
           A1          -0.03436   0.38055
           A2          -0.03925   0.09466   0.17880
           A3           0.02096  -0.03442  -0.09362   0.11437
           A4           0.01828  -0.06024  -0.08518  -0.02074   0.10592
           A5           0.07231   0.07027  -0.02669  -0.00313   0.02981
           A6          -0.00506   0.03725   0.03851  -0.02151  -0.01700
           A7           0.00000   0.00000   0.00000   0.00000   0.00000
           D1           0.00000   0.00000   0.00000   0.00000   0.00000
           D2           0.00000   0.00000   0.00000   0.00000   0.00000
           D3           0.00000   0.00000   0.00000   0.00000   0.00000
           D4           0.00000   0.00000   0.00000   0.00000   0.00000
                          A5        A6        A7        D1        D2
           A5           0.44474
           A6           0.03424   0.11103
           A7           0.00000   0.00000   0.10042
           D1           0.00000   0.00000   0.00434  -0.00930
           D2           0.00000   0.00000   0.00285  -0.00437  -0.00573
           D3           0.00000   0.00000  -0.00123  -0.00142  -0.00061
           D4           0.00000   0.00000   0.00039  -0.00678   0.00087
                          D3        D4
           D3           0.02358
           D4           0.02270   0.01437
 ITU=  0  0
     Eigenvalues ---   -0.01395  -0.00607   0.04269   0.07636   0.10068
     Eigenvalues ---    0.11444   0.14109   0.23746   0.30742   0.40733
     Eigenvalues ---    0.48175   0.48660   0.60749   0.87135   1.23724
 Eigenvalue     1 is  -1.39D-02 should be greater than     0.000000 Eigenvector:
                          D1        D2        D4        D3        A7
   1                   -0.83984  -0.41778  -0.30919   0.14999   0.04499
                          A6        A5        A2        A4        R3
   1                    0.00000   0.00000   0.00000   0.00000   0.00000
 Eigenvalue     2 is  -6.07D-03 should be greater than     0.000000 Eigenvector:
                          D2        D4        D3        D1        A7
   1                   -0.74407   0.51884  -0.40701   0.10691   0.00896
                          R3        A1        R6        R5        R2
   1                    0.00000   0.00000   0.00000   0.00000   0.00000
 Use linear search instead of GDIIS.
 RFO step:  Lambda=-1.39454723D-02 EMin=-1.39454693D-02
 I=     1 Eig=   -1.39D-02 Dot1=  5.58D-11
 I=     1 Stepn=  1.25D-01 RXN=   1.25D-01 EDone=F
 I=     2 Eig=   -6.07D-03 Dot1=  3.53D-10
 I=     2 Stepn= -6.25D-02 RXN=   1.40D-01 EDone=F
 Mixed    2 eigenvectors in step.  Raw Step.Grad= -2.97D-10.
 RFO eigenvector is Hessian eigenvector with negative curvature.
 Taking step of  1.40D-01 in eigenvector direction(s).  Step.Grad= -4.35D-05.
 Quartic linear search produced a step of -0.39711.
 Iteration  1 RMS(Cart)=  0.02645733 RMS(Int)=  0.00118510
 Iteration  2 RMS(Cart)=  0.00154210 RMS(Int)=  0.00065572
 Iteration  3 RMS(Cart)=  0.00000165 RMS(Int)=  0.00065572
 Iteration  4 RMS(Cart)=  0.00000000 RMS(Int)=  0.00065572
 ITry= 1 IFail=0 DXMaxC= 6.16D-02 DCOld= 1.00D+10 DXMaxT= 5.00D-02 DXLimC= 3.00D+00 Rises=F
 ClnCor:  largest displacement from symmetrization is 6.70D-02 for atom     3.
 Variable       Old X    -DE/DX   Delta X   Delta X   Delta X     New X
                                 (Linear)    (Quad)   (Total)
    R1        2.17355   0.00083   0.00018   0.00000  -0.00027   2.17328
    R2        2.45156   0.00043   0.00030   0.00000  -0.00046   2.45110
[...]
 (Enter /usr/local/g09/l716.exe)
 Dipole        = 1.83142559D+00 1.12210286D+00-4.87726790D-16
 ***** Axes restored to original set *****
 -------------------------------------------------------------------
 Center     Atomic                   Forces (Hartrees/Bohr)
 Number     Number              X              Y              Z
 -------------------------------------------------------------------
      1        7           0.000883760    0.000103336    0.000377416
      2        6          -0.000455119    0.000695255   -0.000195923
      3        8           0.000300891   -0.001787718    0.000132299
      4        7          -0.000364268    0.001070839   -0.000157885
      5        7          -0.001234068   -0.000246739   -0.000526803
      6        8           0.001455492    0.000602324    0.000620677
      7        1          -0.000586688   -0.000437297   -0.000249780
 -------------------------------------------------------------------
 Cartesian Forces:  Max     0.001787718 RMS     0.000743127
 Leave Link  716 at Mon Aug  5 14:41:42 2024, MaxMem=  4294967296 cpu:         0.3
 (Enter /usr/local/g09/l103.exe)

 GradGradGradGradGradGradGradGradGradGradGradGradGradGradGradGradGradGrad
 Berny optimization.
 Using GEDIIS/GDIIS optimizer.
 FormGI is forming the generalized inverse of G from B-inverse, IUseBI=4.
 Internal  Forces:  Max     0.001691014 RMS     0.000740497
 Search for a local minimum.
 Step number  27 out of a maximum of   27
 All quantities printed in internal units (Hartrees-Bohrs-Radians)
 RMS Force = .74050D-03 SwitMx=.10000D-02 MixMth= 2
 Mixed Optimization -- En-DIIS/RFO-DIIS
 Update second derivatives using D2CorX and points   11   12   14   15   16
                                                     18   19   20   22   23
                                                     24   26   27   25
 The second derivative matrix:
                          R1        R2        R3        R4        R5
           R1           1.49082
           R2           0.01835   0.52561
           R3           0.03105   0.03994   0.27208
           R4           0.02873   0.01179   0.02487   0.36079
           R5          -0.03223  -0.00008  -0.01450  -0.00639   0.48652
           R6           0.00347  -0.02341   0.02199   0.12950  -0.01348
           A1           0.08534   0.08205   0.09452   0.00939  -0.02152
           A2           0.12628   0.00143   0.02199  -0.02257  -0.02419
           A3          -0.07371   0.00163   0.01257  -0.00820   0.01048
           A4          -0.05257  -0.00306  -0.03457   0.03077   0.01371
           A5           0.12684   0.01854  -0.05623   0.09858  -0.01782
           A6          -0.06532  -0.00664   0.02158   0.01861   0.00715
           A7           0.00000   0.00000   0.00000   0.00000   0.00000
           D1           0.00000   0.00000   0.00000   0.00000   0.00000
           D2           0.00000   0.00000   0.00000   0.00000   0.00000
           D3           0.00000   0.00000   0.00000   0.00000   0.00000
           D4           0.00000   0.00000   0.00000   0.00000   0.00000
                          R6        A1        A2        A3        A4
           R6           0.68940
           A1          -0.07302   0.36620
           A2          -0.04839   0.10157   0.20415
           A3           0.01599  -0.04737  -0.11491   0.12949
           A4           0.03239  -0.05420  -0.08924  -0.01458   0.10382
           A5           0.06669   0.08031   0.00203  -0.02577   0.02375
           A6          -0.00304   0.04212   0.03626  -0.01848  -0.01778
           A7           0.00000   0.00000   0.00000   0.00000   0.00000
           D1           0.00000   0.00000   0.00000   0.00000   0.00000
           D2           0.00000   0.00000   0.00000   0.00000   0.00000
           D3           0.00000   0.00000   0.00000   0.00000   0.00000
           D4           0.00000   0.00000   0.00000   0.00000   0.00000
                          A5        A6        A7        D1        D2
           A5           0.47721
           A6           0.02934   0.11347
           A7           0.00000   0.00000   0.10042
           D1           0.00000   0.00000   0.00434  -0.00930
           D2           0.00000   0.00000   0.00285  -0.00437  -0.00573
           D3           0.00000   0.00000  -0.00123  -0.00142  -0.00061
           D4           0.00000   0.00000   0.00039  -0.00678   0.00087
                          D3        D4
           D3           0.02358
           D4           0.02270   0.01437
 ITU=  0  0  0  0  0  0  0  0  0  0  0  0  0  0  0  0  0  0
 Use linear search instead of GDIIS.
 Skip linear search -- no minimum in search direction.
 Steepest descent instead of Quadratic search.
 Steepest descent step scaled to max of 0.05000.
 Iteration  1 RMS(Cart)=  0.04747861 RMS(Int)=  0.00053456
 Iteration  2 RMS(Cart)=  0.00156670 RMS(Int)=  0.00000066
 Iteration  3 RMS(Cart)=  0.00000077 RMS(Int)=  0.00000000
 ITry= 1 IFail=0 DXMaxC= 1.08D-01 DCOld= 1.00D+10 DXMaxT= 5.00D-02 DXLimC= 3.00D+00 Rises=T
 ClnCor:  largest displacement from symmetrization is 2.18D-08 for atom     1.
 Variable       Old X    -DE/DX   Delta X   Delta X   Delta X     New X
                                 (Linear)    (Quad)   (Total)
    R1        2.17345   0.00096   0.00000   0.02848   0.02848   2.20193
    R2        2.45098   0.00068   0.00000   0.02015   0.02015   2.47113
    R3        2.67191   0.00126   0.00000   0.03712   0.03712   2.70902
    R4        2.46636   0.00037   0.00000   0.01087   0.01087   2.47723
    R5        1.89939   0.00077   0.00000   0.02268   0.02268   1.92207
    R6        2.26031   0.00169   0.00000   0.05000   0.05000   2.31031
    A1        2.09356  -0.00143   0.00000  -0.04241  -0.04241   2.05115
    A2        2.26790  -0.00061   0.00000  -0.01792  -0.01792   2.24998
    A3        1.91829   0.00023   0.00000   0.00682   0.00682   1.92511
    A4        2.09700   0.00038   0.00000   0.01110   0.01110   2.10809
    A5        2.06844  -0.00039   0.00000  -0.01149  -0.01149   2.05695
    A6        3.34318   0.00004   0.00000   0.00112   0.00112   3.34431
    A7        3.14159   0.00000   0.00000   0.00000   0.00000   3.14159
    D1        0.00000   0.00000   0.00000   0.00000   0.00000   0.00000
    D2        3.14159   0.00000   0.00000   0.00000   0.00000   3.14159
    D3        0.00000   0.00000   0.00000   0.00000   0.00000   0.00000
    D4        3.14159   0.00000   0.00000   0.00000   0.00000   3.14159
         Item               Value     Threshold  Converged?
 Maximum Force            0.001691     0.000015     NO 
 RMS     Force            0.000740     0.000010     NO 
 Maximum Displacement     0.108447     0.000060     NO 
 RMS     Displacement     0.048681     0.000040     NO 
 Predicted change in Energy=-2.112158D-03
 Optimization stopped.
    -- Number of steps exceeded,  NStep=  27
    -- Flag reset to prevent archiving.
                           ----------------------------
                           ! Non-Optimized Parameters !
                           ! (Angstroms and Degrees)  !
 --------------------------                            --------------------------
 ! Name  Definition              Value          Derivative Info.                !
 --------------------------------------------------------------------------------
 ! R1    R(1,2)                  1.1652         -DE/DX =    0.001               !
 ! R2    R(2,3)                  1.3077         -DE/DX =    0.0007              !
 ! R3    R(3,4)                  1.4336         -DE/DX =    0.0013              !
 ! R4    R(4,5)                  1.3109         -DE/DX =    0.0004              !
 ! R5    R(4,7)                  1.0171         -DE/DX =    0.0008              !
 ! R6    R(5,6)                  1.2226         -DE/DX =    0.0017              !
 ! A1    A(2,3,4)              117.5224         -DE/DX =   -0.0014              !
 ! A2    A(3,4,5)              128.9143         -DE/DX =   -0.0006              !
 ! A3    A(3,4,7)              110.3008         -DE/DX =    0.0002              !
 ! A4    A(5,4,7)              120.7849         -DE/DX =    0.0004              !
 ! A5    A(4,5,6)              117.8546         -DE/DX =   -0.0004              !
 ! A6    L(1,2,3,6,-1)         191.6147         -DE/DX =    0.0                 !
 ! A7    L(1,2,3,6,-2)         180.0            -DE/DX =    0.0                 !
 ! D1    D(2,3,4,5)              0.0            -DE/DX =    0.0                 !
 ! D2    D(2,3,4,7)            180.0            -DE/DX =    0.0                 !
 ! D3    D(3,4,5,6)              0.0            -DE/DX =    0.0                 !
 ! D4    D(7,4,5,6)            180.0            -DE/DX =    0.0                 !
 --------------------------------------------------------------------------------
 GradGradGradGradGradGradGradGradGradGradGradGradGradGradGradGradGradGrad

 Largest change from initial coordinates is atom    1       2.592 Angstoms.
 Leave Link  103 at Mon Aug  5 14:41:43 2024, MaxMem=  4294967296 cpu:         0.1
 (Enter /usr/local/g09/l202.exe)
                          Input orientation:                          
 ---------------------------------------------------------------------
 Center     Atomic      Atomic             Coordinates (Angstroms)
 Number     Number       Type             X           Y           Z
 ---------------------------------------------------------------------
      1          7           0        2.226691   -0.519463    0.856203
      2          6           0        1.175940   -0.651382    0.407491
      3          8           0        0.042209   -1.055116   -0.076110
      4          7           0       -0.924655   -0.110657   -0.491222
      5          7           0       -0.882412    1.193709   -0.475891
      6          8           0        0.101964    1.728206   -0.056382
      7          1           0       -1.739736   -0.585297   -0.838517
 ---------------------------------------------------------------------
                    Distance matrix (angstroms):
                    1          2          3          4          5
     1  N    0.000000
     2  C    1.150140   0.000000
     3  O    2.434767   1.297003   0.000000
     4  N    3.451617   2.347886   1.413912   0.000000
     5  N    3.791564   2.901989   2.464135   1.305140   0.000000
     6  O    3.224794   2.651611   2.784033   2.150454   1.196106
     7  H    4.313810   3.171446   1.994323   1.005114   2.007827
                    6          7
     6  O    0.000000
     7  H    3.058741   0.000000
 Stoichiometry    CHN3O2
 Framework group  CS[SG(CHN3O2)]
 Deg. of freedom    11
 Full point group                 CS      NOp   2
 RotChk:  IX=2 Diff= 8.48D-16
 Largest Abelian subgroup         CS      NOp   2
 Largest concise Abelian subgroup C1      NOp   1
                         Standard orientation:                         
 ---------------------------------------------------------------------
 Center     Atomic      Atomic             Coordinates (Angstroms)
 Number     Number       Type             X           Y           Z
 ---------------------------------------------------------------------
      1          7           0       -2.261241    0.277022    0.000000
      2          6           0       -1.153682    0.587079    0.000000
      3          8           0        0.000000    1.179729    0.000000
      4          7           0        1.187712    0.412600    0.000000
      5          7           0        1.348645   -0.882581    0.000000
      6          8           0        0.376039   -1.578792    0.000000
      7          1           0        1.987975    1.020739    0.000000
 ---------------------------------------------------------------------
 Rotational constants (GHZ):      7.6891337      3.2617901      2.2902488
 Leave Link  202 at Mon Aug  5 14:41:43 2024, MaxMem=  4294967296 cpu:         0.7
 (Enter /usr/local/g09/l601.exe)
 Copying SCF densities to generalized density rwf, IOpCl= 0 IROHF=0.

 **********************************************************************

            Population analysis using the SCF density.

 **********************************************************************

 Orbital symmetries:
       Occupied  (A') (A') (A') (A') (A') (A') (A') (A') (A') (A')
                 (A') (A') (A') (A") (A') (A") (A') (A') (A") (A')
                 (A") (A')
       Virtual   (A") (A') (A') (A') (A") (A') (A') (A') (A') (A")
                 (A') (A') (A") (A') (A') (A') (A') (A") (A') (A')
                 (A') (A") (A") (A') (A') (A') (A") (A') (A') (A')
                 (A") (A') (A') (A') (A") (A') (A") (A') (A") (A')
                 (A") (A') (A') (A") (A') (A') (A') (A') (A") (A")
                 (A') (A') (A') (A") (A') (A") (A') (A') (A") (A')
                 (A') (A") (A') (A") (A') (A') (A') (A') (A") (A")
                 (A') (A') (A") (A') (A") (A') (A') (A') (A') (A')
                 (A") (A') (A') (A") (A") (A") (A') (A') (A") (A')
                 (A') (A") (A') (A') (A') (A') (A') (A") (A') (A')
                 (A") (A') (A") (A') (A') (A") (A') (A") (A') (A")
                 (A') (A') (A") (A') (A") (A') (A") (A') (A") (A')
                 (A") (A') (A") (A') (A") (A') (A') (A") (A") (A')
                 (A') (A') (A') (A') (A") (A') (A') (A") (A') (A")
                 (A') (A") (A') (A') (A') (A") (A") (A") (A') (A")
                 (A') (A') (A") (A') (A') (A') (A") (A") (A') (A')
                 (A') (A') (A') (A') (A') (A') (A') (A') (A') (A')
 The electronic state is 1-A'.
 Alpha  occ. eigenvalues --  -19.41853 -19.31479 -14.62238 -14.60929 -14.44594
 Alpha  occ. eigenvalues --  -10.39495  -1.34498  -1.28678  -1.09846  -1.02063
 Alpha  occ. eigenvalues --   -0.88037  -0.74568  -0.68510  -0.65090  -0.61152
 Alpha  occ. eigenvalues --   -0.57813  -0.55609  -0.47228  -0.45234  -0.45096
 Alpha  occ. eigenvalues --   -0.38423  -0.36008
 Alpha virt. eigenvalues --   -0.00259   0.03743   0.07824   0.10159   0.13554
 Alpha virt. eigenvalues --    0.19381   0.25072   0.26704   0.28323   0.28502
 Alpha virt. eigenvalues --    0.32633   0.37421   0.38160   0.38991   0.41143
 Alpha virt. eigenvalues --    0.43738   0.45345   0.45612   0.48059   0.50831
 Alpha virt. eigenvalues --    0.52087   0.52621   0.56020   0.57750   0.60046
 Alpha virt. eigenvalues --    0.63859   0.64502   0.67206   0.70192   0.72752
 Alpha virt. eigenvalues --    0.73034   0.79075   0.84228   0.86837   0.87506
 Alpha virt. eigenvalues --    0.97343   0.99630   0.99755   1.06162   1.06876
 Alpha virt. eigenvalues --    1.21059   1.25117   1.30919   1.30960   1.32072
 Alpha virt. eigenvalues --    1.32237   1.42720   1.44822   1.45038   1.46893
 Alpha virt. eigenvalues --    1.50171   1.57978   1.59049   1.63545   1.64987
 Alpha virt. eigenvalues --    1.70458   1.73573   1.76029   1.84888   1.85290
 Alpha virt. eigenvalues --    1.87416   1.93380   1.97008   1.98471   2.00153
 Alpha virt. eigenvalues --    2.11413   2.12038   2.15313   2.16554   2.20408
 Alpha virt. eigenvalues --    2.20815   2.29109   2.29994   2.35263   2.49191
 Alpha virt. eigenvalues --    2.51746   2.55065   2.55726   2.61495   2.69270
 Alpha virt. eigenvalues --    2.70983   2.72201   2.75300   2.76309   2.81167
 Alpha virt. eigenvalues --    2.91985   2.94386   2.98215   2.98904   2.99912
 Alpha virt. eigenvalues --    3.09133   3.11585   3.16155   3.20302   3.24409
 Alpha virt. eigenvalues --    3.34206   3.45443   3.49367   3.50411   3.66566
 Alpha virt. eigenvalues --    3.68564   3.74198   3.74247   3.81504   3.93110
 Alpha virt. eigenvalues --    3.98930   4.05415   4.05945   4.12506   4.14884
 Alpha virt. eigenvalues --    4.32971   4.36426   4.40402   4.47604   4.50915
 Alpha virt. eigenvalues --    4.52214   4.55299   4.56024   4.65798   4.66019
 Alpha virt. eigenvalues --    4.69477   4.70525   4.76174   4.78266   4.84407
 Alpha virt. eigenvalues --    4.88619   4.94407   5.04539   5.16894   5.18638
 Alpha virt. eigenvalues --    5.20426   5.22899   5.28714   5.31176   5.31633
 Alpha virt. eigenvalues --    5.37698   5.41521   5.46425   5.48217   5.56151
 Alpha virt. eigenvalues --    5.62480   5.75052   5.77615   5.85692   5.91204
 Alpha virt. eigenvalues --    6.03089   6.34161   6.34881   6.40746   6.42365
 Alpha virt. eigenvalues --    6.47092   6.58032   6.58636   6.68193   6.84232
 Alpha virt. eigenvalues --    6.86031   6.87414   6.96156   7.01722   7.17764
 Alpha virt. eigenvalues --    7.23274   7.30419   7.46173   7.68096  23.30422
 Alpha virt. eigenvalues --   31.87030  31.96008  32.21170  43.87602  44.35409
          Condensed to atoms (all electrons):
               1          2          3          4          5          6
     1  N    6.247600   0.846749  -0.028576   0.002350   0.000727  -0.013713
     2  C    0.846749   4.776205   0.320035  -0.042302  -0.005828   0.025887
     3  O   -0.028576   0.320035   7.820660   0.062390   0.000462   0.008461
     4  N    0.002350  -0.042302   0.062390   6.604224   0.148404  -0.128726
     5  N    0.000727  -0.005828   0.000462   0.148404   6.397170   0.324490
     6  O   -0.013713   0.025887   0.008461  -0.128726   0.324490   8.082304
     7  H   -0.000149   0.001924  -0.026390   0.364674  -0.018765   0.005988
               7
     1  N   -0.000149
     2  C    0.001924
     3  O   -0.026390
     4  N    0.364674
     5  N   -0.018765
     6  O    0.005988
     7  H    0.375652
 Mulliken charges:
               1
     1  N   -0.054989
     2  C    0.077331
     3  O   -0.157042
     4  N   -0.011015
     5  N    0.153340
     6  O   -0.304691
     7  H    0.297066
 Sum of Mulliken charges =   0.00000
 Mulliken charges with hydrogens summed into heavy atoms:
               1
     1  N   -0.054989
     2  C    0.077331
     3  O   -0.157042
     4  N    0.286051
     5  N    0.153340
     6  O   -0.304691
 Electronic spatial extent (au):  <R**2>=            478.9822
 Charge=              0.0000 electrons
 Dipole moment (field-independent basis, Debye):
    X=              4.6550    Y=              2.8521    Z=              0.0000  Tot=              5.4593
 Quadrupole moment (field-independent basis, Debye-Ang):
   XX=            -36.4316   YY=            -33.9481   ZZ=            -31.9016
   XY=              3.8465   XZ=              0.0000   YZ=              0.0000
 Traceless Quadrupole moment (field-independent basis, Debye-Ang):
   XX=             -2.3379   YY=              0.1457   ZZ=              2.1922
   XY=              3.8465   XZ=              0.0000   YZ=              0.0000
 Octapole moment (field-independent basis, Debye-Ang**2):
  XXX=             39.0239  YYY=              6.3838  ZZZ=              0.0000  XYY=              4.0539
  XXY=              7.6404  XXZ=              0.0000  XZZ=              2.8061  YZZ=             -0.7671
  YYZ=              0.0000  XYZ=              0.0000
 Hexadecapole moment (field-independent basis, Debye-Ang**3):
 XXXX=           -413.4810 YYYY=           -204.6219 ZZZZ=            -27.1881 XXXY=             62.5544
 XXXZ=              0.0000 YYYX=             45.1055 YYYZ=              0.0000 ZZZX=              0.0000
 ZZZY=              0.0000 XXYY=            -87.0565 XXZZ=            -67.2328 YYZZ=            -36.6151
 XXYZ=              0.0000 YYXZ=              0.0000 ZZXY=             12.2467
 N-N= 2.157920683955D+02 E-N=-1.260402895391D+03  KE= 3.519295170656D+02
 Symmetry A'   KE= 3.362936310344D+02
 Symmetry A"   KE= 1.563588603124D+01
 No NMR shielding tensors so no spin-rotation constants.
 Leave Link  601 at Mon Aug  5 14:41:43 2024, MaxMem=  4294967296 cpu:         3.5
 (Enter /usr/local/g09/l9999.exe)


 THE LENGTH OF A MEETING IS PROPORTIONAL TO THE
 SQUARE OF THE PARTICIPANTS.
 Error termination request processed by link 9999.
 Error termination via Lnk1e in /usr/local/g09/l9999.exe at Mon Aug  5 14:41:43 2024.
 Job cpu time:       0 days  3 hours  9 minutes 52.1 seconds.
 File lengths (MBytes):  RWF=     30 Int=      0 D2E=      0 Chk=      4 Scr=      1
