 Entering Gaussian System, Link 0=g16
 Initial command:
 /opt/g16/l1.exe "/scratch/alongd/g16/a33751-33013/Gau-17381.inp" -scrdir="/scratch/alongd/g16/a33751-33013/"
 Entering Link 1 = /opt/g16/l1.exe PID=     17383.
  
 Copyright (c) 1988-2017, Gaussian, Inc.  All Rights Reserved.
  
 This is part of the Gaussian(R) 16 program.  It is based on
 the Gaussian(R) 09 system (copyright 2009, Gaussian, Inc.),
 the Gaussian(R) 03 system (copyright 2003, Gaussian, Inc.),
 the Gaussian(R) 98 system (copyright 1998, Gaussian, Inc.),
 the Gaussian(R) 94 system (copyright 1995, Gaussian, Inc.),
 the Gaussian 92(TM) system (copyright 1992, Gaussian, Inc.),
 the Gaussian 90(TM) system (copyright 1990, Gaussian, Inc.),
 the Gaussian 88(TM) system (copyright 1988, Gaussian, Inc.),
 the Gaussian 86(TM) system (copyright 1986, Carnegie Mellon
 University), and the Gaussian 82(TM) system (copyright 1983,
 Carnegie Mellon University). Gaussian is a federally registered
 trademark of Gaussian, Inc.
  
 This software contains proprietary and confidential information,
 including trade secrets, belonging to Gaussian, Inc.
  
 This software is provided under written license and may be
 used, copied, transmitted, or stored only in accord with that
 written license.
  
 The following legend is applicable only to US Government
 contracts under FAR:
  
                    RESTRICTED RIGHTS LEGEND
  
 Use, reproduction and disclosure by the US Government is
 subject to restrictions as set forth in subparagraphs (a)
 and (c) of the Commercial Computer Software - Restricted
 Rights clause in FAR 52.227-19.
  
 Gaussian, Inc.
 340 Quinnipiac St., Bldg. 40, Wallingford CT 06492
  
  
 ---------------------------------------------------------------
 Warning -- This program may not be used in any manner that
 competes with the business of Gaussian, Inc. or will provide
 assistance to any competitor of Gaussian, Inc.  The licensee
 of this program is prohibited from giving any competitor of
 Gaussian, Inc. access to this program.  By using this program,
 the user acknowledges that Gaussian, Inc. is engaged in the
 business of creating and licensing software in the field of
 computational chemistry and represents and warrants to the
 licensee that it is not a competitor of Gaussian, Inc. and that
 it will not use this program in any manner prohibited above.
 ---------------------------------------------------------------
  

 Cite this work as:
 Gaussian 16, Revision B.01,
 M. J. Frisch, G. W. Trucks, H. B. Schlegel, G. E. Scuseria, 
 M. A. Robb, J. R. Cheeseman, G. Scalmani, V. Barone, 
 G. A. Petersson, H. Nakatsuji, X. Li, M. Caricato, A. V. Marenich, 
 J. Bloino, B. G. Janesko, R. Gomperts, B. Mennucci, H. P. Hratchian, 
 J. V. Ortiz, A. F. Izmaylov, J. L. Sonnenberg, D. Williams-Young, 
 F. Ding, F. Lipparini, F. Egidi, J. Goings, B. Peng, A. Petrone, 
 T. Henderson, D. Ranasinghe, V. G. Zakrzewski, J. Gao, N. Rega, 
 G. Zheng, W. Liang, M. Hada, M. Ehara, K. Toyota, R. Fukuda, 
 J. Hasegawa, M. Ishida, T. Nakajima, Y. Honda, O. Kitao, H. Nakai, 
 T. Vreven, K. Throssell, J. A. Montgomery, Jr., J. E. Peralta, 
 F. Ogliaro, M. J. Bearpark, J. J. Heyd, E. N. Brothers, K. N. Kudin, 
 V. N. Staroverov, T. A. Keith, R. Kobayashi, J. Normand, 
 K. Raghavachari, A. P. Rendell, J. C. Burant, S. S. Iyengar, 
 J. Tomasi, M. Cossi, J. M. Millam, M. Klene, C. Adamo, R. Cammi, 
 J. W. Ochterski, R. L. Martin, K. Morokuma, O. Farkas, 
 J. B. Foresman, and D. J. Fox, Gaussian, Inc., Wallingford CT, 2016.
 
 ******************************************
 Gaussian 16:  ES64L-G16RevB.01 20-Dec-2017
                19-Feb-2020 
 ******************************************
 %chk=check.chk
 %mem=14336mb
 %NProcShared=8
 Will use up to    8 processors via shared memory.
 -------------------------------------------------------
 #P opt guess=mix uwb97xd/def2tzvp scf=xqc iop(2/9=2000)
 -------------------------------------------------------
 1/18=20,19=15,26=3,38=1/1,3;
 2/9=2000,12=2,17=6,18=5,40=1/2;
 3/5=44,7=101,11=2,25=1,30=1,71=1,74=-58,116=2/1,2,3;
 4/13=-1/1;
 5/5=2,8=3,13=1,38=5/2,8;
 6/7=2,8=2,9=2,10=2,28=1/1;
 7//1,2,3,16;
 1/18=20,19=15,26=3/3(2);
 2/9=2000/2;
 99//99;
 2/9=2000/2;
 3/5=44,7=101,11=2,25=1,30=1,71=1,74=-58,116=2/1,2,3;
 4/5=5,16=3,69=1/1;
 5/5=2,8=3,13=1,38=5/2,8;
 7//1,2,3,16;
 1/18=20,19=15,26=3/3(-5);
 2/9=2000/2;
 6/7=2,8=2,9=2,10=2,19=2,28=1/1;
 99/9=1/99;
 Leave Link    1 at Wed Feb 19 14:50:36 2020, MaxMem=  1879048192 cpu:               0.4 elap:               0.1
 (Enter /opt/g16/l101.exe)
 ----
 name
 ----
 Symbolic Z-matrix:
 Charge =  0 Multiplicity = 2
 N                     0.59111   0.02445  -0.06786 
 H                     1.0136    0.9037    0.19207 
 H                     1.13199  -0.79462   0.15237 
 N                    -0.73352  -0.15122   0.02191 
 H                    -1.14873   0.77832  -0.02274 
 
 Add atom      1 valence  3 ND=      2 dihedral       2      1      3      4
 ITRead=  0  0  0  0  0
 MicOpt= -1 -1 -1 -1 -1
 NAtoms=      5 NQM=        5 NQMF=       0 NMMI=      0 NMMIF=      0
                NMic=       0 NMicF=      0.
                    Isotopes and Nuclear Properties:
 (Nuclear quadrupole moments (NQMom) in fm**2, nuclear magnetic moments (NMagM)
  in nuclear magnetons)

  Atom         1           2           3           4           5
 IAtWgt=          14           1           1          14           1
 AtmWgt=  14.0030740   1.0078250   1.0078250  14.0030740   1.0078250
 NucSpn=           2           1           1           2           1
 AtZEff=  -0.0000000  -0.0000000  -0.0000000  -0.0000000  -0.0000000
 NQMom=    2.0440000   0.0000000   0.0000000   2.0440000   0.0000000
 NMagM=    0.4037610   2.7928460   2.7928460   0.4037610   2.7928460
 AtZNuc=   7.0000000   1.0000000   1.0000000   7.0000000   1.0000000
 Leave Link  101 at Wed Feb 19 14:50:36 2020, MaxMem=  1879048192 cpu:               5.6 elap:               0.7
 (Enter /opt/g16/l103.exe)

 GradGradGradGradGradGradGradGradGradGradGradGradGradGradGradGradGradGrad
 Berny optimization.
 Initialization pass.
                           ----------------------------
                           !    Initial Parameters    !
                           ! (Angstroms and Degrees)  !
 --------------------------                            --------------------------
 ! Name  Definition              Value          Derivative Info.                !
 --------------------------------------------------------------------------------
 ! R1    R(1,2)                  1.0095         estimate D2E/DX2                !
 ! R2    R(1,3)                  1.0059         estimate D2E/DX2                !
 ! R3    R(1,4)                  1.3392         estimate D2E/DX2                !
 ! R4    R(4,5)                  1.019          estimate D2E/DX2                !
 ! A1    A(2,1,3)              115.3264         estimate D2E/DX2                !
 ! A2    A(2,1,4)              120.7245         estimate D2E/DX2                !
 ! A3    A(3,1,4)              114.2261         estimate D2E/DX2                !
 ! A4    A(1,4,5)              106.2857         estimate D2E/DX2                !
 ! D1    D(2,1,3,4)            146.385          estimate D2E/DX2                !
 ! D2    D(2,1,4,5)             23.6332         estimate D2E/DX2                !
 ! D3    D(3,1,4,5)            168.0342         estimate D2E/DX2                !
 --------------------------------------------------------------------------------
 Trust Radius=3.00D-01 FncErr=1.00D-07 GrdErr=1.00D-06 EigMax=2.50D+02 EigMin=1.00D-04
 Number of steps in this run=     21 maximum allowed number of steps=    100.
 GradGradGradGradGradGradGradGradGradGradGradGradGradGradGradGradGradGrad

 Leave Link  103 at Wed Feb 19 14:50:36 2020, MaxMem=  1879048192 cpu:               0.3 elap:               0.0
 (Enter /opt/g16/l202.exe)
                          Input orientation:                          
 ---------------------------------------------------------------------
 Center     Atomic      Atomic             Coordinates (Angstroms)
 Number     Number       Type             X           Y           Z
 ---------------------------------------------------------------------
      1          7           0        0.591115    0.024445   -0.067863
      2          1           0        1.013599    0.903702    0.192072
      3          1           0        1.131987   -0.794625    0.152366
      4          7           0       -0.733522   -0.151216    0.021907
      5          1           0       -1.148730    0.778319   -0.022743
 ---------------------------------------------------------------------
                    Distance matrix (angstroms):
                    1          2          3          4          5
     1  N    0.000000
     2  H    1.009530   0.000000
     3  H    1.005942   1.702911   0.000000
     4  N    1.339246   2.047985   1.977655   0.000000
     5  H    1.896687   2.176587   2.776055   1.019032   0.000000
 Stoichiometry    H3N2(2)
 Framework group  C1[X(H3N2)]
 Deg. of freedom     9
 Full point group                 C1      NOp   1
 Largest Abelian subgroup         C1      NOp   1
 Largest concise Abelian subgroup C1      NOp   1
                         Standard orientation:                         
 ---------------------------------------------------------------------
 Center     Atomic      Atomic             Coordinates (Angstroms)
 Number     Number       Type             X           Y           Z
 ---------------------------------------------------------------------
      1          7           0        0.591115    0.024445   -0.067863
      2          1           0        1.013599    0.903702    0.192072
      3          1           0        1.131987   -0.794625    0.152366
      4          7           0       -0.733522   -0.151216    0.021907
      5          1           0       -1.148730    0.778319   -0.022743
 ---------------------------------------------------------------------
 Rotational constants (GHZ):         207.0673706          31.1325408          27.4121067
 Leave Link  202 at Wed Feb 19 14:50:37 2020, MaxMem=  1879048192 cpu:               0.1 elap:               0.0
 (Enter /opt/g16/l301.exe)
 Standard basis: def2TZVP (5D, 7F)
 Ernie: Thresh=  0.10000D-02 Tol=  0.10000D-05 Strict=F.
 There are    90 symmetry adapted cartesian basis functions of A   symmetry.
 There are    80 symmetry adapted basis functions of A   symmetry.
    80 basis functions,   126 primitive gaussians,    90 cartesian basis functions
     9 alpha electrons        8 beta electrons
       nuclear repulsion energy        36.7273692296 Hartrees.
 IExCor= 4639 DFT=T Ex+Corr=wB97XD ExCW=0 ScaHFX=  1.000000
 ScaDFX=  1.000000  1.000000  1.000000  1.000000 ScalE2=  1.000000  1.000000
 IRadAn=      5 IRanWt=     -1 IRanGd=            0 ICorTp=0 IEmpDi=121
 HFx  wShort=  0.000000 wLong=  0.200000 cFull=  0.222036 cShort=  0.000000 cLong=  0.777964
 DFx  wShort=  0.000000 wLong=  0.200000 cFull=  0.000000 cShort=  0.000000 cLong=  1.000000
 NAtoms=    5 NActive=    5 NUniq=    5 SFac= 1.00D+00 NAtFMM=   60 NAOKFM=F Big=F
 Integral buffers will be    131072 words long.
 Raffenetti 2 integral format.
 Two-electron integral symmetry is turned on.
 R6Disp:  Grimme-D2 Dispersion energy=       -0.0004451551 Hartrees.
 Nuclear repulsion after empirical dispersion term =       36.7269240745 Hartrees.
 Leave Link  301 at Wed Feb 19 14:50:37 2020, MaxMem=  1879048192 cpu:               0.4 elap:               0.1
 (Enter /opt/g16/l302.exe)
 NPDir=0 NMtPBC=     1 NCelOv=     1 NCel=       1 NClECP=     1 NCelD=      1
         NCelK=      1 NCelE2=     1 NClLst=     1 CellRange=     0.0.
 One-electron integrals computed using PRISM.
 One-electron integral symmetry used in STVInt
   1 Symmetry operations used in ECPInt.
 ECPInt:  NShTT=     595 NPrTT=    1764 LenC2=     595 LenP2D=    1624.
 LDataN:  DoStor=T MaxTD1= 6 Len=  172
 NBasis=    80 RedAO= T EigKep=  1.31D-03  NBF=    80
 NBsUse=    80 1.00D-06 EigRej= -1.00D+00 NBFU=    80
 Precomputing XC quadrature grid using
 IXCGrd= 4 IRadAn=           5 IRanWt=          -1 IRanGd=           0 AccXCQ= 0.00D+00.
 Generated NRdTot=       0 NPtTot=           0 NUsed=           0 NTot=          32
 NSgBfM=    90    90    90    90    90 MxSgAt=     5 MxSgA2=     5.
 Leave Link  302 at Wed Feb 19 14:50:37 2020, MaxMem=  1879048192 cpu:               1.5 elap:               0.2
 (Enter /opt/g16/l303.exe)
 DipDrv:  MaxL=1.
 Leave Link  303 at Wed Feb 19 14:50:37 2020, MaxMem=  1879048192 cpu:               0.5 elap:               0.1
 (Enter /opt/g16/l401.exe)
 ExpMin= 1.03D-01 ExpMax= 1.97D+04 ExpMxC= 6.73D+02 IAcc=3 IRadAn=         5 AccDes= 0.00D+00
 Harris functional with IExCor= 4639 and IRadAn=       5 diagonalized for initial guess.
 HarFok:  IExCor= 4639 AccDes= 0.00D+00 IRadAn=         5 IDoV= 1 UseB2=F ITyADJ=14
 ICtDFT=  3500011 ScaDFX=  1.000000  1.000000  1.000000  1.000000
 FoFCou: FMM=F IPFlag=           0 FMFlag=      100000 FMFlg1=           0
         NFxFlg=           0 DoJE=T BraDBF=F KetDBF=T FulRan=T
         wScrn=  0.000000 ICntrl=       500 IOpCl=  0 I1Cent=   200000004 NGrid=           0
         NMat0=    1 NMatS0=      1 NMatT0=    0 NMatD0=    1 NMtDS0=    0 NMtDT0=    0
 Petite list used in FoFCou.
 Harris En= -106.666467711587    
 JPrj=0 DoOrth=F DoCkMO=T.
 Mixing orbitals, IMix= 1 IMixAn=  0 NRI=1 NE=    9 Coef=  7.07106781D-01  7.07106781D-01
 Mixing orbitals, IMix= 1 IMixAn=  0 NRI=1 NE=    8 Coef= -7.07106781D-01  7.07106781D-01
 Initial guess <Sx>= 0.0000 <Sy>= 0.0000 <Sz>= 0.5000 <S**2>= 1.0000 S= 0.6180
 Leave Link  401 at Wed Feb 19 14:50:37 2020, MaxMem=  1879048192 cpu:               3.2 elap:               0.4
 (Enter /opt/g16/l502.exe)
 Keep R1 and R2 ints in memory in canonical form, NReq=28315865.
 FoFCou: FMM=F IPFlag=           0 FMFlag=           0 FMFlg1=           0
         NFxFlg=           0 DoJE=F BraDBF=F KetDBF=F FulRan=T
         wScrn=  0.000000 ICntrl=       600 IOpCl=  0 I1Cent=           0 NGrid=           0
         NMat0=    1 NMatS0=   3240 NMatT0=    0 NMatD0=    1 NMtDS0=    0 NMtDT0=    0
 Symmetry not used in FoFCou.
 Two-electron integral symmetry not used.
 UHF open shell SCF:
 Using DIIS extrapolation, IDIIS=  1040.
 NGot=  1879048192 LenX=  1858028627 LenY=  1858020086
 Requested convergence on RMS density matrix=1.00D-08 within  32 cycles.
 Requested convergence on MAX density matrix=1.00D-06.
 Requested convergence on             energy=1.00D-06.
 No special actions if energy rises.
 Integral accuracy reduced to 1.0D-05 until final iterations.

 Cycle   1  Pass 0  IDiag  1:
 E= -111.019811228432    
 DIIS: error= 5.47D-02 at cycle   1 NSaved=   1.
 NSaved= 1 IEnMin= 1 EnMin= -111.019811228432     IErMin= 1 ErrMin= 5.47D-02
 ErrMax= 5.47D-02  0.00D+00 EMaxC= 1.00D-01 BMatC= 1.20D+00 BMatP= 1.20D+00
 IDIUse=3 WtCom= 4.53D-01 WtEn= 5.47D-01
 Coeff-Com:  0.100D+01
 Coeff-En:   0.100D+01
 Coeff:      0.100D+01
 Gap=     0.173 Goal=   None    Shift=    0.000
 Gap=     0.234 Goal=   None    Shift=    0.000
 GapD=    0.173 DampG=1.000 DampE=0.500 DampFc=0.5000 IDamp=-1.
 Damping current iteration by 5.00D-01
 RMSDP=2.61D-02 MaxDP=1.08D+00              OVMax= 4.54D-01

 Cycle   2  Pass 0  IDiag  1:
 E= -111.087884745122     Delta-E=       -0.068073516690 Rises=F Damp=T
 DIIS: error= 2.46D-02 at cycle   2 NSaved=   2.
 NSaved= 2 IEnMin= 2 EnMin= -111.087884745122     IErMin= 2 ErrMin= 2.46D-02
 ErrMax= 2.46D-02  0.00D+00 EMaxC= 1.00D-01 BMatC= 2.21D-01 BMatP= 1.20D+00
 IDIUse=3 WtCom= 7.54D-01 WtEn= 2.46D-01
 Coeff-Com: -0.388D+00 0.139D+01
 Coeff-En:   0.000D+00 0.100D+01
 Coeff:     -0.293D+00 0.129D+01
 Gap=     0.273 Goal=   None    Shift=    0.000
 Gap=     0.321 Goal=   None    Shift=    0.000
 RMSDP=1.39D-02 MaxDP=5.65D-01 DE=-6.81D-02 OVMax= 1.32D-01

 Cycle   3  Pass 0  IDiag  1:
 E= -111.197173905040     Delta-E=       -0.109289159918 Rises=F Damp=F
 DIIS: error= 1.09D-02 at cycle   3 NSaved=   3.
 NSaved= 3 IEnMin= 3 EnMin= -111.197173905040     IErMin= 3 ErrMin= 1.09D-02
 ErrMax= 1.09D-02  0.00D+00 EMaxC= 1.00D-01 BMatC= 3.82D-02 BMatP= 2.21D-01
 IDIUse=3 WtCom= 8.91D-01 WtEn= 1.09D-01
 Coeff-Com: -0.194D+00 0.439D+00 0.755D+00
 Coeff-En:   0.000D+00 0.000D+00 0.100D+01
 Coeff:     -0.173D+00 0.391D+00 0.782D+00
 Gap=     0.328 Goal=   None    Shift=    0.000
 Gap=     0.351 Goal=   None    Shift=    0.000
 RMSDP=4.28D-03 MaxDP=1.31D-01 DE=-1.09D-01 OVMax= 1.25D-01

 Cycle   4  Pass 0  IDiag  1:
 E= -111.221375565121     Delta-E=       -0.024201660081 Rises=F Damp=F
 DIIS: error= 7.59D-03 at cycle   4 NSaved=   4.
 NSaved= 4 IEnMin= 4 EnMin= -111.221375565121     IErMin= 4 ErrMin= 7.59D-03
 ErrMax= 7.59D-03  0.00D+00 EMaxC= 1.00D-01 BMatC= 1.14D-02 BMatP= 3.82D-02
 IDIUse=3 WtCom= 9.24D-01 WtEn= 7.59D-02
 Coeff-Com: -0.115D-01 0.103D-01 0.263D+00 0.738D+00
 Coeff-En:   0.000D+00 0.000D+00 0.000D+00 0.100D+01
 Coeff:     -0.106D-01 0.955D-02 0.243D+00 0.758D+00
 Gap=     0.352 Goal=   None    Shift=    0.000
 Gap=     0.372 Goal=   None    Shift=    0.000
 RMSDP=1.83D-03 MaxDP=3.96D-02 DE=-2.42D-02 OVMax= 7.05D-02

 Cycle   5  Pass 0  IDiag  1:
 E= -111.230809109591     Delta-E=       -0.009433544470 Rises=F Damp=F
 DIIS: error= 5.66D-03 at cycle   5 NSaved=   5.
 NSaved= 5 IEnMin= 5 EnMin= -111.230809109591     IErMin= 5 ErrMin= 5.66D-03
 ErrMax= 5.66D-03  0.00D+00 EMaxC= 1.00D-01 BMatC= 4.28D-03 BMatP= 1.14D-02
 IDIUse=3 WtCom= 9.43D-01 WtEn= 5.66D-02
 Coeff-Com:  0.145D+00-0.301D+00-0.497D+00 0.208D+00 0.145D+01
 Coeff-En:   0.000D+00 0.000D+00 0.000D+00 0.000D+00 0.100D+01
 Coeff:      0.137D+00-0.284D+00-0.469D+00 0.196D+00 0.142D+01
 Gap=     0.379 Goal=   None    Shift=    0.000
 Gap=     0.407 Goal=   None    Shift=    0.000
 RMSDP=2.64D-03 MaxDP=5.12D-02 DE=-9.43D-03 OVMax= 1.29D-01

 Cycle   6  Pass 0  IDiag  1:
 E= -111.238453488770     Delta-E=       -0.007644379179 Rises=F Damp=F
 DIIS: error= 1.50D-03 at cycle   6 NSaved=   6.
 NSaved= 6 IEnMin= 6 EnMin= -111.238453488770     IErMin= 6 ErrMin= 1.50D-03
 ErrMax= 1.50D-03  0.00D+00 EMaxC= 1.00D-01 BMatC= 5.65D-04 BMatP= 4.28D-03
 IDIUse=3 WtCom= 9.85D-01 WtEn= 1.50D-02
 Coeff-Com: -0.430D-01 0.947D-01 0.600D-01-0.967D-01-0.177D+00 0.116D+01
 Coeff-En:   0.000D+00 0.000D+00 0.000D+00 0.000D+00 0.000D+00 0.100D+01
 Coeff:     -0.424D-01 0.932D-01 0.591D-01-0.953D-01-0.174D+00 0.116D+01
 Gap=     0.368 Goal=   None    Shift=    0.000
 Gap=     0.397 Goal=   None    Shift=    0.000
 RMSDP=2.79D-04 MaxDP=4.31D-03 DE=-7.64D-03 OVMax= 2.50D-02

 Cycle   7  Pass 0  IDiag  1:
 E= -111.238959924929     Delta-E=       -0.000506436159 Rises=F Damp=F
 DIIS: error= 1.14D-03 at cycle   7 NSaved=   7.
 NSaved= 7 IEnMin= 7 EnMin= -111.238959924929     IErMin= 7 ErrMin= 1.14D-03
 ErrMax= 1.14D-03  0.00D+00 EMaxC= 1.00D-01 BMatC= 1.28D-04 BMatP= 5.65D-04
 IDIUse=3 WtCom= 9.89D-01 WtEn= 1.14D-02
 Coeff-Com: -0.120D-01 0.249D-01 0.668D-01-0.613D-01-0.230D+00-0.382D-02
 Coeff-Com:  0.122D+01
 Coeff-En:   0.000D+00 0.000D+00 0.000D+00 0.000D+00 0.000D+00 0.000D+00
 Coeff-En:   0.100D+01
 Coeff:     -0.119D-01 0.247D-01 0.661D-01-0.606D-01-0.227D+00-0.377D-02
 Coeff:      0.121D+01
 Gap=     0.369 Goal=   None    Shift=    0.000
 Gap=     0.400 Goal=   None    Shift=    0.000
 RMSDP=2.84D-04 MaxDP=4.48D-03 DE=-5.06D-04 OVMax= 2.78D-02

 Cycle   8  Pass 0  IDiag  1:
 E= -111.239182060837     Delta-E=       -0.000222135908 Rises=F Damp=F
 DIIS: error= 2.68D-04 at cycle   8 NSaved=   8.
 NSaved= 8 IEnMin= 8 EnMin= -111.239182060837     IErMin= 8 ErrMin= 2.68D-04
 ErrMax= 2.68D-04  0.00D+00 EMaxC= 1.00D-01 BMatC= 1.07D-05 BMatP= 1.28D-04
 IDIUse=3 WtCom= 9.97D-01 WtEn= 2.68D-03
 Coeff-Com:  0.322D-02-0.685D-02-0.872D-03 0.921D-02 0.815D-02-0.910D-01
 Coeff-Com: -0.959D-01 0.117D+01
 Coeff-En:   0.000D+00 0.000D+00 0.000D+00 0.000D+00 0.000D+00 0.000D+00
 Coeff-En:   0.000D+00 0.100D+01
 Coeff:      0.321D-02-0.683D-02-0.869D-03 0.918D-02 0.813D-02-0.907D-01
 Coeff:     -0.956D-01 0.117D+01
 Gap=     0.370 Goal=   None    Shift=    0.000
 Gap=     0.402 Goal=   None    Shift=    0.000
 RMSDP=7.63D-05 MaxDP=1.09D-03 DE=-2.22D-04 OVMax= 7.03D-03

 Cycle   9  Pass 0  IDiag  1:
 E= -111.239200656933     Delta-E=       -0.000018596096 Rises=F Damp=F
 DIIS: error= 9.54D-05 at cycle   9 NSaved=   9.
 NSaved= 9 IEnMin= 9 EnMin= -111.239200656933     IErMin= 9 ErrMin= 9.54D-05
 ErrMax= 9.54D-05  0.00D+00 EMaxC= 1.00D-01 BMatC= 1.76D-06 BMatP= 1.07D-05
 IDIUse=1 WtCom= 1.00D+00 WtEn= 0.00D+00
 Coeff-Com:  0.929D-03-0.174D-02-0.812D-02 0.390D-02 0.344D-01 0.370D-02
 Coeff-Com: -0.141D+00-0.222D+00 0.133D+01
 Coeff:      0.929D-03-0.174D-02-0.812D-02 0.390D-02 0.344D-01 0.370D-02
 Coeff:     -0.141D+00-0.222D+00 0.133D+01
 Gap=     0.370 Goal=   None    Shift=    0.000
 Gap=     0.401 Goal=   None    Shift=    0.000
 RMSDP=4.70D-05 MaxDP=7.75D-04 DE=-1.86D-05 OVMax= 2.40D-03

 Failed to achieve initial convergence to 1.0D-08 in 10 cycles.
 Switch to full accuracy anyway.
 Cycle  10  Pass 1  IDiag  1:
 E= -111.239200227049     Delta-E=        0.000000429885 Rises=F Damp=F
 DIIS: error= 2.77D-05 at cycle   1 NSaved=   1.
 NSaved= 1 IEnMin= 1 EnMin= -111.239200227049     IErMin= 1 ErrMin= 2.77D-05
 ErrMax= 2.77D-05  0.00D+00 EMaxC= 1.00D-01 BMatC= 2.36D-07 BMatP= 2.36D-07
 IDIUse=1 WtCom= 1.00D+00 WtEn= 0.00D+00
 Coeff-Com:  0.100D+01
 Coeff:      0.100D+01
 Gap=     0.370 Goal=   None    Shift=    0.000
 Gap=     0.401 Goal=   None    Shift=    0.000
 RMSDP=4.70D-05 MaxDP=7.75D-04 DE= 4.30D-07 OVMax= 3.80D-04

 Cycle  11  Pass 1  IDiag  1:
 E= -111.239200436962     Delta-E=       -0.000000209913 Rises=F Damp=F
 DIIS: error= 1.84D-05 at cycle   2 NSaved=   2.
 NSaved= 2 IEnMin= 2 EnMin= -111.239200436962     IErMin= 2 ErrMin= 1.84D-05
 ErrMax= 1.84D-05  0.00D+00 EMaxC= 1.00D-01 BMatC= 7.96D-08 BMatP= 2.36D-07
 IDIUse=1 WtCom= 1.00D+00 WtEn= 0.00D+00
 Coeff-Com:  0.129D+00 0.871D+00
 Coeff:      0.129D+00 0.871D+00
 Gap=     0.370 Goal=   None    Shift=    0.000
 Gap=     0.402 Goal=   None    Shift=    0.000
 RMSDP=3.89D-06 MaxDP=6.55D-05 DE=-2.10D-07 OVMax= 1.88D-04

 Cycle  12  Pass 1  IDiag  1:
 E= -111.239200502203     Delta-E=       -0.000000065241 Rises=F Damp=F
 DIIS: error= 1.18D-05 at cycle   3 NSaved=   3.
 NSaved= 3 IEnMin= 3 EnMin= -111.239200502203     IErMin= 3 ErrMin= 1.18D-05
 ErrMax= 1.18D-05  0.00D+00 EMaxC= 1.00D-01 BMatC= 5.79D-08 BMatP= 7.96D-08
 IDIUse=1 WtCom= 1.00D+00 WtEn= 0.00D+00
 Coeff-Com: -0.413D+00 0.469D+00 0.944D+00
 Coeff:     -0.413D+00 0.469D+00 0.944D+00
 Gap=     0.370 Goal=   None    Shift=    0.000
 Gap=     0.401 Goal=   None    Shift=    0.000
 RMSDP=4.54D-06 MaxDP=7.61D-05 DE=-6.52D-08 OVMax= 2.23D-04

 Cycle  13  Pass 1  IDiag  1:
 E= -111.239200548693     Delta-E=       -0.000000046490 Rises=F Damp=F
 DIIS: error= 5.08D-06 at cycle   4 NSaved=   4.
 NSaved= 4 IEnMin= 4 EnMin= -111.239200548693     IErMin= 4 ErrMin= 5.08D-06
 ErrMax= 5.08D-06  0.00D+00 EMaxC= 1.00D-01 BMatC= 4.17D-09 BMatP= 5.79D-08
 IDIUse=1 WtCom= 1.00D+00 WtEn= 0.00D+00
 Coeff-Com: -0.992D-01-0.685D-01 0.859D-01 0.108D+01
 Coeff:     -0.992D-01-0.685D-01 0.859D-01 0.108D+01
 Gap=     0.370 Goal=   None    Shift=    0.000
 Gap=     0.401 Goal=   None    Shift=    0.000
 RMSDP=2.00D-06 MaxDP=3.13D-05 DE=-4.65D-08 OVMax= 1.13D-04

 Cycle  14  Pass 1  IDiag  1:
 E= -111.239200555755     Delta-E=       -0.000000007062 Rises=F Damp=F
 DIIS: error= 2.24D-06 at cycle   5 NSaved=   5.
 NSaved= 5 IEnMin= 5 EnMin= -111.239200555755     IErMin= 5 ErrMin= 2.24D-06
 ErrMax= 2.24D-06  0.00D+00 EMaxC= 1.00D-01 BMatC= 6.09D-10 BMatP= 4.17D-09
 IDIUse=1 WtCom= 1.00D+00 WtEn= 0.00D+00
 Coeff-Com:  0.510D-01-0.498D-01-0.131D+00-0.932D-03 0.113D+01
 Coeff:      0.510D-01-0.498D-01-0.131D+00-0.932D-03 0.113D+01
 Gap=     0.370 Goal=   None    Shift=    0.000
 Gap=     0.401 Goal=   None    Shift=    0.000
 RMSDP=5.15D-07 MaxDP=7.42D-06 DE=-7.06D-09 OVMax= 4.40D-05

 Cycle  15  Pass 1  IDiag  1:
 E= -111.239200556609     Delta-E=       -0.000000000854 Rises=F Damp=F
 DIIS: error= 9.20D-07 at cycle   6 NSaved=   6.
 NSaved= 6 IEnMin= 6 EnMin= -111.239200556609     IErMin= 6 ErrMin= 9.20D-07
 ErrMax= 9.20D-07  0.00D+00 EMaxC= 1.00D-01 BMatC= 1.48D-10 BMatP= 6.09D-10
 IDIUse=1 WtCom= 1.00D+00 WtEn= 0.00D+00
 Coeff-Com:  0.242D-01 0.517D-02-0.340D-01-0.183D+00 0.178D+00 0.101D+01
 Coeff:      0.242D-01 0.517D-02-0.340D-01-0.183D+00 0.178D+00 0.101D+01
 Gap=     0.370 Goal=   None    Shift=    0.000
 Gap=     0.401 Goal=   None    Shift=    0.000
 RMSDP=1.86D-07 MaxDP=3.04D-06 DE=-8.54D-10 OVMax= 1.90D-05

 Cycle  16  Pass 1  IDiag  1:
 E= -111.239200556787     Delta-E=       -0.000000000178 Rises=F Damp=F
 DIIS: error= 4.55D-07 at cycle   7 NSaved=   7.
 NSaved= 7 IEnMin= 7 EnMin= -111.239200556787     IErMin= 7 ErrMin= 4.55D-07
 ErrMax= 4.55D-07  0.00D+00 EMaxC= 1.00D-01 BMatC= 3.74D-11 BMatP= 1.48D-10
 IDIUse=1 WtCom= 1.00D+00 WtEn= 0.00D+00
 Coeff-Com: -0.110D-01 0.188D-01 0.351D-01-0.520D-01-0.320D+00 0.250D+00
 Coeff-Com:  0.108D+01
 Coeff:     -0.110D-01 0.188D-01 0.351D-01-0.520D-01-0.320D+00 0.250D+00
 Coeff:      0.108D+01
 Gap=     0.370 Goal=   None    Shift=    0.000
 Gap=     0.401 Goal=   None    Shift=    0.000
 RMSDP=1.39D-07 MaxDP=1.99D-06 DE=-1.78D-10 OVMax= 1.21D-05

 Cycle  17  Pass 1  IDiag  1:
 E= -111.239200556838     Delta-E=       -0.000000000050 Rises=F Damp=F
 DIIS: error= 1.22D-07 at cycle   8 NSaved=   8.
 NSaved= 8 IEnMin= 8 EnMin= -111.239200556838     IErMin= 8 ErrMin= 1.22D-07
 ErrMax= 1.22D-07  0.00D+00 EMaxC= 1.00D-01 BMatC= 2.08D-12 BMatP= 3.74D-11
 IDIUse=1 WtCom= 1.00D+00 WtEn= 0.00D+00
 Coeff-Com:  0.910D-03-0.572D-02-0.611D-02 0.312D-01 0.728D-01-0.179D+00
 Coeff-Com: -0.313D+00 0.140D+01
 Coeff:      0.910D-03-0.572D-02-0.611D-02 0.312D-01 0.728D-01-0.179D+00
 Coeff:     -0.313D+00 0.140D+01
 Gap=     0.370 Goal=   None    Shift=    0.000
 Gap=     0.401 Goal=   None    Shift=    0.000
 RMSDP=6.21D-08 MaxDP=1.09D-06 DE=-5.04D-11 OVMax= 3.27D-06

 Cycle  18  Pass 1  IDiag  1:
 E= -111.239200556842     Delta-E=       -0.000000000004 Rises=F Damp=F
 DIIS: error= 1.93D-08 at cycle   9 NSaved=   9.
 NSaved= 9 IEnMin= 9 EnMin= -111.239200556842     IErMin= 9 ErrMin= 1.93D-08
 ErrMax= 1.93D-08  0.00D+00 EMaxC= 1.00D-01 BMatC= 1.24D-13 BMatP= 2.08D-12
 IDIUse=1 WtCom= 1.00D+00 WtEn= 0.00D+00
 Coeff-Com:  0.813D-03-0.134D-02-0.167D-02 0.124D-02 0.201D-01-0.621D-02
 Coeff-Com: -0.664D-01-0.109D+00 0.116D+01
 Coeff:      0.813D-03-0.134D-02-0.167D-02 0.124D-02 0.201D-01-0.621D-02
 Coeff:     -0.664D-01-0.109D+00 0.116D+01
 Gap=     0.370 Goal=   None    Shift=    0.000
 Gap=     0.401 Goal=   None    Shift=    0.000
 RMSDP=1.26D-08 MaxDP=2.66D-07 DE=-4.46D-12 OVMax= 5.53D-07

 Cycle  19  Pass 1  IDiag  1:
 E= -111.239200556842     Delta-E=        0.000000000000 Rises=F Damp=F
 DIIS: error= 8.52D-09 at cycle  10 NSaved=  10.
 NSaved=10 IEnMin= 9 EnMin= -111.239200556842     IErMin=10 ErrMin= 8.52D-09
 ErrMax= 8.52D-09  0.00D+00 EMaxC= 1.00D-01 BMatC= 8.28D-15 BMatP= 1.24D-13
 IDIUse=1 WtCom= 1.00D+00 WtEn= 0.00D+00
 Coeff-Com: -0.274D-03 0.547D-03 0.881D-03-0.176D-02-0.849D-02 0.895D-02
 Coeff-Com:  0.312D-01-0.225D-01-0.369D+00 0.136D+01
 Coeff:     -0.274D-03 0.547D-03 0.881D-03-0.176D-02-0.849D-02 0.895D-02
 Coeff:      0.312D-01-0.225D-01-0.369D+00 0.136D+01
 Gap=     0.370 Goal=   None    Shift=    0.000
 Gap=     0.401 Goal=   None    Shift=    0.000
 RMSDP=1.93D-09 MaxDP=3.43D-08 DE= 2.56D-13 OVMax= 1.05D-07

 SCF Done:  E(UwB97XD) =  -111.239200557     A.U. after   19 cycles
            NFock= 19  Conv=0.19D-08     -V/T= 2.0041
 <Sx>= 0.0000 <Sy>= 0.0000 <Sz>= 0.5000 <S**2>= 0.7546 S= 0.5023
 <L.S>= 0.000000000000E+00
 KE= 1.107895915338D+02 PE=-3.338359451820D+02 EE= 7.508022901690D+01
 Annihilation of the first spin contaminant:
 S**2 before annihilation     0.7546,   after     0.7500
 Leave Link  502 at Wed Feb 19 14:50:44 2020, MaxMem=  1879048192 cpu:              48.7 elap:               6.3
 (Enter /opt/g16/l508.exe)
 QCSCF skips out because SCF is already converged.
 Leave Link  508 at Wed Feb 19 14:50:44 2020, MaxMem=  1879048192 cpu:               0.0 elap:               0.0
 (Enter /opt/g16/l601.exe)
 Copying SCF densities to generalized density rwf, IOpCl= 1 IROHF=0.

 **********************************************************************

            Population analysis using the SCF Density.

 **********************************************************************

 Orbital symmetries:
 Alpha Orbitals:
       Occupied  (A) (A) (A) (A) (A) (A) (A) (A) (A)
       Virtual   (A) (A) (A) (A) (A) (A) (A) (A) (A) (A) (A) (A)
                 (A) (A) (A) (A) (A) (A) (A) (A) (A) (A) (A) (A)
                 (A) (A) (A) (A) (A) (A) (A) (A) (A) (A) (A) (A)
                 (A) (A) (A) (A) (A) (A) (A) (A) (A) (A) (A) (A)
                 (A) (A) (A) (A) (A) (A) (A) (A) (A) (A) (A) (A)
                 (A) (A) (A) (A) (A) (A) (A) (A) (A) (A) (A)
 Beta  Orbitals:
       Occupied  (A) (A) (A) (A) (A) (A) (A) (A)
       Virtual   (A) (A) (A) (A) (A) (A) (A) (A) (A) (A) (A) (A)
                 (A) (A) (A) (A) (A) (A) (A) (A) (A) (A) (A) (A)
                 (A) (A) (A) (A) (A) (A) (A) (A) (A) (A) (A) (A)
                 (A) (A) (A) (A) (A) (A) (A) (A) (A) (A) (A) (A)
                 (A) (A) (A) (A) (A) (A) (A) (A) (A) (A) (A) (A)
                 (A) (A) (A) (A) (A) (A) (A) (A) (A) (A) (A) (A)
 The electronic state is 2-A.
 Alpha  occ. eigenvalues --  -14.47846 -14.43893  -1.08891  -0.83638  -0.64525
 Alpha  occ. eigenvalues --   -0.56350  -0.48112  -0.38086  -0.26762
 Alpha virt. eigenvalues --    0.10265   0.14172   0.17729   0.31767   0.38107
 Alpha virt. eigenvalues --    0.40663   0.44116   0.44809   0.48625   0.49216
 Alpha virt. eigenvalues --    0.51630   0.54654   0.57957   0.61032   0.65886
 Alpha virt. eigenvalues --    0.92383   1.03130   1.10484   1.22275   1.30068
 Alpha virt. eigenvalues --    1.41894   1.44072   1.47470   1.62044   1.66502
 Alpha virt. eigenvalues --    1.74315   1.91333   1.93129   1.94461   2.05547
 Alpha virt. eigenvalues --    2.06523   2.10453   2.14543   2.17305   2.21996
 Alpha virt. eigenvalues --    2.36890   2.42379   2.57442   2.58906   2.68067
 Alpha virt. eigenvalues --    2.80101   3.09000   3.15267   3.22434   3.56949
 Alpha virt. eigenvalues --    3.68029   3.89407   3.95706   4.03341   4.12655
 Alpha virt. eigenvalues --    4.32911   4.47532   4.60680   4.64325   4.68233
 Alpha virt. eigenvalues --    4.71717   4.72569   4.73939   4.83423   4.90593
 Alpha virt. eigenvalues --    5.01826   5.03886   5.33098   5.35197   5.59380
 Alpha virt. eigenvalues --    5.68006   5.82456   5.94157   6.82975  31.68062
 Alpha virt. eigenvalues --   31.76772
  Beta  occ. eigenvalues --  -14.47271 -14.42536  -1.06635  -0.80527  -0.63751
  Beta  occ. eigenvalues --   -0.55057  -0.41532  -0.35894
  Beta virt. eigenvalues --    0.04255   0.10563   0.14498   0.18020   0.32766
  Beta virt. eigenvalues --    0.38189   0.41921   0.44485   0.45209   0.49547
  Beta virt. eigenvalues --    0.51921   0.52079   0.55501   0.58453   0.61810
  Beta virt. eigenvalues --    0.66633   0.93566   1.05431   1.12550   1.23310
  Beta virt. eigenvalues --    1.30851   1.43249   1.44916   1.48283   1.64345
  Beta virt. eigenvalues --    1.68182   1.74547   1.92174   1.94388   1.95232
  Beta virt. eigenvalues --    2.06320   2.07082   2.13220   2.16122   2.19463
  Beta virt. eigenvalues --    2.22799   2.39112   2.44893   2.58236   2.59539
  Beta virt. eigenvalues --    2.68822   2.80917   3.09899   3.16782   3.23733
  Beta virt. eigenvalues --    3.58841   3.70675   3.92512   3.97591   4.06056
  Beta virt. eigenvalues --    4.14172   4.36910   4.50107   4.63435   4.67039
  Beta virt. eigenvalues --    4.70590   4.74752   4.76091   4.77023   4.87510
  Beta virt. eigenvalues --    4.93633   5.03743   5.05652   5.34741   5.36638
  Beta virt. eigenvalues --    5.60634   5.71064   5.83522   5.94913   6.84571
  Beta virt. eigenvalues --   31.69771  31.77506
          Condensed to atoms (all electrons):
               1          2          3          4          5
     1  N    6.443299   0.360309   0.381488   0.173400  -0.031198
     2  H    0.360309   0.489114  -0.042297  -0.019727  -0.021790
     3  H    0.381488  -0.042297   0.447643  -0.051280   0.009823
     4  N    0.173400  -0.019727  -0.051280   6.958393   0.297310
     5  H   -0.031198  -0.021790   0.009823   0.297310   0.549476
          Atomic-Atomic Spin Densities.
               1          2          3          4          5
     1  N    0.485194  -0.002745  -0.000961  -0.217833   0.003195
     2  H   -0.002745   0.001386   0.003596  -0.004643   0.001075
     3  H   -0.000961   0.003596  -0.003673  -0.003220  -0.000383
     4  N   -0.217833  -0.004643  -0.003220   0.985751  -0.000717
     5  H    0.003195   0.001075  -0.000383  -0.000717  -0.023387
 Mulliken charges and spin densities:
               1          2
     1  N   -0.327299   0.266850
     2  H    0.234392  -0.001331
     3  H    0.254624  -0.004641
     4  N   -0.358095   0.759338
     5  H    0.196379  -0.020217
 Sum of Mulliken charges =  -0.00000   1.00000
 Mulliken charges and spin densities with hydrogens summed into heavy atoms:
               1          2
     1  N    0.161716   0.260879
     4  N   -0.161716   0.739121
 Electronic spatial extent (au):  <R**2>=             70.6557
 Charge=             -0.0000 electrons
 Dipole moment (field-independent basis, Debye):
    X=              2.0323    Y=              1.6800    Z=              0.6401  Tot=              2.7134
 Quadrupole moment (field-independent basis, Debye-Ang):
   XX=            -11.6129   YY=            -10.7760   ZZ=            -14.2623
   XY=             -2.2701   XZ=              0.9481   YZ=              0.1056
 Traceless Quadrupole moment (field-independent basis, Debye-Ang):
   XX=              0.6041   YY=              1.4411   ZZ=             -2.0452
   XY=             -2.2701   XZ=              0.9481   YZ=              0.1056
 Octapole moment (field-independent basis, Debye-Ang**2):
  XXX=              4.3417  YYY=              2.4063  ZZZ=              0.5589  XYY=              2.8552
  XXY=              2.4157  XXZ=              0.8926  XZZ=              0.4023  YZZ=              0.4545
  YYZ=              0.5401  XYZ=              0.0798
 Hexadecapole moment (field-independent basis, Debye-Ang**3):
 XXXX=            -51.6989 YYYY=            -17.0974 ZZZZ=            -14.4434 XXXY=             -4.6276
 XXXZ=              1.5197 YYYX=             -2.6348 YYYZ=              0.1632 ZZZX=              0.8250
 ZZZY=              0.0969 XXYY=             -9.7053 XXZZ=            -12.5743 YYZZ=             -5.6657
 XXYZ=              0.0287 YYXZ=              0.7331 ZZXY=             -0.6585
 N-N= 3.672692407452D+01 E-N=-3.338359451572D+02  KE= 1.107895915338D+02
                          Isotropic Fermi Contact Couplings
        Atom                 a.u.       MegaHertz       Gauss      10(-4) cm-1
     1  N(14)              0.07250      23.42561       8.35884       7.81394
     2  H(1)               0.00041       1.84976       0.66004       0.61701
     3  H(1)              -0.00227     -10.14360      -3.61949      -3.38354
     4  N(14)              0.08361      27.01628       9.64008       9.01166
     5  H(1)              -0.01056     -47.19589     -16.84067     -15.74285
 --------------------------------------------------------
       Center         ----  Spin Dipole Couplings  ----
                      3XX-RR        3YY-RR        3ZZ-RR
 --------------------------------------------------------
     1   Atom       -0.362741     -0.397853      0.760595
     2   Atom       -0.015168      0.025487     -0.010320
     3   Atom       -0.002416      0.013729     -0.011313
     4   Atom       -0.931539     -0.908148      1.839687
     5   Atom       -0.050195      0.064725     -0.014530
 --------------------------------------------------------
                        XY            XZ            YZ
 --------------------------------------------------------
     1   Atom        0.008514     -0.139356     -0.037581
     2   Atom        0.036660      0.004801      0.008542
     3   Atom       -0.040022      0.005152     -0.008584
     4   Atom       -0.018960      0.010870      0.097191
     5   Atom       -0.068715      0.002055     -0.000400
 --------------------------------------------------------


 ---------------------------------------------------------------------------------
              Anisotropic Spin Dipole Couplings in Principal Axis System
 ---------------------------------------------------------------------------------

       Atom             a.u.   MegaHertz   Gauss  10(-4) cm-1        Axes

              Baa    -0.3999   -15.422    -5.503    -5.144 -0.1926  0.9812  0.0086
     1 N(14)  Bbb    -0.3790   -14.618    -5.216    -4.876  0.9737  0.1901  0.1253
              Bcc     0.7789    30.039    10.719    10.020 -0.1213 -0.0326  0.9921
 
              Baa    -0.0368   -19.613    -6.999    -6.542  0.8612 -0.5083  0.0078
     2 H(1)   Bbb    -0.0119    -6.373    -2.274    -2.126 -0.0899 -0.1371  0.9865
              Bcc     0.0487    25.986     9.273     8.668  0.5003  0.8502  0.1637
 
              Baa    -0.0353   -18.815    -6.714    -6.276  0.7674  0.6380  0.0636
     3 H(1)   Bbb    -0.0129    -6.868    -2.451    -2.291 -0.1536  0.0866  0.9843
              Bcc     0.0481    25.683     9.164     8.567 -0.6225  0.7651 -0.1644
 
              Baa    -0.9433   -36.383   -12.982   -12.136  0.8542  0.5195 -0.0215
     4 N(14)  Bbb    -0.8998   -34.704   -12.383   -11.576 -0.5199  0.8537 -0.0282
              Bcc     1.8432    71.087    25.365    23.712  0.0037  0.0353  0.9994
 
              Baa    -0.0824   -43.939   -15.678   -14.656  0.9057  0.4231 -0.0249
     5 H(1)   Bbb    -0.0145    -7.737    -2.761    -2.581  0.0179  0.0206  0.9996
              Bcc     0.0969    51.676    18.439    17.237 -0.4235  0.9058 -0.0111
 

 ---------------------------------------------------------------------------------

 No NMR shielding tensors so no spin-rotation constants.
 Leave Link  601 at Wed Feb 19 14:50:44 2020, MaxMem=  1879048192 cpu:               2.1 elap:               0.3
 (Enter /opt/g16/l701.exe)
 ... and contract with generalized density number  0.
 Compute integral first derivatives.
 R6Disp: Adding Grimme-D2 dispersion energy 1st derivatives to the gradient.
   1 Symmetry operations used in ECPInt.
 ECPInt:  NShTT=     595 NPrTT=    1764 LenC2=     595 LenP2D=    1624.
 LDataN:  DoStor=T MaxTD1= 7 Len=  274
 Leave Link  701 at Wed Feb 19 14:50:44 2020, MaxMem=  1879048192 cpu:               1.3 elap:               0.2
 (Enter /opt/g16/l702.exe)
 L702 exits ... SP integral derivatives will be done elsewhere.
 Leave Link  702 at Wed Feb 19 14:50:44 2020, MaxMem=  1879048192 cpu:               0.4 elap:               0.0
 (Enter /opt/g16/l703.exe)
 Integral derivatives from FoFJK, PRISM(SPDF).
 Compute integral first derivatives, UseDBF=F ICtDFT=           0.
 Calling FoFJK, ICntrl=      2127 FMM=F ISym2X=0 I1Cent= 0 IOpClX= 1 NMat=1 NMatS=1 NMatT=0.
 FoFJK:  IHMeth= 1 ICntrl=    2127 DoSepK=T KAlg= 0 I1Cent=           0 FoldK=F
 IRaf=         1 NMat=       1 IRICut=       1 DoRegI=T DoRafI=F ISym2E= 0 IDoP0=0 IntGTp=1.
 FoFCou: FMM=F IPFlag=           0 FMFlag=      100000 FMFlg1=         800
         NFxFlg=           0 DoJE=F BraDBF=F KetDBF=F FulRan=T
         wScrn=  0.000000 ICntrl=      2527 IOpCl=  0 I1Cent=           0 NGrid=           0
         NMat0=    1 NMatS0=      1 NMatT0=    0 NMatD0=    1 NMtDS0=    0 NMtDT0=    0
 Symmetry not used in FoFCou.
 Leave Link  703 at Wed Feb 19 14:50:46 2020, MaxMem=  1879048192 cpu:              16.5 elap:               2.1
 (Enter /opt/g16/l716.exe)
 Dipole        = 7.99569389D-01 6.60964423D-01 2.51848733D-01
 ***** Axes restored to original set *****
 -------------------------------------------------------------------
 Center     Atomic                   Forces (Hartrees/Bohr)
 Number     Number              X              Y              Z
 -------------------------------------------------------------------
      1        7           0.000522768    0.000710115   -0.000420055
      2        1           0.000645650    0.000048431    0.000210769
      3        1           0.000003249   -0.000038801    0.000093672
      4        7          -0.001070231   -0.001393872    0.000303143
      5        1          -0.000101436    0.000674128   -0.000187529
 -------------------------------------------------------------------
 Cartesian Forces:  Max     0.001393872 RMS     0.000583552
 Leave Link  716 at Wed Feb 19 14:50:46 2020, MaxMem=  1879048192 cpu:               0.5 elap:               0.1
 (Enter /opt/g16/l103.exe)

 GradGradGradGradGradGradGradGradGradGradGradGradGradGradGradGradGradGrad
 Berny optimization.
 FormGI is forming the generalized inverse of G from B-inverse, IUseBI=4.
 Internal  Forces:  Max     0.001261219 RMS     0.000529664
 Search for a local minimum.
 Step number   1 out of a maximum of   21
 All quantities printed in internal units (Hartrees-Bohrs-Radians)
 RMS Force = .52966D-03 SwitMx=.10000D-02 MixMth= 2
 Mixed Optimization -- En-DIIS/RFO-DIIS
 Second derivative matrix not updated -- first step.
 The second derivative matrix:
                          R1        R2        R3        R4        A1
           R1           0.46051
           R2           0.00000   0.46659
           R3           0.00000   0.00000   0.57374
           R4           0.00000   0.00000   0.00000   0.44493
           A1           0.00000   0.00000   0.00000   0.00000   0.16000
           A2           0.00000   0.00000   0.00000   0.00000   0.00000
           A3           0.00000   0.00000   0.00000   0.00000   0.00000
           A4           0.00000   0.00000   0.00000   0.00000   0.00000
           D1           0.00000   0.00000   0.00000   0.00000   0.00000
           D2           0.00000   0.00000   0.00000   0.00000   0.00000
           D3           0.00000   0.00000   0.00000   0.00000   0.00000
                          A2        A3        A4        D1        D2
           A2           0.16000
           A3           0.00000   0.16000
           A4           0.00000   0.00000   0.16000
           D1           0.00000   0.00000   0.00000   0.00950
           D2           0.00000   0.00000   0.00000   0.00000   0.02098
           D3           0.00000   0.00000   0.00000   0.00000   0.00000
                          D3
           D3           0.02098
 ITU=  0
     Eigenvalues ---    0.02098   0.02424   0.14793   0.16000   0.16000
     Eigenvalues ---    0.44493   0.46051   0.46659   0.57374
 RFO step:  Lambda=-1.17069362D-05 EMin= 2.09846944D-02
 Linear search not attempted -- first point.
 Iteration  1 RMS(Cart)=  0.00277490 RMS(Int)=  0.00000769
 Iteration  2 RMS(Cart)=  0.00000640 RMS(Int)=  0.00000301
 Iteration  3 RMS(Cart)=  0.00000000 RMS(Int)=  0.00000301
 ITry= 1 IFail=0 DXMaxC= 5.42D-03 DCOld= 1.00D+10 DXMaxT= 3.00D-01 DXLimC= 3.00D+00 Rises=F
 Variable       Old X    -DE/DX   Delta X   Delta X   Delta X     New X
                                 (Linear)    (Quad)   (Total)
    R1        1.90774   0.00037   0.00000   0.00080   0.00080   1.90853
    R2        1.90095   0.00005   0.00000   0.00012   0.00012   1.90107
    R3        2.53081   0.00126   0.00000   0.00220   0.00220   2.53301
    R4        1.92569   0.00066   0.00000   0.00149   0.00149   1.92718
    A1        2.01283  -0.00036   0.00000  -0.00282  -0.00282   2.01001
    A2        2.10704   0.00064   0.00000   0.00391   0.00391   2.11095
    A3        1.99362  -0.00038   0.00000  -0.00272  -0.00272   1.99090
    A4        1.85503  -0.00037   0.00000  -0.00234  -0.00234   1.85270
    D1        2.55490   0.00008   0.00000  -0.00110  -0.00109   2.55381
    D2        0.41248   0.00029   0.00000   0.00827   0.00828   0.42076
    D3        2.93275  -0.00002   0.00000   0.00447   0.00447   2.93722
         Item               Value     Threshold  Converged?
 Maximum Force            0.001261     0.000450     NO 
 RMS     Force            0.000530     0.000300     NO 
 Maximum Displacement     0.005421     0.001800     NO 
 RMS     Displacement     0.002776     0.001200     NO 
 Predicted change in Energy=-5.854988D-06
 Lowest energy point so far.  Saving SCF results.
 GradGradGradGradGradGradGradGradGradGradGradGradGradGradGradGradGradGrad

 Leave Link  103 at Wed Feb 19 14:50:46 2020, MaxMem=  1879048192 cpu:               0.3 elap:               0.0
 (Enter /opt/g16/l202.exe)
                          Input orientation:                          
 ---------------------------------------------------------------------
 Center     Atomic      Atomic             Coordinates (Angstroms)
 Number     Number       Type             X           Y           Z
 ---------------------------------------------------------------------
      1          7           0        0.590882    0.025653   -0.068282
      2          1           0        1.016468    0.903448    0.193165
      3          1           0        1.131230   -0.793964    0.151477
      4          7           0       -0.734450   -0.152354    0.023945
      5          1           0       -1.149683    0.777842   -0.024567
 ---------------------------------------------------------------------
                    Distance matrix (angstroms):
                    1          2          3          4          5
     1  N    0.000000
     2  H    1.009952   0.000000
     3  H    1.006003   1.701798   0.000000
     4  N    1.340409   2.051601   1.977041   0.000000
     5  H    1.896646   2.180686   2.775632   1.019822   0.000000
 Stoichiometry    H3N2(2)
 Framework group  C1[X(H3N2)]
 Deg. of freedom     9
 Full point group                 C1      NOp   1
 RotChk:  IX=0 Diff= 3.61D-03
 Largest Abelian subgroup         C1      NOp   1
 Largest concise Abelian subgroup C1      NOp   1
                         Standard orientation:                         
 ---------------------------------------------------------------------
 Center     Atomic      Atomic             Coordinates (Angstroms)
 Number     Number       Type             X           Y           Z
 ---------------------------------------------------------------------
      1          7           0        0.591409    0.024530   -0.068242
      2          1           0        1.018493    0.901146    0.194716
      3          1           0        1.129900   -0.796440    0.151024
      4          7           0       -0.734366   -0.150938    0.022464
      5          1           0       -1.147689    0.780148   -0.025295
 ---------------------------------------------------------------------
 Rotational constants (GHZ):         206.9077051          31.0817082          27.3746675
 Leave Link  202 at Wed Feb 19 14:50:46 2020, MaxMem=  1879048192 cpu:               0.1 elap:               0.0
 (Enter /opt/g16/l301.exe)
 Standard basis: def2TZVP (5D, 7F)
 Ernie: Thresh=  0.10000D-02 Tol=  0.10000D-05 Strict=F.
 There are    90 symmetry adapted cartesian basis functions of A   symmetry.
 There are    80 symmetry adapted basis functions of A   symmetry.
    80 basis functions,   126 primitive gaussians,    90 cartesian basis functions
     9 alpha electrons        8 beta electrons
       nuclear repulsion energy        36.7032085978 Hartrees.
 IExCor= 4639 DFT=T Ex+Corr=wB97XD ExCW=0 ScaHFX=  1.000000
 ScaDFX=  1.000000  1.000000  1.000000  1.000000 ScalE2=  1.000000  1.000000
 IRadAn=      5 IRanWt=     -1 IRanGd=            0 ICorTp=0 IEmpDi=121
 HFx  wShort=  0.000000 wLong=  0.200000 cFull=  0.222036 cShort=  0.000000 cLong=  0.777964
 DFx  wShort=  0.000000 wLong=  0.200000 cFull=  0.000000 cShort=  0.000000 cLong=  1.000000
 NAtoms=    5 NActive=    5 NUniq=    5 SFac= 1.00D+00 NAtFMM=   60 NAOKFM=F Big=F
 Integral buffers will be    131072 words long.
 Raffenetti 2 integral format.
 Two-electron integral symmetry is turned on.
 R6Disp:  Grimme-D2 Dispersion energy=       -0.0004461610 Hartrees.
 Nuclear repulsion after empirical dispersion term =       36.7027624368 Hartrees.
 Leave Link  301 at Wed Feb 19 14:50:46 2020, MaxMem=  1879048192 cpu:               0.5 elap:               0.1
 (Enter /opt/g16/l302.exe)
 NPDir=0 NMtPBC=     1 NCelOv=     1 NCel=       1 NClECP=     1 NCelD=      1
         NCelK=      1 NCelE2=     1 NClLst=     1 CellRange=     0.0.
 One-electron integrals computed using PRISM.
 One-electron integral symmetry used in STVInt
   1 Symmetry operations used in ECPInt.
 ECPInt:  NShTT=     595 NPrTT=    1764 LenC2=     595 LenP2D=    1624.
 LDataN:  DoStor=T MaxTD1= 6 Len=  172
 NBasis=    80 RedAO= T EigKep=  1.32D-03  NBF=    80
 NBsUse=    80 1.00D-06 EigRej= -1.00D+00 NBFU=    80
 Precomputing XC quadrature grid using
 IXCGrd= 4 IRadAn=           5 IRanWt=          -1 IRanGd=           0 AccXCQ= 0.00D+00.
 Generated NRdTot=       0 NPtTot=           0 NUsed=           0 NTot=          32
 NSgBfM=    90    90    90    90    90 MxSgAt=     5 MxSgA2=     5.
 Leave Link  302 at Wed Feb 19 14:50:47 2020, MaxMem=  1879048192 cpu:               1.5 elap:               0.2
 (Enter /opt/g16/l303.exe)
 DipDrv:  MaxL=1.
 Leave Link  303 at Wed Feb 19 14:50:47 2020, MaxMem=  1879048192 cpu:               0.6 elap:               0.1
 (Enter /opt/g16/l401.exe)
 Initial guess from the checkpoint file:  "check.chk"
 B after Tr=     0.000000   -0.000000    0.000000
         Rot=    1.000000   -0.000350   -0.000034    0.000649 Ang=  -0.08 deg.
 Guess basis will be translated and rotated to current coordinates.
 JPrj=2 DoOrth=T DoCkMO=T.
 Initial guess <Sx>= 0.0000 <Sy>= 0.0000 <Sz>= 0.5000 <S**2>= 0.7546 S= 0.5023
 Leave Link  401 at Wed Feb 19 14:50:47 2020, MaxMem=  1879048192 cpu:               1.1 elap:               0.1
 (Enter /opt/g16/l502.exe)
 Keep R1 and R2 ints in memory in canonical form, NReq=28315865.
 FoFCou: FMM=F IPFlag=           0 FMFlag=           0 FMFlg1=           0
         NFxFlg=           0 DoJE=F BraDBF=F KetDBF=F FulRan=T
         wScrn=  0.000000 ICntrl=       600 IOpCl=  0 I1Cent=           0 NGrid=           0
         NMat0=    1 NMatS0=   3240 NMatT0=    0 NMatD0=    1 NMtDS0=    0 NMtDT0=    0
 Symmetry not used in FoFCou.
 Two-electron integral symmetry not used.
 UHF open shell SCF:
 Using DIIS extrapolation, IDIIS=  1040.
 NGot=  1879048192 LenX=  1858028627 LenY=  1858020086
 Requested convergence on RMS density matrix=1.00D-08 within  32 cycles.
 Requested convergence on MAX density matrix=1.00D-06.
 Requested convergence on             energy=1.00D-06.
 No special actions if energy rises.

 Cycle   1  Pass 1  IDiag  1:
 E= -111.239202596473    
 DIIS: error= 1.18D-04 at cycle   1 NSaved=   1.
 NSaved= 1 IEnMin= 1 EnMin= -111.239202596473     IErMin= 1 ErrMin= 1.18D-04
 ErrMax= 1.18D-04  0.00D+00 EMaxC= 1.00D-01 BMatC= 1.49D-05 BMatP= 1.49D-05
 IDIUse=3 WtCom= 9.99D-01 WtEn= 1.18D-03
 Coeff-Com:  0.100D+01
 Coeff-En:   0.100D+01
 Coeff:      0.100D+01
 Gap=     0.795 Goal=   None    Shift=    0.000
 Gap=     0.896 Goal=   None    Shift=    0.000
 RMSDP=2.35D-05 MaxDP=3.52D-04              OVMax= 8.07D-04

 Cycle   2  Pass 1  IDiag  1:
 E= -111.239206860777     Delta-E=       -0.000004264304 Rises=F Damp=F
 DIIS: error= 3.22D-05 at cycle   2 NSaved=   2.
 NSaved= 2 IEnMin= 2 EnMin= -111.239206860777     IErMin= 2 ErrMin= 3.22D-05
 ErrMax= 3.22D-05  0.00D+00 EMaxC= 1.00D-01 BMatC= 6.15D-07 BMatP= 1.49D-05
 IDIUse=1 WtCom= 1.00D+00 WtEn= 0.00D+00
 Coeff-Com: -0.754D-01 0.108D+01
 Coeff:     -0.754D-01 0.108D+01
 Gap=     0.371 Goal=   None    Shift=    0.000
 Gap=     0.401 Goal=   None    Shift=    0.000
 RMSDP=9.19D-06 MaxDP=1.65D-04 DE=-4.26D-06 OVMax= 3.69D-04

 Cycle   3  Pass 1  IDiag  1:
 E= -111.239207157954     Delta-E=       -0.000000297177 Rises=F Damp=F
 DIIS: error= 2.52D-05 at cycle   3 NSaved=   3.
 NSaved= 3 IEnMin= 3 EnMin= -111.239207157954     IErMin= 3 ErrMin= 2.52D-05
 ErrMax= 2.52D-05  0.00D+00 EMaxC= 1.00D-01 BMatC= 1.94D-07 BMatP= 6.15D-07
 IDIUse=1 WtCom= 1.00D+00 WtEn= 0.00D+00
 Coeff-Com: -0.592D-01 0.354D+00 0.705D+00
 Coeff:     -0.592D-01 0.354D+00 0.705D+00
 Gap=     0.371 Goal=   None    Shift=    0.000
 Gap=     0.401 Goal=   None    Shift=    0.000
 RMSDP=2.94D-06 MaxDP=4.29D-05 DE=-2.97D-07 OVMax= 1.08D-04

 Cycle   4  Pass 1  IDiag  1:
 E= -111.239207215726     Delta-E=       -0.000000057772 Rises=F Damp=F
 DIIS: error= 6.47D-06 at cycle   4 NSaved=   4.
 NSaved= 4 IEnMin= 4 EnMin= -111.239207215726     IErMin= 4 ErrMin= 6.47D-06
 ErrMax= 6.47D-06  0.00D+00 EMaxC= 1.00D-01 BMatC= 2.05D-08 BMatP= 1.94D-07
 IDIUse=1 WtCom= 1.00D+00 WtEn= 0.00D+00
 Coeff-Com:  0.562D-02-0.124D+00 0.843D-01 0.103D+01
 Coeff:      0.562D-02-0.124D+00 0.843D-01 0.103D+01
 Gap=     0.371 Goal=   None    Shift=    0.000
 Gap=     0.401 Goal=   None    Shift=    0.000
 RMSDP=2.28D-06 MaxDP=3.67D-05 DE=-5.78D-08 OVMax= 9.62D-05

 Cycle   5  Pass 1  IDiag  1:
 E= -111.239207231249     Delta-E=       -0.000000015523 Rises=F Damp=F
 DIIS: error= 4.06D-06 at cycle   5 NSaved=   5.
 NSaved= 5 IEnMin= 5 EnMin= -111.239207231249     IErMin= 5 ErrMin= 4.06D-06
 ErrMax= 4.06D-06  0.00D+00 EMaxC= 1.00D-01 BMatC= 3.51D-09 BMatP= 2.05D-08
 IDIUse=1 WtCom= 1.00D+00 WtEn= 0.00D+00
 Coeff-Com:  0.813D-02-0.693D-01-0.725D-01 0.212D+00 0.922D+00
 Coeff:      0.813D-02-0.693D-01-0.725D-01 0.212D+00 0.922D+00
 Gap=     0.371 Goal=   None    Shift=    0.000
 Gap=     0.401 Goal=   None    Shift=    0.000
 RMSDP=9.81D-07 MaxDP=1.98D-05 DE=-1.55D-08 OVMax= 5.01D-05

 Cycle   6  Pass 1  IDiag  1:
 E= -111.239207234285     Delta-E=       -0.000000003036 Rises=F Damp=F
 DIIS: error= 2.05D-06 at cycle   6 NSaved=   6.
 NSaved= 6 IEnMin= 6 EnMin= -111.239207234285     IErMin= 6 ErrMin= 2.05D-06
 ErrMax= 2.05D-06  0.00D+00 EMaxC= 1.00D-01 BMatC= 9.96D-10 BMatP= 3.51D-09
 IDIUse=1 WtCom= 1.00D+00 WtEn= 0.00D+00
 Coeff-Com:  0.177D-02-0.130D-02-0.393D-01-0.110D+00 0.310D+00 0.838D+00
 Coeff:      0.177D-02-0.130D-02-0.393D-01-0.110D+00 0.310D+00 0.838D+00
 Gap=     0.371 Goal=   None    Shift=    0.000
 Gap=     0.401 Goal=   None    Shift=    0.000
 RMSDP=4.65D-07 MaxDP=9.84D-06 DE=-3.04D-09 OVMax= 3.10D-05

 Cycle   7  Pass 1  IDiag  1:
 E= -111.239207235110     Delta-E=       -0.000000000824 Rises=F Damp=F
 DIIS: error= 1.22D-06 at cycle   7 NSaved=   7.
 NSaved= 7 IEnMin= 7 EnMin= -111.239207235110     IErMin= 7 ErrMin= 1.22D-06
 ErrMax= 1.22D-06  0.00D+00 EMaxC= 1.00D-01 BMatC= 2.96D-10 BMatP= 9.96D-10
 IDIUse=1 WtCom= 1.00D+00 WtEn= 0.00D+00
 Coeff-Com: -0.239D-02 0.250D-01 0.117D-01-0.119D+00-0.225D+00 0.310D+00
 Coeff-Com:  0.999D+00
 Coeff:     -0.239D-02 0.250D-01 0.117D-01-0.119D+00-0.225D+00 0.310D+00
 Coeff:      0.999D+00
 Gap=     0.371 Goal=   None    Shift=    0.000
 Gap=     0.401 Goal=   None    Shift=    0.000
 RMSDP=3.31D-07 MaxDP=6.62D-06 DE=-8.24D-10 OVMax= 2.54D-05

 Cycle   8  Pass 1  IDiag  1:
 E= -111.239207235411     Delta-E=       -0.000000000302 Rises=F Damp=F
 DIIS: error= 4.95D-07 at cycle   8 NSaved=   8.
 NSaved= 8 IEnMin= 8 EnMin= -111.239207235411     IErMin= 8 ErrMin= 4.95D-07
 ErrMax= 4.95D-07  0.00D+00 EMaxC= 1.00D-01 BMatC= 2.22D-11 BMatP= 2.96D-10
 IDIUse=1 WtCom= 1.00D+00 WtEn= 0.00D+00
 Coeff-Com:  0.773D-03-0.104D-01 0.699D-03 0.646D-01 0.530D-01-0.231D+00
 Coeff-Com: -0.440D+00 0.156D+01
 Coeff:      0.773D-03-0.104D-01 0.699D-03 0.646D-01 0.530D-01-0.231D+00
 Coeff:     -0.440D+00 0.156D+01
 Gap=     0.371 Goal=   None    Shift=    0.000
 Gap=     0.401 Goal=   None    Shift=    0.000
 RMSDP=1.28D-07 MaxDP=1.93D-06 DE=-3.02D-10 OVMax= 1.25D-05

 Cycle   9  Pass 1  IDiag  1:
 E= -111.239207235458     Delta-E=       -0.000000000046 Rises=F Damp=F
 DIIS: error= 1.61D-07 at cycle   9 NSaved=   9.
 NSaved= 9 IEnMin= 9 EnMin= -111.239207235458     IErMin= 9 ErrMin= 1.61D-07
 ErrMax= 1.61D-07  0.00D+00 EMaxC= 1.00D-01 BMatC= 2.43D-12 BMatP= 2.22D-11
 IDIUse=1 WtCom= 1.00D+00 WtEn= 0.00D+00
 Coeff-Com:  0.461D-05 0.788D-03-0.208D-02-0.870D-02 0.624D-02 0.545D-01
 Coeff-Com:  0.391D-01-0.619D+00 0.153D+01
 Coeff:      0.461D-05 0.788D-03-0.208D-02-0.870D-02 0.624D-02 0.545D-01
 Coeff:      0.391D-01-0.619D+00 0.153D+01
 Gap=     0.371 Goal=   None    Shift=    0.000
 Gap=     0.401 Goal=   None    Shift=    0.000
 RMSDP=4.83D-08 MaxDP=7.92D-07 DE=-4.63D-11 OVMax= 4.18D-06

 Cycle  10  Pass 1  IDiag  1:
 E= -111.239207235463     Delta-E=       -0.000000000005 Rises=F Damp=F
 DIIS: error= 2.51D-08 at cycle  10 NSaved=  10.
 NSaved=10 IEnMin=10 EnMin= -111.239207235463     IErMin=10 ErrMin= 2.51D-08
 ErrMax= 2.51D-08  0.00D+00 EMaxC= 1.00D-01 BMatC= 1.33D-13 BMatP= 2.43D-12
 IDIUse=1 WtCom= 1.00D+00 WtEn= 0.00D+00
 Coeff-Com: -0.719D-04 0.905D-03 0.163D-03-0.500D-02-0.505D-02 0.150D-01
 Coeff-Com:  0.381D-01-0.905D-01-0.111D+00 0.116D+01
 Coeff:     -0.719D-04 0.905D-03 0.163D-03-0.500D-02-0.505D-02 0.150D-01
 Coeff:      0.381D-01-0.905D-01-0.111D+00 0.116D+01
 Gap=     0.371 Goal=   None    Shift=    0.000
 Gap=     0.401 Goal=   None    Shift=    0.000
 RMSDP=1.35D-08 MaxDP=2.92D-07 DE=-5.12D-12 OVMax= 6.14D-07

 Cycle  11  Pass 1  IDiag  1:
 E= -111.239207235463     Delta-E=        0.000000000000 Rises=F Damp=F
 DIIS: error= 7.25D-09 at cycle  11 NSaved=  11.
 NSaved=11 IEnMin=10 EnMin= -111.239207235463     IErMin=11 ErrMin= 7.25D-09
 ErrMax= 7.25D-09  0.00D+00 EMaxC= 1.00D-01 BMatC= 1.15D-14 BMatP= 1.33D-13
 IDIUse=1 WtCom= 1.00D+00 WtEn= 0.00D+00
 Coeff-Com:  0.184D-04-0.287D-03 0.127D-03 0.186D-02 0.731D-03-0.774D-02
 Coeff-Com: -0.122D-01 0.696D-01-0.995D-01-0.261D+00 0.131D+01
 Coeff:      0.184D-04-0.287D-03 0.127D-03 0.186D-02 0.731D-03-0.774D-02
 Coeff:     -0.122D-01 0.696D-01-0.995D-01-0.261D+00 0.131D+01
 Gap=     0.371 Goal=   None    Shift=    0.000
 Gap=     0.401 Goal=   None    Shift=    0.000
 RMSDP=4.91D-09 MaxDP=8.95D-08 DE= 1.99D-13 OVMax= 2.20D-07

 SCF Done:  E(UwB97XD) =  -111.239207235     A.U. after   11 cycles
            NFock= 11  Conv=0.49D-08     -V/T= 2.0041
 <Sx>= 0.0000 <Sy>= 0.0000 <Sz>= 0.5000 <S**2>= 0.7546 S= 0.5023
 <L.S>= 0.000000000000E+00
 KE= 1.107855753523D+02 PE=-3.337851994206D+02 EE= 7.505765439598D+01
 Annihilation of the first spin contaminant:
 S**2 before annihilation     0.7546,   after     0.7500
 Leave Link  502 at Wed Feb 19 14:50:52 2020, MaxMem=  1879048192 cpu:              40.3 elap:               5.2
 (Enter /opt/g16/l508.exe)
 QCSCF skips out because SCF is already converged.
 Leave Link  508 at Wed Feb 19 14:50:52 2020, MaxMem=  1879048192 cpu:               0.0 elap:               0.0
 (Enter /opt/g16/l701.exe)
 ... and contract with generalized density number  0.
 Compute integral first derivatives.
 R6Disp: Adding Grimme-D2 dispersion energy 1st derivatives to the gradient.
   1 Symmetry operations used in ECPInt.
 ECPInt:  NShTT=     595 NPrTT=    1764 LenC2=     595 LenP2D=    1624.
 LDataN:  DoStor=T MaxTD1= 7 Len=  274
 Leave Link  701 at Wed Feb 19 14:50:52 2020, MaxMem=  1879048192 cpu:               1.4 elap:               0.2
 (Enter /opt/g16/l702.exe)
 L702 exits ... SP integral derivatives will be done elsewhere.
 Leave Link  702 at Wed Feb 19 14:50:52 2020, MaxMem=  1879048192 cpu:               0.5 elap:               0.1
 (Enter /opt/g16/l703.exe)
 Integral derivatives from FoFJK, PRISM(SPDF).
 Compute integral first derivatives, UseDBF=F ICtDFT=           0.
 Calling FoFJK, ICntrl=      2127 FMM=F ISym2X=0 I1Cent= 0 IOpClX= 1 NMat=1 NMatS=1 NMatT=0.
 FoFJK:  IHMeth= 1 ICntrl=    2127 DoSepK=T KAlg= 0 I1Cent=           0 FoldK=F
 IRaf=         1 NMat=       1 IRICut=       1 DoRegI=T DoRafI=F ISym2E= 0 IDoP0=0 IntGTp=1.
 FoFCou: FMM=F IPFlag=           0 FMFlag=      100000 FMFlg1=         800
         NFxFlg=           0 DoJE=F BraDBF=F KetDBF=F FulRan=T
         wScrn=  0.000000 ICntrl=      2527 IOpCl=  0 I1Cent=           0 NGrid=           0
         NMat0=    1 NMatS0=      1 NMatT0=    0 NMatD0=    1 NMtDS0=    0 NMtDT0=    0
 Symmetry not used in FoFCou.
 Leave Link  703 at Wed Feb 19 14:50:55 2020, MaxMem=  1879048192 cpu:              16.8 elap:               2.1
 (Enter /opt/g16/l716.exe)
 Dipole        = 7.99708043D-01 6.58608764D-01 2.51599114D-01
 ***** Axes restored to original set *****
 -------------------------------------------------------------------
 Center     Atomic                   Forces (Hartrees/Bohr)
 Number     Number              X              Y              Z
 -------------------------------------------------------------------
      1        7           0.000229026    0.000024053   -0.000268000
      2        1           0.000016269    0.000007341    0.000119501
      3        1           0.000062503   -0.000028587    0.000062230
      4        7          -0.000236215   -0.000109223    0.000133518
      5        1          -0.000071583    0.000106416   -0.000047249
 -------------------------------------------------------------------
 Cartesian Forces:  Max     0.000268000 RMS     0.000129688
 Leave Link  716 at Wed Feb 19 14:50:55 2020, MaxMem=  1879048192 cpu:               0.5 elap:               0.1
 (Enter /opt/g16/l103.exe)

 GradGradGradGradGradGradGradGradGradGradGradGradGradGradGradGradGradGrad
 Berny optimization.
 Using GEDIIS/GDIIS optimizer.
 FormGI is forming the generalized inverse of G from B-inverse, IUseBI=4.
 Internal  Forces:  Max     0.000310872 RMS     0.000112960
 Search for a local minimum.
 Step number   2 out of a maximum of   21
 All quantities printed in internal units (Hartrees-Bohrs-Radians)
 RMS Force = .11296D-03 SwitMx=.10000D-02 MixMth= 2
 Mixed Optimization -- En-DIIS/RFO-DIIS
 Swapping is turned off.
 Update second derivatives using D2CorX and points    1    2
 DE= -6.68D-06 DEPred=-5.85D-06 R= 1.14D+00
 TightC=F SS=  1.41D+00  RLast= 1.16D-02 DXNew= 5.0454D-01 3.4658D-02
 Trust test= 1.14D+00 RLast= 1.16D-02 DXMaxT set to 3.00D-01
 The second derivative matrix:
                          R1        R2        R3        R4        A1
           R1           0.45933
           R2          -0.00222   0.46637
           R3          -0.00914  -0.00739   0.52737
           R4          -0.00367  -0.00395  -0.02104   0.43575
           A1           0.00441   0.00258   0.01994   0.00942   0.15179
           A2           0.00168  -0.00398  -0.00469  -0.00011   0.00403
           A3           0.00053   0.00269   0.00827   0.00290  -0.00441
           A4          -0.00140   0.00240   0.00164  -0.00060  -0.00204
           D1           0.00545  -0.00022   0.01621   0.00910  -0.00523
           D2           0.00092  -0.00113   0.00003   0.00072   0.00070
           D3          -0.00339  -0.00041  -0.01143  -0.00607   0.00404
                          A2        A3        A4        D1        D2
           A2           0.17047
           A3          -0.00380   0.16049
           A4          -0.00709   0.00278   0.16476
           D1           0.01112  -0.00690  -0.00686   0.01203
           D2           0.00384  -0.00163  -0.00255   0.00331   0.02233
           D3          -0.00593   0.00406   0.00357  -0.00014  -0.00167
                          D3
           D3           0.02025
 ITU=  1  0
     Eigenvalues ---    0.01847   0.02416   0.14857   0.15997   0.17544
     Eigenvalues ---    0.42962   0.45910   0.46729   0.53400
 En-DIIS/RFO-DIIS/Sim-DIIS IScMMF=       -3 using points:     2    1
 RFO step:  Lambda=-1.18712287D-06.
 NNeg= 0 NGDIIS= 2 SimSw=  2.50D-03 Rises=F DC= -6.68D-06 SmlDif=  1.00D-05
 NRisDI= 0 DoIntr=F SqrtH=F CThrHd= 10.0 CDAdj=  3.0
 RMS Error=  0.2057206178D-02 NUsed= 2 OKEnD=F EnDIS=F
 InvSVX:  RCond= 3.33D-05 Info=           0 Equed=N FErr=  2.23D-15 BErr=  0.00D+00
 DidBck=F Rises=F RFO-DIIS coefs:    1.40635   -0.40635
 Iteration  1 RMS(Cart)=  0.00108087 RMS(Int)=  0.00000341
 Iteration  2 RMS(Cart)=  0.00000197 RMS(Int)=  0.00000265
 Iteration  3 RMS(Cart)=  0.00000000 RMS(Int)=  0.00000265
 ITry= 1 IFail=0 DXMaxC= 1.95D-03 DCOld= 1.00D+10 DXMaxT= 3.00D-01 DXLimC= 3.00D+00 Rises=F
 Variable       Old X    -DE/DX   Delta X   Delta X   Delta X     New X
                                 (Linear)    (Quad)   (Total)
    R1        1.90853   0.00004   0.00032  -0.00015   0.00017   1.90871
    R2        1.90107   0.00007   0.00005   0.00014   0.00018   1.90126
    R3        2.53301   0.00031   0.00089  -0.00009   0.00080   2.53381
    R4        1.92718   0.00013   0.00061  -0.00015   0.00045   1.92764
    A1        2.01001  -0.00005  -0.00114  -0.00014  -0.00129   2.00872
    A2        2.11095  -0.00002   0.00159  -0.00221  -0.00063   2.11032
    A3        1.99090   0.00003  -0.00111   0.00045  -0.00066   1.99024
    A4        1.85270   0.00004  -0.00095   0.00103   0.00008   1.85277
    D1        2.55381  -0.00008  -0.00044  -0.00367  -0.00411   2.54970
    D2        0.42076   0.00009   0.00336   0.00174   0.00510   0.42586
    D3        2.93722  -0.00001   0.00182  -0.00133   0.00048   2.93770
         Item               Value     Threshold  Converged?
 Maximum Force            0.000311     0.000450     YES
 RMS     Force            0.000113     0.000300     YES
 Maximum Displacement     0.001952     0.001800     NO 
 RMS     Displacement     0.001081     0.001200     YES
 Predicted change in Energy=-5.923901D-07
 Lowest energy point so far.  Saving SCF results.
 GradGradGradGradGradGradGradGradGradGradGradGradGradGradGradGradGradGrad

 Leave Link  103 at Wed Feb 19 14:50:55 2020, MaxMem=  1879048192 cpu:               0.3 elap:               0.0
 (Enter /opt/g16/l202.exe)
                          Input orientation:                          
 ---------------------------------------------------------------------
 Center     Atomic      Atomic             Coordinates (Angstroms)
 Number     Number       Type             X           Y           Z
 ---------------------------------------------------------------------
      1          7           0        0.591069    0.025761   -0.069309
      2          1           0        1.016772    0.903092    0.193859
      3          1           0        1.131311   -0.793779    0.151443
      4          7           0       -0.734537   -0.152319    0.024978
      5          1           0       -1.150167    0.777872   -0.025233
 ---------------------------------------------------------------------
                    Distance matrix (angstroms):
                    1          2          3          4          5
     1  N    0.000000
     2  H    1.010044   0.000000
     3  H    1.006101   1.701261   0.000000
     4  N    1.340834   2.051706   1.977082   0.000000
     5  H    1.897240   2.181584   2.776048   1.020061   0.000000
 Stoichiometry    H3N2(2)
 Framework group  C1[X(H3N2)]
 Deg. of freedom     9
 Full point group                 C1      NOp   1
 RotChk:  IX=0 Diff= 1.44D-03
 Largest Abelian subgroup         C1      NOp   1
 Largest concise Abelian subgroup C1      NOp   1
                         Standard orientation:                         
 ---------------------------------------------------------------------
 Center     Atomic      Atomic             Coordinates (Angstroms)
 Number     Number       Type             X           Y           Z
 ---------------------------------------------------------------------
      1          7           0        0.591620    0.024625   -0.068763
      2          1           0        1.018602    0.900617    0.196780
      3          1           0        1.129815   -0.796400    0.151471
      4          7           0       -0.734510   -0.150963    0.022794
      5          1           0       -1.148182    0.780151   -0.026471
 ---------------------------------------------------------------------
 Rotational constants (GHZ):         206.8132017          31.0627788          27.3642170
 Leave Link  202 at Wed Feb 19 14:50:55 2020, MaxMem=  1879048192 cpu:               0.1 elap:               0.0
 (Enter /opt/g16/l301.exe)
 Standard basis: def2TZVP (5D, 7F)
 Ernie: Thresh=  0.10000D-02 Tol=  0.10000D-05 Strict=F.
 There are    90 symmetry adapted cartesian basis functions of A   symmetry.
 There are    80 symmetry adapted basis functions of A   symmetry.
    80 basis functions,   126 primitive gaussians,    90 cartesian basis functions
     9 alpha electrons        8 beta electrons
       nuclear repulsion energy        36.6947581390 Hartrees.
 IExCor= 4639 DFT=T Ex+Corr=wB97XD ExCW=0 ScaHFX=  1.000000
 ScaDFX=  1.000000  1.000000  1.000000  1.000000 ScalE2=  1.000000  1.000000
 IRadAn=      5 IRanWt=     -1 IRanGd=            0 ICorTp=0 IEmpDi=121
 HFx  wShort=  0.000000 wLong=  0.200000 cFull=  0.222036 cShort=  0.000000 cLong=  0.777964
 DFx  wShort=  0.000000 wLong=  0.200000 cFull=  0.000000 cShort=  0.000000 cLong=  1.000000
 NAtoms=    5 NActive=    5 NUniq=    5 SFac= 1.00D+00 NAtFMM=   60 NAOKFM=F Big=F
 Integral buffers will be    131072 words long.
 Raffenetti 2 integral format.
 Two-electron integral symmetry is turned on.
 R6Disp:  Grimme-D2 Dispersion energy=       -0.0004462253 Hartrees.
 Nuclear repulsion after empirical dispersion term =       36.6943119137 Hartrees.
 Leave Link  301 at Wed Feb 19 14:50:55 2020, MaxMem=  1879048192 cpu:               0.5 elap:               0.1
 (Enter /opt/g16/l302.exe)
 NPDir=0 NMtPBC=     1 NCelOv=     1 NCel=       1 NClECP=     1 NCelD=      1
         NCelK=      1 NCelE2=     1 NClLst=     1 CellRange=     0.0.
 One-electron integrals computed using PRISM.
 One-electron integral symmetry used in STVInt
   1 Symmetry operations used in ECPInt.
 ECPInt:  NShTT=     595 NPrTT=    1764 LenC2=     595 LenP2D=    1624.
 LDataN:  DoStor=T MaxTD1= 6 Len=  172
 NBasis=    80 RedAO= T EigKep=  1.33D-03  NBF=    80
 NBsUse=    80 1.00D-06 EigRej= -1.00D+00 NBFU=    80
 Precomputing XC quadrature grid using
 IXCGrd= 4 IRadAn=           5 IRanWt=          -1 IRanGd=           0 AccXCQ= 0.00D+00.
 Generated NRdTot=       0 NPtTot=           0 NUsed=           0 NTot=          32
 NSgBfM=    90    90    90    90    90 MxSgAt=     5 MxSgA2=     5.
 Leave Link  302 at Wed Feb 19 14:50:55 2020, MaxMem=  1879048192 cpu:               1.5 elap:               0.2
 (Enter /opt/g16/l303.exe)
 DipDrv:  MaxL=1.
 Leave Link  303 at Wed Feb 19 14:50:55 2020, MaxMem=  1879048192 cpu:               0.4 elap:               0.1
 (Enter /opt/g16/l401.exe)
 Initial guess from the checkpoint file:  "check.chk"
 B after Tr=    -0.000000    0.000000   -0.000000
         Rot=    1.000000   -0.000063    0.000010   -0.000002 Ang=  -0.01 deg.
 Guess basis will be translated and rotated to current coordinates.
 JPrj=2 DoOrth=T DoCkMO=T.
 Initial guess <Sx>= 0.0000 <Sy>= 0.0000 <Sz>= 0.5000 <S**2>= 0.7546 S= 0.5023
 Leave Link  401 at Wed Feb 19 14:50:55 2020, MaxMem=  1879048192 cpu:               1.1 elap:               0.2
 (Enter /opt/g16/l502.exe)
 Keep R1 and R2 ints in memory in canonical form, NReq=28315865.
 FoFCou: FMM=F IPFlag=           0 FMFlag=           0 FMFlg1=           0
         NFxFlg=           0 DoJE=F BraDBF=F KetDBF=F FulRan=T
         wScrn=  0.000000 ICntrl=       600 IOpCl=  0 I1Cent=           0 NGrid=           0
         NMat0=    1 NMatS0=   3240 NMatT0=    0 NMatD0=    1 NMtDS0=    0 NMtDT0=    0
 Symmetry not used in FoFCou.
 Two-electron integral symmetry not used.
 UHF open shell SCF:
 Using DIIS extrapolation, IDIIS=  1040.
 NGot=  1879048192 LenX=  1858028627 LenY=  1858020086
 Requested convergence on RMS density matrix=1.00D-08 within  32 cycles.
 Requested convergence on MAX density matrix=1.00D-06.
 Requested convergence on             energy=1.00D-06.
 No special actions if energy rises.

 Cycle   1  Pass 1  IDiag  1:
 E= -111.239206716905    
 DIIS: error= 8.95D-05 at cycle   1 NSaved=   1.
 NSaved= 1 IEnMin= 1 EnMin= -111.239206716905     IErMin= 1 ErrMin= 8.95D-05
 ErrMax= 8.95D-05  0.00D+00 EMaxC= 1.00D-01 BMatC= 4.20D-06 BMatP= 4.20D-06
 IDIUse=1 WtCom= 1.00D+00 WtEn= 0.00D+00
 Coeff-Com:  0.100D+01
 Coeff:      0.100D+01
 Gap=     0.795 Goal=   None    Shift=    0.000
 Gap=     0.895 Goal=   None    Shift=    0.000
 RMSDP=1.32D-05 MaxDP=1.94D-04              OVMax= 4.82D-04

 Cycle   2  Pass 1  IDiag  1:
 E= -111.239207928288     Delta-E=       -0.000001211384 Rises=F Damp=F
 DIIS: error= 1.96D-05 at cycle   2 NSaved=   2.
 NSaved= 2 IEnMin= 2 EnMin= -111.239207928288     IErMin= 2 ErrMin= 1.96D-05
 ErrMax= 1.96D-05  0.00D+00 EMaxC= 1.00D-01 BMatC= 1.56D-07 BMatP= 4.20D-06
 IDIUse=1 WtCom= 1.00D+00 WtEn= 0.00D+00
 Coeff-Com: -0.110D+00 0.111D+01
 Coeff:     -0.110D+00 0.111D+01
 Gap=     0.371 Goal=   None    Shift=    0.000
 Gap=     0.401 Goal=   None    Shift=    0.000
 RMSDP=5.17D-06 MaxDP=8.71D-05 DE=-1.21D-06 OVMax= 1.91D-04

 Cycle   3  Pass 1  IDiag  1:
 E= -111.239208009905     Delta-E=       -0.000000081616 Rises=F Damp=F
 DIIS: error= 1.10D-05 at cycle   3 NSaved=   3.
 NSaved= 3 IEnMin= 3 EnMin= -111.239208009905     IErMin= 3 ErrMin= 1.10D-05
 ErrMax= 1.10D-05  0.00D+00 EMaxC= 1.00D-01 BMatC= 4.23D-08 BMatP= 1.56D-07
 IDIUse=1 WtCom= 1.00D+00 WtEn= 0.00D+00
 Coeff-Com: -0.600D-01 0.361D+00 0.699D+00
 Coeff:     -0.600D-01 0.361D+00 0.699D+00
 Gap=     0.371 Goal=   None    Shift=    0.000
 Gap=     0.401 Goal=   None    Shift=    0.000
 RMSDP=1.55D-06 MaxDP=2.60D-05 DE=-8.16D-08 OVMax= 5.72D-05

 Cycle   4  Pass 1  IDiag  1:
 E= -111.239208023723     Delta-E=       -0.000000013818 Rises=F Damp=F
 DIIS: error= 3.75D-06 at cycle   4 NSaved=   4.
 NSaved= 4 IEnMin= 4 EnMin= -111.239208023723     IErMin= 4 ErrMin= 3.75D-06
 ErrMax= 3.75D-06  0.00D+00 EMaxC= 1.00D-01 BMatC= 6.18D-09 BMatP= 4.23D-08
 IDIUse=1 WtCom= 1.00D+00 WtEn= 0.00D+00
 Coeff-Com:  0.167D-01-0.196D+00 0.837D-01 0.110D+01
 Coeff:      0.167D-01-0.196D+00 0.837D-01 0.110D+01
 Gap=     0.371 Goal=   None    Shift=    0.000
 Gap=     0.401 Goal=   None    Shift=    0.000
 RMSDP=1.40D-06 MaxDP=2.42D-05 DE=-1.38D-08 OVMax= 5.97D-05

 Cycle   5  Pass 1  IDiag  1:
 E= -111.239208028575     Delta-E=       -0.000000004852 Rises=F Damp=F
 DIIS: error= 2.32D-06 at cycle   5 NSaved=   5.
 NSaved= 5 IEnMin= 5 EnMin= -111.239208028575     IErMin= 5 ErrMin= 2.32D-06
 ErrMax= 2.32D-06  0.00D+00 EMaxC= 1.00D-01 BMatC= 8.44D-10 BMatP= 6.18D-09
 IDIUse=1 WtCom= 1.00D+00 WtEn= 0.00D+00
 Coeff-Com:  0.865D-02-0.714D-01-0.332D-01 0.216D+00 0.880D+00
 Coeff:      0.865D-02-0.714D-01-0.332D-01 0.216D+00 0.880D+00
 Gap=     0.371 Goal=   None    Shift=    0.000
 Gap=     0.401 Goal=   None    Shift=    0.000
 RMSDP=4.46D-07 MaxDP=7.04D-06 DE=-4.85D-09 OVMax= 2.68D-05

 Cycle   6  Pass 1  IDiag  1:
 E= -111.239208029362     Delta-E=       -0.000000000787 Rises=F Damp=F
 DIIS: error= 1.20D-06 at cycle   6 NSaved=   6.
 NSaved= 6 IEnMin= 6 EnMin= -111.239208029362     IErMin= 6 ErrMin= 1.20D-06
 ErrMax= 1.20D-06  0.00D+00 EMaxC= 1.00D-01 BMatC= 4.45D-10 BMatP= 8.44D-10
 IDIUse=1 WtCom= 1.00D+00 WtEn= 0.00D+00
 Coeff-Com: -0.262D-02 0.423D-01-0.453D-01-0.336D+00 0.400D+00 0.941D+00
 Coeff:     -0.262D-02 0.423D-01-0.453D-01-0.336D+00 0.400D+00 0.941D+00
 Gap=     0.371 Goal=   None    Shift=    0.000
 Gap=     0.401 Goal=   None    Shift=    0.000
 RMSDP=3.68D-07 MaxDP=5.82D-06 DE=-7.87D-10 OVMax= 2.41D-05

 Cycle   7  Pass 1  IDiag  1:
 E= -111.239208029737     Delta-E=       -0.000000000375 Rises=F Damp=F
 DIIS: error= 5.81D-07 at cycle   7 NSaved=   7.
 NSaved= 7 IEnMin= 7 EnMin= -111.239208029737     IErMin= 7 ErrMin= 5.81D-07
 ErrMax= 5.81D-07  0.00D+00 EMaxC= 1.00D-01 BMatC= 3.87D-11 BMatP= 4.45D-10
 IDIUse=1 WtCom= 1.00D+00 WtEn= 0.00D+00
 Coeff-Com: -0.210D-02 0.204D-01 0.174D-02-0.952D-01-0.116D+00 0.141D+00
 Coeff-Com:  0.105D+01
 Coeff:     -0.210D-02 0.204D-01 0.174D-02-0.952D-01-0.116D+00 0.141D+00
 Coeff:      0.105D+01
 Gap=     0.371 Goal=   None    Shift=    0.000
 Gap=     0.401 Goal=   None    Shift=    0.000
 RMSDP=1.34D-07 MaxDP=1.83D-06 DE=-3.75D-10 OVMax= 1.20D-05

 Cycle   8  Pass 1  IDiag  1:
 E= -111.239208029794     Delta-E=       -0.000000000057 Rises=F Damp=F
 DIIS: error= 2.26D-07 at cycle   8 NSaved=   8.
 NSaved= 8 IEnMin= 8 EnMin= -111.239208029794     IErMin= 8 ErrMin= 2.26D-07
 ErrMax= 2.26D-07  0.00D+00 EMaxC= 1.00D-01 BMatC= 5.55D-12 BMatP= 3.87D-11
 IDIUse=1 WtCom= 1.00D+00 WtEn= 0.00D+00
 Coeff-Com:  0.861D-03-0.107D-01 0.661D-02 0.702D-01-0.396D-01-0.173D+00
 Coeff-Com: -0.192D+00 0.134D+01
 Coeff:      0.861D-03-0.107D-01 0.661D-02 0.702D-01-0.396D-01-0.173D+00
 Coeff:     -0.192D+00 0.134D+01
 Gap=     0.371 Goal=   None    Shift=    0.000
 Gap=     0.401 Goal=   None    Shift=    0.000
 RMSDP=5.70D-08 MaxDP=8.14D-07 DE=-5.65D-11 OVMax= 5.26D-06

 Cycle   9  Pass 1  IDiag  1:
 E= -111.239208029804     Delta-E=       -0.000000000010 Rises=F Damp=F
 DIIS: error= 7.83D-08 at cycle   9 NSaved=   9.
 NSaved= 9 IEnMin= 9 EnMin= -111.239208029804     IErMin= 9 ErrMin= 7.83D-08
 ErrMax= 7.83D-08  0.00D+00 EMaxC= 1.00D-01 BMatC= 6.78D-13 BMatP= 5.55D-12
 IDIUse=1 WtCom= 1.00D+00 WtEn= 0.00D+00
 Coeff-Com:  0.518D-04 0.161D-03-0.229D-02-0.595D-02 0.260D-01 0.308D-01
 Coeff-Com: -0.776D-01-0.430D+00 0.146D+01
 Coeff:      0.518D-04 0.161D-03-0.229D-02-0.595D-02 0.260D-01 0.308D-01
 Coeff:     -0.776D-01-0.430D+00 0.146D+01
 Gap=     0.371 Goal=   None    Shift=    0.000
 Gap=     0.401 Goal=   None    Shift=    0.000
 RMSDP=2.76D-08 MaxDP=4.55D-07 DE=-1.04D-11 OVMax= 1.93D-06

 Cycle  10  Pass 1  IDiag  1:
 E= -111.239208029806     Delta-E=       -0.000000000001 Rises=F Damp=F
 DIIS: error= 1.67D-08 at cycle  10 NSaved=  10.
 NSaved=10 IEnMin=10 EnMin= -111.239208029806     IErMin=10 ErrMin= 1.67D-08
 ErrMax= 1.67D-08  0.00D+00 EMaxC= 1.00D-01 BMatC= 5.56D-14 BMatP= 6.78D-13
 IDIUse=1 WtCom= 1.00D+00 WtEn= 0.00D+00
 Coeff-Com: -0.966D-04 0.112D-02-0.414D-03-0.652D-02 0.326D-03 0.163D-01
 Coeff-Com:  0.285D-01-0.101D+00-0.172D+00 0.123D+01
 Coeff:     -0.966D-04 0.112D-02-0.414D-03-0.652D-02 0.326D-03 0.163D-01
 Coeff:      0.285D-01-0.101D+00-0.172D+00 0.123D+01
 Gap=     0.371 Goal=   None    Shift=    0.000
 Gap=     0.401 Goal=   None    Shift=    0.000
 RMSDP=8.34D-09 MaxDP=1.61D-07 DE=-1.36D-12 OVMax= 4.68D-07

 SCF Done:  E(UwB97XD) =  -111.239208030     A.U. after   10 cycles
            NFock= 10  Conv=0.83D-08     -V/T= 2.0041
 <Sx>= 0.0000 <Sy>= 0.0000 <Sz>= 0.5000 <S**2>= 0.7546 S= 0.5023
 <L.S>= 0.000000000000E+00
 KE= 1.107842489155D+02 PE=-3.337673593349D+02 EE= 7.504959047585D+01
 Annihilation of the first spin contaminant:
 S**2 before annihilation     0.7546,   after     0.7500
 Leave Link  502 at Wed Feb 19 14:51:00 2020, MaxMem=  1879048192 cpu:              37.1 elap:               4.8
 (Enter /opt/g16/l508.exe)
 QCSCF skips out because SCF is already converged.
 Leave Link  508 at Wed Feb 19 14:51:00 2020, MaxMem=  1879048192 cpu:               0.2 elap:               0.0
 (Enter /opt/g16/l701.exe)
 ... and contract with generalized density number  0.
 Compute integral first derivatives.
 R6Disp: Adding Grimme-D2 dispersion energy 1st derivatives to the gradient.
   1 Symmetry operations used in ECPInt.
 ECPInt:  NShTT=     595 NPrTT=    1764 LenC2=     595 LenP2D=    1624.
 LDataN:  DoStor=T MaxTD1= 7 Len=  274
 Leave Link  701 at Wed Feb 19 14:51:00 2020, MaxMem=  1879048192 cpu:               1.4 elap:               0.2
 (Enter /opt/g16/l702.exe)
 L702 exits ... SP integral derivatives will be done elsewhere.
 Leave Link  702 at Wed Feb 19 14:51:00 2020, MaxMem=  1879048192 cpu:               0.5 elap:               0.1
 (Enter /opt/g16/l703.exe)
 Integral derivatives from FoFJK, PRISM(SPDF).
 Compute integral first derivatives, UseDBF=F ICtDFT=           0.
 Calling FoFJK, ICntrl=      2127 FMM=F ISym2X=0 I1Cent= 0 IOpClX= 1 NMat=1 NMatS=1 NMatT=0.
 FoFJK:  IHMeth= 1 ICntrl=    2127 DoSepK=T KAlg= 0 I1Cent=           0 FoldK=F
 IRaf=         1 NMat=       1 IRICut=       1 DoRegI=T DoRafI=F ISym2E= 0 IDoP0=0 IntGTp=1.
 FoFCou: FMM=F IPFlag=           0 FMFlag=      100000 FMFlg1=         800
         NFxFlg=           0 DoJE=F BraDBF=F KetDBF=F FulRan=T
         wScrn=  0.000000 ICntrl=      2527 IOpCl=  0 I1Cent=           0 NGrid=           0
[...]
 Internal  Forces:  Max     0.000103093 RMS     0.000040544
 Search for a local minimum.
 Step number   4 out of a maximum of   21
 All quantities printed in internal units (Hartrees-Bohrs-Radians)
 RMS Force = .40544D-04 SwitMx=.10000D-02 MixMth= 2
 Mixed Optimization -- En-DIIS/RFO-DIIS
 Swapping is turned off.
 Update second derivatives using D2CorX and points    1    2    3    4
 DE= -3.15D-07 DEPred=-2.97D-07 R= 1.06D+00
 Trust test= 1.06D+00 RLast= 7.70D-03 DXMaxT set to 3.00D-01
 The second derivative matrix:
                          R1        R2        R3        R4        A1
           R1           0.45713
           R2          -0.00485   0.46378
           R3          -0.01623  -0.00955   0.56149
           R4          -0.00377  -0.00105   0.01350   0.46077
           A1           0.01079   0.00993   0.03878   0.01187   0.13486
           A2           0.01024   0.00878   0.04052   0.01719  -0.01986
           A3           0.00461   0.01034   0.03934   0.01404  -0.01838
           A4          -0.00424   0.00563   0.01619   0.00206  -0.00734
           D1           0.00524  -0.00007   0.01022   0.00285  -0.00765
           D2          -0.00159  -0.00444  -0.00091   0.00687   0.01073
           D3          -0.00249   0.00176  -0.00296  -0.00313   0.00010
                          A2        A3        A4        D1        D2
           A2           0.14111
           A3          -0.01894   0.15659
           A4          -0.01611   0.01229   0.20283
           D1           0.00354  -0.00891  -0.00107   0.01464
           D2           0.02298   0.00691  -0.00609   0.00150   0.01995
           D3          -0.01073   0.00327   0.00725  -0.00048   0.00053
                          D3
           D3           0.02011
 ITU=  0  0  1  0
     Eigenvalues ---    0.00905   0.02230   0.15152   0.16085   0.21235
     Eigenvalues ---    0.45161   0.45921   0.46671   0.56841
 En-DIIS/RFO-DIIS/Sim-DIIS IScMMF=       -3 using points:     4    3    2    1
 RFO step:  Lambda=-8.80656897D-08.
 NNeg= 0 NGDIIS= 4 SimSw=  2.50D-01 Rises=F DC= -3.15D-07 SmlDif=  1.00D-05
 NRisDI= 0 DoIntr=F SqrtH=F CThrHd= 10.0 CDAdj=  3.0
 RMS Error=  0.3355749244D-03 NUsed= 4 OKEnD=F EnDIS=F
 InvSVX:  RCond= 1.23D-07 Info=           0 Equed=N FErr=  1.34D-13 BErr=  6.06D-17
 DidBck=F Rises=F RFO-DIIS coefs:    1.01472    0.18247   -0.31229    0.11510
 Iteration  1 RMS(Cart)=  0.00024224 RMS(Int)=  0.00000122
 Iteration  2 RMS(Cart)=  0.00000008 RMS(Int)=  0.00000122
 ITry= 1 IFail=0 DXMaxC= 3.97D-04 DCOld= 1.00D+10 DXMaxT= 3.00D-01 DXLimC= 3.00D+00 Rises=F
 Variable       Old X    -DE/DX   Delta X   Delta X   Delta X     New X
                                 (Linear)    (Quad)   (Total)
    R1        1.90890   0.00000  -0.00005   0.00008   0.00002   1.90892
    R2        1.90141   0.00002   0.00003   0.00002   0.00004   1.90145
    R3        2.53416  -0.00001  -0.00009   0.00006  -0.00003   2.53413
    R4        1.92770  -0.00005  -0.00008  -0.00006  -0.00014   1.92755
    A1        2.00757   0.00001   0.00005  -0.00010  -0.00005   2.00752
    A2        2.10906  -0.00005  -0.00059   0.00015  -0.00044   2.10862
    A3        1.98916   0.00004   0.00017  -0.00010   0.00007   1.98923
    A4        1.85202   0.00010   0.00027   0.00021   0.00048   1.85251
    D1        2.54406  -0.00002  -0.00077  -0.00001  -0.00078   2.54328
    D2        0.43042  -0.00001   0.00012  -0.00005   0.00007   0.43049
    D3        2.93632  -0.00000  -0.00044  -0.00017  -0.00061   2.93571
         Item               Value     Threshold  Converged?
 Maximum Force            0.000103     0.000450     YES
 RMS     Force            0.000041     0.000300     YES
 Maximum Displacement     0.000397     0.001800     YES
 RMS     Displacement     0.000242     0.001200     YES
 Predicted change in Energy=-4.238305D-08
 Optimization completed.
    -- Stationary point found.
                           ----------------------------
                           !   Optimized Parameters   !
                           ! (Angstroms and Degrees)  !
 --------------------------                            --------------------------
 ! Name  Definition              Value          Derivative Info.                !
 --------------------------------------------------------------------------------
 ! R1    R(1,2)                  1.0101         -DE/DX =    0.0                 !
 ! R2    R(1,3)                  1.0062         -DE/DX =    0.0                 !
 ! R3    R(1,4)                  1.341          -DE/DX =    0.0                 !
 ! R4    R(4,5)                  1.0201         -DE/DX =   -0.0001              !
 ! A1    A(2,1,3)              115.0255         -DE/DX =    0.0                 !
 ! A2    A(2,1,4)              120.8401         -DE/DX =    0.0                 !
 ! A3    A(3,1,4)              113.9707         -DE/DX =    0.0                 !
 ! A4    A(1,4,5)              106.1131         -DE/DX =    0.0001              !
 ! D1    D(2,1,3,4)            145.7639         -DE/DX =    0.0                 !
 ! D2    D(2,1,4,5)             24.6614         -DE/DX =    0.0                 !
 ! D3    D(3,1,4,5)            168.2385         -DE/DX =    0.0                 !
 --------------------------------------------------------------------------------
 Lowest energy point so far.  Saving SCF results.
 Largest change from initial coordinates is atom    2       0.005 Angstoms.
 GradGradGradGradGradGradGradGradGradGradGradGradGradGradGradGradGradGrad

 Leave Link  103 at Wed Feb 19 14:51:10 2020, MaxMem=  1879048192 cpu:               0.3 elap:               0.0
 (Enter /opt/g16/l202.exe)
                          Input orientation:                          
 ---------------------------------------------------------------------
 Center     Atomic      Atomic             Coordinates (Angstroms)
 Number     Number       Type             X           Y           Z
 ---------------------------------------------------------------------
      1          7           0        0.591154    0.025826   -0.070808
      2          1           0        1.016370    0.902870    0.194481
      3          1           0        1.131080   -0.793517    0.151816
      4          7           0       -0.734458   -0.152454    0.025657
      5          1           0       -1.149698    0.777901   -0.025408
 ---------------------------------------------------------------------
                    Distance matrix (angstroms):
                    1          2          3          4          5
     1  N    0.000000
     2  H    1.010145   0.000000
     3  H    1.006183   1.700796   0.000000
     4  N    1.341021   2.051246   1.976641   0.000000
     5  H    1.896904   2.180785   2.775376   1.020094   0.000000
 Stoichiometry    H3N2(2)
 Framework group  C1[X(H3N2)]
 Deg. of freedom     9
 Full point group                 C1      NOp   1
 RotChk:  IX=0 Diff= 8.93D-16
 Largest Abelian subgroup         C1      NOp   1
 Largest concise Abelian subgroup C1      NOp   1
                         Standard orientation:                         
 ---------------------------------------------------------------------
 Center     Atomic      Atomic             Coordinates (Angstroms)
 Number     Number       Type             X           Y           Z
 ---------------------------------------------------------------------
      1          7           0        0.591714    0.024658   -0.069440
      2          1           0        1.018101    0.900182    0.198974
      3          1           0        1.129271   -0.796349    0.152787
      4          7           0       -0.734535   -0.150976    0.023050
      5          1           0       -1.147631    0.780386   -0.027032
 ---------------------------------------------------------------------
 Rotational constants (GHZ):         206.6401984          31.0602817          27.3666464
 Leave Link  202 at Wed Feb 19 14:51:10 2020, MaxMem=  1879048192 cpu:               0.1 elap:               0.0
 (Enter /opt/g16/l601.exe)
 Copying SCF densities to generalized density rwf, IOpCl= 1 IROHF=0.

 **********************************************************************

            Population analysis using the SCF Density.

 **********************************************************************

 Orbital symmetries:
 Alpha Orbitals:
       Occupied  (A) (A) (A) (A) (A) (A) (A) (A) (A)
       Virtual   (A) (A) (A) (A) (A) (A) (A) (A) (A) (A) (A) (A)
                 (A) (A) (A) (A) (A) (A) (A) (A) (A) (A) (A) (A)
                 (A) (A) (A) (A) (A) (A) (A) (A) (A) (A) (A) (A)
                 (A) (A) (A) (A) (A) (A) (A) (A) (A) (A) (A) (A)
                 (A) (A) (A) (A) (A) (A) (A) (A) (A) (A) (A) (A)
                 (A) (A) (A) (A) (A) (A) (A) (A) (A) (A) (A)
 Beta  Orbitals:
       Occupied  (A) (A) (A) (A) (A) (A) (A) (A)
       Virtual   (A) (A) (A) (A) (A) (A) (A) (A) (A) (A) (A) (A)
                 (A) (A) (A) (A) (A) (A) (A) (A) (A) (A) (A) (A)
                 (A) (A) (A) (A) (A) (A) (A) (A) (A) (A) (A) (A)
                 (A) (A) (A) (A) (A) (A) (A) (A) (A) (A) (A) (A)
                 (A) (A) (A) (A) (A) (A) (A) (A) (A) (A) (A) (A)
                 (A) (A) (A) (A) (A) (A) (A) (A) (A) (A) (A) (A)
 The electronic state is 2-A.
 Alpha  occ. eigenvalues --  -14.47853 -14.43961  -1.08834  -0.83643  -0.64462
 Alpha  occ. eigenvalues --   -0.56265  -0.48108  -0.38132  -0.26845
 Alpha virt. eigenvalues --    0.10262   0.14176   0.17698   0.31655   0.38104
 Alpha virt. eigenvalues --    0.40685   0.44092   0.44858   0.48627   0.49201
 Alpha virt. eigenvalues --    0.51496   0.54542   0.57934   0.60996   0.65823
 Alpha virt. eigenvalues --    0.92470   1.03038   1.10297   1.22306   1.30215
 Alpha virt. eigenvalues --    1.41873   1.43990   1.47369   1.61924   1.66357
 Alpha virt. eigenvalues --    1.74322   1.91478   1.93229   1.94500   2.05607
 Alpha virt. eigenvalues --    2.06466   2.10351   2.14413   2.17075   2.21777
 Alpha virt. eigenvalues --    2.36956   2.42637   2.57359   2.58647   2.67848
 Alpha virt. eigenvalues --    2.79827   3.09028   3.14849   3.22100   3.56836
 Alpha virt. eigenvalues --    3.68206   3.89104   3.95635   4.03411   4.12600
 Alpha virt. eigenvalues --    4.32927   4.47101   4.60593   4.64334   4.68236
 Alpha virt. eigenvalues --    4.71687   4.72659   4.73948   4.83218   4.90508
 Alpha virt. eigenvalues --    5.01392   5.03669   5.32758   5.35637   5.59001
 Alpha virt. eigenvalues --    5.67605   5.81620   5.94125   6.82764  31.67860
 Alpha virt. eigenvalues --   31.76641
  Beta  occ. eigenvalues --  -14.47281 -14.42602  -1.06579  -0.80531  -0.63686
  Beta  occ. eigenvalues --   -0.54974  -0.41539  -0.35930
  Beta virt. eigenvalues --    0.04181   0.10561   0.14504   0.17991   0.32668
  Beta virt. eigenvalues --    0.38175   0.41943   0.44493   0.45250   0.49540
  Beta virt. eigenvalues --    0.51799   0.52049   0.55395   0.58422   0.61773
  Beta virt. eigenvalues --    0.66562   0.93647   1.05324   1.12364   1.23348
  Beta virt. eigenvalues --    1.31006   1.43224   1.44866   1.48168   1.64216
  Beta virt. eigenvalues --    1.68034   1.74561   1.92322   1.94490   1.95284
  Beta virt. eigenvalues --    2.06389   2.07017   2.13066   2.15973   2.19302
  Beta virt. eigenvalues --    2.22588   2.39226   2.45081   2.58156   2.59281
  Beta virt. eigenvalues --    2.68611   2.80646   3.09880   3.16387   3.23402
  Beta virt. eigenvalues --    3.58732   3.70848   3.92216   3.97515   4.06123
  Beta virt. eigenvalues --    4.14129   4.36954   4.49626   4.63376   4.67112
  Beta virt. eigenvalues --    4.70585   4.74677   4.76175   4.77017   4.87312
  Beta virt. eigenvalues --    4.93543   5.03302   5.05465   5.34407   5.37074
  Beta virt. eigenvalues --    5.60253   5.70651   5.82701   5.94878   6.84362
  Beta virt. eigenvalues --   31.69576  31.77371
          Condensed to atoms (all electrons):
               1          2          3          4          5
     1  N    6.444323   0.359774   0.381444   0.173768  -0.031250
     2  H    0.359774   0.489185  -0.042241  -0.019652  -0.021554
     3  H    0.381444  -0.042241   0.448073  -0.051375   0.009833
     4  N    0.173768  -0.019652  -0.051375   6.957599   0.296881
     5  H   -0.031250  -0.021554   0.009833   0.296881   0.549563
          Atomic-Atomic Spin Densities.
               1          2          3          4          5
     1  N    0.481725  -0.002905  -0.001025  -0.215872   0.003169
     2  H   -0.002905   0.002437   0.003639  -0.004982   0.001098
     3  H   -0.001025   0.003639  -0.003675  -0.003176  -0.000375
     4  N   -0.215872  -0.004982  -0.003176   0.985241  -0.000733
     5  H    0.003169   0.001098  -0.000375  -0.000733  -0.023407
 Mulliken charges and spin densities:
               1          2
     1  N   -0.328059   0.265092
     2  H    0.234489  -0.000712
     3  H    0.254266  -0.004611
     4  N   -0.357221   0.760479
     5  H    0.196526  -0.020247
 Sum of Mulliken charges =   0.00000   1.00000
 Mulliken charges and spin densities with hydrogens summed into heavy atoms:
               1          2
     1  N    0.160695   0.259769
     4  N   -0.160695   0.740231
 Electronic spatial extent (au):  <R**2>=             70.7362
 Charge=              0.0000 electrons
 Dipole moment (field-independent basis, Debye):
    X=              2.0268    Y=              1.6716    Z=              0.6482  Tot=              2.7060
 Quadrupole moment (field-independent basis, Debye-Ang):
   XX=            -11.6206   YY=            -10.7829   ZZ=            -14.2603
   XY=             -2.2622   XZ=              0.9752   YZ=              0.1113
 Traceless Quadrupole moment (field-independent basis, Debye-Ang):
   XX=              0.6007   YY=              1.4384   ZZ=             -2.0390
   XY=             -2.2622   XZ=              0.9752   YZ=              0.1113
 Octapole moment (field-independent basis, Debye-Ang**2):
  XXX=              4.3434  YYY=              2.3801  ZZZ=              0.5681  XYY=              2.8417
  XXY=              2.4241  XXZ=              0.9012  XZZ=              0.4022  YZZ=              0.4536
  YYZ=              0.5464  XYZ=              0.0976
 Hexadecapole moment (field-independent basis, Debye-Ang**3):
 XXXX=            -51.8129 YYYY=            -17.1153 ZZZZ=            -14.4668 XXXY=             -4.5833
 XXXZ=              1.5645 YYYX=             -2.6422 YYYZ=              0.1685 ZZZX=              0.8484
 ZZZY=              0.1033 XXYY=             -9.7221 XXZZ=            -12.5863 YYZZ=             -5.6658
 XXYZ=              0.0382 YYXZ=              0.7545 ZZXY=             -0.6522
 N-N= 3.669221403363D+01 E-N=-3.337628323961D+02  KE= 1.107842004296D+02
                          Isotropic Fermi Contact Couplings
        Atom                 a.u.       MegaHertz       Gauss      10(-4) cm-1
     1  N(14)              0.07389      23.87350       8.51866       7.96334
     2  H(1)               0.00079       3.52794       1.25886       1.17679
     3  H(1)              -0.00222      -9.93574      -3.54532      -3.31421
     4  N(14)              0.08355      26.99527       9.63258       9.00465
     5  H(1)              -0.01055     -47.14213     -16.82149     -15.72492
 --------------------------------------------------------
       Center         ----  Spin Dipole Couplings  ----
                      3XX-RR        3YY-RR        3ZZ-RR
 --------------------------------------------------------
     1   Atom       -0.360207     -0.395354      0.755561
     2   Atom       -0.014626      0.024958     -0.010332
     3   Atom       -0.002459      0.013843     -0.011384
     4   Atom       -0.932902     -0.908790      1.841692
     5   Atom       -0.050443      0.065169     -0.014726
 --------------------------------------------------------
                        XY            XZ            YZ
 --------------------------------------------------------
     1   Atom        0.008890     -0.141404     -0.041113
     2   Atom        0.036676      0.005010      0.008653
     3   Atom       -0.039685      0.005119     -0.008743
     4   Atom       -0.019108      0.008826      0.105705
     5   Atom       -0.068349      0.002292     -0.000668
 --------------------------------------------------------


 ---------------------------------------------------------------------------------
              Anisotropic Spin Dipole Couplings in Principal Axis System
 ---------------------------------------------------------------------------------

       Atom             a.u.   MegaHertz   Gauss  10(-4) cm-1        Axes

              Baa    -0.3976   -15.333    -5.471    -5.115 -0.1888  0.9819  0.0119
     1 N(14)  Bbb    -0.3771   -14.546    -5.190    -4.852  0.9742  0.1858  0.1284
              Bcc     0.7747    29.879    10.661     9.966 -0.1238 -0.0358  0.9917
 
              Baa    -0.0365   -19.480    -6.951    -6.498  0.8584 -0.5129  0.0052
     2 H(1)   Bbb    -0.0120    -6.418    -2.290    -2.141 -0.0903 -0.1411  0.9859
              Bcc     0.0485    25.898     9.241     8.639  0.5049  0.8468  0.1674
 
              Baa    -0.0349   -18.637    -6.650    -6.217  0.7676  0.6371  0.0697
     3 H(1)   Bbb    -0.0130    -6.918    -2.469    -2.308 -0.1595  0.0846  0.9836
              Bcc     0.0479    25.555     9.119     8.524 -0.6207  0.7661 -0.1666
 
              Baa    -0.9448   -36.437   -13.002   -12.154  0.8541  0.5196 -0.0224
     4 N(14)  Bbb    -0.9010   -34.750   -12.400   -11.591 -0.5201  0.8535 -0.0312
              Bcc     1.8458    71.187    25.401    23.746  0.0029  0.0383  0.9993
 
              Baa    -0.0822   -43.858   -15.650   -14.630  0.9069  0.4205 -0.0266
     5 H(1)   Bbb    -0.0147    -7.843    -2.799    -2.616  0.0182  0.0240  0.9995
              Bcc     0.0969    51.702    18.448    17.246 -0.4209  0.9070 -0.0141
 

 ---------------------------------------------------------------------------------

 No NMR shielding tensors so no spin-rotation constants.
 Leave Link  601 at Wed Feb 19 14:51:11 2020, MaxMem=  1879048192 cpu:               2.1 elap:               0.3
 (Enter /opt/g16/l9999.exe)

 Test job not archived.
 1\1\GINC-NODE06\FOpt\UwB97XD\def2TZVP\H3N2(2)\ALONGD\19-Feb-2020\0\\#P
  opt guess=mix uwb97xd/def2tzvp scf=xqc iop(2/9=2000)\\name\\0,2\N,0.5
 91154114,0.0258263937,-0.0708075904\H,1.0163702159,0.9028699326,0.1944
 814091\H,1.131079863,-0.7935170176,0.1518162855\N,-0.7344584772,-0.152
 4542326,0.0256565409\H,-1.1496983157,0.7779005138,-0.0254079551\\Versi
 on=ES64L-G16RevB.01\State=2-A\HF=-111.2392083\S2=0.754588\S2-1=0.\S2A=
 0.750014\RMSD=6.473e-09\RMSF=4.981e-05\Dipole=0.79666,0.6599524,0.2513
 833\Quadrupole=0.4577322,1.0625025,-1.5202346,-1.6813499,0.7233236,0.0
 830386\PG=C01 [X(H3N2)]\\@


 I WOULD TAKE COUNSEL OF MYSELF.
 I WOULD STOP AND LOOK WITHIN
 AND LOOKING WITHIN, LOOK BACK, ALSO
 THAT I MAY LOOK AHEAD WITH CLEARER UNDERSTANDING
 OF THE WAY I HAVE BEEN MOVING, AND IN WHAT DIRECTION.
 I NEED TO KNOW IF I AM GOING FORWARD OR RETREATING,
 WHETHER I HAVE BEEN WASTING, OR ENJOYING
 THE PRECIOUS MOMENTS OF LIFE.  THERE HAVE BEEN FRICTIONS,
 ANNOYANCES AND SOMETIMES WRATH,
 BUT WERE THEY BECAUSE I WAS RIGHT AND OTHERS WRONG.....
 HAVE I HAD MY THOUGHTS TOO SHARPLY FOCUSED
 ON THAT WHICH PLEASED ME, SERVED MY SELF-ESTEEM,
 UNDERGIRDED MY SECURITY,
 OF WHICH I DID NOT INQUIRE WHETHER IT SERVED OR HAMPERED OTHERS.....
 HAVE I BEEN TRYING TO STOP THE CLOCK
 TO HOLD THE WORLD
 IN PERPETUATION OF WHAT WAS AN IS ALREADY SLIPPING AWAY.....
 HAVE I BEEN CRITICAL OF OTHERS FOR WHAT REALLY NEEDED CHANGING IN ME...
 LET ME INDEED TAKE COUNSEL OF MYSELF
 AND SET MY DIRECTIONS STRAIGHT.

                          R.T. WESTON AS ADAPTED BY D. OSBORN 1967
 Job cpu time:       0 days  0 hours  4 minutes 29.3 seconds.
 Elapsed time:       0 days  0 hours  0 minutes 34.7 seconds.
 File lengths (MBytes):  RWF=     10 Int=      0 D2E=      0 Chk=      2 Scr=      1
 Normal termination of Gaussian 16 at Wed Feb 19 14:51:11 2020.
