 Entering Gaussian System, Link 0=g16
 Initial command:
 /opt/g16/l1.exe "/scratch/alongd/g16/a33755-33017/Gau-18018.inp" -scrdir="/scratch/alongd/g16/a33755-33017/"
 Entering Link 1 = /opt/g16/l1.exe PID=     18020.
  
 Copyright (c) 1988-2017, Gaussian, Inc.  All Rights Reserved.
  
 This is part of the Gaussian(R) 16 program.  It is based on
 the Gaussian(R) 09 system (copyright 2009, Gaussian, Inc.),
 the Gaussian(R) 03 system (copyright 2003, Gaussian, Inc.),
 the Gaussian(R) 98 system (copyright 1998, Gaussian, Inc.),
 the Gaussian(R) 94 system (copyright 1995, Gaussian, Inc.),
 the Gaussian 92(TM) system (copyright 1992, Gaussian, Inc.),
 the Gaussian 90(TM) system (copyright 1990, Gaussian, Inc.),
 the Gaussian 88(TM) system (copyright 1988, Gaussian, Inc.),
 the Gaussian 86(TM) system (copyright 1986, Carnegie Mellon
 University), and the Gaussian 82(TM) system (copyright 1983,
 Carnegie Mellon University). Gaussian is a federally registered
 trademark of Gaussian, Inc.
  
 This software contains proprietary and confidential information,
 including trade secrets, belonging to Gaussian, Inc.
  
 This software is provided under written license and may be
 used, copied, transmitted, or stored only in accord with that
 written license.
  
 The following legend is applicable only to US Government
 contracts under FAR:
  
                    RESTRICTED RIGHTS LEGEND
  
 Use, reproduction and disclosure by the US Government is
 subject to restrictions as set forth in subparagraphs (a)
 and (c) of the Commercial Computer Software - Restricted
 Rights clause in FAR 52.227-19.
  
 Gaussian, Inc.
 340 Quinnipiac St., Bldg. 40, Wallingford CT 06492
  
  
 ---------------------------------------------------------------
 Warning -- This program may not be used in any manner that
 competes with the business of Gaussian, Inc. or will provide
 assistance to any competitor of Gaussian, Inc.  The licensee
 of this program is prohibited from giving any competitor of
 Gaussian, Inc. access to this program.  By using this program,
 the user acknowledges that Gaussian, Inc. is engaged in the
 business of creating and licensing software in the field of
 computational chemistry and represents and warrants to the
 licensee that it is not a competitor of Gaussian, Inc. and that
 it will not use this program in any manner prohibited above.
 ---------------------------------------------------------------
  

 Cite this work as:
 Gaussian 16, Revision B.01,
 M. J. Frisch, G. W. Trucks, H. B. Schlegel, G. E. Scuseria, 
 M. A. Robb, J. R. Cheeseman, G. Scalmani, V. Barone, 
 G. A. Petersson, H. Nakatsuji, X. Li, M. Caricato, A. V. Marenich, 
 J. Bloino, B. G. Janesko, R. Gomperts, B. Mennucci, H. P. Hratchian, 
 J. V. Ortiz, A. F. Izmaylov, J. L. Sonnenberg, D. Williams-Young, 
 F. Ding, F. Lipparini, F. Egidi, J. Goings, B. Peng, A. Petrone, 
 T. Henderson, D. Ranasinghe, V. G. Zakrzewski, J. Gao, N. Rega, 
 G. Zheng, W. Liang, M. Hada, M. Ehara, K. Toyota, R. Fukuda, 
 J. Hasegawa, M. Ishida, T. Nakajima, Y. Honda, O. Kitao, H. Nakai, 
 T. Vreven, K. Throssell, J. A. Montgomery, Jr., J. E. Peralta, 
 F. Ogliaro, M. J. Bearpark, J. J. Heyd, E. N. Brothers, K. N. Kudin, 
 V. N. Staroverov, T. A. Keith, R. Kobayashi, J. Normand, 
 K. Raghavachari, A. P. Rendell, J. C. Burant, S. S. Iyengar, 
 J. Tomasi, M. Cossi, J. M. Millam, M. Klene, C. Adamo, R. Cammi, 
 J. W. Ochterski, R. L. Martin, K. Morokuma, O. Farkas, 
 J. B. Foresman, and D. J. Fox, Gaussian, Inc., Wallingford CT, 2016.
 
 ******************************************
 Gaussian 16:  ES64L-G16RevB.01 20-Dec-2017
                19-Feb-2020 
 ******************************************
 %chk=check.chk
 %mem=14336mb
 %NProcShared=8
 Will use up to    8 processors via shared memory.
 ----------------------------------------------------------------------
 #P guess=read uwb97xd/def2tzvp freq iop(7/33=1) scf=(tight, direct) in
 tegral=(grid=ultrafine, Acc2E=12) scf=xqc iop(2/9=2000)
 ----------------------------------------------------------------------
 1/10=4,30=1,38=1/1,3;
 2/9=2000,12=2,17=6,18=5,40=1/2;
 3/5=44,7=101,11=2,25=1,27=12,30=1,71=2,74=-58,75=-5,116=2,140=1/1,2,3;
 4/5=1/1;
 5/5=2,8=3,13=1,32=2,38=6,87=12,98=1/2,8;
 8/6=4,10=90,11=11,87=12/1;
 11/6=1,8=1,9=11,15=111,16=1,87=12/1,2,10;
 10/6=1,87=12/2;
 6/7=2,8=2,9=2,10=2,28=1,87=12/1;
 7/8=1,10=1,25=1,33=1,87=12/1,2,3,16;
 1/10=4,30=1/3;
 99//99;
 Leave Link    1 at Wed Feb 19 14:51:35 2020, MaxMem=  1879048192 cpu:               0.8 elap:               0.1
 (Enter /opt/g16/l101.exe)
 ----
 name
 ----
 Symbolic Z-matrix:
 Charge =  0 Multiplicity = 2
 N                     0.59115   0.02583  -0.07081 
 H                     1.01637   0.90287   0.19448 
 H                     1.13108  -0.79352   0.15182 
 N                    -0.73446  -0.15245   0.02566 
 H                    -1.1497    0.7779   -0.02541 
 
 ITRead=  0  0  0  0  0
 MicOpt= -1 -1 -1 -1 -1
 NAtoms=      5 NQM=        5 NQMF=       0 NMMI=      0 NMMIF=      0
                NMic=       0 NMicF=      0.
                    Isotopes and Nuclear Properties:
 (Nuclear quadrupole moments (NQMom) in fm**2, nuclear magnetic moments (NMagM)
  in nuclear magnetons)

  Atom         1           2           3           4           5
 IAtWgt=          14           1           1          14           1
 AtmWgt=  14.0030740   1.0078250   1.0078250  14.0030740   1.0078250
 NucSpn=           2           1           1           2           1
 AtZEff=  -0.0000000  -0.0000000  -0.0000000  -0.0000000  -0.0000000
 NQMom=    2.0440000   0.0000000   0.0000000   2.0440000   0.0000000
 NMagM=    0.4037610   2.7928460   2.7928460   0.4037610   2.7928460
 AtZNuc=   7.0000000   1.0000000   1.0000000   7.0000000   1.0000000
 Leave Link  101 at Wed Feb 19 14:51:35 2020, MaxMem=  1879048192 cpu:               2.0 elap:               0.3
 (Enter /opt/g16/l103.exe)

 GradGradGradGradGradGradGradGradGradGradGradGradGradGradGradGradGradGrad
 Berny optimization.
 Initialization pass.
 Trust Radius=3.00D-01 FncErr=1.00D-07 GrdErr=1.00D-07 EigMax=2.50D+02 EigMin=1.00D-04
 Number of steps in this run=      2 maximum allowed number of steps=      2.
 GradGradGradGradGradGradGradGradGradGradGradGradGradGradGradGradGradGrad

 Leave Link  103 at Wed Feb 19 14:51:35 2020, MaxMem=  1879048192 cpu:               0.3 elap:               0.0
 (Enter /opt/g16/l202.exe)
                          Input orientation:                          
 ---------------------------------------------------------------------
 Center     Atomic      Atomic             Coordinates (Angstroms)
 Number     Number       Type             X           Y           Z
 ---------------------------------------------------------------------
      1          7           0        0.591154    0.025826   -0.070808
      2          1           0        1.016370    0.902870    0.194481
      3          1           0        1.131080   -0.793517    0.151816
      4          7           0       -0.734458   -0.152454    0.025657
      5          1           0       -1.149698    0.777901   -0.025408
 ---------------------------------------------------------------------
                    Distance matrix (angstroms):
                    1          2          3          4          5
     1  N    0.000000
     2  H    1.010145   0.000000
     3  H    1.006183   1.700796   0.000000
     4  N    1.341021   2.051246   1.976641   0.000000
     5  H    1.896904   2.180784   2.775376   1.020094   0.000000
 Stoichiometry    H3N2(2)
 Framework group  C1[X(H3N2)]
 Deg. of freedom     9
 Full point group                 C1      NOp   1
 Largest Abelian subgroup         C1      NOp   1
 Largest concise Abelian subgroup C1      NOp   1
                         Standard orientation:                         
 ---------------------------------------------------------------------
 Center     Atomic      Atomic             Coordinates (Angstroms)
 Number     Number       Type             X           Y           Z
 ---------------------------------------------------------------------
      1          7           0        0.591714    0.024658   -0.069440
      2          1           0        1.018100    0.900182    0.198974
      3          1           0        1.129272   -0.796348    0.152787
      4          7           0       -0.734534   -0.150976    0.023050
      5          1           0       -1.147631    0.780386   -0.027032
 ---------------------------------------------------------------------
 Rotational constants (GHZ):         206.6401364          31.0603049          27.3666645
 Leave Link  202 at Wed Feb 19 14:51:35 2020, MaxMem=  1879048192 cpu:               0.3 elap:               0.1
 (Enter /opt/g16/l301.exe)
 Standard basis: def2TZVP (5D, 7F)
 Ernie: Thresh=  0.10000D-02 Tol=  0.10000D-05 Strict=F.
 There are    90 symmetry adapted cartesian basis functions of A   symmetry.
 There are    80 symmetry adapted basis functions of A   symmetry.
    80 basis functions,   126 primitive gaussians,    90 cartesian basis functions
     9 alpha electrons        8 beta electrons
       nuclear repulsion energy        36.6926679555 Hartrees.
 IExCor= 4639 DFT=T Ex+Corr=wB97XD ExCW=0 ScaHFX=  1.000000
 ScaDFX=  1.000000  1.000000  1.000000  1.000000 ScalE2=  1.000000  1.000000
 IRadAn=      5 IRanWt=     -1 IRanGd=            0 ICorTp=0 IEmpDi=121
 HFx  wShort=  0.000000 wLong=  0.200000 cFull=  0.222036 cShort=  0.000000 cLong=  0.777964
 DFx  wShort=  0.000000 wLong=  0.200000 cFull=  0.000000 cShort=  0.000000 cLong=  1.000000
 NAtoms=    5 NActive=    5 NUniq=    5 SFac= 1.00D+00 NAtFMM=   60 NAOKFM=F Big=F
 Integral buffers will be    131072 words long.
 Raffenetti 2 integral format.
 Two-electron integral symmetry is turned on.
 R6Disp:  Grimme-D2 Dispersion energy=       -0.0004459836 Hartrees.
 Nuclear repulsion after empirical dispersion term =       36.6922219719 Hartrees.
 Leave Link  301 at Wed Feb 19 14:51:35 2020, MaxMem=  1879048192 cpu:               0.5 elap:               0.1
 (Enter /opt/g16/l302.exe)
 NPDir=0 NMtPBC=     1 NCelOv=     1 NCel=       1 NClECP=     1 NCelD=      1
         NCelK=      1 NCelE2=     1 NClLst=     1 CellRange=     0.0.
 One-electron integrals computed using PRISM.
 One-electron integral symmetry used in STVInt
   1 Symmetry operations used in ECPInt.
 ECPInt:  NShTT=     595 NPrTT=    1764 LenC2=     595 LenP2D=    1624.
 LDataN:  DoStor=T MaxTD1= 6 Len=  172
 NBasis=    80 RedAO= T EigKep=  1.33D-03  NBF=    80
 NBsUse=    80 1.00D-06 EigRej= -1.00D+00 NBFU=    80
 Precomputing XC quadrature grid using
 IXCGrd= 4 IRadAn=           5 IRanWt=          -1 IRanGd=           0 AccXCQ= 1.00D-12.
 Generated NRdTot=       0 NPtTot=           0 NUsed=           0 NTot=          32
 NSgBfM=    90    90    90    90    90 MxSgAt=     5 MxSgA2=     5.
 Leave Link  302 at Wed Feb 19 14:51:36 2020, MaxMem=  1879048192 cpu:               1.5 elap:               0.2
 (Enter /opt/g16/l303.exe)
 DipDrv:  MaxL=1.
 Leave Link  303 at Wed Feb 19 14:51:36 2020, MaxMem=  1879048192 cpu:               0.5 elap:               0.1
 (Enter /opt/g16/l401.exe)
 Initial guess from the checkpoint file:  "check.chk"
 B after Tr=    -0.000000    0.000000   -0.000000
         Rot=    1.000000    0.000000   -0.000000   -0.000000 Ang=   0.00 deg.
 Guess basis will be translated and rotated to current coordinates.
 JPrj=2 DoOrth=T DoCkMO=T.
 Initial guess <Sx>= 0.0000 <Sy>= 0.0000 <Sz>= 0.5000 <S**2>= 0.7546 S= 0.5023
 Leave Link  401 at Wed Feb 19 14:51:36 2020, MaxMem=  1879048192 cpu:               1.1 elap:               0.1
 (Enter /opt/g16/l502.exe)
 Keep R1 and R2 ints in memory in canonical form, NReq=28315865.
 FoFCou: FMM=F IPFlag=           0 FMFlag=           0 FMFlg1=           0
         NFxFlg=           0 DoJE=F BraDBF=F KetDBF=F FulRan=T
         wScrn=  0.000000 ICntrl=       600 IOpCl=  0 I1Cent=           0 NGrid=           0
         NMat0=    1 NMatS0=   3240 NMatT0=    0 NMatD0=    1 NMtDS0=    0 NMtDT0=    0
 Symmetry not used in FoFCou.
 Two-electron integral symmetry not used.
 UHF open shell SCF:
 Using DIIS extrapolation, IDIIS=  1040.
 NGot=  1879048192 LenX=  1858028627 LenY=  1858020086
 Requested convergence on RMS density matrix=1.00D-08 within  32 cycles.
 Requested convergence on MAX density matrix=1.00D-06.
 Requested convergence on             energy=1.00D-06.
 No special actions if energy rises.

 Cycle   1  Pass 1  IDiag  1:
 E= -111.239208344463    
 DIIS: error= 7.39D-08 at cycle   1 NSaved=   1.
 NSaved= 1 IEnMin= 1 EnMin= -111.239208344463     IErMin= 1 ErrMin= 7.39D-08
 ErrMax= 7.39D-08  0.00D+00 EMaxC= 1.00D-01 BMatC= 1.37D-12 BMatP= 1.37D-12
 IDIUse=1 WtCom= 1.00D+00 WtEn= 0.00D+00
 Coeff-Com:  0.100D+01
 Coeff:      0.100D+01
 Gap=     0.371 Goal=   None    Shift=    0.000
 Gap=     0.401 Goal=   None    Shift=    0.000
 RMSDP=6.35D-09 MaxDP=8.52D-08              OVMax= 1.68D-07

 SCF Done:  E(UwB97XD) =  -111.239208344     A.U. after    1 cycles
            NFock=  1  Conv=0.63D-08     -V/T= 2.0041
 <Sx>= 0.0000 <Sy>= 0.0000 <Sz>= 0.5000 <S**2>= 0.7546 S= 0.5023
 <L.S>= 0.000000000000E+00
 KE= 1.107842013722D+02 PE=-3.337628489046D+02 EE= 7.504721721605D+01
 Annihilation of the first spin contaminant:
 S**2 before annihilation     0.7546,   after     0.7500
 Leave Link  502 at Wed Feb 19 14:51:37 2020, MaxMem=  1879048192 cpu:               8.2 elap:               1.0
 (Enter /opt/g16/l508.exe)
 QCSCF skips out because SCF is already converged.
 Leave Link  508 at Wed Feb 19 14:51:37 2020, MaxMem=  1879048192 cpu:               0.2 elap:               0.0
 (Enter /opt/g16/l801.exe)
 DoSCS=F DFT=T ScalE2(SS,OS)=  1.000000  1.000000
 Range of M.O.s used for correlation:     1    80
 NBasis=    80 NAE=     9 NBE=     8 NFC=     0 NFV=     0
 NROrb=     80 NOA=     9 NOB=     8 NVA=    71 NVB=    72

 **** Warning!!: The largest alpha MO coefficient is  0.10518307D+02


 **** Warning!!: The largest beta MO coefficient is  0.10493942D+02

 Leave Link  801 at Wed Feb 19 14:51:37 2020, MaxMem=  1879048192 cpu:               0.6 elap:               0.1
 (Enter /opt/g16/l1101.exe)
 Using compressed storage, NAtomX=     5.
 Will process      6 centers per pass.
   1 Symmetry operations used in ECPInt.
 ECPInt:  NShTT=     595 NPrTT=    1764 LenC2=     595 LenP2D=    1624.
 LDataN:  DoStor=T MaxTD1= 7 Len=  274
 R6Disp: Adding Grimme-D2 dispersion energy 1st derivatives to the gradient.
 Leave Link 1101 at Wed Feb 19 14:51:37 2020, MaxMem=  1879048192 cpu:               2.7 elap:               0.4
 (Enter /opt/g16/l1102.exe)
 Symmetrizing basis deriv contribution to polar:
 IMax=3 JMax=2 DiffMx= 0.00D+00
 Leave Link 1102 at Wed Feb 19 14:51:37 2020, MaxMem=  1879048192 cpu:               0.3 elap:               0.0
 (Enter /opt/g16/l1110.exe)
 Forming Gx(P) for the SCF density, NAtomX=     5.
 Integral derivatives from FoFJK, PRISM(SPDF).
 Do as many integral derivatives as possible in FoFJK.
 G2DrvN: MDV=    1879047666.
 G2DrvN: will do     6 centers at a time, making    1 passes.
 Calling FoFCou, ICntrl=  3107 FMM=F I1Cent=   0 AccDes= 1.00D-12.
 FoFJK:  IHMeth= 1 ICntrl=    3107 DoSepK=T KAlg= 0 I1Cent=           0 FoldK=F
 IRaf=         1 NMat=       1 IRICut=       1 DoRegI=T DoRafI=F ISym2E= 0 IDoP0=0 IntGTp=1.
 FoFCou: FMM=F IPFlag=           0 FMFlag=      100000 FMFlg1=           0
         NFxFlg=           0 DoJE=F BraDBF=F KetDBF=F FulRan=T
         wScrn=  0.000000 ICntrl=      3507 IOpCl=  0 I1Cent=           0 NGrid=           0
         NMat0=    1 NMatS0=      1 NMatT0=    0 NMatD0=    1 NMtDS0=    0 NMtDT0=    0
 Symmetry not used in FoFCou.
 End of G2Drv F.D. properties file   721 does not exist.
 End of G2Drv F.D. properties file   722 does not exist.
 End of G2Drv F.D. properties file   788 does not exist.
 Leave Link 1110 at Wed Feb 19 14:51:44 2020, MaxMem=  1879048192 cpu:              56.8 elap:               7.1
 (Enter /opt/g16/l1002.exe)
 Minotr:  UHF open shell wavefunction.
          IDoAtm=11111
          Direct CPHF calculation.
          Differentiating once with respect to electric field.
                with respect to dipole field.
          Differentiating once with respect to nuclear coordinates.
          Requested convergence is 1.0D-08 RMS, and 1.0D-07 maximum.
          Secondary convergence is 1.0D-12 RMS, and 1.0D-12 maximum.
          NewPWx=T KeepS1=F KeepF1=F KeepIn=T MapXYZ=F SortEE=F KeepMc=T.
         1491 words used for storage of precomputed grid.
 Keep R1 and R2 ints in memory in canonical form, NReq=28292652.
 FoFCou: FMM=F IPFlag=           0 FMFlag=           0 FMFlg1=           0
         NFxFlg=           0 DoJE=F BraDBF=F KetDBF=F FulRan=T
         wScrn=  0.000000 ICntrl=       600 IOpCl=  0 I1Cent=           0 NGrid=           0
         NMat0=    1 NMatS0=   3240 NMatT0=    0 NMatD0=    1 NMtDS0=    0 NMtDT0=    0
 Symmetry not used in FoFCou.
 Two-electron integral symmetry not used.
          MDV=    1879048192 using IRadAn=       1.
          Solving linear equations simultaneously, MaxMat=       0.
          There are    18 degrees of freedom in the 1st order CPHF.  IDoFFX=6 NUNeed=     3.
     15 vectors produced by pass  0 Test12= 6.75D-15 5.56D-09 XBig12= 1.74D+01 2.59D+00.
 AX will form    15 AO Fock derivatives at one time.
     15 vectors produced by pass  1 Test12= 6.75D-15 5.56D-09 XBig12= 1.72D+00 4.24D-01.
     15 vectors produced by pass  2 Test12= 6.75D-15 5.56D-09 XBig12= 1.18D-01 1.12D-01.
     15 vectors produced by pass  3 Test12= 6.75D-15 5.56D-09 XBig12= 1.63D-03 9.24D-03.
     15 vectors produced by pass  4 Test12= 6.75D-15 5.56D-09 XBig12= 2.31D-05 1.05D-03.
     15 vectors produced by pass  5 Test12= 6.75D-15 5.56D-09 XBig12= 4.75D-07 1.70D-04.
     15 vectors produced by pass  6 Test12= 6.75D-15 5.56D-09 XBig12= 3.63D-09 1.20D-05.
      6 vectors produced by pass  7 Test12= 6.75D-15 5.56D-09 XBig12= 2.86D-11 8.11D-07.
      3 vectors produced by pass  8 Test12= 6.75D-15 5.56D-09 XBig12= 1.56D-13 7.33D-08.
 InvSVY:  IOpt=1 It=  1 EMax= 1.11D-15
 Solved reduced A of dimension   114 with    15 vectors.
 FullF1:  Do perturbations      1 to       3.
 Isotropic polarizability for W=    0.000000       17.91 Bohr**3.
 End of Minotr F.D. properties file   721 does not exist.
 End of Minotr F.D. properties file   722 does not exist.
 End of Minotr F.D. properties file   788 does not exist.
 Leave Link 1002 at Wed Feb 19 14:51:56 2020, MaxMem=  1879048192 cpu:              91.3 elap:              11.4
 (Enter /opt/g16/l601.exe)
 Copying SCF densities to generalized density rwf, IOpCl= 1 IROHF=0.

 **********************************************************************

            Population analysis using the SCF Density.

 **********************************************************************

 Orbital symmetries:
 Alpha Orbitals:
       Occupied  (A) (A) (A) (A) (A) (A) (A) (A) (A)
       Virtual   (A) (A) (A) (A) (A) (A) (A) (A) (A) (A) (A) (A)
                 (A) (A) (A) (A) (A) (A) (A) (A) (A) (A) (A) (A)
                 (A) (A) (A) (A) (A) (A) (A) (A) (A) (A) (A) (A)
                 (A) (A) (A) (A) (A) (A) (A) (A) (A) (A) (A) (A)
                 (A) (A) (A) (A) (A) (A) (A) (A) (A) (A) (A) (A)
                 (A) (A) (A) (A) (A) (A) (A) (A) (A) (A) (A)
 Beta  Orbitals:
       Occupied  (A) (A) (A) (A) (A) (A) (A) (A)
       Virtual   (A) (A) (A) (A) (A) (A) (A) (A) (A) (A) (A) (A)
                 (A) (A) (A) (A) (A) (A) (A) (A) (A) (A) (A) (A)
                 (A) (A) (A) (A) (A) (A) (A) (A) (A) (A) (A) (A)
                 (A) (A) (A) (A) (A) (A) (A) (A) (A) (A) (A) (A)
                 (A) (A) (A) (A) (A) (A) (A) (A) (A) (A) (A) (A)
                 (A) (A) (A) (A) (A) (A) (A) (A) (A) (A) (A) (A)
 The electronic state is 2-A.
 Alpha  occ. eigenvalues --  -14.47853 -14.43961  -1.08834  -0.83643  -0.64462
 Alpha  occ. eigenvalues --   -0.56265  -0.48108  -0.38132  -0.26845
 Alpha virt. eigenvalues --    0.10262   0.14176   0.17698   0.31655   0.38104
 Alpha virt. eigenvalues --    0.40685   0.44092   0.44858   0.48627   0.49201
 Alpha virt. eigenvalues --    0.51496   0.54542   0.57934   0.60996   0.65823
 Alpha virt. eigenvalues --    0.92470   1.03038   1.10297   1.22306   1.30215
 Alpha virt. eigenvalues --    1.41873   1.43990   1.47369   1.61924   1.66357
 Alpha virt. eigenvalues --    1.74322   1.91478   1.93229   1.94500   2.05607
 Alpha virt. eigenvalues --    2.06466   2.10351   2.14413   2.17075   2.21777
 Alpha virt. eigenvalues --    2.36956   2.42637   2.57359   2.58647   2.67848
 Alpha virt. eigenvalues --    2.79827   3.09028   3.14849   3.22100   3.56836
 Alpha virt. eigenvalues --    3.68206   3.89105   3.95635   4.03411   4.12600
 Alpha virt. eigenvalues --    4.32927   4.47101   4.60593   4.64334   4.68236
 Alpha virt. eigenvalues --    4.71687   4.72659   4.73948   4.83218   4.90508
 Alpha virt. eigenvalues --    5.01392   5.03669   5.32758   5.35637   5.59001
 Alpha virt. eigenvalues --    5.67605   5.81620   5.94125   6.82764  31.67860
 Alpha virt. eigenvalues --   31.76641
  Beta  occ. eigenvalues --  -14.47281 -14.42602  -1.06579  -0.80531  -0.63686
  Beta  occ. eigenvalues --   -0.54974  -0.41539  -0.35930
  Beta virt. eigenvalues --    0.04181   0.10561   0.14504   0.17991   0.32668
  Beta virt. eigenvalues --    0.38175   0.41943   0.44493   0.45250   0.49540
  Beta virt. eigenvalues --    0.51799   0.52049   0.55395   0.58422   0.61773
  Beta virt. eigenvalues --    0.66562   0.93647   1.05324   1.12364   1.23348
  Beta virt. eigenvalues --    1.31006   1.43224   1.44866   1.48168   1.64216
  Beta virt. eigenvalues --    1.68034   1.74561   1.92322   1.94490   1.95284
  Beta virt. eigenvalues --    2.06389   2.07017   2.13066   2.15973   2.19302
  Beta virt. eigenvalues --    2.22588   2.39226   2.45081   2.58156   2.59281
  Beta virt. eigenvalues --    2.68611   2.80646   3.09880   3.16387   3.23402
  Beta virt. eigenvalues --    3.58732   3.70848   3.92217   3.97515   4.06123
  Beta virt. eigenvalues --    4.14129   4.36954   4.49626   4.63376   4.67112
  Beta virt. eigenvalues --    4.70585   4.74677   4.76175   4.77017   4.87312
  Beta virt. eigenvalues --    4.93543   5.03302   5.05465   5.34407   5.37074
  Beta virt. eigenvalues --    5.60253   5.70651   5.82701   5.94878   6.84362
  Beta virt. eigenvalues --   31.69576  31.77371
          Condensed to atoms (all electrons):
               1          2          3          4          5
     1  N    6.444323   0.359774   0.381444   0.173768  -0.031250
     2  H    0.359774   0.489185  -0.042241  -0.019652  -0.021554
     3  H    0.381444  -0.042241   0.448074  -0.051375   0.009833
     4  N    0.173768  -0.019652  -0.051375   6.957599   0.296881
     5  H   -0.031250  -0.021554   0.009833   0.296881   0.549563
          Atomic-Atomic Spin Densities.
               1          2          3          4          5
     1  N    0.481726  -0.002905  -0.001025  -0.215873   0.003169
     2  H   -0.002905   0.002437   0.003639  -0.004982   0.001098
     3  H   -0.001025   0.003639  -0.003675  -0.003176  -0.000375
     4  N   -0.215873  -0.004982  -0.003176   0.985242  -0.000733
     5  H    0.003169   0.001098  -0.000375  -0.000733  -0.023407
 Mulliken charges and spin densities:
               1          2
     1  N   -0.328059   0.265092
     2  H    0.234489  -0.000712
     3  H    0.254266  -0.004611
     4  N   -0.357221   0.760479
     5  H    0.196526  -0.020247
 Sum of Mulliken charges =  -0.00000   1.00000
 Mulliken charges and spin densities with hydrogens summed into heavy atoms:
               1          2
     1  N    0.160696   0.259769
     4  N   -0.160696   0.740231
 APT charges:
               1
     1  N   -0.339023
     2  H    0.170555
     3  H    0.192638
     4  N   -0.149475
     5  H    0.125305
 Sum of APT charges =  -0.00000
 APT charges with hydrogens summed into heavy atoms:
               1
     1  N    0.024170
     4  N   -0.024170
 Electronic spatial extent (au):  <R**2>=             70.7362
 Charge=             -0.0000 electrons
 Dipole moment (field-independent basis, Debye):
    X=              2.0268    Y=              1.6716    Z=              0.6482  Tot=              2.7060
 Quadrupole moment (field-independent basis, Debye-Ang):
   XX=            -11.6206   YY=            -10.7829   ZZ=            -14.2603
   XY=             -2.2622   XZ=              0.9752   YZ=              0.1113
 Traceless Quadrupole moment (field-independent basis, Debye-Ang):
   XX=              0.6007   YY=              1.4384   ZZ=             -2.0390
   XY=             -2.2622   XZ=              0.9752   YZ=              0.1113
 Octapole moment (field-independent basis, Debye-Ang**2):
  XXX=              4.3434  YYY=              2.3801  ZZZ=              0.5681  XYY=              2.8417
  XXY=              2.4241  XXZ=              0.9012  XZZ=              0.4022  YZZ=              0.4536
  YYZ=              0.5464  XYZ=              0.0976
 Hexadecapole moment (field-independent basis, Debye-Ang**3):
 XXXX=            -51.8129 YYYY=            -17.1153 ZZZZ=            -14.4668 XXXY=             -4.5833
 XXXZ=              1.5645 YYYX=             -2.6422 YYYZ=              0.1685 ZZZX=              0.8484
 ZZZY=              0.1033 XXYY=             -9.7221 XXZZ=            -12.5863 YYZZ=             -5.6658
 XXYZ=              0.0382 YYXZ=              0.7545 ZZXY=             -0.6522
 N-N= 3.669222197187D+01 E-N=-3.337628492703D+02  KE= 1.107842013722D+02
  Exact polarizability:  24.450  -0.094  16.860  -0.173  -0.075  12.416
 Approx polarizability:  23.204  -0.152  17.292  -0.258  -0.076  12.595
                          Isotropic Fermi Contact Couplings
        Atom                 a.u.       MegaHertz       Gauss      10(-4) cm-1
     1  N(14)              0.07389      23.87355       8.51868       7.96336
     2  H(1)               0.00079       3.52800       1.25888       1.17682
     3  H(1)              -0.00222      -9.93574      -3.54532      -3.31421
     4  N(14)              0.08355      26.99527       9.63258       9.00465
     5  H(1)              -0.01055     -47.14211     -16.82148     -15.72492
 --------------------------------------------------------
       Center         ----  Spin Dipole Couplings  ----
                      3XX-RR        3YY-RR        3ZZ-RR
 --------------------------------------------------------
     1   Atom       -0.360207     -0.395354      0.755561
     2   Atom       -0.014626      0.024958     -0.010332
     3   Atom       -0.002459      0.013843     -0.011384
     4   Atom       -0.932902     -0.908790      1.841692
     5   Atom       -0.050443      0.065169     -0.014726
 --------------------------------------------------------
                        XY            XZ            YZ
 --------------------------------------------------------
     1   Atom        0.008890     -0.141404     -0.041113
     2   Atom        0.036676      0.005010      0.008653
     3   Atom       -0.039685      0.005119     -0.008743
     4   Atom       -0.019108      0.008827      0.105706
     5   Atom       -0.068349      0.002292     -0.000668
 --------------------------------------------------------


 ---------------------------------------------------------------------------------
              Anisotropic Spin Dipole Couplings in Principal Axis System
 ---------------------------------------------------------------------------------

       Atom             a.u.   MegaHertz   Gauss  10(-4) cm-1        Axes

              Baa    -0.3976   -15.333    -5.471    -5.115 -0.1888  0.9819  0.0119
     1 N(14)  Bbb    -0.3771   -14.546    -5.190    -4.852  0.9742  0.1858  0.1284
              Bcc     0.7747    29.879    10.661     9.966 -0.1238 -0.0358  0.9917
 
              Baa    -0.0365   -19.480    -6.951    -6.498  0.8584 -0.5129  0.0052
     2 H(1)   Bbb    -0.0120    -6.418    -2.290    -2.141 -0.0903 -0.1411  0.9859
              Bcc     0.0485    25.898     9.241     8.639  0.5049  0.8468  0.1674
 
              Baa    -0.0349   -18.637    -6.650    -6.217  0.7676  0.6371  0.0697
     3 H(1)   Bbb    -0.0130    -6.918    -2.469    -2.308 -0.1595  0.0846  0.9836
              Bcc     0.0479    25.555     9.119     8.524 -0.6207  0.7661 -0.1666
 
              Baa    -0.9448   -36.437   -13.002   -12.154  0.8541  0.5196 -0.0224
     4 N(14)  Bbb    -0.9010   -34.750   -12.400   -11.591 -0.5201  0.8535 -0.0312
              Bcc     1.8458    71.187    25.401    23.746  0.0029  0.0383  0.9993
 
              Baa    -0.0822   -43.858   -15.650   -14.630  0.9069  0.4205 -0.0266
     5 H(1)   Bbb    -0.0147    -7.843    -2.799    -2.616  0.0182  0.0240  0.9995
              Bcc     0.0969    51.702    18.448    17.246 -0.4209  0.9070 -0.0141
 

 ---------------------------------------------------------------------------------

 No NMR shielding tensors so no spin-rotation constants.
 Leave Link  601 at Wed Feb 19 14:51:56 2020, MaxMem=  1879048192 cpu:               3.8 elap:               0.5
 (Enter /opt/g16/l701.exe)
 SCFChk:  SCF convergence  6.35D-09 required  1.00D-08
 ... and contract with generalized density number  0.
 Compute integral second derivatives.
 R6Disp: Adding Grimme-D2 dispersion energy 2nd derivatives to the Hessian.
 Entering OneElI...
 Calculate overlap and kinetic energy integrals
    NBasis =  90  MinDer = 2  MaxDer = 2
 Requested accuracy = 0.1000D-14
 PrmmSu-InSpLW:  IPartL=    0 NPrtUS=    8 NPrtUL=    1 DoSpLW=F IThBeg=    0 IThEnd=    7 NThAct=    8.
 PrSmSu:  IncTry=   512 NBBP=            595 NTPThr=   100 NPartT=    8 Incr=           1 LDynOK=F GPUOK=F.
 PrsmSu:  NPrtUS=   8 ThrOK=T IAlg=2 LenDen=           0 ISkipM=0 DoSpLW=F IThBeg=    0 IThEnd=    7.
 Prism:   IPart=     0 DynPar=F LinDyn=F Incr=           1.
 PRISM was handed   234859357 working-precision words and   595 shell-pairs
 PRISM was handed   234859357 working-precision words and   595 shell-pairs
 PRISM was handed   234859357 working-precision words and   595 shell-pairs
 PRISM was handed   234859357 working-precision words and   595 shell-pairs
 PRISM was handed   234859357 working-precision words and   595 shell-pairs
 PRISM was handed   234859357 working-precision words and   595 shell-pairs
 PRISM was handed   234859357 working-precision words and   595 shell-pairs
 PRISM was handed   234859357 working-precision words and   595 shell-pairs
 IPart=  5 NShTot=          66 NBatch=          23 AvBLen=         2.9
 IPart=  7 NShTot=          59 NBatch=          21 AvBLen=         2.8
 IPart=  6 NShTot=          61 NBatch=          22 AvBLen=         2.8
 IPart=  3 NShTot=          77 NBatch=          27 AvBLen=         2.9
 IPart=  4 NShTot=          67 NBatch=          23 AvBLen=         2.9
 IPart=  0 NShTot=          91 NBatch=          40 AvBLen=         2.3
 IPart=  2 NShTot=          84 NBatch=          34 AvBLen=         2.5
 IPart=  1 NShTot=          90 NBatch=          39 AvBLen=         2.3
 PrSmSu:  NxtVal=              9.
 Entering OneElI...
 Calculate potential energy integrals
    NBasis =  90  MinDer = 2  MaxDer = 2
 Requested accuracy = 0.1000D-14
 PrmmSu-InSpLW:  IPartL=    0 NPrtUS=    8 NPrtUL=    1 DoSpLW=F IThBeg=    0 IThEnd=    7 NThAct=    8.
 PrSmSu:  IncTry=   512 NBBP=           2970 NTPThr=   100 NPartT=    8 Incr=           3 LDynOK=F GPUOK=F.
 PrsmSu:  NPrtUS=   8 ThrOK=T IAlg=2 LenDen=           0 ISkipM=0 DoSpLW=F IThBeg=    0 IThEnd=    7.
 Prism:   IPart=     0 DynPar=F LinDyn=F Incr=           3.
 PRISM was handed   234860984 working-precision words and   594 shell-pairs
 PRISM was handed   234860984 working-precision words and   594 shell-pairs
 PRISM was handed   234860984 working-precision words and   594 shell-pairs
 PRISM was handed   234860984 working-precision words and   594 shell-pairs
 PRISM was handed   234860984 working-precision words and   594 shell-pairs
 PRISM was handed   234860984 working-precision words and   594 shell-pairs
 PRISM was handed   234860984 working-precision words and   594 shell-pairs
 PRISM was handed   234860984 working-precision words and   594 shell-pairs
 IPart=  6 NShTot=         305 NBatch=          61 AvBLen=         5.0
 IPart=  3 NShTot=         385 NBatch=          77 AvBLen=         5.0
 IPart=  0 NShTot=         450 NBatch=          90 AvBLen=         5.0
 IPart=  7 NShTot=         300 NBatch=          60 AvBLen=         5.0
 IPart=  4 NShTot=         350 NBatch=          70 AvBLen=         5.0
 IPart=  1 NShTot=         440 NBatch=          88 AvBLen=         5.0
 IPart=  2 NShTot=         405 NBatch=          81 AvBLen=         5.0
 IPart=  5 NShTot=         335 NBatch=          67 AvBLen=         5.0
 PrSmSu:  NxtVal=             25.
   1 Symmetry operations used in ECPInt.
 ECPInt:  NShTT=     595 NPrTT=    1764 LenC2=     595 LenP2D=    1624.
 LDataN:  DoStor=F MaxTD1= 8 Len=  415
 LDataN:  DoStor=T MaxTD1= 8 Len=  415
 ECPSu:  NPrtUS=   8 ThrOK=T ISkipM=0 DoSpLW=F IThBeg=    0 IThEnd=    7.
 Polarizability after L701:
                1             2             3 
      1  0.244504D+02
      2 -0.943589D-01  0.168603D+02
      3 -0.172580D+00 -0.751961D-01  0.124161D+02
 Dipole Derivatives after L701:
                 1             2             3             4             5 
      1  -0.498877D+00 -0.119785D+00  0.250204D+00  0.758126D-01 -0.297942D-01
      2  -0.123677D-01 -0.912989D-01  0.528603D-01 -0.289887D-01  0.113858D+00
      3   0.141640D+00  0.545968D-01 -0.426893D+00 -0.306154D-01 -0.595048D-01
                 6             7             8             9            10 
      1  -0.111216D+00  0.146266D+00 -0.142488D-01 -0.108323D+00  0.964532D-01
      2  -0.804176D-01 -0.178422D-02  0.156556D+00  0.398902D-01  0.329376D-01
      3   0.321995D+00 -0.236294D-01  0.256593D-01  0.275091D+00 -0.860005D-01
                11            12            13            14            15 
      1   0.554337D-01 -0.323849D-01  0.180346D+00  0.108394D+00  0.171972D-02
      2  -0.107476D+00 -0.321392D-01  0.102030D-01 -0.716395D-01  0.198063D-01
      3  -0.432496D-01 -0.437403D+00 -0.139426D-02  0.224982D-01  0.267210D+00
 Hessian after L701:
                1             2             3             4             5 
      1  0.260615D+01
      2 -0.796782D+00  0.877582D+01
      3  0.141825D-01  0.630434D-02  0.124103D+02
      4 -0.255782D+01  0.112569D+01  0.335952D+00  0.249317D+01
      5  0.107952D+01 -0.107694D+01  0.614220D+00 -0.127077D+01  0.104791D+01
      6  0.316205D+00  0.576754D+00 -0.299240D+01 -0.356722D+00 -0.632434D+00
      7 -0.231462D+01 -0.136935D+01  0.366355D+00  0.105313D+00  0.176359D-01
      8 -0.128793D+01 -0.137843D+01 -0.499838D+00  0.227329D-01 -0.202766D+00
      9  0.328920D+00 -0.466132D+00 -0.314161D+01  0.952538D-02 -0.194425D-01
     10  0.218365D+01  0.104403D+01 -0.701999D+00  0.438265D-01  0.175767D+00
     11  0.113123D+01 -0.635986D+01 -0.129334D+00  0.126182D+00  0.205532D+00
     12 -0.658180D+00 -0.106933D+00 -0.623960D+01  0.219222D-01  0.356084D-01
     13  0.826388D-01 -0.358920D-02 -0.144903D-01 -0.844954D-01 -0.215702D-02
     14 -0.126038D+00  0.394165D-01  0.864738D-02 -0.384228D-02  0.262664D-01
     15 -0.112683D-02 -0.999409D-02 -0.366711D-01 -0.106775D-01  0.204802D-02
                6             7             8             9            10 
      6  0.288852D+01
      7  0.830808D-02  0.226595D+01
      8  0.215543D-02  0.146424D+01  0.139525D+01
      9  0.828376D-01 -0.396460D+00  0.526436D+00  0.304892D+01
     10  0.430497D-01 -0.116096D+00 -0.126037D+00  0.445009D-01  0.273921D+00
     11  0.565442D-01 -0.434023D-01  0.147500D+00 -0.309998D-01 -0.703862D-01
     12 -0.283819D-02  0.175152D-01 -0.259677D-01  0.230553D-01  0.568643D+00
     13 -0.108401D-01  0.594558D-01 -0.730028D-01  0.135146D-01 -0.238530D+01
     14 -0.302005D-02 -0.691242D-01  0.384481D-01 -0.986241D-02 -0.102337D+01
     15  0.238786D-01  0.428262D-02 -0.278626D-02 -0.132077D-01  0.458051D-01
               11            12            13            14            15 
     11  0.730681D+01
     12  0.167781D+00  0.923098D+01
     13 -0.114363D+01  0.500993D-01  0.232770D+01
     14 -0.129998D+01 -0.704888D-01  0.122237D+01  0.119585D+01
     15 -0.639916D-01 -0.301160D+01 -0.382835D-01  0.747239D-01  0.303760D+01
 Leave Link  701 at Wed Feb 19 14:51:57 2020, MaxMem=  1879048192 cpu:               3.3 elap:               0.4
 (Enter /opt/g16/l702.exe)
 L702 exits ... SP integral derivatives will be done elsewhere.
 Leave Link  702 at Wed Feb 19 14:51:57 2020, MaxMem=  1879048192 cpu:               0.6 elap:               0.1
 (Enter /opt/g16/l703.exe)
 Integral derivatives from FoFJK, PRISM(SPDF).
 Compute integral second derivatives, UseDBF=F ICtDFT=           0.
 ICntrl=    100127.
 Calling FoFJK, ICntrl=    100127 FMM=F ISym2X=0 I1Cent= 0 IOpClX= 1 NMat=1 NMatS=1 NMatT=0.
 FoFJK:  IHMeth= 1 ICntrl=  100127 DoSepK=T KAlg= 0 I1Cent=           0 FoldK=F
 IRaf=         1 NMat=       1 IRICut=       1 DoRegI=T DoRafI=F ISym2E= 0 IDoP0=0 IntGTp=1.
 FoFCou: FMM=F IPFlag=           0 FMFlag=      100000 FMFlg1=         800
         NFxFlg=           0 DoJE=F BraDBF=F KetDBF=F FulRan=T
         wScrn=  0.000000 ICntrl=    100527 IOpCl=  0 I1Cent=           0 NGrid=           0
         NMat0=    1 NMatS0=      1 NMatT0=    0 NMatD0=    1 NMtDS0=    0 NMtDT0=    0
 Symmetry not used in FoFCou.
 FoFCou:  KetSym=F NOpSet=  1 NOpAb=1 NOp=  1.
 FoFCou:  CnvScl= 1.00D+00 Thresh= 1.00D-12 IAcrcy=      10.
 PrismS was handed  1878987009 working-precision words and   594 shell-pairs
 FoFCou: LinMIO=F DoNuc=F BraDBF=F KetDBF=F HaveP=T PDBF=F HaveZ=T HaveW=F
         NIJTC =      10 NIJTAt=       0 NIJTCD=       0 NIJTT =      10
         IJTBeg=       1 IJTEnd=      10 KLTBeg=       1 KLTEnd=      10
         IPTBeg=       1 IPTEnd=      10 IPTBCv=       1 IPTECv=      10
         IZTBeg=       1 IZTEnd=      10 IZTBCv=       1 IZTECv=      10
         IWTBeg=      11 IWTEnd=      10 IWTBCv=      11 IWTECv=      10
         INTBeg=       1 INTEnd=       0 IFTBCv=       1 IFTECv=      10
 NCel replicated for PrismC:     1
 CoulSu-InSpLW:  IPartL=    0 NPrtUS=    8 NPrtUL=    1 DoSpLW=F IThBeg=    0 IThEnd=    7 NThAct=    8.
 CoulSu:  IncTry=  1024 NBBP=         176715 NTPThr=   100 NPartT=    8 Incr=         220 LDynOK=F GPUOK=F.
 CoulSu:  NPrtUS=   8 ThrOK=T IAlg=2 LenDen=           0 LWGrdD=           0 DoCopy=F ISkipM=0
          DoSpLW=F IThBeg=    0 IThEnd=    7.
 Enter PrismC:  IPart=  0 JobTyp=22 DoJE=F Cont=F.
 PrismC:  IPart=     0 DynPar=T LinDyn=F Incr=         220 UseFst=F UseS4=T ISplat=2.
 PrismC was handed   234861238 working-precision words and   594 shell-pairs
 Enter PrismC:  IPart=  5 JobTyp=22 DoJE=F Cont=F.
 Enter PrismC:  IPart=  7 JobTyp=22 DoJE=F Cont=F.
 PrismC:  IPart=     5 DynPar=T LinDyn=F Incr=         220 UseFst=F UseS4=T ISplat=2.
 Enter PrismC:  IPart=  1 JobTyp=22 DoJE=F Cont=F.
 PrismC:  IPart=     7 DynPar=T LinDyn=F Incr=         220 UseFst=F UseS4=T ISplat=2.
 Enter PrismC:  IPart=  6 JobTyp=22 DoJE=F Cont=F.
 PrismC was handed   234861238 working-precision words and   594 shell-pairs
 Enter PrismC:  IPart=  2 JobTyp=22 DoJE=F Cont=F.
 PrismC:  IPart=     1 DynPar=T LinDyn=F Incr=         220 UseFst=F UseS4=T ISplat=2.
 Enter PrismC:  IPart=  3 JobTyp=22 DoJE=F Cont=F.
 PrismC:  IPart=     2 DynPar=T LinDyn=F Incr=         220 UseFst=F UseS4=T ISplat=2.
 PrismC was handed   234861238 working-precision words and   594 shell-pairs
 PrismC:  IPart=     6 DynPar=T LinDyn=F Incr=         220 UseFst=F UseS4=T ISplat=2.
 Enter PrismC:  IPart=  4 JobTyp=22 DoJE=F Cont=F.
 PrismC was handed   234861238 working-precision words and   594 shell-pairs
 PrismC was handed   234861238 working-precision words and   594 shell-pairs
 PrismC was handed   234861238 working-precision words and   594 shell-pairs
 PrismC:  IPart=     3 DynPar=T LinDyn=F Incr=         220 UseFst=F UseS4=T ISplat=2.
 PrismC was handed   234861238 working-precision words and   594 shell-pairs
 PrismC:  IPart=     4 DynPar=T LinDyn=F Incr=         220 UseFst=F UseS4=T ISplat=2.
 PrismC was handed   234861238 working-precision words and   594 shell-pairs
 IPart=  3 NShTot=       21974 NShNF=       21974 NShFF=           0 MinMC=       7
           NShCPU=       21974 NBCPU=         590 AvBCPU=        37.2
           NShGPU=           0 NBGPU=           0 AvBGPU=         0.0
 IPart=  7 NShTot=       21313 NShNF=       21313 NShFF=           0 MinMC=       7
           NShCPU=       21313 NBCPU=         609 AvBCPU=        35.0
           NShGPU=           0 NBGPU=           0 AvBGPU=         0.0
 IPart=  1 NShTot=       22008 NShNF=       22008 NShFF=           0 MinMC=       7
           NShCPU=       22008 NBCPU=         580 AvBCPU=        37.9
           NShGPU=           0 NBGPU=           0 AvBGPU=         0.0
 IPart=  2 NShTot=       22826 NShNF=       22826 NShFF=           0 MinMC=       7
           NShCPU=       22826 NBCPU=         662 AvBCPU=        34.5
           NShGPU=           0 NBGPU=           0 AvBGPU=         0.0
 IPart=  4 NShTot=       20396 NShNF=       20396 NShFF=           0 MinMC=       7
           NShCPU=       20396 NBCPU=         600 AvBCPU=        34.0
           NShGPU=           0 NBGPU=           0 AvBGPU=         0.0
 IPart=  5 NShTot=       21408 NShNF=       21408 NShFF=           0 MinMC=       7
           NShCPU=       21408 NBCPU=         667 AvBCPU=        32.1
           NShGPU=           0 NBGPU=           0 AvBGPU=         0.0
 IPart=  0 NShTot=       21479 NShNF=       21479 NShFF=           0 MinMC=       7
           NShCPU=       21479 NBCPU=         477 AvBCPU=        45.0
           NShGPU=           0 NBGPU=           0 AvBGPU=         0.0
 IPart=  6 NShTot=       24865 NShNF=       24865 NShFF=           0 MinMC=       7
           NShCPU=       24865 NBCPU=         677 AvBCPU=        36.7
           NShGPU=           0 NBGPU=           0 AvBGPU=         0.0
 CoulSu:  NxtVal=         189641 LenVP=      234861239 MinMC=       7.
 FoFCou: FMM=F IPFlag=           0 FMFlag=      100000 FMFlg1=         800
         NFxFlg=           0 DoJE=F BraDBF=F KetDBF=F FulRan=T
         wScrn=  0.000000 ICntrl=    100127 IOpCl=  1 I1Cent=           0 NGrid=           0
         NMat0=    1 NMatS0=      0 NMatT0=    1 NMatD0=    1 NMtDS0=    0 NMtDT0=    0
         CW=    0.222036    0.777964
         WU=    0.000000   12.500000
 Symmetry not used in FoFCou.
 FoFCou:  KetSym=F NOpSet=  1 NOpAb=1 NOp=  1.
 FoFCou:  CnvScl= 1.00D+00 Thresh= 1.00D-12 IAcrcy=      10.
 IniFok:  ToCart=T IDoP0=2 DoConv=F DoRafP=T DoAdj=T
 PrismS was handed  1878986449 working-precision words and   594 shell-pairs
 FoFCou: LinMIO=F DoNuc=F BraDBF=F KetDBF=F HaveP=T PDBF=F HaveZ=T HaveW=F
         NIJTC =      10 NIJTAt=       0 NIJTCD=       0 NIJTT =      10
         IJTBeg=       1 IJTEnd=      10 KLTBeg=       1 KLTEnd=      10
         IPTBeg=       1 IPTEnd=      10 IPTBCv=       1 IPTECv=      10
         IZTBeg=       1 IZTEnd=      10 IZTBCv=       1 IZTECv=      10
         IWTBeg=      11 IWTEnd=      10 IWTBCv=      11 IWTECv=      10
         INTBeg=       1 INTEnd=       0 IFTBCv=       1 IFTECv=      10
 NCel replicated for PrismC:     1
 CoulSu-InSpLW:  IPartL=    0 NPrtUS=    8 NPrtUL=    1 DoSpLW=F IThBeg=    0 IThEnd=    7 NThAct=    8.
 CoulSu:  IncTry=  1024 NBBP=         176715 NTPThr=   100 NPartT=    8 Incr=         220 LDynOK=F GPUOK=F.
 CoulSu:  NPrtUS=   8 ThrOK=T IAlg=2 LenDen=           0 LWGrdD=           0 DoCopy=F ISkipM=0
          DoSpLW=F IThBeg=    0 IThEnd=    7.
 Enter PrismC:  IPart=  0 JobTyp=22 DoJE=F Cont=F.
 Linear combination for Coulomb/exchange, wScrn=  0.000000
 CW=    0.222036    0.777964
 WU=    0.000000   12.500000
 Enter PrismC:  IPart=  6 JobTyp=22 DoJE=F Cont=F.
 PrismC:  IPart=     0 DynPar=T LinDyn=F Incr=         220 UseFst=F UseS4=T ISplat=2.
 Linear combination for Coulomb/exchange, wScrn=  0.000000
 CW=    0.222036    0.777964
 WU=    0.000000   12.500000
 PrismC was handed   234861168 working-precision words and   594 shell-pairs
 PrismC:  IPart=     6 DynPar=T LinDyn=F Incr=         220 UseFst=F UseS4=T ISplat=2.
 PrismC was handed   234861168 working-precision words and   594 shell-pairs
 Enter PrismC:  IPart=  7 JobTyp=22 DoJE=F Cont=F.
 Linear combination for Coulomb/exchange, wScrn=  0.000000
 CW=    0.222036    0.777964
 WU=    0.000000   12.500000
 PrismC:  IPart=     7 DynPar=T LinDyn=F Incr=         220 UseFst=F UseS4=T ISplat=2.
 PrismC was handed   234861168 working-precision words and   594 shell-pairs
 Enter PrismC:  IPart=  2 JobTyp=22 DoJE=F Cont=F.
 Linear combination for Coulomb/exchange, wScrn=  0.000000
 CW=    0.222036    0.777964
 WU=    0.000000   12.500000
 PrismC:  IPart=     2 DynPar=T LinDyn=F Incr=         220 UseFst=F UseS4=T ISplat=2.
 PrismC was handed   234861168 working-precision words and   594 shell-pairs
 Enter PrismC:  IPart=  5 JobTyp=22 DoJE=F Cont=F.
 Linear combination for Coulomb/exchange, wScrn=  0.000000
 CW=    0.222036    0.777964
 WU=    0.000000   12.500000
 Enter PrismC:  IPart=  1 JobTyp=22 DoJE=F Cont=F.
 Linear combination for Coulomb/exchange, wScrn=  0.000000
 CW=    0.222036    0.777964
 WU=    0.000000   12.500000
 Enter PrismC:  IPart=  4 JobTyp=22 DoJE=F Cont=F.
 Enter PrismC:  IPart=  3 JobTyp=22 DoJE=F Cont=F.
 Linear combination for Coulomb/exchange, wScrn=  0.000000
 CW=    0.222036    0.777964
 WU=    0.000000   12.500000
 Linear combination for Coulomb/exchange, wScrn=  0.000000
 CW=    0.222036    0.777964
 WU=    0.000000   12.500000
 PrismC:  IPart=     5 DynPar=T LinDyn=F Incr=         220 UseFst=F UseS4=T ISplat=2.
 PrismC was handed   234861168 working-precision words and   594 shell-pairs
 PrismC:  IPart=     3 DynPar=T LinDyn=F Incr=         220 UseFst=F UseS4=T ISplat=2.
 PrismC was handed   234861168 working-precision words and   594 shell-pairs
 PrismC:  IPart=     1 DynPar=T LinDyn=F Incr=         220 UseFst=F UseS4=T ISplat=2.
 PrismC was handed   234861168 working-precision words and   594 shell-pairs
 PrismC:  IPart=     4 DynPar=T LinDyn=F Incr=         220 UseFst=F UseS4=T ISplat=2.
 PrismC was handed   234861168 working-precision words and   594 shell-pairs
 IPart=  6 NShTot=       22794 NShNF=       22794 NShFF=           0 MinMC=       7
           NShCPU=       22794 NBCPU=         620 AvBCPU=        36.8
           NShGPU=           0 NBGPU=           0 AvBGPU=         0.0
 IPart=  2 NShTot=       22436 NShNF=       22436 NShFF=           0 MinMC=       7
           NShCPU=       22436 NBCPU=         667 AvBCPU=        33.6
           NShGPU=           0 NBGPU=           0 AvBGPU=         0.0
 IPart=  7 NShTot=       22988 NShNF=       22988 NShFF=           0 MinMC=       7
           NShCPU=       22988 NBCPU=         759 AvBCPU=        30.3
           NShGPU=           0 NBGPU=           0 AvBGPU=         0.0
 IPart=  5 NShTot=       20996 NShNF=       20996 NShFF=           0 MinMC=       7
           NShCPU=       20996 NBCPU=         682 AvBCPU=        30.8
           NShGPU=           0 NBGPU=           0 AvBGPU=         0.0
 IPart=  0 NShTot=       18588 NShNF=       18588 NShFF=           0 MinMC=       7
           NShCPU=       18588 NBCPU=         457 AvBCPU=        40.7
           NShGPU=           0 NBGPU=           0 AvBGPU=         0.0
 IPart=  1 NShTot=       20389 NShNF=       20389 NShFF=           0 MinMC=       7
           NShCPU=       20389 NBCPU=         663 AvBCPU=        30.8
           NShGPU=           0 NBGPU=           0 AvBGPU=         0.0
 IPart=  4 NShTot=       23657 NShNF=       23657 NShFF=           0 MinMC=       7
           NShCPU=       23657 NBCPU=         727 AvBCPU=        32.5
           NShGPU=           0 NBGPU=           0 AvBGPU=         0.0
 IPart=  3 NShTot=       24381 NShNF=       24381 NShFF=           0 MinMC=       7
           NShCPU=       24381 NBCPU=         705 AvBCPU=        34.6
           NShGPU=           0 NBGPU=           0 AvBGPU=         0.0
 CoulSu:  NxtVal=         189641 LenVP=      234861169 MinMC=       7.
 ReadGW:  IGet=0 IStart=           1 Next=           1 LGW=           0.
 Remaining memory in FofDFT     1791.98 Mw
 CkSvGd:  ISavGI=        -1 IRadAn=       5 IRASav=       5 ISavGd=        -1.
 CalDSu-InSpLW:  IPartL=    0 NPrtUS=    8 NPrtUL=    1 DoSpLW=F IThBeg=    0 IThEnd=    7 NThAct=    8.
 CalDSu:  NPrtUS=   8 ThrOK=T IAlg=1 DoDPD=T LenP=        4095 LenD1P=             0 GPUOK=F
          ISkipM=0 DoSpLW=F IThBeg=    0 IThEnd=    7.
 IPart=  0 IRanGd=          0 ScrnBf=T ScrnGd=T RCrit=4.00D+00 DoMicB=T.
 IPart=  2        13382 of        14216 points in      14 batches and       81 microbatches, Max-NSigAt=       5 Max-NSgAt2=       5
 IPart=  3        13612 of        14476 points in      13 batches and       67 microbatches, Max-NSigAt=       5 Max-NSgAt2=       5
 IPart=  6        12608 of        13064 points in      11 batches and       72 microbatches, Max-NSigAt=       5 Max-NSgAt2=       5
 IPart=  1        13200 of        14348 points in      16 batches and      117 microbatches, Max-NSigAt=       5 Max-NSgAt2=       5
 IPart=  4        12785 of        13464 points in      13 batches and       83 microbatches, Max-NSigAt=       5 Max-NSgAt2=       5
 IPart=  5        12512 of        13338 points in      14 batches and      101 microbatches, Max-NSigAt=       5 Max-NSgAt2=       5
 IPart=  0        13001 of        13512 points in      11 batches and       82 microbatches, Max-NSigAt=       5 Max-NSgAt2=       5
 IPart=  7        14231 of        14772 points in      10 batches and       55 microbatches, Max-NSigAt=       5 Max-NSgAt2=       5
 Polarizability after L703:
                1             2             3 
      1  0.244504D+02
      2 -0.943589D-01  0.168603D+02
      3 -0.172580D+00 -0.751961D-01  0.124161D+02
 Dipole Derivatives after L703:
                 1             2             3             4             5 
      1  -0.498877D+00 -0.119785D+00  0.250204D+00  0.758126D-01 -0.297942D-01
      2  -0.123677D-01 -0.912989D-01  0.528603D-01 -0.289887D-01  0.113858D+00
      3   0.141640D+00  0.545968D-01 -0.426893D+00 -0.306154D-01 -0.595048D-01
                 6             7             8             9            10 
      1  -0.111216D+00  0.146266D+00 -0.142488D-01 -0.108323D+00  0.964532D-01
      2  -0.804176D-01 -0.178422D-02  0.156556D+00  0.398902D-01  0.329376D-01
      3   0.321995D+00 -0.236294D-01  0.256593D-01  0.275091D+00 -0.860005D-01
                11            12            13            14            15 
      1   0.554337D-01 -0.323849D-01  0.180346D+00  0.108394D+00  0.171972D-02
      2  -0.107476D+00 -0.321392D-01  0.102030D-01 -0.716395D-01  0.198063D-01
      3  -0.432496D-01 -0.437403D+00 -0.139426D-02  0.224982D-01  0.267210D+00
 Hessian after L703:
                1             2             3             4             5 
      1  0.706875D+00
      2 -0.293249D-01  0.814000D+00
      3  0.849368D-01  0.167288D-01  0.745062D-01
      4 -0.118276D+00 -0.118409D+00 -0.449119D-01  0.131434D+00
      5 -0.115576D+00 -0.357880D+00 -0.838691D-01  0.135413D+00  0.365773D+00
      6 -0.529264D-01 -0.113553D+00 -0.367862D-01  0.467651D-01  0.950646D-01
      7 -0.157830D+00  0.154900D+00 -0.497593D-01  0.107645D-01 -0.142707D-01
      8  0.161719D+00 -0.339959D+00  0.658283D-01  0.170048D-01 -0.173135D-01
      9 -0.664355D-01  0.931810D-01 -0.307269D-01  0.702913D-02 -0.117139D-01
     10 -0.395289D+00 -0.584900D-01  0.124306D-01 -0.257626D-01 -0.672882D-02
     11  0.407033D-02 -0.117199D+00 -0.211157D-03 -0.334642D-01  0.491500D-02
     12  0.319641D-01  0.985119D-02 -0.481990D-02 -0.916569D-02 -0.183490D-02
     13 -0.354790D-01  0.513240D-01 -0.269622D-02  0.184029D-02  0.116230D-02
     14 -0.208888D-01  0.103750D-02  0.152317D-02 -0.544374D-03  0.450494D-02
     15  0.246103D-02 -0.620799D-02 -0.217319D-02  0.283399D-03  0.235321D-02
                6             7             8             9            10 
      6  0.359174D-01
      7  0.442368D-02  0.184008D+00
      8  0.107215D-01 -0.173758D+00  0.342645D+00
      9 -0.100349D-02  0.528786D-01 -0.750251D-01  0.319815D-01
     10  0.270500D-02 -0.288059D-01 -0.275842D-02  0.472308D-02  0.540578D+00
     11  0.798884D-02  0.346977D-01  0.120303D-01 -0.613444D-02 -0.961648D-01
     12  0.542492D-02 -0.633645D-02 -0.306546D-02 -0.741738D-02 -0.131096D-01
     13 -0.967354D-03 -0.813672D-02 -0.220722D-02  0.180468D-02 -0.907206D-01
     14 -0.221976D-03 -0.156880D-02  0.259673D-02 -0.307673D-03  0.164142D+00
     15 -0.355268D-02 -0.120656D-02  0.154072D-02  0.716625D-02 -0.674915D-02
               11            12            13            14            15 
     11  0.468531D+00
     12 -0.223817D-01  0.199553D-01
     13  0.908610D-01 -0.335238D-02  0.132496D+00
     14 -0.368277D+00  0.174309D-01 -0.141140D+00  0.360138D+00
     15  0.207385D-01 -0.131429D-01  0.521128D-02 -0.184244D-01  0.117025D-01
 Leave Link  703 at Wed Feb 19 14:52:10 2020, MaxMem=  1879048192 cpu:             107.3 elap:              13.4
 (Enter /opt/g16/l716.exe)
 FrcOut:
 IF    =        39 IFX   =        54 IFXYZ =        69
 IFFX  =        84 IFFFX =       204 IFLen =        15
 IFFLen=       120 IFFFLn=         0 IEDerv=       204
 LEDerv=       773 IFroze=      1181 ICStrt=     14205
 Dipole        = 7.97397933D-01 6.57662838D-01 2.55018407D-01
 DipoleDeriv   =-4.98877352D-01-1.23677473D-02 1.41639598D-01
                -1.19785101D-01-9.12989360D-02 5.45968205D-02
                 2.50204190D-01 5.28602552D-02-4.26892998D-01
                 7.58125597D-02-2.89886642D-02-3.06153656D-02
                -2.97941647D-02 1.13857681D-01-5.95047951D-02
                -1.11216446D-01-8.04175799D-02 3.21995361D-01
                 1.46266014D-01-1.78421968D-03-2.36294328D-02
                -1.42487620D-02 1.56556339D-01 2.56593233D-02
                -1.08322599D-01 3.98902444D-02 2.75090785D-01
                 9.64531959D-02 3.29375945D-02-8.60005413D-02
                 5.54336962D-02-1.07475556D-01-4.32495594D-02
                -3.23848639D-02-3.21392228D-02-4.37403053D-01
                 1.80345582D-01 1.02030366D-02-1.39425872D-03
                 1.08394331D-01-7.16395287D-02 2.24982106D-02
                 1.71971853D-03 1.98063031D-02 2.67209905D-01
 Polarizability= 2.44503576D+01-9.43589181D-02 1.68602871D+01
                -1.72580328D-01-7.51961316D-02 1.24161341D+01
 Quadrupole    = 4.46573037D-01 1.06938141D+00-1.51595445D+00
                -1.68188398D+00 7.25023449D-01 8.27709642D-02
 VibFq2-Diag1:  N=     15 IV=           6 MDV=  1879032805 NE2=   125268853
 Full mass-weighted force constant matrix:
 Low frequencies ---  -10.0833   -0.0013   -0.0009   -0.0009    8.0270   31.8372
 Low frequencies ---  546.2413  704.7796 1151.5089
 OrtVCM:  Ph=1 IPass= 1 DotMx1= 0.00D+00
 OrtVCM:  IS=    1 I=    1 IndO=    1 Dot= 1.00D+00 DotN= 1.00D+00 ElMax1= 6.72D-01 ElMax1N= 6.72D-01
 OrtVCM:  Ph=2 NNew=    0 IAdd=    2 IPass= 1 DotMx2= 0.00D+00
 OrtVCM:  IS=    1 I=    2 IndO=    2 Dot= 1.00D+00 DotN= 1.00D+00 ElMax1= 6.72D-01 ElMax1N= 6.72D-01
 OrtVCM:  Ph=2 NNew=    0 IAdd=    3 IPass= 1 DotMx2= 0.00D+00
 OrtVCM:  IS=    1 I=    3 IndO=    3 Dot= 1.00D+00 DotN= 1.00D+00 ElMax1= 6.72D-01 ElMax1N= 6.72D-01
 OrtVCM:  Ph=2 NNew=    0 IAdd=    4 IPass= 1 DotMx2= 6.94D-17
 OrtVCM:  IS=    1 I=    4 IndO=    4 Dot= 1.00D+00 DotN= 1.00D+00 ElMax1= 5.62D-01 ElMax1N= 5.62D-01
 OrtVCM:  Ph=2 NNew=    0 IAdd=    5 IPass= 1 DotMx2= 7.77D-16
 OrtVCM:  IS=    1 I=    5 IndO=    5 Dot= 1.00D+00 DotN= 1.00D+00 ElMax1= 6.57D-01 ElMax1N= 6.57D-01
 OrtVCM:  Ph=2 NNew=    0 IAdd=    6 IPass= 1 DotMx2= 1.93D-16
 OrtVCM:  IS=    1 I=    6 IndO=    6 Dot= 1.00D+00 DotN= 1.00D+00 ElMax1= 6.12D-01 ElMax1N= 6.12D-01
 OrtVCM:  Ph=1 IPass= 1 DotMx1= 6.72D-01
 OrtVCM:  Ph=1 IPass= 2 DotMx1= 1.70D-16
 OrtVCM:  IS=    1 I=    1 IndO=    7 Dot= 5.44D-01 DotN= 5.44D-01 ElMax1= 5.44D-01 ElMax1N= 5.44D-01
 OrtVCM:  Ph=2 NNew=    0 IAdd=    2 IPass= 1 DotMx2= 3.45D-02
 OrtVCM:  Ph=2 NNew=    0 IAdd=    2 IPass= 2 DotMx2= 3.47D-18
 OrtVCM:  IS=    1 I=    2 IndO=    8 Dot= 2.41D-01 DotN= 2.41D-01 ElMax1= 2.56D-01 ElMax1N= 2.56D-01
 OrtVCM:  Ph=2 NNew=    0 IAdd=    3 IPass= 1 DotMx2= 4.27D-02
 OrtVCM:  Ph=2 NNew=    0 IAdd=    3 IPass= 2 DotMx2= 1.13D-17
 OrtVCM:  IS=    1 I=    3 IndO=    9 Dot= 2.09D-01 DotN= 2.09D-01 ElMax1= 3.02D-01 ElMax1N= 3.02D-01
 OrtVCM:  Ph=2 NNew=    0 IAdd=    4 IPass= 1 DotMx2= 2.48D-01
 OrtVCM:  Ph=2 NNew=    0 IAdd=    4 IPass= 2 DotMx2= 6.04D-17
 OrtVCM:  IS=    1 I=    4 IndO=   10 Dot= 8.23D-01 DotN= 8.23D-01 ElMax1= 8.23D-01 ElMax1N= 8.23D-01
 OrtVCM:  Ph=2 NNew=    0 IAdd=    5 IPass= 1 DotMx2= 4.87D-01
 OrtVCM:  Ph=2 NNew=    0 IAdd=    5 IPass= 2 DotMx2= 9.50D-17
 OrtVCM:  IS=    1 I=    5 IndO=   11 Dot= 6.09D-01 DotN= 6.09D-01 ElMax1= 6.09D-01 ElMax1N= 6.09D-01
 OrtVCM:  Ph=2 NNew=    0 IAdd=    6 IPass= 1 DotMx2= 6.61D-01
 OrtVCM:  Ph=2 NNew=    0 IAdd=    6 IPass= 2 DotMx2= 9.63D-17
 OrtVCM:  IS=    1 I=    6 IndO=   12 Dot= 1.28D-01 DotN= 1.28D-01 ElMax1= 2.68D-01 ElMax1N= 2.68D-01
 OrtVCM:  Ph=2 NNew=    0 IAdd=    7 IPass= 1 DotMx2= 1.87D-01
 OrtVCM:  Ph=2 NNew=    0 IAdd=    7 IPass= 2 DotMx2= 3.91D-17
 OrtVCM:  IS=    1 I=    7 IndO=   13 Dot= 8.42D-01 DotN= 8.42D-01 ElMax1= 8.42D-01 ElMax1N= 8.42D-01
 OrtVCM:  Ph=2 NNew=    0 IAdd=    8 IPass= 1 DotMx2= 5.30D-01
 OrtVCM:  Ph=2 NNew=    0 IAdd=    8 IPass= 2 DotMx2= 2.12D-16
 OrtVCM:  IS=    1 I=    8 IndO=   14 Dot= 2.10D-01 DotN= 2.10D-01 ElMax1= 3.55D-01 ElMax1N= 3.55D-01
 OrtVCM:  Ph=2 NNew=    0 IAdd=    9 IPass= 1 DotMx2= 5.76D-01
 OrtVCM:  Ph=2 NNew=    0 IAdd=    9 IPass= 2 DotMx2= 2.01D-16
 OrtVCM:  IS=    1 I=    9 IndO=    0 Dot= 9.35D-33 DotN= 9.35D-33 ElMax1= 5.49D-17 ElMax1N= 5.49D-17
 SchOr2:  IPass= 1 Test2A= 1.00D-01 IOff=     0 NDo=     9 NNew=     8
 OrtVCM:  Ph=1 IPass= 1 DotMx1= 6.72D-01
 OrtVCM:  Ph=1 IPass= 2 DotMx1= 1.55D-16
 OrtVCM:  IS=    1 I=    1 IndO=   15 Dot= 1.10D-02 DotN= 1.10D-02 ElMax1= 9.25D-02 ElMax1N= 9.25D-02
 SchOr2:  IPass= 1 Test2A= 1.00D-01 IOff=     9 NDo=     1 NNew=     1
 VibFq2-Diag2:  N=      9 IV=           6 MDV=  1879032805 NE2=   208781422
 Dipole derivative wrt mode   1: -6.22391D+00 -1.90275D+00  9.87044D+00
 Vibrational polarizability contributions from mode   1       3.4937418       0.3265322       8.7869448
 Dipole derivative wrt mode   2: -1.98688D+00  2.39748D+00  1.10024D+01
 Vibrational polarizability contributions from mode   2       0.2138792       0.3114119       6.5584618
 Dipole derivative wrt mode   3: -4.40986D+00 -1.40212D+00  4.78711D-01
 Vibrational polarizability contributions from mode   3       0.3946837       0.0398997       0.0046510
 Dipole derivative wrt mode   4:  1.88838D+00  6.48259D-01 -4.92777D-01
 Vibrational polarizability contributions from mode   4       0.0586541       0.0069122       0.0039941
 Dipole derivative wrt mode   5:  4.80609D+00 -8.28074D-01  1.11071D-01
 Vibrational polarizability contributions from mode   5       0.2802970       0.0083210       0.0001497
 Dipole derivative wrt mode   6:  3.85739D+00  3.02426D-01  2.07826D+00
 Vibrational polarizability contributions from mode   6       0.1429005       0.0008784       0.0414809
 Dipole derivative wrt mode   7:  7.55564D-01 -2.14850D+00  1.41533D-01
 Vibrational polarizability contributions from mode   7       0.0012792       0.0103435       0.0000449
 Dipole derivative wrt mode   8:  1.13156D+00 -2.27087D-01  6.45761D-01
 Vibrational polarizability contributions from mode   8       0.0027574       0.0001111       0.0008980
 Dipole derivative wrt mode   9: -1.98675D+00  4.14235D+00 -3.87002D-01
 Vibrational polarizability contributions from mode   9       0.0078584       0.0341616       0.0002982
 Diagonal vibrational polarizability:
        4.5960513       0.7385715      15.3969235
 NorSel:  MapVib=      1      2      3      4      5      6      7      8      9
 Harmonic frequencies (cm**-1), IR intensities (KM/Mole), Raman scattering
 activities (A**4/AMU), depolarization ratios for plane and unpolarized
 incident light, reduced masses (AMU), force constants (mDyne/A),
 and normal coordinates:
                      1                      2                      3
                      A                      A                      A
 Frequencies --    546.2410               704.7793              1151.5087
 Red. masses --      1.2933                 1.0689                 1.0772
 Frc consts  --      0.2274                 0.3128                 0.8415
 IR Inten    --    139.7831               130.7485                21.6420
  Atom  AN      X      Y      Z        X      Y      Z        X      Y      Z
     1   7     0.03   0.01  -0.13     0.02  -0.02  -0.03    -0.01   0.06   0.00
     2   1    -0.16  -0.15   0.79    -0.12   0.08  -0.15     0.54  -0.16  -0.10
     3   1    -0.17   0.01   0.46    -0.03   0.12   0.62    -0.53  -0.25   0.13
     4   7    -0.00  -0.00   0.06    -0.01   0.00  -0.05     0.04  -0.01  -0.01
     5   1    -0.02  -0.02  -0.27     0.04   0.06   0.74    -0.50  -0.25   0.07
                      4                      5                      6
                      A                      A                      A
 Frequencies --   1279.1077              1489.1869              1673.9524
 Red. masses --      6.2825                 1.2677                 1.1035
 Frc consts  --      6.0562                 1.6564                 1.8218
 IR Inten    --      4.2291                23.7965                19.2901
  Atom  AN      X      Y      Z        X      Y      Z        X      Y      Z
     1   7    -0.40  -0.09   0.01    -0.07   0.08  -0.00    -0.08  -0.01  -0.01
     2   1    -0.71   0.03   0.08     0.33  -0.09  -0.05     0.57  -0.34   0.12
     3   1    -0.25   0.01   0.02    -0.32  -0.06   0.09     0.57   0.43   0.14
     4   7     0.47   0.10  -0.02     0.01  -0.09   0.00     0.01   0.01  -0.01
     5   1     0.02  -0.16   0.03     0.82   0.28  -0.04    -0.07  -0.03   0.00
                      7                      8                      9
                      A                      A                      A
 Frequencies --   3465.5112              3535.0057              3676.5799
 Red. masses --      1.0745                 1.0463                 1.1006
 Frc consts  --      7.6034                 7.7033                 8.7654
 IR Inten    --      5.2069                 1.7490                21.2560
  Atom  AN      X      Y      Z        X      Y      Z        X      Y      Z
     1   7     0.00   0.01   0.00    -0.04  -0.02  -0.02     0.02  -0.08   0.00
     2   1    -0.05  -0.11  -0.03     0.34   0.76   0.21     0.20   0.42   0.13
     3   1     0.01  -0.01   0.00     0.26  -0.42   0.09    -0.46   0.71  -0.19
     4   7     0.03  -0.06   0.00     0.00  -0.01  -0.00     0.00  -0.00   0.00
     5   1    -0.42   0.90  -0.05    -0.04   0.09  -0.00    -0.03   0.07  -0.00

 -------------------
 - Thermochemistry -
 -------------------
 Temperature   298.150 Kelvin.  Pressure   1.00000 Atm.
 Atom     1 has atomic number  7 and mass  14.00307
 Atom     2 has atomic number  1 and mass   1.00783
 Atom     3 has atomic number  1 and mass   1.00783
 Atom     4 has atomic number  7 and mass  14.00307
 Atom     5 has atomic number  1 and mass   1.00783
 Molecular mass:    31.02962 amu.
 Principal axes and moments of inertia in atomic units:
                           1         2         3
     Eigenvalues --     8.73374  58.10443  65.94670
           X            0.99779  -0.06147   0.02534
           Y            0.06122   0.99807   0.01059
           Z           -0.02594  -0.00901   0.99962
 This molecule is an asymmetric top.
 Rotational symmetry number  1.
 Rotational temperatures (Kelvin)      9.91716     1.49066     1.31339
 Rotational constants (GHZ):         206.64014    31.06030    27.36666
 Zero-point vibrational energy     104804.1 (Joules/Mol)
                                   25.04877 (Kcal/Mol)
 Warning -- explicit consideration of   1 degrees of freedom as
           vibrations may cause significant error
 Vibrational temperatures:    785.92  1014.02  1656.76  1840.35  2142.61
          (Kelvin)           2408.44  4986.10  5086.08  5289.78
 
 Zero-point correction=                           0.039918 (Hartree/Particle)
 Thermal correction to Energy=                    0.043093
 Thermal correction to Enthalpy=                  0.044037
 Thermal correction to Gibbs Free Energy=         0.017091
 Sum of electronic and zero-point Energies=           -111.199291
 Sum of electronic and thermal Energies=              -111.196115
 Sum of electronic and thermal Enthalpies=            -111.195171
 Sum of electronic and thermal Free Energies=         -111.222117
 
                     E (Thermal)             CV                S
                      KCal/Mol        Cal/Mol-Kelvin    Cal/Mol-Kelvin
 Total                   27.041              8.445             56.712
 Electronic               0.000              0.000              1.377
 Translational            0.889              2.981             36.230
 Rotational               0.889              2.981             18.155
 Vibrational             25.264              2.483              0.951
 Vibration     1          0.901              1.148              0.552
                       Q            Log10(Q)             Ln(Q)
 Total Bot       0.137556D-07         -7.861521        -18.101821
 Total V=0       0.315761D+11         10.499359         24.175668
 Vib (Bot)       0.488859D-18        -18.310817        -42.162213
 Vib (Bot)    1  0.288330D+00         -0.540109         -1.243648
 Vib (V=0)       0.112218D+01          0.050064          0.115276
 Vib (V=0)    1  0.107718D+01          0.032287          0.074345
 Electronic      0.200000D+01          0.301030          0.693147
 Translational   0.679389D+07          6.832119         15.731535
 Rotational      0.207084D+04          3.316147          7.635710
 Write normal modes, IRwNMS=   765 IRotNM=-1 NVibU=     9.
 
                                                                 name
                                                             IR Spectrum
 
     3    3  3                                                             1     1      1    1                                       
     6    5  4                                                             6     4      2    1              7     5                  
     7    3  6                                                             7     8      7    5              0     4                  
     7    5  6                                                             4     9      9    2              5     6                  
 
     X    X  X                                                             X     X      X    X              X     X                  
     X                                                                     X     X           X              X     X                  
     X                                                                     X     X           X              X     X                  
                                                                                                            X     X                  
                                                                                                            X     X                  
                                                                                                            X     X                  
                                                                                                            X     X                  
                                                                                                            X     X                  
                                                                                                            X     X                  
                                                                                                            X     X                  
                                                                                                            X     X                  
                                                                                                            X     X                  
                                                                                                            X     X                  
                                                                                                            X     X                  
                                                                                                            X     X                  
                                                                                                            X     X                  
                                                                                                            X     X                  
                                                                                                            X     X                  
                                                                                                            X     X                  
                                                                                                                  X                  
 
 Forces in standard orientation:
 -------------------------------------------------------------------
 Center     Atomic                   Forces (Hartrees/Bohr)
 Number     Number              X              Y              Z
 -------------------------------------------------------------------
      1        7          -0.000006415    0.000084237    0.000017699
      2        1           0.000028806   -0.000012819   -0.000008972
      3        1          -0.000022156    0.000006213   -0.000004988
      4        7          -0.000026532   -0.000146707    0.000011146
      5        1           0.000026297    0.000069076   -0.000014885
 -------------------------------------------------------------------
 Cartesian Forces:  Max     0.000146707 RMS     0.000049743
 ***** Axes restored to original set *****
 Rotating derivatives, DoTrsp=F IDiff=-2 LEDeriv=    772 LFDPrp=       0 LDFDPr=       0.
 -------------------------------------------------------------------
 Center     Atomic                   Forces (Hartrees/Bohr)
 Number     Number              X              Y              Z
 -------------------------------------------------------------------
      1        7           0.000006550   -0.000084263   -0.000017526
      2        1          -0.000028809    0.000012777    0.000009021
      3        1           0.000022183   -0.000006154    0.000004942
      4        7           0.000026185    0.000146739   -0.000011548
      5        1          -0.000026108   -0.000069098    0.000015111
 -------------------------------------------------------------------
 Cartesian Forces:  Max     0.000146739 RMS     0.000049743
 Z-matrix is all fixed cartesians, so copy forces.
 Force constants in Cartesian coordinates: 
                1             2             3             4             5 
      1  0.707455D+00
      2 -0.293223D-01  0.813946D+00
      3  0.832614D-01  0.153205D-01  0.739803D-01
      4 -0.118034D+00 -0.118297D+00 -0.442447D-01  0.131101D+00
      5 -0.115401D+00 -0.358827D+00 -0.829276D-01  0.135266D+00  0.366783D+00
      6 -0.522016D-01 -0.112621D+00 -0.360810D-01  0.459978D-01  0.940537D-01
      7 -0.158828D+00  0.155430D+00 -0.499073D-01  0.107893D-01 -0.142316D-01
      8  0.162137D+00 -0.338916D+00  0.659805D-01  0.171101D-01 -0.173096D-01
      9 -0.666577D-01  0.933154D-01 -0.307721D-01  0.698400D-02 -0.116236D-01
     10 -0.395048D+00 -0.590326D-01  0.136159D-01 -0.256929D-01 -0.679357D-02
     11  0.354413D-02 -0.117295D+00  0.601015D-04 -0.335290D-01  0.484219D-02
     12  0.329863D-01  0.103331D-01 -0.496520D-02 -0.900216D-02 -0.183502D-02
     13 -0.355449D-01  0.512221D-01 -0.272528D-02  0.183707D-02  0.116066D-02
     14 -0.209578D-01  0.109226D-02  0.156646D-02 -0.550135D-03  0.451103D-02
     15  0.261170D-02 -0.634810D-02 -0.216204D-02  0.265038D-03  0.233248D-02
                6             7             8             9            10 
      6  0.352406D-01
      7  0.440090D-02  0.185044D+00
      8  0.107218D-01 -0.174181D+00  0.341556D+00
      9 -0.103215D-02  0.530216D-01 -0.751412D-01  0.320347D-01
     10  0.278694D-02 -0.288788D-01 -0.284419D-02  0.480058D-02  0.540919D+00
     11  0.808633D-02  0.345785D-01  0.120780D-01 -0.626149D-02 -0.961008D-01
     12  0.542802D-02 -0.635010D-02 -0.311548D-02 -0.739216D-02 -0.142479D-01
     13 -0.984019D-03 -0.812680D-02 -0.222205D-02  0.185157D-02 -0.912993D-01
     14 -0.240790D-03 -0.159541D-02  0.259136D-02 -0.289156D-03  0.164771D+00
     15 -0.355555D-02 -0.116507D-02  0.155444D-02  0.716170D-02 -0.695550D-02
               11            12            13            14            15 
     11  0.468013D+00
     12 -0.231630D-01  0.201318D-01
     13  0.915072D-01 -0.338611D-02  0.133134D+00
     14 -0.367639D+00  0.177804D-01 -0.141668D+00  0.359444D+00
     15  0.212781D-01 -0.132025D-01  0.524384D-02 -0.188169D-01  0.117583D-01
 Final forces over variables, Energy=-1.11239208D+02:
  6.54960783D-06-2.88094192D-05 2.21828502D-05 2.61849048D-05
 -2.61079437D-05-8.42632504D-05 1.27769557D-05-6.15406558D-06
  1.46738654D-04-6.90982933D-05-1.75261532D-05 9.02058542D-06
  4.94204480D-06-1.15479562D-05 1.51114792D-05
 Leave Link  716 at Wed Feb 19 14:52:11 2020, MaxMem=  1879048192 cpu:               1.8 elap:               0.3
 (Enter /opt/g16/l103.exe)

 GradGradGradGradGradGradGradGradGradGradGradGradGradGradGradGradGradGrad
 Berny optimization.
 Search for a local minimum.
 Step number   1 out of a maximum of    2
 All quantities printed in internal units (Hartrees-Bohrs-Radians)
 Second derivative matrix not updated -- analytic derivatives used.
 The second derivative matrix:
                          X1        Y1        Z1        X2        Y2
           X1           0.70745
           Y1          -0.02932   0.81395
           Z1           0.08326   0.01532   0.07398
           X2          -0.11803  -0.11830  -0.04424   0.13110
           Y2          -0.11540  -0.35883  -0.08293   0.13527   0.36678
           Z2          -0.05220  -0.11262  -0.03608   0.04600   0.09405
           X3          -0.15883   0.15543  -0.04991   0.01079  -0.01423
           Y3           0.16214  -0.33892   0.06598   0.01711  -0.01731
           Z3          -0.06666   0.09332  -0.03077   0.00698  -0.01162
           X4          -0.39505  -0.05903   0.01362  -0.02569  -0.00679
           Y4           0.00354  -0.11729   0.00006  -0.03353   0.00484
           Z4           0.03299   0.01033  -0.00497  -0.00900  -0.00184
           X5          -0.03554   0.05122  -0.00273   0.00184   0.00116
           Y5          -0.02096   0.00109   0.00157  -0.00055   0.00451
           Z5           0.00261  -0.00635  -0.00216   0.00027   0.00233
                          Z2        X3        Y3        Z3        X4
           Z2           0.03524
           X3           0.00440   0.18504
           Y3           0.01072  -0.17418   0.34156
           Z3          -0.00103   0.05302  -0.07514   0.03203
           X4           0.00279  -0.02888  -0.00284   0.00480   0.54092
           Y4           0.00809   0.03458   0.01208  -0.00626  -0.09610
           Z4           0.00543  -0.00635  -0.00312  -0.00739  -0.01425
           X5          -0.00098  -0.00813  -0.00222   0.00185  -0.09130
           Y5          -0.00024  -0.00160   0.00259  -0.00029   0.16477
           Z5          -0.00356  -0.00117   0.00155   0.00716  -0.00696
                          Y4        Z4        X5        Y5        Z5
           Y4           0.46801
           Z4          -0.02316   0.02013
           X5           0.09151  -0.00339   0.13313
           Y5          -0.36764   0.01778  -0.14167   0.35944
           Z5           0.02128  -0.01320   0.00524  -0.01882   0.01176
 ITU=  0
     Eigenvalues ---    0.02685   0.03630   0.06046   0.13094   0.18697
     Eigenvalues ---    0.46827   0.71820   1.04585   1.12469
 Angle between quadratic step and forces=  55.36 degrees.
 Linear search not attempted -- first point.
 B after Tr=     0.000059    0.000035   -0.000108
         Rot=    1.000000   -0.000006   -0.000001    0.000015 Ang=  -0.00 deg.
 Variable       Old X    -DE/DX   Delta X   Delta X   Delta X     New X
                                 (Linear)    (Quad)   (Total)
    X1        1.11712   0.00001   0.00000   0.00009   0.00015   1.11727
    Y1        0.04880  -0.00008   0.00000  -0.00016  -0.00015   0.04865
    Z1       -0.13381  -0.00002   0.00000  -0.00024  -0.00035  -0.13416
    X2        1.92066  -0.00003   0.00000  -0.00030  -0.00019   1.92047
    Y2        1.70618   0.00001   0.00000  -0.00004  -0.00007   1.70611
    Z2        0.36752   0.00001   0.00000   0.00010   0.00001   0.36753
    X3        2.13743   0.00002   0.00000   0.00009   0.00010   2.13753
    Y3       -1.49953  -0.00001   0.00000  -0.00003  -0.00007  -1.49960
    Z3        0.28689   0.00000   0.00000   0.00041   0.00028   0.28717
    X4       -1.38792   0.00003   0.00000   0.00011   0.00016  -1.38776
    Y4       -0.28810   0.00015   0.00000   0.00023   0.00030  -0.28779
    Z4        0.04848  -0.00001   0.00000  -0.00008  -0.00019   0.04830
    X5       -2.17261  -0.00003   0.00000  -0.00033  -0.00023  -2.17284
    Y5        1.47002  -0.00007   0.00000  -0.00011  -0.00001   1.47001
    Z5       -0.04801   0.00002   0.00000   0.00033   0.00024  -0.04777
         Item               Value     Threshold  Converged?
 Maximum Force            0.000147     0.000450     YES
 RMS     Force            0.000050     0.000300     YES
 Maximum Displacement     0.000353     0.001800     YES
 RMS     Displacement     0.000195     0.001200     YES
 Predicted change in Energy=-4.537840D-08
 Optimization completed.
    -- Stationary point found.
 GradGradGradGradGradGradGradGradGradGradGradGradGradGradGradGradGradGrad

 Leave Link  103 at Wed Feb 19 14:52:11 2020, MaxMem=  1879048192 cpu:               0.2 elap:               0.0
 (Enter /opt/g16/l9999.exe)

 ----------------------------------------------------------------------

 Electric dipole moment (input orientation):
 (Debye = 10**-18 statcoulomb cm , SI units = C m)
                  (au)            (Debye)         (10**-30 SI)
   Tot        0.106461D+01      0.270597D+01      0.902615D+01
   x          0.796660D+00      0.202491D+01      0.675437D+01
   y          0.659953D+00      0.167743D+01      0.559531D+01
   z          0.251383D+00      0.638951D+00      0.213131D+01

 Dipole polarizability, Alpha (input orientation).
 (esu units = cm**3 , SI units = C**2 m**2 J**-1)
 Alpha(0;0):
               (au)            (10**-24 esu)      (10**-40 SI)
   iso        0.179089D+02      0.265383D+01      0.295278D+01
   aniso      0.105463D+02      0.156280D+01      0.173885D+01
   xx         0.244497D+02      0.362307D+01      0.403121D+01
   yx        -0.786352D-01     -0.116525D-01     -0.129652D-01
   yy         0.168596D+02      0.249833D+01      0.277976D+01
   zx        -0.204666D+00     -0.303283D-01     -0.337448D-01
   zy        -0.853921D-01     -0.126538D-01     -0.140793D-01
   zz         0.124175D+02      0.184009D+01      0.204737D+01

 ----------------------------------------------------------------------

 Dipole orientation:
     7          0.69287610         -0.30263843          0.83461024
     1          0.13530778          0.22719238          2.58168972
     1          1.51720968         -2.01332084          0.73764692
     7         -0.68735918          0.29225123         -1.20574092
     1         -1.70413434          1.85810818         -0.72586289

 Electric dipole moment (dipole orientation):
 (Debye = 10**-18 statcoulomb cm , SI units = C m)
                  (au)            (Debye)         (10**-30 SI)
   Tot        0.106461D+01      0.270597D+01      0.902615D+01
   x          0.000000D+00      0.000000D+00      0.000000D+00
   y          0.000000D+00      0.000000D+00      0.000000D+00
   z          0.106461D+01      0.270597D+01      0.902615D+01

 Dipole polarizability, Alpha (dipole orientation).
 (esu units = cm**3 , SI units = C**2 m**2 J**-1)
 Alpha(0;0):
               (au)            (10**-24 esu)      (10**-40 SI)
   iso        0.179089D+02      0.265383D+01      0.295278D+01
   aniso      0.105463D+02      0.156280D+01      0.173885D+01
   xx         0.167950D+02      0.248877D+01      0.276913D+01
   yx        -0.362321D+01     -0.536905D+00     -0.597387D+00
   yy         0.162399D+02      0.240650D+01      0.267759D+01
   zx         0.402249D+01      0.596072D+00      0.663219D+00
   zy        -0.137150D+01     -0.203236D+00     -0.226130D+00
   zz         0.206919D+02      0.306622D+01      0.341163D+01

 ----------------------------------------------------------------------

 Test job not archived.
 1\1\GINC-NODE06\Freq\UwB97XD\def2TZVP\H3N2(2)\ALONGD\19-Feb-2020\0\\#P
  guess=read uwb97xd/def2tzvp freq iop(7/33=1) scf=(tight, direct) inte
 gral=(grid=ultrafine, Acc2E=12) scf=xqc iop(2/9=2000)\\name\\0,2\N,0.5
 91154,0.025826,-0.070808\H,1.01637,0.90287,0.194481\H,1.13108,-0.79351
 7,0.151816\N,-0.734458,-0.152454,0.025657\H,-1.149698,0.777901,-0.0254
 08\\Version=ES64L-G16RevB.01\State=2-A\HF=-111.2392083\S2=0.754588\S2-
 1=0.\S2A=0.750014\RMSD=6.346e-09\RMSF=4.974e-05\ZeroPoint=0.0399178\Th
 ermal=0.0430932\Dipole=0.7966603,0.6599525,0.2513827\DipoleDeriv=-0.49
 75344,-0.0127831,0.141741,-0.1199506,-0.0913425,0.0544672,0.2505514,0.
 0526756,-0.4281924,0.0755601,-0.0293551,-0.0297566,-0.0302857,0.113415
 3,-0.0590181,-0.1103104,-0.0801069,0.3226902,0.1459457,-0.0017522,-0.0
 233329,-0.0144459,0.1566698,0.0259149,-0.1080281,0.0399293,0.2752977,0
 .095939,0.0330932,-0.087419,0.05568,-0.1074569,-0.0443301,-0.0338784,-
 0.0330434,-0.4369075,0.1800896,0.0107972,-0.0012325,0.1090021,-0.07128
 57,0.0229661,0.0016655,0.0205455,0.2671121\Polar=24.4497132,-0.0786352
 ,16.8595519,-0.2046655,-0.0853921,12.4175137\Quadrupole=0.457731,1.062
 5037,-1.5202347,-1.6813503,0.7233243,0.0830388\PG=C01 [X(H3N2)]\NImag=
 0\\0.70745487,-0.02932227,0.81394583,0.08326136,0.01532054,0.07398027,
 -0.11803405,-0.11829673,-0.04424468,0.13110061,-0.11540123,-0.35882697
 ,-0.08292756,0.13526578,0.36678336,-0.05220162,-0.11262098,-0.03608097
 ,0.04599780,0.09405367,0.03524065,-0.15882785,0.15542953,-0.04990733,0
 .01078926,-0.01423164,0.00440090,0.18504420,0.16213714,-0.33891614,0.0
 6598045,0.01711007,-0.01730961,0.01072177,-0.17418097,0.34155642,-0.06
 665775,0.09331540,-0.03077206,0.00698400,-0.01162357,-0.00103215,0.053
 02160,-0.07514118,0.03203466,-0.39504808,-0.05903264,0.01361593,-0.025
 69288,-0.00679357,0.00278694,-0.02887880,-0.00284419,0.00480058,0.5409
 1912,0.00354413,-0.11729499,0.00006010,-0.03352899,0.00484219,0.008086
 33,0.03457848,0.01207796,-0.00626149,-0.09610082,0.46801343,0.03298631
 ,0.01033313,-0.00496520,-0.00900216,-0.00183502,0.00542802,-0.00635010
 ,-0.00311548,-0.00739216,-0.01424795,-0.02316304,0.02013179,-0.0355448
 8,0.05122210,-0.00272528,0.00183707,0.00116066,-0.00098402,-0.00812680
 ,-0.00222205,0.00185157,-0.09129935,0.09150720,-0.00338611,0.13313397,
 -0.02095777,0.00109226,0.00156646,-0.00055013,0.00451103,-0.00024079,-
 0.00159541,0.00259136,-0.00028916,0.16477123,-0.36763860,0.01778041,-0
 .14166791,0.35944395,0.00261170,-0.00634810,-0.00216204,0.00026504,0.0
 0233248,-0.00355555,-0.00116507,0.00155444,0.00716170,-0.00695550,0.02
 127810,-0.01320245,0.00524384,-0.01881693,0.01175835\\-0.00000655,0.00
 008426,0.00001753,0.00002881,-0.00001278,-0.00000902,-0.00002218,0.000
 00615,-0.00000494,-0.00002618,-0.00014674,0.00001155,0.00002611,0.0000
 6910,-0.00001511\\\@


 THE MORE PROGRESS PHYSICAL SCIENCES MAKE, THE MORE THEY TEND TO ENTER
 THE DOMAIN OF MATHEMATICS, WHICH IS A KIND OF CENTRE TO WHICH THEY ALL
 CONVERGE.  WE MAY EVEN JUDGE THE DEGREE OF PERFECTION TO WHICH A 
 SCIENCE HAS ARRIVED BY THE FACILITY WITH WHICH IT MAY BE SUBMITTED
 TO CALCULATION.

                               -- ADOLPHE QUETELET, 1796-1874
 Job cpu time:       0 days  0 hours  4 minutes 44.9 seconds.
 Elapsed time:       0 days  0 hours  0 minutes 35.9 seconds.
 File lengths (MBytes):  RWF=     10 Int=      0 D2E=      0 Chk=      2 Scr=      1
 Normal termination of Gaussian 16 at Wed Feb 19 14:52:11 2020.
