 Entering Gaussian System, Link 0=g16
 Initial command:
 /opt/g16/l1.exe "/scratch/alongd/g16/a33750-33012/Gau-17113.inp" -scrdir="/scratch/alongd/g16/a33750-33012/"
 Entering Link 1 = /opt/g16/l1.exe PID=     17115.
  
 Copyright (c) 1988-2017, Gaussian, Inc.  All Rights Reserved.
  
 This is part of the Gaussian(R) 16 program.  It is based on
 the Gaussian(R) 09 system (copyright 2009, Gaussian, Inc.),
 the Gaussian(R) 03 system (copyright 2003, Gaussian, Inc.),
 the Gaussian(R) 98 system (copyright 1998, Gaussian, Inc.),
 the Gaussian(R) 94 system (copyright 1995, Gaussian, Inc.),
 the Gaussian 92(TM) system (copyright 1992, Gaussian, Inc.),
 the Gaussian 90(TM) system (copyright 1990, Gaussian, Inc.),
 the Gaussian 88(TM) system (copyright 1988, Gaussian, Inc.),
 the Gaussian 86(TM) system (copyright 1986, Carnegie Mellon
 University), and the Gaussian 82(TM) system (copyright 1983,
 Carnegie Mellon University). Gaussian is a federally registered
 trademark of Gaussian, Inc.
  
 This software contains proprietary and confidential information,
 including trade secrets, belonging to Gaussian, Inc.
  
 This software is provided under written license and may be
 used, copied, transmitted, or stored only in accord with that
 written license.
  
 The following legend is applicable only to US Government
 contracts under FAR:
  
                    RESTRICTED RIGHTS LEGEND
  
 Use, reproduction and disclosure by the US Government is
 subject to restrictions as set forth in subparagraphs (a)
 and (c) of the Commercial Computer Software - Restricted
 Rights clause in FAR 52.227-19.
  
 Gaussian, Inc.
 340 Quinnipiac St., Bldg. 40, Wallingford CT 06492
  
  
 ---------------------------------------------------------------
 Warning -- This program may not be used in any manner that
 competes with the business of Gaussian, Inc. or will provide
 assistance to any competitor of Gaussian, Inc.  The licensee
 of this program is prohibited from giving any competitor of
 Gaussian, Inc. access to this program.  By using this program,
 the user acknowledges that Gaussian, Inc. is engaged in the
 business of creating and licensing software in the field of
 computational chemistry and represents and warrants to the
 licensee that it is not a competitor of Gaussian, Inc. and that
 it will not use this program in any manner prohibited above.
 ---------------------------------------------------------------
  

 Cite this work as:
 Gaussian 16, Revision B.01,
 M. J. Frisch, G. W. Trucks, H. B. Schlegel, G. E. Scuseria, 
 M. A. Robb, J. R. Cheeseman, G. Scalmani, V. Barone, 
 G. A. Petersson, H. Nakatsuji, X. Li, M. Caricato, A. V. Marenich, 
 J. Bloino, B. G. Janesko, R. Gomperts, B. Mennucci, H. P. Hratchian, 
 J. V. Ortiz, A. F. Izmaylov, J. L. Sonnenberg, D. Williams-Young, 
 F. Ding, F. Lipparini, F. Egidi, J. Goings, B. Peng, A. Petrone, 
 T. Henderson, D. Ranasinghe, V. G. Zakrzewski, J. Gao, N. Rega, 
 G. Zheng, W. Liang, M. Hada, M. Ehara, K. Toyota, R. Fukuda, 
 J. Hasegawa, M. Ishida, T. Nakajima, Y. Honda, O. Kitao, H. Nakai, 
 T. Vreven, K. Throssell, J. A. Montgomery, Jr., J. E. Peralta, 
 F. Ogliaro, M. J. Bearpark, J. J. Heyd, E. N. Brothers, K. N. Kudin, 
 V. N. Staroverov, T. A. Keith, R. Kobayashi, J. Normand, 
 K. Raghavachari, A. P. Rendell, J. C. Burant, S. S. Iyengar, 
 J. Tomasi, M. Cossi, J. M. Millam, M. Klene, C. Adamo, R. Cammi, 
 J. W. Ochterski, R. L. Martin, K. Morokuma, O. Farkas, 
 J. B. Foresman, and D. J. Fox, Gaussian, Inc., Wallingford CT, 2016.
 
 ******************************************
 Gaussian 16:  ES64L-G16RevB.01 20-Dec-2017
                19-Feb-2020 
 ******************************************
 %chk=check.chk
 %mem=14336mb
 %NProcShared=8
 Will use up to    8 processors via shared memory.
 -------------------------------------------------------
 #P opt guess=mix uwb97xd/def2tzvp scf=xqc iop(2/9=2000)
 -------------------------------------------------------
 1/18=20,19=15,26=3,38=1/1,3;
 2/9=2000,12=2,17=6,18=5,40=1/2;
 3/5=44,7=101,11=2,25=1,30=1,71=1,74=-58,116=2/1,2,3;
 4/13=-1/1;
 5/5=2,8=3,13=1,38=5/2,8;
 6/7=2,8=2,9=2,10=2,28=1/1;
 7//1,2,3,16;
 1/18=20,19=15,26=3/3(2);
 2/9=2000/2;
 99//99;
 2/9=2000/2;
 3/5=44,7=101,11=2,25=1,30=1,71=1,74=-58,116=2/1,2,3;
 4/5=5,16=3,69=1/1;
 5/5=2,8=3,13=1,38=5/2,8;
 7//1,2,3,16;
 1/18=20,19=15,26=3/3(-5);
 2/9=2000/2;
 6/7=2,8=2,9=2,10=2,19=2,28=1/1;
 99/9=1/99;
 Leave Link    1 at Wed Feb 19 14:50:26 2020, MaxMem=  1879048192 cpu:               0.6 elap:               0.1
 (Enter /opt/g16/l101.exe)
 ----
 name
 ----
 Symbolic Z-matrix:
 Charge =  0 Multiplicity = 2
 N                     0.        0.        0.14099 
 H                    -0.80427   0.       -0.49348 
 H                     0.80427   0.       -0.49348 
 
 ITRead=  0  0  0
 MicOpt= -1 -1 -1
 NAtoms=      3 NQM=        3 NQMF=       0 NMMI=      0 NMMIF=      0
                NMic=       0 NMicF=      0.
                    Isotopes and Nuclear Properties:
 (Nuclear quadrupole moments (NQMom) in fm**2, nuclear magnetic moments (NMagM)
  in nuclear magnetons)

  Atom         1           2           3
 IAtWgt=          14           1           1
 AtmWgt=  14.0030740   1.0078250   1.0078250
 NucSpn=           2           1           1
 AtZEff=  -0.0000000  -0.0000000  -0.0000000
 NQMom=    2.0440000   0.0000000   0.0000000
 NMagM=    0.4037610   2.7928460   2.7928460
 AtZNuc=   7.0000000   1.0000000   1.0000000
 Leave Link  101 at Wed Feb 19 14:50:26 2020, MaxMem=  1879048192 cpu:               5.5 elap:               0.7
 (Enter /opt/g16/l103.exe)

 GradGradGradGradGradGradGradGradGradGradGradGradGradGradGradGradGradGrad
 Berny optimization.
 Initialization pass.
                           ----------------------------
                           !    Initial Parameters    !
                           ! (Angstroms and Degrees)  !
 --------------------------                            --------------------------
 ! Name  Definition              Value          Derivative Info.                !
 --------------------------------------------------------------------------------
 ! R1    R(1,2)                  1.0244         estimate D2E/DX2                !
 ! R2    R(1,3)                  1.0244         estimate D2E/DX2                !
 ! A1    A(2,1,3)              103.4619         estimate D2E/DX2                !
 --------------------------------------------------------------------------------
 Trust Radius=3.00D-01 FncErr=1.00D-07 GrdErr=1.00D-06 EigMax=2.50D+02 EigMin=1.00D-04
 Number of steps in this run=     20 maximum allowed number of steps=    100.
 GradGradGradGradGradGradGradGradGradGradGradGradGradGradGradGradGradGrad

 Leave Link  103 at Wed Feb 19 14:50:27 2020, MaxMem=  1879048192 cpu:               0.2 elap:               0.0
 (Enter /opt/g16/l202.exe)
                          Input orientation:                          
 ---------------------------------------------------------------------
 Center     Atomic      Atomic             Coordinates (Angstroms)
 Number     Number       Type             X           Y           Z
 ---------------------------------------------------------------------
      1          7           0        0.000000    0.000000    0.140993
      2          1           0       -0.804269    0.000000   -0.493475
      3          1           0        0.804269    0.000000   -0.493475
 ---------------------------------------------------------------------
                    Distance matrix (angstroms):
                    1          2          3
     1  N    0.000000
     2  H    1.024401   0.000000
     3  H    1.024401   1.608537   0.000000
 Stoichiometry    H2N(2)
 Framework group  C2V[C2(N),SGV(H2)]
 Deg. of freedom     2
 Full point group                 C2V     NOp   4
 Largest Abelian subgroup         C2V     NOp   4
 Largest concise Abelian subgroup C2      NOp   2
                         Standard orientation:                         
 ---------------------------------------------------------------------
 Center     Atomic      Atomic             Coordinates (Angstroms)
 Number     Number       Type             X           Y           Z
 ---------------------------------------------------------------------
      1          7           0        0.000000    0.000000    0.140993
      2          1           0       -0.000000    0.804269   -0.493475
      3          1           0       -0.000000   -0.804269   -0.493475
 ---------------------------------------------------------------------
 Rotational constants (GHZ):         712.5027124         387.6143770         251.0426369
 Leave Link  202 at Wed Feb 19 14:50:27 2020, MaxMem=  1879048192 cpu:               0.2 elap:               0.0
 (Enter /opt/g16/l301.exe)
 Standard basis: def2TZVP (5D, 7F)
 Ernie: Thresh=  0.10000D-02 Tol=  0.10000D-05 Strict=F.
 There are    22 symmetry adapted cartesian basis functions of A1  symmetry.
 There are     4 symmetry adapted cartesian basis functions of A2  symmetry.
 There are     9 symmetry adapted cartesian basis functions of B1  symmetry.
 There are    13 symmetry adapted cartesian basis functions of B2  symmetry.
 There are    19 symmetry adapted basis functions of A1  symmetry.
 There are     4 symmetry adapted basis functions of A2  symmetry.
 There are     8 symmetry adapted basis functions of B1  symmetry.
 There are    12 symmetry adapted basis functions of B2  symmetry.
    43 basis functions,    67 primitive gaussians,    48 cartesian basis functions
     5 alpha electrons        4 beta electrons
       nuclear repulsion energy         7.5609904981 Hartrees.
 IExCor= 4639 DFT=T Ex+Corr=wB97XD ExCW=0 ScaHFX=  1.000000
 ScaDFX=  1.000000  1.000000  1.000000  1.000000 ScalE2=  1.000000  1.000000
 IRadAn=      5 IRanWt=     -1 IRanGd=            0 ICorTp=0 IEmpDi=121
 HFx  wShort=  0.000000 wLong=  0.200000 cFull=  0.222036 cShort=  0.000000 cLong=  0.777964
 DFx  wShort=  0.000000 wLong=  0.200000 cFull=  0.000000 cShort=  0.000000 cLong=  1.000000
 NAtoms=    3 NActive=    3 NUniq=    2 SFac= 2.25D+00 NAtFMM=   60 NAOKFM=F Big=F
 Integral buffers will be    131072 words long.
 Raffenetti 2 integral format.
 Two-electron integral symmetry is turned on.
 R6Disp:  Grimme-D2 Dispersion energy=       -0.0000383762 Hartrees.
 Nuclear repulsion after empirical dispersion term =        7.5609521219 Hartrees.
 Leave Link  301 at Wed Feb 19 14:50:27 2020, MaxMem=  1879048192 cpu:               0.5 elap:               0.1
 (Enter /opt/g16/l302.exe)
 NPDir=0 NMtPBC=     1 NCelOv=     1 NCel=       1 NClECP=     1 NCelD=      1
         NCelK=      1 NCelE2=     1 NClLst=     1 CellRange=     0.0.
 One-electron integrals computed using PRISM.
 One-electron integral symmetry used in STVInt
   4 Symmetry operations used in ECPInt.
 ECPInt:  NShTT=     190 NPrTT=     556 LenC2=     191 LenP2D=     543.
 LDataN:  DoStor=T MaxTD1= 6 Len=  172
 NBasis=    43 RedAO= T EigKep=  6.08D-03  NBF=    19     4     8    12
 NBsUse=    43 1.00D-06 EigRej= -1.00D+00 NBFU=    19     4     8    12
 Precomputing XC quadrature grid using
 IXCGrd= 4 IRadAn=           5 IRanWt=          -1 IRanGd=           0 AccXCQ= 0.00D+00.
 Generated NRdTot=       0 NPtTot=           0 NUsed=           0 NTot=          32
 NSgBfM=    48    48    48    48    48 MxSgAt=     3 MxSgA2=     3.
 Leave Link  302 at Wed Feb 19 14:50:27 2020, MaxMem=  1879048192 cpu:               1.4 elap:               0.2
 (Enter /opt/g16/l303.exe)
 DipDrv:  MaxL=1.
 Leave Link  303 at Wed Feb 19 14:50:27 2020, MaxMem=  1879048192 cpu:               0.5 elap:               0.1
 (Enter /opt/g16/l401.exe)
 ExpMin= 1.03D-01 ExpMax= 1.97D+04 ExpMxC= 6.73D+02 IAcc=3 IRadAn=         5 AccDes= 0.00D+00
 Harris functional with IExCor= 4639 and IRadAn=       5 diagonalized for initial guess.
 HarFok:  IExCor= 4639 AccDes= 0.00D+00 IRadAn=         5 IDoV= 1 UseB2=F ITyADJ=14
 ICtDFT=  3500011 ScaDFX=  1.000000  1.000000  1.000000  1.000000
 FoFCou: FMM=F IPFlag=           0 FMFlag=      100000 FMFlg1=           0
         NFxFlg=           0 DoJE=T BraDBF=F KetDBF=T FulRan=T
         wScrn=  0.000000 ICntrl=       500 IOpCl=  0 I1Cent=   200000004 NGrid=           0
         NMat0=    1 NMatS0=      1 NMatT0=    0 NMatD0=    1 NMtDS0=    0 NMtDT0=    0
 Petite list used in FoFCou.
 Harris En= -53.5119127730217    
 JPrj=0 DoOrth=F DoCkMO=T.
 Mixing orbitals, IMix= 1 IMixAn=  0 NRI=1 NE=    5 Coef=  7.07106781D-01  7.07106781D-01
 Mixing orbitals, IMix= 1 IMixAn=  0 NRI=1 NE=    4 Coef= -7.07106781D-01  7.07106781D-01
 Initial guess orbital symmetries:
 Alpha Orbitals:
       Occupied  (A1) (A1) (B2) (A1) (?A)
       Virtual   (?A) (B2) (B2) (A1) (B1) (A1) (A1) (B2) (A1) (A2)
                 (B1) (A1) (B2) (B2) (B1) (A1) (A2) (A1) (B2) (B1)
                 (A1) (A1) (B2) (A1) (B2) (B1) (A1) (B1) (A2) (B2)
                 (B1) (A1) (A2) (A1) (B2) (B2) (A1) (A1)
 Beta  Orbitals:
       Occupied  (A1) (A1) (B2) (?A)
       Virtual   (?A) (A1) (B2) (B2) (A1) (B1) (A1) (A1) (B2) (A1)
                 (A2) (B1) (A1) (B2) (B2) (B1) (A1) (A2) (A1) (B2)
                 (B1) (A1) (A1) (B2) (A1) (B2) (B1) (A1) (B1) (A2)
                 (B2) (B1) (A1) (A2) (A1) (B2) (B2) (A1) (A1)
 Initial guess <Sx>= 0.0000 <Sy>= 0.0000 <Sz>= 0.5000 <S**2>= 1.0000 S= 0.6180
 Leave Link  401 at Wed Feb 19 14:50:27 2020, MaxMem=  1879048192 cpu:               1.6 elap:               0.2
 (Enter /opt/g16/l502.exe)
 Keep R1 and R2 ints in memory in symmetry-blocked form, NReq=7880296.
 FoFCou: FMM=F IPFlag=           0 FMFlag=           0 FMFlg1=           0
         NFxFlg=           0 DoJE=F BraDBF=F KetDBF=F FulRan=T
         wScrn=  0.000000 ICntrl=       600 IOpCl=  0 I1Cent=           0 NGrid=           0
         NMat0=    1 NMatS0=    946 NMatT0=    0 NMatD0=    1 NMtDS0=    0 NMtDT0=    0
 Petite list used in FoFCou.
 UHF open shell SCF:
 Using DIIS extrapolation, IDIIS=  1040.
 NGot=  1879048192 LenX=  1878802330 LenY=  1878799585
 Requested convergence on RMS density matrix=1.00D-08 within  32 cycles.
 Requested convergence on MAX density matrix=1.00D-06.
 Requested convergence on             energy=1.00D-06.
 No special actions if energy rises.
 Integral accuracy reduced to 1.0D-05 until final iterations.
 An orbital has undefined symmetry, so N**3 symmetry is turned off.

 Cycle   1  Pass 0  IDiag  1:
 Density matrix breaks symmetry, PCut= 1.00D-04
 Density matrix has no symmetry -- integrals replicated.
 E= -55.6562574827466    
 DIIS: error= 7.85D-02 at cycle   1 NSaved=   1.
 NSaved= 1 IEnMin= 1 EnMin= -55.6562574827466     IErMin= 1 ErrMin= 7.85D-02
 ErrMax= 7.85D-02  0.00D+00 EMaxC= 1.00D-01 BMatC= 7.18D-01 BMatP= 7.18D-01
 IDIUse=3 WtCom= 2.15D-01 WtEn= 7.85D-01
 Coeff-Com:  0.100D+01
 Coeff-En:   0.100D+01
 Coeff:      0.100D+01
 Gap=     0.208 Goal=   None    Shift=    0.000
 Gap=     0.276 Goal=   None    Shift=    0.000
 GapD=    0.208 DampG=1.000 DampE=0.500 DampFc=0.5000 IDamp=-1.
 Damping current iteration by 5.00D-01
 RMSDP=5.33D-02 MaxDP=1.40D+00              OVMax= 5.09D-01

 Cycle   2  Pass 0  IDiag  1:
 Density matrix breaks symmetry, PCut= 1.00D-04
 Density matrix has no symmetry -- integrals replicated.
 E= -55.7307403767725     Delta-E=       -0.074482894026 Rises=F Damp=T
 DIIS: error= 2.80D-02 at cycle   2 NSaved=   2.
 NSaved= 2 IEnMin= 2 EnMin= -55.7307403767725     IErMin= 2 ErrMin= 2.80D-02
 ErrMax= 2.80D-02  0.00D+00 EMaxC= 1.00D-01 BMatC= 1.25D-01 BMatP= 7.18D-01
 IDIUse=3 WtCom= 7.20D-01 WtEn= 2.80D-01
 Coeff-Com: -0.276D+00 0.128D+01
 Coeff-En:   0.000D+00 0.100D+01
 Coeff:     -0.199D+00 0.120D+01
 Gap=     0.373 Goal=   None    Shift=    0.000
 Gap=     0.298 Goal=   None    Shift=    0.000
 RMSDP=2.86D-02 MaxDP=7.17D-01 DE=-7.45D-02 OVMax= 1.13D-01

 Cycle   3  Pass 0  IDiag  1:
 Density matrix breaks symmetry, PCut= 1.00D-04
 Density matrix has no symmetry -- integrals replicated.
 E= -55.8431215868051     Delta-E=       -0.112381210033 Rises=F Damp=F
 DIIS: error= 1.26D-02 at cycle   3 NSaved=   3.
 NSaved= 3 IEnMin= 3 EnMin= -55.8431215868051     IErMin= 3 ErrMin= 1.26D-02
 ErrMax= 1.26D-02  0.00D+00 EMaxC= 1.00D-01 BMatC= 1.32D-02 BMatP= 1.25D-01
 IDIUse=3 WtCom= 8.74D-01 WtEn= 1.26D-01
 Coeff-Com: -0.102D+00 0.174D+00 0.928D+00
 Coeff-En:   0.000D+00 0.000D+00 0.100D+01
 Coeff:     -0.890D-01 0.152D+00 0.937D+00
 Gap=     0.460 Goal=   None    Shift=    0.000
 Gap=     0.305 Goal=   None    Shift=    0.000
 RMSDP=4.78D-03 MaxDP=6.89D-02 DE=-1.12D-01 OVMax= 1.05D-01

 Cycle   4  Pass 0  IDiag  1:
 Density matrix breaks symmetry, PCut= 1.00D-04
 Density matrix has no symmetry -- integrals replicated.
 E= -55.8592931119756     Delta-E=       -0.016171525170 Rises=F Damp=F
 DIIS: error= 1.19D-02 at cycle   4 NSaved=   4.
 NSaved= 4 IEnMin= 4 EnMin= -55.8592931119756     IErMin= 4 ErrMin= 1.19D-02
 ErrMax= 1.19D-02  0.00D+00 EMaxC= 1.00D-01 BMatC= 4.14D-03 BMatP= 1.32D-02
 IDIUse=3 WtCom= 8.81D-01 WtEn= 1.19D-01
 Coeff-Com:  0.794D-01-0.147D+00-0.616D+00 0.168D+01
 Coeff-En:   0.000D+00 0.000D+00 0.000D+00 0.100D+01
 Coeff:      0.699D-01-0.130D+00-0.543D+00 0.160D+01
 Gap=     0.487 Goal=   None    Shift=    0.000
 Gap=     0.323 Goal=   None    Shift=    0.000
 RMSDP=3.06D-03 MaxDP=4.05D-02 DE=-1.62D-02 OVMax= 1.48D-01

 Cycle   5  Pass 0  IDiag  1:
 Density matrix breaks symmetry, PCut= 1.00D-04
 Density matrix has no symmetry -- integrals replicated.
 E= -55.8702955488302     Delta-E=       -0.011002436855 Rises=F Damp=F
 DIIS: error= 9.59D-03 at cycle   5 NSaved=   5.
 NSaved= 5 IEnMin= 5 EnMin= -55.8702955488302     IErMin= 5 ErrMin= 9.59D-03
 ErrMax= 9.59D-03  0.00D+00 EMaxC= 1.00D-01 BMatC= 1.87D-03 BMatP= 4.14D-03
 IDIUse=3 WtCom= 9.04D-01 WtEn= 9.59D-02
 Coeff-Com: -0.570D-01 0.128D+00 0.419D+00-0.131D+01 0.182D+01
 Coeff-En:   0.000D+00 0.000D+00 0.000D+00 0.000D+00 0.100D+01
 Coeff:     -0.516D-01 0.116D+00 0.379D+00-0.119D+01 0.175D+01
 Gap=     0.491 Goal=   None    Shift=    0.000
 Gap=     0.336 Goal=   None    Shift=    0.000
 RMSDP=1.49D-03 MaxDP=1.62D-02 DE=-1.10D-02 OVMax= 1.22D-01

 Cycle   6  Pass 0  IDiag  1:
 Density matrix breaks symmetry, PCut= 1.00D-04
 Density matrix has no symmetry -- integrals replicated.
 E= -55.8759110164792     Delta-E=       -0.005615467649 Rises=F Damp=F
 DIIS: error= 6.76D-03 at cycle   6 NSaved=   6.
 NSaved= 6 IEnMin= 6 EnMin= -55.8759110164792     IErMin= 6 ErrMin= 6.76D-03
 ErrMax= 6.76D-03  0.00D+00 EMaxC= 1.00D-01 BMatC= 9.12D-04 BMatP= 1.87D-03
 IDIUse=3 WtCom= 9.32D-01 WtEn= 6.76D-02
 Coeff-Com:  0.998D-02-0.189D-01 0.919D-01-0.258D+00-0.110D+01 0.228D+01
 Coeff-En:   0.000D+00 0.000D+00 0.000D+00 0.000D+00 0.000D+00 0.100D+01
 Coeff:      0.931D-02-0.176D-01 0.857D-01-0.240D+00-0.103D+01 0.219D+01
 Gap=     0.508 Goal=   None    Shift=    0.000
 Gap=     0.362 Goal=   None    Shift=    0.000
 RMSDP=2.02D-03 MaxDP=2.64D-02 DE=-5.62D-03 OVMax= 1.67D-01

 Cycle   7  Pass 0  IDiag  1:
 Density matrix breaks symmetry, PCut= 1.00D-04
 Density matrix has no symmetry -- integrals replicated.
 E= -55.8801553818747     Delta-E=       -0.004244365396 Rises=F Damp=F
 DIIS: error= 2.31D-03 at cycle   7 NSaved=   7.
 NSaved= 7 IEnMin= 7 EnMin= -55.8801553818747     IErMin= 7 ErrMin= 2.31D-03
 ErrMax= 2.31D-03  0.00D+00 EMaxC= 1.00D-01 BMatC= 2.94D-04 BMatP= 9.12D-04
 IDIUse=3 WtCom= 9.77D-01 WtEn= 2.31D-02
 Coeff-Com:  0.293D-01-0.602D-01-0.145D+00 0.518D+00-0.862D+00 0.634D+00
 Coeff-Com:  0.887D+00
 Coeff-En:   0.000D+00 0.000D+00 0.000D+00 0.000D+00 0.000D+00 0.000D+00
 Coeff-En:   0.100D+01
 Coeff:      0.286D-01-0.588D-01-0.142D+00 0.506D+00-0.842D+00 0.619D+00
 Coeff:      0.889D+00
 Gap=     0.513 Goal=   None    Shift=    0.000
 Gap=     0.363 Goal=   None    Shift=    0.000
 RMSDP=3.30D-04 MaxDP=4.40D-03 DE=-4.24D-03 OVMax= 2.57D-02

 Cycle   8  Pass 0  IDiag  1:
 Density matrix breaks symmetry, PCut= 1.00D-04
 Density matrix has no symmetry -- integrals replicated.
 E= -55.8804905926640     Delta-E=       -0.000335210789 Rises=F Damp=F
 DIIS: error= 1.61D-03 at cycle   8 NSaved=   8.
 NSaved= 8 IEnMin= 8 EnMin= -55.8804905926640     IErMin= 8 ErrMin= 1.61D-03
 ErrMax= 1.61D-03  0.00D+00 EMaxC= 1.00D-01 BMatC= 7.45D-05 BMatP= 2.94D-04
 IDIUse=3 WtCom= 9.84D-01 WtEn= 1.61D-02
 Coeff-Com: -0.596D-02 0.119D-01-0.529D-03 0.241D-01-0.108D+00-0.113D+00
 Coeff-Com: -0.463D+00 0.165D+01
 Coeff-En:   0.000D+00 0.000D+00 0.000D+00 0.000D+00 0.000D+00 0.000D+00
 Coeff-En:   0.000D+00 0.100D+01
 Coeff:     -0.587D-02 0.117D-01-0.521D-03 0.237D-01-0.107D+00-0.111D+00
 Coeff:     -0.455D+00 0.164D+01
 Gap=     0.514 Goal=   None    Shift=    0.000
 Gap=     0.362 Goal=   None    Shift=    0.000
 RMSDP=6.27D-04 MaxDP=8.92D-03 DE=-3.35D-04 OVMax= 5.23D-02

 Cycle   9  Pass 0  IDiag  1:
 Density matrix breaks symmetry, PCut= 1.00D-04
 Density matrix has no symmetry -- integrals replicated.
 E= -55.8807589131425     Delta-E=       -0.000268320478 Rises=F Damp=F
 DIIS: error= 4.41D-04 at cycle   9 NSaved=   9.
 NSaved= 9 IEnMin= 9 EnMin= -55.8807589131425     IErMin= 9 ErrMin= 4.41D-04
 ErrMax= 4.41D-04  0.00D+00 EMaxC= 1.00D-01 BMatC= 1.47D-05 BMatP= 7.45D-05
 IDIUse=3 WtCom= 9.96D-01 WtEn= 4.41D-03
 Coeff-Com: -0.476D-02 0.909D-02 0.380D-01-0.140D+00 0.129D+00 0.584D-01
 Coeff-Com: -0.370D+00 0.160D+00 0.112D+01
 Coeff-En:   0.000D+00 0.000D+00 0.000D+00 0.000D+00 0.000D+00 0.000D+00
 Coeff-En:   0.000D+00 0.000D+00 0.100D+01
 Coeff:     -0.474D-02 0.905D-02 0.378D-01-0.139D+00 0.129D+00 0.582D-01
 Coeff:     -0.368D+00 0.159D+00 0.112D+01
 Gap=     0.512 Goal=   None    Shift=    0.000
 Gap=     0.359 Goal=   None    Shift=    0.000
 RMSDP=7.29D-05 MaxDP=8.06D-04 DE=-2.68D-04 OVMax= 4.00D-03

 Failed to achieve initial convergence to 1.0D-08 in 10 cycles.
 Switch to full accuracy anyway.
 Cycle  10  Pass 1  IDiag  1:
 Density matrix breaks symmetry, PCut= 1.00D-04
 Density matrix has no symmetry -- integrals replicated.
 E= -55.8807728925629     Delta-E=       -0.000013979420 Rises=F Damp=F
 DIIS: error= 6.80D-05 at cycle   1 NSaved=   1.
 NSaved= 1 IEnMin= 1 EnMin= -55.8807728925629     IErMin= 1 ErrMin= 6.80D-05
 ErrMax= 6.80D-05  0.00D+00 EMaxC= 1.00D-01 BMatC= 4.45D-07 BMatP= 4.45D-07
 IDIUse=1 WtCom= 1.00D+00 WtEn= 0.00D+00
 Coeff-Com:  0.100D+01
 Coeff:      0.100D+01
 Gap=     0.512 Goal=   None    Shift=    0.000
 Gap=     0.358 Goal=   None    Shift=    0.000
 RMSDP=7.29D-05 MaxDP=8.06D-04 DE=-1.40D-05 OVMax= 5.29D-04

 Cycle  11  Pass 1  IDiag  1:
 Density matrix breaks symmetry, PCut= 1.00D-04
 Density matrix has no symmetry -- integrals replicated.
 E= -55.8807731969245     Delta-E=       -0.000000304362 Rises=F Damp=F
 DIIS: error= 5.33D-05 at cycle   2 NSaved=   2.
 NSaved= 2 IEnMin= 2 EnMin= -55.8807731969245     IErMin= 2 ErrMin= 5.33D-05
 ErrMax= 5.33D-05  0.00D+00 EMaxC= 1.00D-01 BMatC= 1.10D-07 BMatP= 4.45D-07
 IDIUse=1 WtCom= 1.00D+00 WtEn= 0.00D+00
 Coeff-Com: -0.531D-01 0.105D+01
 Coeff:     -0.531D-01 0.105D+01
 Gap=     0.512 Goal=   None    Shift=    0.000
 Gap=     0.358 Goal=   None    Shift=    0.000
 RMSDP=6.73D-06 MaxDP=7.83D-05 DE=-3.04D-07 OVMax= 4.05D-04

 Cycle  12  Pass 1  IDiag  1:
 Density matrix breaks symmetry, PCut= 1.00D-04
 Density matrix has no symmetry -- integrals replicated.
 E= -55.8807733243813     Delta-E=       -0.000000127457 Rises=F Damp=F
 DIIS: error= 4.14D-05 at cycle   3 NSaved=   3.
 NSaved= 3 IEnMin= 3 EnMin= -55.8807733243813     IErMin= 3 ErrMin= 4.14D-05
 ErrMax= 4.14D-05  0.00D+00 EMaxC= 1.00D-01 BMatC= 6.09D-08 BMatP= 1.10D-07
 IDIUse=1 WtCom= 1.00D+00 WtEn= 0.00D+00
 Coeff-Com: -0.240D+00 0.372D+00 0.868D+00
 Coeff:     -0.240D+00 0.372D+00 0.868D+00
 Gap=     0.512 Goal=   None    Shift=    0.000
 Gap=     0.358 Goal=   None    Shift=    0.000
 RMSDP=4.93D-06 MaxDP=5.82D-05 DE=-1.27D-07 OVMax= 3.52D-04

 Cycle  13  Pass 1  IDiag  1:
 Density matrix breaks symmetry, PCut= 1.00D-04
 Density matrix has no symmetry -- integrals replicated.
 E= -55.8807733566192     Delta-E=       -0.000000032238 Rises=F Damp=F
 DIIS: error= 4.46D-05 at cycle   4 NSaved=   4.
 NSaved= 4 IEnMin= 4 EnMin= -55.8807733566192     IErMin= 3 ErrMin= 4.14D-05
 ErrMax= 4.46D-05  0.00D+00 EMaxC= 1.00D-01 BMatC= 1.18D-07 BMatP= 6.09D-08
 IDIUse=1 WtCom= 1.00D+00 WtEn= 0.00D+00
 Coeff-Com: -0.160D+00 0.239D+00 0.686D+00 0.235D+00
 Coeff:     -0.160D+00 0.239D+00 0.686D+00 0.235D+00
 Gap=     0.512 Goal=   None    Shift=    0.000
 Gap=     0.358 Goal=   None    Shift=    0.000
 RMSDP=8.05D-07 MaxDP=1.07D-05 DE=-3.22D-08 OVMax= 6.39D-05

 Cycle  14  Pass 1  IDiag  1:
 Density matrix breaks symmetry, PCut= 1.00D-04
 Density matrix has no symmetry -- integrals replicated.
 E= -55.8807733732098     Delta-E=       -0.000000016591 Rises=F Damp=F
 DIIS: error= 4.14D-05 at cycle   5 NSaved=   5.
 NSaved= 5 IEnMin= 5 EnMin= -55.8807733732098     IErMin= 5 ErrMin= 4.14D-05
 ErrMax= 4.14D-05  0.00D+00 EMaxC= 1.00D-01 BMatC= 1.01D-07 BMatP= 6.09D-08
 IDIUse=1 WtCom= 1.00D+00 WtEn= 0.00D+00
 Coeff-Com: -0.122D+00 0.727D-01 0.487D+00-0.529D+01 0.585D+01
 Coeff:     -0.122D+00 0.727D-01 0.487D+00-0.529D+01 0.585D+01
 Gap=     0.512 Goal=   None    Shift=    0.000
 Gap=     0.358 Goal=   None    Shift=    0.000
 RMSDP=4.99D-06 MaxDP=6.97D-05 DE=-1.66D-08 OVMax= 4.10D-04

 Cycle  15  Pass 1  IDiag  1:
 Density matrix breaks symmetry, PCut= 1.00D-04
 Density matrix has no symmetry -- integrals replicated.
 E= -55.8807734567685     Delta-E=       -0.000000083559 Rises=F Damp=F
 DIIS: error= 2.43D-05 at cycle   6 NSaved=   6.
 NSaved= 6 IEnMin= 6 EnMin= -55.8807734567685     IErMin= 6 ErrMin= 2.43D-05
 ErrMax= 2.43D-05  0.00D+00 EMaxC= 1.00D-01 BMatC= 3.54D-08 BMatP= 6.09D-08
 IDIUse=1 WtCom= 1.00D+00 WtEn= 0.00D+00
 Coeff-Com: -0.775D-02 0.112D+00-0.882D-01 0.113D+01-0.277D+01 0.263D+01
 Coeff:     -0.775D-02 0.112D+00-0.882D-01 0.113D+01-0.277D+01 0.263D+01
 Gap=     0.512 Goal=   None    Shift=    0.000
 Gap=     0.358 Goal=   None    Shift=    0.000
 RMSDP=6.81D-06 MaxDP=9.79D-05 DE=-8.36D-08 OVMax= 5.74D-04

 Cycle  16  Pass 1  IDiag  1:
 E= -55.8807639575251     Delta-E=        0.000009499243 Rises=F Damp=F
 DIIS: error= 1.44D-06 at cycle   7 NSaved=   7.
 NSaved= 7 IEnMin= 6 EnMin= -55.8807734567685     IErMin= 7 ErrMin= 1.44D-06
 ErrMax= 1.44D-06  0.00D+00 EMaxC= 1.00D-01 BMatC= 1.49D-10 BMatP= 3.54D-08
 IDIUse=1 WtCom= 1.00D+00 WtEn= 0.00D+00
 Coeff-Com:  0.187D-02 0.233D-01-0.256D-01 0.234D+00-0.492D+00 0.405D+00
 Coeff-Com:  0.853D+00
 Coeff:      0.187D-02 0.233D-01-0.256D-01 0.234D+00-0.492D+00 0.405D+00
 Coeff:      0.853D+00
 Gap=     0.512 Goal=   None    Shift=    0.000
 Gap=     0.358 Goal=   None    Shift=    0.000
 RMSDP=8.12D-07 MaxDP=1.19D-05 DE= 9.50D-06 OVMax= 6.96D-05

 Cycle  17  Pass 1  IDiag  1:
 E= -55.8807720914461     Delta-E=       -0.000008133921 Rises=F Damp=F
 DIIS: error= 8.07D-07 at cycle   8 NSaved=   8.
 NSaved= 8 IEnMin= 6 EnMin= -55.8807734567685     IErMin= 8 ErrMin= 8.07D-07
 ErrMax= 8.07D-07  0.00D+00 EMaxC= 1.00D-01 BMatC= 4.45D-11 BMatP= 1.49D-10
 IDIUse=1 WtCom= 1.00D+00 WtEn= 0.00D+00
 Coeff-Com:  0.308D-03-0.298D-03 0.277D-02-0.238D-01 0.593D-01-0.560D-01
 Coeff-Com:  0.346D+00 0.671D+00
 Coeff:      0.308D-03-0.298D-03 0.277D-02-0.238D-01 0.593D-01-0.560D-01
 Coeff:      0.346D+00 0.671D+00
 Gap=     0.512 Goal=   None    Shift=    0.000
 Gap=     0.358 Goal=   None    Shift=    0.000
 RMSDP=1.20D-07 MaxDP=1.64D-06 DE=-8.13D-06 OVMax= 9.69D-06

 Cycle  18  Pass 1  IDiag  1:
 E= -55.8807733154070     Delta-E=       -0.000001223961 Rises=F Damp=F
 DIIS: error= 5.55D-07 at cycle   9 NSaved=   9.
 NSaved= 9 IEnMin= 6 EnMin= -55.8807734567685     IErMin= 9 ErrMin= 5.55D-07
 ErrMax= 5.55D-07  0.00D+00 EMaxC= 1.00D-01 BMatC= 1.79D-11 BMatP= 4.45D-11
 IDIUse=1 WtCom= 1.00D+00 WtEn= 0.00D+00
 Coeff-Com:  0.816D-03 0.286D-02-0.408D-02 0.188D-01-0.277D-01 0.126D-01
 Coeff-Com:  0.175D+00-0.595D+00 0.142D+01
 Coeff:      0.816D-03 0.286D-02-0.408D-02 0.188D-01-0.277D-01 0.126D-01
 Coeff:      0.175D+00-0.595D+00 0.142D+01
 Gap=     0.512 Goal=   None    Shift=    0.000
 Gap=     0.358 Goal=   None    Shift=    0.000
 RMSDP=5.27D-08 MaxDP=7.05D-07 DE=-1.22D-06 OVMax= 2.37D-06

 Cycle  19  Pass 1  IDiag  1:
 E= -55.8807734240842     Delta-E=       -0.000000108677 Rises=F Damp=F
 DIIS: error= 1.84D-07 at cycle  10 NSaved=  10.
 NSaved=10 IEnMin= 6 EnMin= -55.8807734567685     IErMin=10 ErrMin= 1.84D-07
 ErrMax= 1.84D-07  0.00D+00 EMaxC= 1.00D-01 BMatC= 2.32D-12 BMatP= 1.79D-11
 IDIUse=1 WtCom= 1.00D+00 WtEn= 0.00D+00
 Coeff-Com: -0.142D-03-0.564D-03 0.116D-02-0.376D-02 0.797D-02-0.652D-02
 Coeff-Com:  0.410D-03-0.530D-02-0.517D+00 0.152D+01
 Coeff:     -0.142D-03-0.564D-03 0.116D-02-0.376D-02 0.797D-02-0.652D-02
 Coeff:      0.410D-03-0.530D-02-0.517D+00 0.152D+01
 Gap=     0.512 Goal=   None    Shift=    0.000
 Gap=     0.358 Goal=   None    Shift=    0.000
 RMSDP=2.85D-08 MaxDP=4.15D-07 DE=-1.09D-07 OVMax= 9.62D-07

 Cycle  20  Pass 1  IDiag  1:
 E= -55.8807734900765     Delta-E=       -0.000000065992 Rises=F Damp=F
 DIIS: error= 1.82D-08 at cycle  11 NSaved=  11.
 NSaved=11 IEnMin=11 EnMin= -55.8807734900765     IErMin=11 ErrMin= 1.82D-08
 ErrMax= 1.82D-08  0.00D+00 EMaxC= 1.00D-01 BMatC= 1.75D-14 BMatP= 2.32D-12
 IDIUse=1 WtCom= 1.00D+00 WtEn= 0.00D+00
 Coeff-Com:  0.430D-04-0.451D-05-0.807D-04 0.179D-03-0.208D-03 0.363D-04
 Coeff-Com: -0.923D-02 0.385D-01 0.720D-01-0.418D+00 0.132D+01
 Coeff:      0.430D-04-0.451D-05-0.807D-04 0.179D-03-0.208D-03 0.363D-04
 Coeff:     -0.923D-02 0.385D-01 0.720D-01-0.418D+00 0.132D+01
 Gap=     0.512 Goal=   None    Shift=    0.000
 Gap=     0.358 Goal=   None    Shift=    0.000
 RMSDP=4.68D-09 MaxDP=4.40D-08 DE=-6.60D-08 OVMax= 2.68D-07

 SCF Done:  E(UwB97XD) =  -55.8807734901     A.U. after   20 cycles
            NFock= 20  Conv=0.47D-08     -V/T= 2.0040
 <Sx>= 0.0000 <Sy>= 0.0000 <Sz>= 0.5000 <S**2>= 0.7535 S= 0.5018
 <L.S>= 0.000000000000E+00
 KE= 5.565892515376D+01 PE=-1.459282899922D+02 EE= 2.682763922653D+01
 Annihilation of the first spin contaminant:
 S**2 before annihilation     0.7535,   after     0.7500
 Leave Link  502 at Wed Feb 19 14:50:29 2020, MaxMem=  1879048192 cpu:              14.6 elap:               1.8
 (Enter /opt/g16/l508.exe)
 QCSCF skips out because SCF is already converged.
 Leave Link  508 at Wed Feb 19 14:50:29 2020, MaxMem=  1879048192 cpu:               0.2 elap:               0.0
 (Enter /opt/g16/l601.exe)
 Copying SCF densities to generalized density rwf, IOpCl= 1 IROHF=0.

 **********************************************************************

            Population analysis using the SCF Density.

 **********************************************************************

 Orbital symmetries:
 Alpha Orbitals:
       Occupied  (A1) (A1) (B2) (A1) (B1)
       Virtual   (A1) (B2) (B2) (B1) (A1) (A1) (A1) (B2) (A2) (A1)
                 (B1) (A1) (B2) (B2) (B1) (A1) (A2) (A1) (B2) (B1)
                 (A1) (A1) (B2) (A1) (B2) (B1) (A1) (B1) (A2) (B2)
                 (B1) (A1) (A2) (A1) (B2) (B2) (A1) (A1)
 Beta  Orbitals:
       Occupied  (A1) (A1) (B2) (A1)
       Virtual   (B1) (A1) (B2) (B2) (A1) (B1) (A1) (A1) (B2) (A1)
                 (A2) (B1) (B2) (A1) (B2) (A1) (B1) (A2) (A1) (B2)
                 (B1) (A1) (A1) (B2) (A1) (B2) (B1) (A1) (B1) (A2)
                 (B2) (B1) (A1) (A2) (A1) (B2) (B2) (A1) (A1)
 The electronic state is 2-B1.
 Alpha  occ. eigenvalues --  -14.46195  -0.95737  -0.56377  -0.41796  -0.40345
 Alpha virt. eigenvalues --    0.10899   0.17811   0.39134   0.41920   0.42173
 Alpha virt. eigenvalues --    0.48247   0.52940   0.58666   0.99721   1.00452
 Alpha virt. eigenvalues --    1.04553   1.31664   1.34128   1.74984   1.91262
 Alpha virt. eigenvalues --    1.91715   1.95480   2.07056   2.12408   2.20509
 Alpha virt. eigenvalues --    2.32795   2.50162   2.52876   3.06063   3.12529
 Alpha virt. eigenvalues --    3.93075   4.07486   4.23263   4.28091   4.34463
 Alpha virt. eigenvalues --    4.55835   4.59841   4.62845   4.71861   4.90154
 Alpha virt. eigenvalues --    5.42008   5.62713  31.44071
  Beta  occ. eigenvalues --  -14.44528  -0.89859  -0.54681  -0.39024
  Beta virt. eigenvalues --   -0.03215   0.11505   0.18238   0.38987   0.42987
  Beta virt. eigenvalues --    0.47024   0.49241   0.54240   0.59708   1.01436
  Beta virt. eigenvalues --    1.03534   1.08505   1.34497   1.35533   1.74874
  Beta virt. eigenvalues --    1.92636   1.94827   1.96706   2.09167   2.13326
  Beta virt. eigenvalues --    2.26903   2.33290   2.51951   2.53933   3.07559
  Beta virt. eigenvalues --    3.15506   3.98203   4.12793   4.30383   4.33928
  Beta virt. eigenvalues --    4.37173   4.63501   4.65418   4.69313   4.79494
  Beta virt. eigenvalues --    4.91966   5.45018   5.64623  31.46578
          Condensed to atoms (all electrons):
               1          2          3
     1  N    6.831946   0.308384   0.308384
     2  H    0.308384   0.494622  -0.027363
     3  H    0.308384  -0.027363   0.494622
          Atomic-Atomic Spin Densities.
               1          2          3
     1  N    1.050257   0.000396   0.000396
     2  H    0.000396  -0.029119   0.003197
     3  H    0.000396   0.003197  -0.029119
 Mulliken charges and spin densities:
               1          2
     1  N   -0.448714   1.051050
     2  H    0.224357  -0.025525
     3  H    0.224357  -0.025525
 Sum of Mulliken charges =  -0.00000   1.00000
 Mulliken charges and spin densities with hydrogens summed into heavy atoms:
               1          2
     1  N   -0.000000   1.000000
 Electronic spatial extent (au):  <R**2>=             21.8584
 Charge=             -0.0000 electrons
 Dipole moment (field-independent basis, Debye):
    X=             -0.0000    Y=             -0.0000    Z=             -1.9837  Tot=              1.9837
 Quadrupole moment (field-independent basis, Debye-Ang):
   XX=             -7.1152   YY=             -5.4823   ZZ=             -7.5812
   XY=              0.0000   XZ=              0.0000   YZ=              0.0000
 Traceless Quadrupole moment (field-independent basis, Debye-Ang):
   XX=             -0.3890   YY=              1.2440   ZZ=             -0.8550
   XY=              0.0000   XZ=              0.0000   YZ=              0.0000
 Octapole moment (field-independent basis, Debye-Ang**2):
  XXX=              0.0000  YYY=              0.0000  ZZZ=             -2.0805  XYY=             -0.0000
  XXY=             -0.0000  XXZ=             -0.4882  XZZ=              0.0000  YZZ=             -0.0000
  YYZ=             -1.3797  XYZ=             -0.0000
 Hexadecapole moment (field-independent basis, Debye-Ang**3):
 XXXX=             -6.4629 YYYY=             -9.2881 ZZZZ=            -10.8354 XXXY=             -0.0000
 XXXZ=             -0.0000 YYYX=             -0.0000 YYYZ=             -0.0000 ZZZX=             -0.0000
 ZZZY=              0.0000 XXYY=             -2.8913 XXZZ=             -2.9176 YYZZ=             -3.0221
 XXYZ=              0.0000 YYXZ=              0.0000 ZZXY=             -0.0000
 N-N= 7.560952121879D+00 E-N=-1.459282899861D+02  KE= 5.565892515376D+01
 Symmetry A1   KE= 5.119554800362D+01
 Symmetry A2   KE= 8.555421038599D-19
 Symmetry B1   KE= 1.745152106755D+00
 Symmetry B2   KE= 2.718225043379D+00
 Symmetry A1   SP=-1.589946571753D-14
 Symmetry A2   SP= 1.972733085434D-19
 Symmetry B1   SP= 1.000000000000D+00
 Symmetry B2   SP=-1.803980277876D-15
                          Isotropic Fermi Contact Couplings
        Atom                 a.u.       MegaHertz       Gauss      10(-4) cm-1
     1  N(14)              0.08754      28.28375      10.09234       9.43444
     2  H(1)              -0.01363     -60.90443     -21.73222     -20.31553
     3  H(1)              -0.01363     -60.90443     -21.73222     -20.31553
 --------------------------------------------------------
       Center         ----  Spin Dipole Couplings  ----
                      3XX-RR        3YY-RR        3ZZ-RR
 --------------------------------------------------------
     1   Atom        2.232757     -1.104182     -1.128575
     2   Atom       -0.015673      0.039613     -0.023940
     3   Atom       -0.015673      0.039613     -0.023940
 --------------------------------------------------------
                        XY            XZ            YZ
 --------------------------------------------------------
     1   Atom       -0.000000      0.000000      0.000000
     2   Atom       -0.000000     -0.000000     -0.108314
     3   Atom       -0.000000     -0.000000      0.108314
 --------------------------------------------------------


 ---------------------------------------------------------------------------------
              Anisotropic Spin Dipole Couplings in Principal Axis System
 ---------------------------------------------------------------------------------

       Atom             a.u.   MegaHertz   Gauss  10(-4) cm-1        Axes

              Baa    -1.1286   -43.527   -15.531   -14.519  0.0000  0.0000  1.0000
     1 N(14)  Bbb    -1.1042   -42.586   -15.196   -14.205 -0.0000  1.0000 -0.0000
              Bcc     2.2328    86.112    30.727    28.724  1.0000 -0.0000 -0.0000
 
              Baa    -0.1050   -56.046   -19.999   -18.695  0.0000  0.5994  0.8005
     2 H(1)   Bbb    -0.0157    -8.363    -2.984    -2.789  1.0000 -0.0000  0.0000
              Bcc     0.1207    64.408    22.982    21.484  0.0000  0.8005 -0.5994
 
              Baa    -0.1050   -56.046   -19.999   -18.695  0.0000 -0.5994  0.8005
     3 H(1)   Bbb    -0.0157    -8.363    -2.984    -2.789  1.0000  0.0000  0.0000
              Bcc     0.1207    64.408    22.982    21.484 -0.0000  0.8005  0.5994
 

 ---------------------------------------------------------------------------------

 No NMR shielding tensors so no spin-rotation constants.
 Leave Link  601 at Wed Feb 19 14:50:29 2020, MaxMem=  1879048192 cpu:               2.1 elap:               0.3
 (Enter /opt/g16/l701.exe)
 ... and contract with generalized density number  0.
 Compute integral first derivatives.
 R6Disp: Adding Grimme-D2 dispersion energy 1st derivatives to the gradient.
   4 Symmetry operations used in ECPInt.
 ECPInt:  NShTT=     190 NPrTT=     556 LenC2=     191 LenP2D=     543.
 LDataN:  DoStor=T MaxTD1= 7 Len=  274
 Leave Link  701 at Wed Feb 19 14:50:30 2020, MaxMem=  1879048192 cpu:               1.4 elap:               0.2
 (Enter /opt/g16/l702.exe)
 L702 exits ... SP integral derivatives will be done elsewhere.
 Leave Link  702 at Wed Feb 19 14:50:30 2020, MaxMem=  1879048192 cpu:               0.5 elap:               0.1
 (Enter /opt/g16/l703.exe)
 Integral derivatives from FoFJK, PRISM(SPDF).
 Compute integral first derivatives, UseDBF=F ICtDFT=           0.
 Calling FoFJK, ICntrl=      2127 FMM=F ISym2X=1 I1Cent= 0 IOpClX= 1 NMat=1 NMatS=1 NMatT=0.
 FoFJK:  IHMeth= 1 ICntrl=    2127 DoSepK=T KAlg= 0 I1Cent=           0 FoldK=F
 IRaf=         1 NMat=       1 IRICut=       1 DoRegI=T DoRafI=F ISym2E= 1 IDoP0=0 IntGTp=1.
 FoFCou: FMM=F IPFlag=           0 FMFlag=      100000 FMFlg1=         800
         NFxFlg=           0 DoJE=F BraDBF=F KetDBF=F FulRan=T
         wScrn=  0.000000 ICntrl=      2527 IOpCl=  0 I1Cent=           0 NGrid=           0
         NMat0=    1 NMatS0=      1 NMatT0=    0 NMatD0=    1 NMtDS0=    0 NMtDT0=    0
 Petite list used in FoFCou.
 Leave Link  703 at Wed Feb 19 14:50:31 2020, MaxMem=  1879048192 cpu:               8.4 elap:               1.1
 (Enter /opt/g16/l716.exe)
 Dipole        =-3.84828689D-17 0.00000000D+00-7.80438931D-01
 ***** Axes restored to original set *****
 -------------------------------------------------------------------
 Center     Atomic                   Forces (Hartrees/Bohr)
 Number     Number              X              Y              Z
 -------------------------------------------------------------------
      1        7          -0.000000000    0.000000000    0.000781273
      2        1          -0.000590802   -0.000000000   -0.000390637
      3        1           0.000590802   -0.000000000   -0.000390637
 -------------------------------------------------------------------
 Cartesian Forces:  Max     0.000781273 RMS     0.000423435
 Leave Link  716 at Wed Feb 19 14:50:31 2020, MaxMem=  1879048192 cpu:               0.5 elap:               0.1
 (Enter /opt/g16/l103.exe)

 GradGradGradGradGradGradGradGradGradGradGradGradGradGradGradGradGradGrad
 Berny optimization.
 FormGI is forming the generalized inverse of G from B-inverse, IUseBI=4.
 Internal  Forces:  Max     0.000705788 RMS     0.000580063
 Search for a local minimum.
 Step number   1 out of a maximum of   20
 All quantities printed in internal units (Hartrees-Bohrs-Radians)
 RMS Force = .58006D-03 SwitMx=.10000D-02 MixMth= 2
 Mixed Optimization -- En-DIIS/RFO-DIIS
 Second derivative matrix not updated -- first step.
 The second derivative matrix:
                          R1        R2        A1
           R1           0.43643
           R2           0.00000   0.43643
           A1           0.00000   0.00000   0.16000
 ITU=  0
     Eigenvalues ---    0.16000   0.43643   0.43643
 RFO step:  Lambda=-2.36491986D-06 EMin= 1.60000000D-01
 Linear search not attempted -- first point.
 Iteration  1 RMS(Cart)=  0.00140403 RMS(Int)=  0.00000036
 Iteration  2 RMS(Cart)=  0.00000033 RMS(Int)=  0.00000000
 ITry= 1 IFail=0 DXMaxC= 1.70D-03 DCOld= 1.00D+10 DXMaxT= 3.00D-01 DXLimC= 3.00D+00 Rises=F
 ClnCor:  largest displacement from symmetrization is 8.01D-16 for atom     3.
 Variable       Old X    -DE/DX   Delta X   Delta X   Delta X     New X
                                 (Linear)    (Quad)   (Total)
    R1        1.93584   0.00071   0.00000   0.00162   0.00162   1.93746
    R2        1.93584   0.00071   0.00000   0.00162   0.00162   1.93746
    A1        1.80575   0.00011   0.00000   0.00072   0.00072   1.80647
         Item               Value     Threshold  Converged?
 Maximum Force            0.000706     0.000450     NO 
 RMS     Force            0.000580     0.000300     NO 
 Maximum Displacement     0.001699     0.001800     YES
 RMS     Displacement     0.001404     0.001200     NO 
 Predicted change in Energy=-1.182460D-06
 Lowest energy point so far.  Saving SCF results.
 GradGradGradGradGradGradGradGradGradGradGradGradGradGradGradGradGradGrad

 Leave Link  103 at Wed Feb 19 14:50:31 2020, MaxMem=  1879048192 cpu:               0.3 elap:               0.0
 (Enter /opt/g16/l202.exe)
                          Input orientation:                          
 ---------------------------------------------------------------------
 Center     Atomic      Atomic             Coordinates (Angstroms)
 Number     Number       Type             X           Y           Z
 ---------------------------------------------------------------------
      1          7           0       -0.000000    0.000000    0.141154
      2          1           0       -0.805168    0.000000   -0.493556
      3          1           0        0.805168   -0.000000   -0.493556
 ---------------------------------------------------------------------
                    Distance matrix (angstroms):
                    1          2          3
     1  N    0.000000
     2  H    1.025257   0.000000
     3  H    1.025257   1.610336   0.000000
 Stoichiometry    H2N(2)
 Framework group  C2V[C2(N),SGV(H2)]
 Deg. of freedom     2
 Full point group                 C2V     NOp   4
 RotChk:  IX=0 Diff= 2.83D-16
 Largest Abelian subgroup         C2V     NOp   4
 Largest concise Abelian subgroup C2      NOp   2
                         Standard orientation:                         
 ---------------------------------------------------------------------
 Center     Atomic      Atomic             Coordinates (Angstroms)
 Number     Number       Type             X           Y           Z
 ---------------------------------------------------------------------
      1          7           0        0.000000   -0.000000    0.141047
      2          1           0       -0.000000    0.805168   -0.493663
      3          1           0       -0.000000   -0.805168   -0.493663
 ---------------------------------------------------------------------
 Rotational constants (GHZ):         711.9603924         386.7489797         250.6121840
 Leave Link  202 at Wed Feb 19 14:50:31 2020, MaxMem=  1879048192 cpu:               0.2 elap:               0.0
 (Enter /opt/g16/l301.exe)
 Standard basis: def2TZVP (5D, 7F)
 Ernie: Thresh=  0.10000D-02 Tol=  0.10000D-05 Strict=F.
 There are    22 symmetry adapted cartesian basis functions of A1  symmetry.
 There are     4 symmetry adapted cartesian basis functions of A2  symmetry.
 There are     9 symmetry adapted cartesian basis functions of B1  symmetry.
 There are    13 symmetry adapted cartesian basis functions of B2  symmetry.
 There are    19 symmetry adapted basis functions of A1  symmetry.
 There are     4 symmetry adapted basis functions of A2  symmetry.
 There are     8 symmetry adapted basis functions of B1  symmetry.
 There are    12 symmetry adapted basis functions of B2  symmetry.
    43 basis functions,    67 primitive gaussians,    48 cartesian basis functions
     5 alpha electrons        4 beta electrons
       nuclear repulsion energy         7.5545865833 Hartrees.
 IExCor= 4639 DFT=T Ex+Corr=wB97XD ExCW=0 ScaHFX=  1.000000
 ScaDFX=  1.000000  1.000000  1.000000  1.000000 ScalE2=  1.000000  1.000000
 IRadAn=      5 IRanWt=     -1 IRanGd=            0 ICorTp=0 IEmpDi=121
 HFx  wShort=  0.000000 wLong=  0.200000 cFull=  0.222036 cShort=  0.000000 cLong=  0.777964
 DFx  wShort=  0.000000 wLong=  0.200000 cFull=  0.000000 cShort=  0.000000 cLong=  1.000000
 NAtoms=    3 NActive=    3 NUniq=    2 SFac= 2.25D+00 NAtFMM=   60 NAOKFM=F Big=F
 Integral buffers will be    131072 words long.
 Raffenetti 2 integral format.
 Two-electron integral symmetry is turned on.
 R6Disp:  Grimme-D2 Dispersion energy=       -0.0000386256 Hartrees.
 Nuclear repulsion after empirical dispersion term =        7.5545479578 Hartrees.
 Leave Link  301 at Wed Feb 19 14:50:31 2020, MaxMem=  1879048192 cpu:               0.5 elap:               0.1
 (Enter /opt/g16/l302.exe)
 NPDir=0 NMtPBC=     1 NCelOv=     1 NCel=       1 NClECP=     1 NCelD=      1
         NCelK=      1 NCelE2=     1 NClLst=     1 CellRange=     0.0.
 One-electron integrals computed using PRISM.
 One-electron integral symmetry used in STVInt
   4 Symmetry operations used in ECPInt.
 ECPInt:  NShTT=     190 NPrTT=     556 LenC2=     191 LenP2D=     543.
 LDataN:  DoStor=T MaxTD1= 6 Len=  172
 NBasis=    43 RedAO= T EigKep=  6.10D-03  NBF=    19     4     8    12
 NBsUse=    43 1.00D-06 EigRej= -1.00D+00 NBFU=    19     4     8    12
 Precomputing XC quadrature grid using
 IXCGrd= 4 IRadAn=           5 IRanWt=          -1 IRanGd=           0 AccXCQ= 0.00D+00.
 Generated NRdTot=       0 NPtTot=           0 NUsed=           0 NTot=          32
 NSgBfM=    48    48    48    48    48 MxSgAt=     3 MxSgA2=     3.
 Leave Link  302 at Wed Feb 19 14:50:31 2020, MaxMem=  1879048192 cpu:               1.5 elap:               0.2
 (Enter /opt/g16/l303.exe)
 DipDrv:  MaxL=1.
 Leave Link  303 at Wed Feb 19 14:50:31 2020, MaxMem=  1879048192 cpu:               0.5 elap:               0.1
 (Enter /opt/g16/l401.exe)
 Initial guess from the checkpoint file:  "check.chk"
 B after Tr=    -0.000000   -0.000000   -0.000000
         Rot=    1.000000    0.000000   -0.000000    0.000000 Ang=   0.00 deg.
 Guess basis will be translated and rotated to current coordinates.
 JPrj=2 DoOrth=T DoCkMO=T.
 Initial guess orbital symmetries:
 Alpha Orbitals:
       Occupied  (A1) (A1) (B2) (A1) (B1)
       Virtual   (A1) (B2) (B2) (B1) (A1) (A1) (A1) (B2) (A2) (A1)
                 (B1) (A1) (B2) (B2) (B1) (A1) (A2) (A1) (B2) (B1)
                 (A1) (A1) (B2) (A1) (B2) (B1) (A1) (B1) (A2) (B2)
                 (B1) (A1) (A2) (A1) (B2) (B2) (A1) (A1)
 Beta  Orbitals:
       Occupied  (A1) (A1) (B2) (A1)
       Virtual   (B1) (A1) (B2) (B2) (A1) (B1) (A1) (A1) (B2) (A1)
                 (A2) (B1) (B2) (A1) (B2) (A1) (B1) (A2) (A1) (B2)
                 (B1) (A1) (A1) (B2) (A1) (B2) (B1) (A1) (B1) (A2)
                 (B2) (B1) (A1) (A2) (A1) (B2) (B2) (A1) (A1)
 The electronic state of the initial guess is 2-B1.
 Initial guess <Sx>= 0.0000 <Sy>= 0.0000 <Sz>= 0.5000 <S**2>= 0.7535 S= 0.5018
 Leave Link  401 at Wed Feb 19 14:50:31 2020, MaxMem=  1879048192 cpu:               0.9 elap:               0.1
 (Enter /opt/g16/l502.exe)
 Keep R1 and R2 ints in memory in symmetry-blocked form, NReq=7880296.
 FoFCou: FMM=F IPFlag=           0 FMFlag=           0 FMFlg1=           0
         NFxFlg=           0 DoJE=F BraDBF=F KetDBF=F FulRan=T
         wScrn=  0.000000 ICntrl=       600 IOpCl=  0 I1Cent=           0 NGrid=           0
         NMat0=    1 NMatS0=    946 NMatT0=    0 NMatD0=    1 NMtDS0=    0 NMtDT0=    0
 Petite list used in FoFCou.
 UHF open shell SCF:
 Using DIIS extrapolation, IDIIS=  1040.
 NGot=  1879048192 LenX=  1878802330 LenY=  1878799585
 Requested convergence on RMS density matrix=1.00D-08 within  32 cycles.
 Requested convergence on MAX density matrix=1.00D-06.
 Requested convergence on             energy=1.00D-06.
 No special actions if energy rises.

 Cycle   1  Pass 1  IDiag  1:
 E= -55.8807743360951    
 DIIS: error= 9.22D-05 at cycle   1 NSaved=   1.
 NSaved= 1 IEnMin= 1 EnMin= -55.8807743360951     IErMin= 1 ErrMin= 9.22D-05
 ErrMax= 9.22D-05  0.00D+00 EMaxC= 1.00D-01 BMatC= 1.56D-06 BMatP= 1.56D-06
 IDIUse=1 WtCom= 1.00D+00 WtEn= 0.00D+00
 Coeff-Com:  0.100D+01
 Coeff:      0.100D+01
 Gap=     0.512 Goal=   None    Shift=    0.000
 Gap=     0.358 Goal=   None    Shift=    0.000
 RMSDP=1.01D-05 MaxDP=1.00D-04              OVMax= 2.33D-04

 Cycle   2  Pass 1  IDiag  1:
 E= -55.8807746160226     Delta-E=       -0.000000279927 Rises=F Damp=F
 DIIS: error= 5.49D-05 at cycle   2 NSaved=   2.
 NSaved= 2 IEnMin= 2 EnMin= -55.8807746160226     IErMin= 2 ErrMin= 5.49D-05
 ErrMax= 5.49D-05  0.00D+00 EMaxC= 1.00D-01 BMatC= 1.88D-07 BMatP= 1.56D-06
 IDIUse=1 WtCom= 1.00D+00 WtEn= 0.00D+00
 Coeff-Com:  0.157D+00 0.843D+00
 Coeff:      0.157D+00 0.843D+00
 Gap=     0.512 Goal=   None    Shift=    0.000
 Gap=     0.358 Goal=   None    Shift=    0.000
 RMSDP=4.01D-06 MaxDP=6.04D-05 DE=-2.80D-07 OVMax= 9.15D-05

 Cycle   3  Pass 1  IDiag  1:
 E= -55.8807746453104     Delta-E=       -0.000000029288 Rises=F Damp=F
 DIIS: error= 2.11D-05 at cycle   3 NSaved=   3.
 NSaved= 3 IEnMin= 3 EnMin= -55.8807746453104     IErMin= 3 ErrMin= 2.11D-05
 ErrMax= 2.11D-05  0.00D+00 EMaxC= 1.00D-01 BMatC= 4.61D-08 BMatP= 1.88D-07
 IDIUse=1 WtCom= 1.00D+00 WtEn= 0.00D+00
 Coeff-Com: -0.169D-01 0.315D+00 0.702D+00
 Coeff:     -0.169D-01 0.315D+00 0.702D+00
 Gap=     0.512 Goal=   None    Shift=    0.000
 Gap=     0.358 Goal=   None    Shift=    0.000
 RMSDP=1.63D-06 MaxDP=2.08D-05 DE=-2.93D-08 OVMax= 4.62D-05

 Cycle   4  Pass 1  IDiag  1:
 E= -55.8807746554232     Delta-E=       -0.000000010113 Rises=F Damp=F
 DIIS: error= 3.72D-06 at cycle   4 NSaved=   4.
 NSaved= 4 IEnMin= 4 EnMin= -55.8807746554232     IErMin= 4 ErrMin= 3.72D-06
 ErrMax= 3.72D-06  0.00D+00 EMaxC= 1.00D-01 BMatC= 7.44D-10 BMatP= 4.61D-08
 IDIUse=1 WtCom= 1.00D+00 WtEn= 0.00D+00
 Coeff-Com: -0.550D-02-0.330D-01 0.294D-01 0.101D+01
 Coeff:     -0.550D-02-0.330D-01 0.294D-01 0.101D+01
 Gap=     0.512 Goal=   None    Shift=    0.000
 Gap=     0.358 Goal=   None    Shift=    0.000
 RMSDP=5.27D-07 MaxDP=5.71D-06 DE=-1.01D-08 OVMax= 1.64D-05

 Cycle   5  Pass 1  IDiag  1:
 E= -55.8807746558619     Delta-E=       -0.000000000439 Rises=F Damp=F
 DIIS: error= 8.03D-07 at cycle   5 NSaved=   5.
 NSaved= 5 IEnMin= 5 EnMin= -55.8807746558619     IErMin= 5 ErrMin= 8.03D-07
 ErrMax= 8.03D-07  0.00D+00 EMaxC= 1.00D-01 BMatC= 5.15D-11 BMatP= 7.44D-10
 IDIUse=1 WtCom= 1.00D+00 WtEn= 0.00D+00
 Coeff-Com:  0.271D-02-0.230D-01-0.618D-01-0.143D+00 0.122D+01
 Coeff:      0.271D-02-0.230D-01-0.618D-01-0.143D+00 0.122D+01
 Gap=     0.512 Goal=   None    Shift=    0.000
 Gap=     0.358 Goal=   None    Shift=    0.000
 RMSDP=2.88D-07 MaxDP=2.87D-06 DE=-4.39D-10 OVMax= 8.56D-06

 Cycle   6  Pass 1  IDiag  1:
 E= -55.8807746559136     Delta-E=       -0.000000000052 Rises=F Damp=F
 DIIS: error= 1.31D-07 at cycle   6 NSaved=   6.
 NSaved= 6 IEnMin= 6 EnMin= -55.8807746559136     IErMin= 6 ErrMin= 1.31D-07
 ErrMax= 1.31D-07  0.00D+00 EMaxC= 1.00D-01 BMatC= 1.24D-12 BMatP= 5.15D-11
 IDIUse=1 WtCom= 1.00D+00 WtEn= 0.00D+00
 Coeff-Com: -0.333D-03 0.534D-02 0.108D-01-0.677D-02-0.230D+00 0.122D+01
 Coeff:     -0.333D-03 0.534D-02 0.108D-01-0.677D-02-0.230D+00 0.122D+01
 Gap=     0.512 Goal=   None    Shift=    0.000
 Gap=     0.358 Goal=   None    Shift=    0.000
 RMSDP=5.87D-08 MaxDP=1.02D-06 DE=-5.17D-11 OVMax= 1.41D-06

 Cycle   7  Pass 1  IDiag  1:
 E= -55.8807746559148     Delta-E=       -0.000000000001 Rises=F Damp=F
 DIIS: error= 3.52D-08 at cycle   7 NSaved=   7.
 NSaved= 7 IEnMin= 7 EnMin= -55.8807746559148     IErMin= 7 ErrMin= 3.52D-08
 ErrMax= 3.52D-08  0.00D+00 EMaxC= 1.00D-01 BMatC= 9.61D-14 BMatP= 1.24D-12
 IDIUse=1 WtCom= 1.00D+00 WtEn= 0.00D+00
 Coeff-Com:  0.496D-04-0.149D-02-0.275D-02 0.609D-02 0.634D-01-0.567D+00
 Coeff-Com:  0.150D+01
 Coeff:      0.496D-04-0.149D-02-0.275D-02 0.609D-02 0.634D-01-0.567D+00
 Coeff:      0.150D+01
 Gap=     0.512 Goal=   None    Shift=    0.000
 Gap=     0.358 Goal=   None    Shift=    0.000
 RMSDP=1.35D-08 MaxDP=2.75D-07 DE=-1.22D-12 OVMax= 3.03D-07

 Cycle   8  Pass 1  IDiag  1:
 E= -55.8807746559149     Delta-E=       -0.000000000000 Rises=F Damp=F
 DIIS: error= 7.62D-09 at cycle   8 NSaved=   8.
 NSaved= 8 IEnMin= 8 EnMin= -55.8807746559149     IErMin= 8 ErrMin= 7.62D-09
 ErrMax= 7.62D-09  0.00D+00 EMaxC= 1.00D-01 BMatC= 4.65D-15 BMatP= 9.61D-14
 IDIUse=1 WtCom= 1.00D+00 WtEn= 0.00D+00
 Coeff-Com:  0.770D-05 0.130D-03 0.233D-03-0.126D-02-0.768D-02 0.129D+00
 Coeff-Com: -0.554D+00 0.143D+01
 Coeff:      0.770D-05 0.130D-03 0.233D-03-0.126D-02-0.768D-02 0.129D+00
 Coeff:     -0.554D+00 0.143D+01
 Gap=     0.512 Goal=   None    Shift=    0.000
 Gap=     0.358 Goal=   None    Shift=    0.000
 RMSDP=3.30D-09 MaxDP=5.17D-08 DE=-4.26D-14 OVMax= 9.08D-08

 SCF Done:  E(UwB97XD) =  -55.8807746559     A.U. after    8 cycles
            NFock=  8  Conv=0.33D-08     -V/T= 2.0040
 <Sx>= 0.0000 <Sy>= 0.0000 <Sz>= 0.5000 <S**2>= 0.7535 S= 0.5018
 <L.S>= 0.000000000000E+00
 KE= 5.565623849021D+01 PE=-1.459140547207D+02 EE= 2.682249361682D+01
 Annihilation of the first spin contaminant:
 S**2 before annihilation     0.7535,   after     0.7500
 Leave Link  502 at Wed Feb 19 14:50:32 2020, MaxMem=  1879048192 cpu:               6.5 elap:               0.8
 (Enter /opt/g16/l508.exe)
 QCSCF skips out because SCF is already converged.
 Leave Link  508 at Wed Feb 19 14:50:32 2020, MaxMem=  1879048192 cpu:               0.2 elap:               0.0
 (Enter /opt/g16/l701.exe)
 ... and contract with generalized density number  0.
 Compute integral first derivatives.
 R6Disp: Adding Grimme-D2 dispersion energy 1st derivatives to the gradient.
   4 Symmetry operations used in ECPInt.
 ECPInt:  NShTT=     190 NPrTT=     556 LenC2=     191 LenP2D=     543.
 LDataN:  DoStor=T MaxTD1= 7 Len=  274
 Leave Link  701 at Wed Feb 19 14:50:32 2020, MaxMem=  1879048192 cpu:               1.4 elap:               0.2
 (Enter /opt/g16/l702.exe)
 L702 exits ... SP integral derivatives will be done elsewhere.
 Leave Link  702 at Wed Feb 19 14:50:32 2020, MaxMem=  1879048192 cpu:               0.4 elap:               0.0
 (Enter /opt/g16/l703.exe)
 Integral derivatives from FoFJK, PRISM(SPDF).
 Compute integral first derivatives, UseDBF=F ICtDFT=           0.
 Calling FoFJK, ICntrl=      2127 FMM=F ISym2X=1 I1Cent= 0 IOpClX= 1 NMat=1 NMatS=1 NMatT=0.
 FoFJK:  IHMeth= 1 ICntrl=    2127 DoSepK=T KAlg= 0 I1Cent=           0 FoldK=F
 IRaf=         1 NMat=       1 IRICut=       1 DoRegI=T DoRafI=F ISym2E= 1 IDoP0=0 IntGTp=1.
 FoFCou: FMM=F IPFlag=           0 FMFlag=      100000 FMFlg1=         800
         NFxFlg=           0 DoJE=F BraDBF=F KetDBF=F FulRan=T
         wScrn=  0.000000 ICntrl=      2527 IOpCl=  0 I1Cent=           0 NGrid=           0
         NMat0=    1 NMatS0=      1 NMatT0=    0 NMatD0=    1 NMtDS0=    0 NMtDT0=    0
 Petite list used in FoFCou.
 Leave Link  703 at Wed Feb 19 14:50:33 2020, MaxMem=  1879048192 cpu:               8.3 elap:               1.0
 (Enter /opt/g16/l716.exe)
 Dipole        =-3.85573202D-17 0.00000000D+00-7.80057961D-01
 ***** Axes restored to original set *****
 -------------------------------------------------------------------
 Center     Atomic                   Forces (Hartrees/Bohr)
 Number     Number              X              Y              Z
 -------------------------------------------------------------------
      1        7          -0.000000000   -0.000000000    0.000082093
      2        1           0.000028218    0.000000000   -0.000041047
      3        1          -0.000028218    0.000000000   -0.000041047
 -------------------------------------------------------------------
 Cartesian Forces:  Max     0.000082093 RMS     0.000036058
 Leave Link  716 at Wed Feb 19 14:50:34 2020, MaxMem=  1879048192 cpu:               0.3 elap:               0.0
 (Enter /opt/g16/l103.exe)

 GradGradGradGradGradGradGradGradGradGradGradGradGradGradGradGradGradGrad
 Berny optimization.
 Using GEDIIS/GDIIS optimizer.
 FormGI is forming the generalized inverse of G from B-inverse, IUseBI=4.
 Internal  Forces:  Max     0.000096300 RMS     0.000055662
 Search for a local minimum.
 Step number   2 out of a maximum of   20
 All quantities printed in internal units (Hartrees-Bohrs-Radians)
 RMS Force = .55662D-04 SwitMx=.10000D-02 MixMth= 2
 Mixed Optimization -- En-DIIS/RFO-DIIS
 Swapping is turned off.
 Update second derivatives using D2CorX and points    1    2
 DE= -1.17D-06 DEPred=-1.18D-06 R= 9.86D-01
 TightC=F SS=  1.41D+00  RLast= 2.40D-03 DXNew= 5.0454D-01 7.1899D-03
 Trust test= 9.86D-01 RLast= 2.40D-03 DXMaxT set to 3.00D-01
 The second derivative matrix:
                          R1        R2        A1
           R1           0.42946
           R2          -0.00697   0.42946
           A1           0.02694   0.02694   0.17280
 ITU=  1  0
     Eigenvalues ---    0.16712   0.42817   0.43643
 En-DIIS/RFO-DIIS/Sim-DIIS IScMMF=       -3 using points:     2    1
 RFO step:  Lambda=-5.52762784D-08.
 NNeg= 0 NGDIIS= 2 SimSw=  2.50D-03 Rises=F DC= -1.17D-06 SmlDif=  1.00D-05
 NRisDI= 0 DoIntr=F SqrtH=F CThrHd= 10.0 CDAdj=  3.0
 RMS Error=  0.3316424722D-03 NUsed= 2 OKEnD=F EnDIS=F
 InvSVX:  RCond= 6.46D-06 Info=           0 Equed=N FErr=  1.00D-15 BErr=  8.33D-17
 DidBck=F Rises=F RFO-DIIS coefs:    0.95360    0.04640
 Iteration  1 RMS(Cart)=  0.00033248 RMS(Int)=  0.00000006
 Iteration  2 RMS(Cart)=  0.00000006 RMS(Int)=  0.00000000
 ITry= 1 IFail=0 DXMaxC= 3.08D-04 DCOld= 1.00D+10 DXMaxT= 3.00D-01 DXLimC= 3.00D+00 Rises=F
 ClnCor:  largest displacement from symmetrization is 5.55D-16 for atom     3.
 Variable       Old X    -DE/DX   Delta X   Delta X   Delta X     New X
                                 (Linear)    (Quad)   (Total)
    R1        1.93746   0.00000  -0.00008   0.00012   0.00004   1.93750
    R2        1.93746   0.00000  -0.00008   0.00012   0.00004   1.93750
    A1        1.80647  -0.00010  -0.00003  -0.00054  -0.00057   1.80590
         Item               Value     Threshold  Converged?
 Maximum Force            0.000096     0.000450     YES
 RMS     Force            0.000056     0.000300     YES
 Maximum Displacement     0.000308     0.001800     YES
 RMS     Displacement     0.000333     0.001200     YES
 Predicted change in Energy=-2.763814D-08
 Optimization completed.
    -- Stationary point found.
                           ----------------------------
                           !   Optimized Parameters   !
                           ! (Angstroms and Degrees)  !
 --------------------------                            --------------------------
 ! Name  Definition              Value          Derivative Info.                !
 --------------------------------------------------------------------------------
 ! R1    R(1,2)                  1.0253         -DE/DX =    0.0                 !
 ! R2    R(1,3)                  1.0253         -DE/DX =    0.0                 !
 ! A1    A(2,1,3)              103.5029         -DE/DX =   -0.0001              !
 --------------------------------------------------------------------------------
 Lowest energy point so far.  Saving SCF results.
 Largest change from initial coordinates is atom    2       0.001 Angstoms.
 GradGradGradGradGradGradGradGradGradGradGradGradGradGradGradGradGradGrad

 Leave Link  103 at Wed Feb 19 14:50:34 2020, MaxMem=  1879048192 cpu:               0.3 elap:               0.0
 (Enter /opt/g16/l202.exe)
                          Input orientation:                          
 ---------------------------------------------------------------------
 Center     Atomic      Atomic             Coordinates (Angstroms)
 Number     Number       Type             X           Y           Z
 ---------------------------------------------------------------------
      1          7           0        0.000000   -0.000000    0.141154
      2          1           0       -0.805168    0.000000   -0.493556
      3          1           0        0.805168   -0.000000   -0.493556
 ---------------------------------------------------------------------
                    Distance matrix (angstroms):
                    1          2          3
     1  N    0.000000
     2  H    1.025257   0.000000
     3  H    1.025257   1.610336   0.000000
 Stoichiometry    H2N(2)
 Framework group  C2V[C2(N),SGV(H2)]
 Deg. of freedom     2
 Full point group                 C2V     NOp   4
 RotChk:  IX=0 Diff= 6.30D-16
 Largest Abelian subgroup         C2V     NOp   4
 Largest concise Abelian subgroup C2      NOp   2
                         Standard orientation:                         
 ---------------------------------------------------------------------
 Center     Atomic      Atomic             Coordinates (Angstroms)
 Number     Number       Type             X           Y           Z
 ---------------------------------------------------------------------
      1          7           0       -0.000000    0.000000    0.141047
      2          1           0        0.000000    0.805168   -0.493663
      3          1           0       -0.000000   -0.805168   -0.493663
 ---------------------------------------------------------------------
 Rotational constants (GHZ):         711.9603924         386.7489797         250.6121840
 Leave Link  202 at Wed Feb 19 14:50:34 2020, MaxMem=  1879048192 cpu:               0.3 elap:               0.0
 (Enter /opt/g16/l601.exe)
 Copying SCF densities to generalized density rwf, IOpCl= 1 IROHF=0.

 **********************************************************************

            Population analysis using the SCF Density.

 **********************************************************************

 Orbital symmetries:
 Alpha Orbitals:
       Occupied  (A1) (A1) (B2) (A1) (B1)
       Virtual   (A1) (B2) (B2) (B1) (A1) (A1) (A1) (B2) (A2) (A1)
                 (B1) (A1) (B2) (B2) (B1) (A1) (A2) (A1) (B2) (B1)
                 (A1) (A1) (B2) (A1) (B2) (B1) (A1) (B1) (A2) (B2)
                 (B1) (A1) (A2) (A1) (B2) (B2) (A1) (A1)
 Beta  Orbitals:
       Occupied  (A1) (A1) (B2) (A1)
       Virtual   (B1) (A1) (B2) (B2) (A1) (B1) (A1) (A1) (B2) (A1)
                 (A2) (B1) (B2) (A1) (B2) (A1) (B1) (A2) (A1) (B2)
                 (B1) (A1) (A1) (B2) (A1) (B2) (B1) (A1) (B1) (A2)
                 (B2) (B1) (A1) (A2) (A1) (B2) (B2) (A1) (A1)
 The electronic state is 2-B1.
 Alpha  occ. eigenvalues --  -14.46212  -0.95705  -0.56359  -0.41787  -0.40342
 Alpha virt. eigenvalues --    0.10888   0.17795   0.39127   0.41918   0.42170
 Alpha virt. eigenvalues --    0.48204   0.52923   0.58637   0.99710   1.00459
 Alpha virt. eigenvalues --    1.04555   1.31654   1.34162   1.74883   1.91198
 Alpha virt. eigenvalues --    1.91794   1.95434   2.07046   2.12448   2.20471
 Alpha virt. eigenvalues --    2.32826   2.50029   2.52734   3.05914   3.12485
 Alpha virt. eigenvalues --    3.93088   4.07400   4.23191   4.28006   4.34443
 Alpha virt. eigenvalues --    4.55837   4.59835   4.62836   4.71844   4.90088
 Alpha virt. eigenvalues --    5.41676   5.62499  31.44031
  Beta  occ. eigenvalues --  -14.44544  -0.89824  -0.54663  -0.39017
  Beta virt. eigenvalues --   -0.03212   0.11495   0.18223   0.38980   0.42984
  Beta virt. eigenvalues --    0.47023   0.49198   0.54218   0.59678   1.01444
  Beta virt. eigenvalues --    1.03522   1.08506   1.34532   1.35523   1.74772
  Beta virt. eigenvalues --    1.92714   1.94751   1.96661   2.09159   2.13365
  Beta virt. eigenvalues --    2.26875   2.33317   2.51816   2.53784   3.07404
  Beta virt. eigenvalues --    3.15467   3.98217   4.12715   4.30311   4.33839
  Beta virt. eigenvalues --    4.37149   4.63504   4.65428   4.69310   4.79469
  Beta virt. eigenvalues --    4.91899   5.44694   5.64405  31.46539
          Condensed to atoms (all electrons):
               1          2          3
     1  N    6.832700   0.308155   0.308155
     2  H    0.308155   0.494611  -0.027271
     3  H    0.308155  -0.027271   0.494611
          Atomic-Atomic Spin Densities.
               1          2          3
     1  N    1.050378   0.000400   0.000400
     2  H    0.000400  -0.029177   0.003189
     3  H    0.000400   0.003189  -0.029177
 Mulliken charges and spin densities:
               1          2
     1  N   -0.449010   1.051178
     2  H    0.224505  -0.025589
     3  H    0.224505  -0.025589
 Sum of Mulliken charges =  -0.00000   1.00000
 Mulliken charges and spin densities with hydrogens summed into heavy atoms:
               1          2
     1  N   -0.000000   1.000000
 Electronic spatial extent (au):  <R**2>=             21.8718
 Charge=             -0.0000 electrons
 Dipole moment (field-independent basis, Debye):
    X=             -0.0000    Y=              0.0000    Z=             -1.9827  Tot=              1.9827
 Quadrupole moment (field-independent basis, Debye-Ang):
   XX=             -7.1171   YY=             -5.4801   ZZ=             -7.5833
   XY=              0.0000   XZ=              0.0000   YZ=             -0.0000
 Traceless Quadrupole moment (field-independent basis, Debye-Ang):
   XX=             -0.3903   YY=              1.2468   ZZ=             -0.8565
   XY=              0.0000   XZ=              0.0000   YZ=             -0.0000
 Octapole moment (field-independent basis, Debye-Ang**2):
  XXX=              0.0000  YYY=             -0.0000  ZZZ=             -2.0777  XYY=             -0.0000
  XXY=              0.0000  XXZ=             -0.4871  XZZ=              0.0000  YZZ=             -0.0000
  YYZ=             -1.3810  XYZ=             -0.0000
 Hexadecapole moment (field-independent basis, Debye-Ang**3):
 XXXX=             -6.4656 YYYY=             -9.2981 ZZZZ=            -10.8432 XXXY=             -0.0000
 XXXZ=             -0.0000 YYYX=             -0.0000 YYYZ=             -0.0000 ZZZX=             -0.0000
 ZZZY=             -0.0000 XXYY=             -2.8947 XXZZ=             -2.9194 YYZZ=             -3.0246
 XXYZ=             -0.0000 YYXZ=              0.0000 ZZXY=             -0.0000
 N-N= 7.554547957783D+00 E-N=-1.459140547410D+02  KE= 5.565623849021D+01
 Symmetry A1   KE= 5.119462488668D+01
 Symmetry A2   KE= 4.617282743221D-35
 Symmetry B1   KE= 1.745226559718D+00
 Symmetry B2   KE= 2.716387043807D+00
 Symmetry A1   SP=-8.010966564588D-16
 Symmetry A2   SP=-6.739288636215D-36
 Symmetry B1   SP= 1.000000000000D+00
 Symmetry B2   SP=-6.445022873681D-15
                          Isotropic Fermi Contact Couplings
        Atom                 a.u.       MegaHertz       Gauss      10(-4) cm-1
     1  N(14)              0.08761      28.30626      10.10038       9.44195
     2  H(1)              -0.01363     -60.94636     -21.74718     -20.32952
     3  H(1)              -0.01363     -60.94636     -21.74718     -20.32952
 --------------------------------------------------------
       Center         ----  Spin Dipole Couplings  ----
                      3XX-RR        3YY-RR        3ZZ-RR
 --------------------------------------------------------
     1   Atom        2.232816     -1.104206     -1.128610
     2   Atom       -0.015755      0.039688     -0.023933
     3   Atom       -0.015755      0.039688     -0.023933
 --------------------------------------------------------
                        XY            XZ            YZ
 --------------------------------------------------------
     1   Atom       -0.000000      0.000000      0.000000
     2   Atom       -0.000000     -0.000000     -0.108151
     3   Atom       -0.000000     -0.000000      0.108151
 --------------------------------------------------------


 ---------------------------------------------------------------------------------
              Anisotropic Spin Dipole Couplings in Principal Axis System
 ---------------------------------------------------------------------------------

       Atom             a.u.   MegaHertz   Gauss  10(-4) cm-1        Axes

              Baa    -1.1286   -43.528   -15.532   -14.519  0.0000  0.0000  1.0000
     1 N(14)  Bbb    -1.1042   -42.587   -15.196   -14.205  0.0000  1.0000 -0.0000
              Bcc     2.2328    86.115    30.728    28.725  1.0000  0.0000 -0.0000
 
              Baa    -0.1049   -55.946   -19.963   -18.661  0.0000  0.5991  0.8007
     2 H(1)   Bbb    -0.0158    -8.406    -3.000    -2.804  1.0000 -0.0000  0.0000
              Bcc     0.1206    64.352    22.962    21.465  0.0000  0.8007 -0.5991
 
              Baa    -0.1049   -55.946   -19.963   -18.661  0.0000 -0.5991  0.8007
     3 H(1)   Bbb    -0.0158    -8.406    -3.000    -2.804  1.0000  0.0000  0.0000
              Bcc     0.1206    64.352    22.962    21.465 -0.0000  0.8007  0.5991
 

 ---------------------------------------------------------------------------------

 No NMR shielding tensors so no spin-rotation constants.
 Leave Link  601 at Wed Feb 19 14:50:34 2020, MaxMem=  1879048192 cpu:               2.2 elap:               0.3
 (Enter /opt/g16/l9999.exe)

 Test job not archived.
 1\1\GINC-NODE06\FOpt\UwB97XD\def2TZVP\H2N1(2)\ALONGD\19-Feb-2020\0\\#P
  opt guess=mix uwb97xd/def2tzvp scf=xqc iop(2/9=2000)\\name\\0,2\N,0.,
 0.,0.1411540567\H,-0.805167881,0.,-0.4935560034\H,0.805167881,0.,-0.49
 35560034\\Version=ES64L-G16RevB.01\State=2-B1\HF=-55.8807747\S2=0.7535
 4\S2-1=0.\S2A=0.750008\RMSD=3.296e-09\RMSF=3.606e-05\Dipole=0.,0.,-0.7
 80058\Quadrupole=0.926941,-0.290152,-0.636789,0.,0.,0.\PG=C02V [C2(N1)
 ,SGV(H2)]\\@


 I WISH TO HAVE NO CONNECTION WITH ANY SHIP THAT DOES NOT SAIL FAST,
 FOR I INTEND TO GO IN HARM'S WAY.
     -- JOHN PAUL JONES, USN 1747-1792
 Job cpu time:       0 days  0 hours  1 minutes  2.8 seconds.
 Elapsed time:       0 days  0 hours  0 minutes  8.0 seconds.
 File lengths (MBytes):  RWF=      6 Int=      0 D2E=      0 Chk=      1 Scr=      1
 Normal termination of Gaussian 16 at Wed Feb 19 14:50:34 2020.
