 Entering Gaussian System, Link 0=g16
 Initial command:
 /opt/g16/l1.exe "/scratch/alongd/g16/a33752-33014/Gau-21747.inp" -scrdir="/scratch/alongd/g16/a33752-33014/"
 Entering Link 1 = /opt/g16/l1.exe PID=     21749.
  
 Copyright (c) 1988-2017, Gaussian, Inc.  All Rights Reserved.
  
 This is part of the Gaussian(R) 16 program.  It is based on
 the Gaussian(R) 09 system (copyright 2009, Gaussian, Inc.),
 the Gaussian(R) 03 system (copyright 2003, Gaussian, Inc.),
 the Gaussian(R) 98 system (copyright 1998, Gaussian, Inc.),
 the Gaussian(R) 94 system (copyright 1995, Gaussian, Inc.),
 the Gaussian 92(TM) system (copyright 1992, Gaussian, Inc.),
 the Gaussian 90(TM) system (copyright 1990, Gaussian, Inc.),
 the Gaussian 88(TM) system (copyright 1988, Gaussian, Inc.),
 the Gaussian 86(TM) system (copyright 1986, Carnegie Mellon
 University), and the Gaussian 82(TM) system (copyright 1983,
 Carnegie Mellon University). Gaussian is a federally registered
 trademark of Gaussian, Inc.
  
 This software contains proprietary and confidential information,
 including trade secrets, belonging to Gaussian, Inc.
  
 This software is provided under written license and may be
 used, copied, transmitted, or stored only in accord with that
 written license.
  
 The following legend is applicable only to US Government
 contracts under FAR:
  
                    RESTRICTED RIGHTS LEGEND
  
 Use, reproduction and disclosure by the US Government is
 subject to restrictions as set forth in subparagraphs (a)
 and (c) of the Commercial Computer Software - Restricted
 Rights clause in FAR 52.227-19.
  
 Gaussian, Inc.
 340 Quinnipiac St., Bldg. 40, Wallingford CT 06492
  
  
 ---------------------------------------------------------------
 Warning -- This program may not be used in any manner that
 competes with the business of Gaussian, Inc. or will provide
 assistance to any competitor of Gaussian, Inc.  The licensee
 of this program is prohibited from giving any competitor of
 Gaussian, Inc. access to this program.  By using this program,
 the user acknowledges that Gaussian, Inc. is engaged in the
 business of creating and licensing software in the field of
 computational chemistry and represents and warrants to the
 licensee that it is not a competitor of Gaussian, Inc. and that
 it will not use this program in any manner prohibited above.
 ---------------------------------------------------------------
  

 Cite this work as:
 Gaussian 16, Revision B.01,
 M. J. Frisch, G. W. Trucks, H. B. Schlegel, G. E. Scuseria, 
 M. A. Robb, J. R. Cheeseman, G. Scalmani, V. Barone, 
 G. A. Petersson, H. Nakatsuji, X. Li, M. Caricato, A. V. Marenich, 
 J. Bloino, B. G. Janesko, R. Gomperts, B. Mennucci, H. P. Hratchian, 
 J. V. Ortiz, A. F. Izmaylov, J. L. Sonnenberg, D. Williams-Young, 
 F. Ding, F. Lipparini, F. Egidi, J. Goings, B. Peng, A. Petrone, 
 T. Henderson, D. Ranasinghe, V. G. Zakrzewski, J. Gao, N. Rega, 
 G. Zheng, W. Liang, M. Hada, M. Ehara, K. Toyota, R. Fukuda, 
 J. Hasegawa, M. Ishida, T. Nakajima, Y. Honda, O. Kitao, H. Nakai, 
 T. Vreven, K. Throssell, J. A. Montgomery, Jr., J. E. Peralta, 
 F. Ogliaro, M. J. Bearpark, J. J. Heyd, E. N. Brothers, K. N. Kudin, 
 V. N. Staroverov, T. A. Keith, R. Kobayashi, J. Normand, 
 K. Raghavachari, A. P. Rendell, J. C. Burant, S. S. Iyengar, 
 J. Tomasi, M. Cossi, J. M. Millam, M. Klene, C. Adamo, R. Cammi, 
 J. W. Ochterski, R. L. Martin, K. Morokuma, O. Farkas, 
 J. B. Foresman, and D. J. Fox, Gaussian, Inc., Wallingford CT, 2016.
 
 ******************************************
 Gaussian 16:  ES64L-G16RevB.01 20-Dec-2017
                19-Feb-2020 
 ******************************************
 %chk=check.chk
 %mem=14336mb
 %NProcShared=8
 Will use up to    8 processors via shared memory.
 -------------------------------------------------------
 #P opt guess=mix uwb97xd/def2tzvp scf=xqc iop(2/9=2000)
 -------------------------------------------------------
 1/18=20,19=15,26=3,38=1/1,3;
 2/9=2000,12=2,17=6,18=5,40=1/2;
 3/5=44,7=101,11=2,25=1,30=1,71=1,74=-58,116=2/1,2,3;
 4/13=-1/1;
 5/5=2,8=3,13=1,38=5/2,8;
 6/7=2,8=2,9=2,10=2,28=1/1;
 7//1,2,3,16;
 1/18=20,19=15,26=3/3(2);
 2/9=2000/2;
 99//99;
 2/9=2000/2;
 3/5=44,7=101,11=2,25=1,30=1,71=1,74=-58,116=2/1,2,3;
 4/5=5,16=3,69=1/1;
 5/5=2,8=3,13=1,38=5/2,8;
 7//1,2,3,16;
 1/18=20,19=15,26=3/3(-5);
 2/9=2000/2;
 6/7=2,8=2,9=2,10=2,19=2,28=1/1;
 99/9=1/99;
 Leave Link    1 at Wed Feb 19 14:50:45 2020, MaxMem=  1879048192 cpu:               0.5 elap:               0.1
 (Enter /opt/g16/l101.exe)
 ----
 name
 ----
 Symbolic Z-matrix:
 Charge =  0 Multiplicity = 3
 N                     0.        0.        0.12967 
 H                     0.        0.       -0.90767 
 
 ITRead=  0  0
 MicOpt= -1 -1
 NAtoms=      2 NQM=        2 NQMF=       0 NMMI=      0 NMMIF=      0
                NMic=       0 NMicF=      0.
                    Isotopes and Nuclear Properties:
 (Nuclear quadrupole moments (NQMom) in fm**2, nuclear magnetic moments (NMagM)
  in nuclear magnetons)

  Atom         1           2
 IAtWgt=          14           1
 AtmWgt=  14.0030740   1.0078250
 NucSpn=           2           1
 AtZEff=  -0.0000000  -0.0000000
 NQMom=    2.0440000   0.0000000
 NMagM=    0.4037610   2.7928460
 AtZNuc=   7.0000000   1.0000000
 Leave Link  101 at Wed Feb 19 14:50:46 2020, MaxMem=  1879048192 cpu:               5.5 elap:               0.7
 (Enter /opt/g16/l103.exe)

 GradGradGradGradGradGradGradGradGradGradGradGradGradGradGradGradGradGrad
 Berny optimization.
 Initialization pass.
                           ----------------------------
                           !    Initial Parameters    !
                           ! (Angstroms and Degrees)  !
 --------------------------                            --------------------------
 ! Name  Definition              Value          Derivative Info.                !
 --------------------------------------------------------------------------------
 ! R1    R(1,2)                  1.0373         estimate D2E/DX2                !
 --------------------------------------------------------------------------------
 Trust Radius=3.00D-01 FncErr=1.00D-07 GrdErr=1.00D-06 EigMax=2.50D+02 EigMin=1.00D-04
 Number of steps in this run=     20 maximum allowed number of steps=    100.
 GradGradGradGradGradGradGradGradGradGradGradGradGradGradGradGradGradGrad

 Leave Link  103 at Wed Feb 19 14:50:46 2020, MaxMem=  1879048192 cpu:               0.1 elap:               0.0
 (Enter /opt/g16/l202.exe)
                          Input orientation:                          
 ---------------------------------------------------------------------
 Center     Atomic      Atomic             Coordinates (Angstroms)
 Number     Number       Type             X           Y           Z
 ---------------------------------------------------------------------
      1          7           0        0.000000    0.000000    0.129667
      2          1           0        0.000000    0.000000   -0.907667
 ---------------------------------------------------------------------
 Stoichiometry    HN(3)
 Framework group  C*V[C*(HN)]
 Deg. of freedom     1
 Full point group                 C*V     NOp   4
 Largest Abelian subgroup         C2V     NOp   4
 Largest concise Abelian subgroup C1      NOp   1
                         Standard orientation:                         
 ---------------------------------------------------------------------
 Center     Atomic      Atomic             Coordinates (Angstroms)
 Number     Number       Type             X           Y           Z
 ---------------------------------------------------------------------
      1          7           0        0.000000    0.000000    0.129667
      2          1           0        0.000000    0.000000   -0.907667
 ---------------------------------------------------------------------
 Rotational constants (GHZ):           0.0000000         499.5492776         499.5492776
 Leave Link  202 at Wed Feb 19 14:50:46 2020, MaxMem=  1879048192 cpu:               0.3 elap:               0.0
 (Enter /opt/g16/l301.exe)
 Standard basis: def2TZVP (5D, 7F)
 Ernie: Thresh=  0.10000D-02 Tol=  0.10000D-05 Strict=F.
 There are    21 symmetry adapted cartesian basis functions of A1  symmetry.
 There are     3 symmetry adapted cartesian basis functions of A2  symmetry.
 There are     9 symmetry adapted cartesian basis functions of B1  symmetry.
 There are     9 symmetry adapted cartesian basis functions of B2  symmetry.
 There are    18 symmetry adapted basis functions of A1  symmetry.
 There are     3 symmetry adapted basis functions of A2  symmetry.
 There are     8 symmetry adapted basis functions of B1  symmetry.
 There are     8 symmetry adapted basis functions of B2  symmetry.
    37 basis functions,    59 primitive gaussians,    42 cartesian basis functions
     5 alpha electrons        3 beta electrons
       nuclear repulsion energy         3.5709243716 Hartrees.
 IExCor= 4639 DFT=T Ex+Corr=wB97XD ExCW=0 ScaHFX=  1.000000
 ScaDFX=  1.000000  1.000000  1.000000  1.000000 ScalE2=  1.000000  1.000000
 IRadAn=      5 IRanWt=     -1 IRanGd=            0 ICorTp=0 IEmpDi=121
 HFx  wShort=  0.000000 wLong=  0.200000 cFull=  0.222036 cShort=  0.000000 cLong=  0.777964
 DFx  wShort=  0.000000 wLong=  0.200000 cFull=  0.000000 cShort=  0.000000 cLong=  1.000000
 NAtoms=    2 NActive=    2 NUniq=    2 SFac= 1.00D+00 NAtFMM=   60 NAOKFM=F Big=F
 Integral buffers will be    131072 words long.
 Raffenetti 2 integral format.
 Two-electron integral symmetry is turned on.
 R6Disp:  Grimme-D2 Dispersion energy=       -0.0000009078 Hartrees.
 Nuclear repulsion after empirical dispersion term =        3.5709234638 Hartrees.
 Leave Link  301 at Wed Feb 19 14:50:46 2020, MaxMem=  1879048192 cpu:               0.5 elap:               0.1
 (Enter /opt/g16/l302.exe)
 NPDir=0 NMtPBC=     1 NCelOv=     1 NCel=       1 NClECP=     1 NCelD=      1
         NCelK=      1 NCelE2=     1 NClLst=     1 CellRange=     0.0.
 One-electron integrals computed using PRISM.
 One-electron integral symmetry used in STVInt
   4 Symmetry operations used in ECPInt.
 ECPInt:  NShTT=     120 NPrTT=     376 LenC2=     121 LenP2D=     370.
 LDataN:  DoStor=T MaxTD1= 6 Len=  172
 NBasis=    37 RedAO= T EigKep=  7.95D-03  NBF=    18     3     8     8
 NBsUse=    37 1.00D-06 EigRej= -1.00D+00 NBFU=    18     3     8     8
 Precomputing XC quadrature grid using
 IXCGrd= 4 IRadAn=           5 IRanWt=          -1 IRanGd=           0 AccXCQ= 0.00D+00.
 Generated NRdTot=       0 NPtTot=           0 NUsed=           0 NTot=          32
 NSgBfM=    42    42    42    42    42 MxSgAt=     2 MxSgA2=     2.
 Leave Link  302 at Wed Feb 19 14:50:46 2020, MaxMem=  1879048192 cpu:               1.6 elap:               0.2
 (Enter /opt/g16/l303.exe)
 DipDrv:  MaxL=1.
 Leave Link  303 at Wed Feb 19 14:50:46 2020, MaxMem=  1879048192 cpu:               0.5 elap:               0.1
 (Enter /opt/g16/l401.exe)
 ExpMin= 1.03D-01 ExpMax= 1.97D+04 ExpMxC= 6.73D+02 IAcc=3 IRadAn=         5 AccDes= 0.00D+00
 Harris functional with IExCor= 4639 and IRadAn=       5 diagonalized for initial guess.
 HarFok:  IExCor= 4639 AccDes= 0.00D+00 IRadAn=         5 IDoV= 1 UseB2=F ITyADJ=14
 ICtDFT=  3500011 ScaDFX=  1.000000  1.000000  1.000000  1.000000
 FoFCou: FMM=F IPFlag=           0 FMFlag=      100000 FMFlg1=           0
         NFxFlg=           0 DoJE=T BraDBF=F KetDBF=T FulRan=T
         wScrn=  0.000000 ICntrl=       500 IOpCl=  0 I1Cent=   200000004 NGrid=           0
         NMat0=    1 NMatS0=      1 NMatT0=    0 NMatD0=    1 NMtDS0=    0 NMtDT0=    0
 Petite list used in FoFCou.
 Harris En= -52.9934433177307    
 JPrj=0 DoOrth=F DoCkMO=T.
 Mixing orbitals, IMix= 1 IMixAn=  0 NRI=1 NE=    5 Coef=  7.07106781D-01  7.07106781D-01
 Mixing orbitals, IMix= 1 IMixAn=  0 NRI=1 NE=    3 Coef= -7.07106781D-01  7.07106781D-01
 Initial guess orbital symmetries:
 Alpha Orbitals:
       Occupied  (SG) (SG) (SG) (?A) (?A)
       Virtual   (?A) (SG) (SG) (PI) (PI) (SG) (PI) (PI) (DLTA)
                 (DLTA) (SG) (PI) (PI) (SG) (SG) (PI) (PI) (SG)
                 (SG) (DLTA) (DLTA) (PHI) (PHI) (PI) (PI) (DLTA)
                 (DLTA) (PI) (PI) (SG) (SG) (SG)
 Beta  Orbitals:
       Occupied  (SG) (SG) (?A)
       Virtual   (?A) (?A) (SG) (SG) (SG) (PI) (PI) (SG) (PI) (PI)
                 (DLTA) (DLTA) (SG) (PI) (PI) (SG) (SG) (PI) (PI)
                 (SG) (SG) (DLTA) (DLTA) (PHI) (PHI) (PI) (PI)
                 (DLTA) (DLTA) (PI) (PI) (SG) (SG) (SG)
 Initial guess <Sx>= 0.0000 <Sy>= 0.0000 <Sz>= 1.0000 <S**2>= 2.0000 S= 1.0000
 Leave Link  401 at Wed Feb 19 14:50:46 2020, MaxMem=  1879048192 cpu:               1.7 elap:               0.2
 (Enter /opt/g16/l502.exe)
 Keep R1 and R2 ints in memory in symmetry-blocked form, NReq=7413107.
 FoFCou: FMM=F IPFlag=           0 FMFlag=           0 FMFlg1=           0
         NFxFlg=           0 DoJE=F BraDBF=F KetDBF=F FulRan=T
         wScrn=  0.000000 ICntrl=       600 IOpCl=  0 I1Cent=           0 NGrid=           0
         NMat0=    1 NMatS0=    703 NMatT0=    0 NMatD0=    1 NMtDS0=    0 NMtDT0=    0
 Petite list used in FoFCou.
 UHF open shell SCF:
 Using DIIS extrapolation, IDIIS=  1040.
 NGot=  1879048192 LenX=  1878907737 LenY=  1878905532
 Requested convergence on RMS density matrix=1.00D-08 within  32 cycles.
 Requested convergence on MAX density matrix=1.00D-06.
 Requested convergence on             energy=1.00D-06.
 No special actions if energy rises.
 Integral accuracy reduced to 1.0D-05 until final iterations.
 An orbital has undefined symmetry, so N**3 symmetry is turned off.

 Cycle   1  Pass 0  IDiag  1:
 Density matrix breaks symmetry, PCut= 1.00D-04
 Density matrix has no symmetry -- integrals replicated.
 E= -54.8850088611514    
 DIIS: error= 8.02D-02 at cycle   1 NSaved=   1.
 NSaved= 1 IEnMin= 1 EnMin= -54.8850088611514     IErMin= 1 ErrMin= 8.02D-02
 ErrMax= 8.02D-02  0.00D+00 EMaxC= 1.00D-01 BMatC= 9.67D-01 BMatP= 9.67D-01
 IDIUse=3 WtCom= 1.98D-01 WtEn= 8.02D-01
 Coeff-Com:  0.100D+01
 Coeff-En:   0.100D+01
 Coeff:      0.100D+01
 Gap=     0.206 Goal=   None    Shift=    0.000
 Gap=     0.269 Goal=   None    Shift=    0.000
 GapD=    0.206 DampG=1.000 DampE=0.500 DampFc=0.5000 IDamp=-1.
 Damping current iteration by 5.00D-01
 RMSDP=6.29D-02 MaxDP=2.11D+00              OVMax= 5.79D-01

 Cycle   2  Pass 0  IDiag  1:
 Density matrix breaks symmetry, PCut= 1.00D-04
 Density matrix has no symmetry -- integrals replicated.
 E= -55.0151275574694     Delta-E=       -0.130118696318 Rises=F Damp=T
 DIIS: error= 3.04D-02 at cycle   2 NSaved=   2.
 NSaved= 2 IEnMin= 2 EnMin= -55.0151275574694     IErMin= 2 ErrMin= 3.04D-02
 ErrMax= 3.04D-02  0.00D+00 EMaxC= 1.00D-01 BMatC= 1.37D-01 BMatP= 9.67D-01
 IDIUse=3 WtCom= 6.96D-01 WtEn= 3.04D-01
 Coeff-Com: -0.281D+00 0.128D+01
 Coeff-En:   0.000D+00 0.100D+01
 Coeff:     -0.195D+00 0.120D+01
 Gap=     0.438 Goal=   None    Shift=    0.000
 Gap=     0.335 Goal=   None    Shift=    0.000
 RMSDP=3.26D-02 MaxDP=1.09D+00 DE=-1.30D-01 OVMax= 1.61D-01

 Cycle   3  Pass 0  IDiag  1:
 Density matrix breaks symmetry, PCut= 1.00D-04
 Density matrix has no symmetry -- integrals replicated.
 E= -55.1853261050220     Delta-E=       -0.170198547553 Rises=F Damp=F
 DIIS: error= 1.92D-02 at cycle   3 NSaved=   3.
 NSaved= 3 IEnMin= 3 EnMin= -55.1853261050220     IErMin= 3 ErrMin= 1.92D-02
 ErrMax= 1.92D-02  0.00D+00 EMaxC= 1.00D-01 BMatC= 1.43D-02 BMatP= 1.37D-01
 IDIUse=3 WtCom= 8.08D-01 WtEn= 1.92D-01
 Coeff-Com:  0.105D-01-0.810D-01 0.107D+01
 Coeff-En:   0.000D+00 0.000D+00 0.100D+01
 Coeff:      0.845D-02-0.655D-01 0.106D+01
 Gap=     0.528 Goal=   None    Shift=    0.000
 Gap=     0.365 Goal=   None    Shift=    0.000
 RMSDP=4.80D-03 MaxDP=8.32D-02 DE=-1.70D-01 OVMax= 1.46D-01

 Cycle   4  Pass 0  IDiag  1:
 Density matrix breaks symmetry, PCut= 1.00D-04
 Density matrix has no symmetry -- integrals replicated.
 E= -55.2067578528747     Delta-E=       -0.021431747853 Rises=F Damp=F
 DIIS: error= 1.44D-02 at cycle   4 NSaved=   4.
 NSaved= 4 IEnMin= 4 EnMin= -55.2067578528747     IErMin= 4 ErrMin= 1.44D-02
 ErrMax= 1.44D-02  0.00D+00 EMaxC= 1.00D-01 BMatC= 5.48D-03 BMatP= 1.43D-02
 IDIUse=3 WtCom= 8.56D-01 WtEn= 1.44D-01
 Coeff-Com: -0.298D-01 0.103D+00-0.800D+00 0.173D+01
 Coeff-En:   0.000D+00 0.000D+00 0.000D+00 0.100D+01
 Coeff:     -0.255D-01 0.880D-01-0.685D+00 0.162D+01
 Gap=     0.539 Goal=   None    Shift=    0.000
 Gap=     0.397 Goal=   None    Shift=    0.000
 RMSDP=2.85D-03 MaxDP=4.17D-02 DE=-2.14D-02 OVMax= 1.48D-01

 Cycle   5  Pass 0  IDiag  1:
 Density matrix breaks symmetry, PCut= 1.00D-04
 Density matrix has no symmetry -- integrals replicated.
 E= -55.2178608274374     Delta-E=       -0.011102974563 Rises=F Damp=F
 DIIS: error= 8.14D-03 at cycle   5 NSaved=   5.
 NSaved= 5 IEnMin= 5 EnMin= -55.2178608274374     IErMin= 5 ErrMin= 8.14D-03
 ErrMax= 8.14D-03  0.00D+00 EMaxC= 1.00D-01 BMatC= 1.59D-03 BMatP= 5.48D-03
 IDIUse=3 WtCom= 9.19D-01 WtEn= 8.14D-02
 Coeff-Com:  0.484D-01-0.108D+00 0.429D+00-0.132D+01 0.195D+01
 Coeff-En:   0.000D+00 0.000D+00 0.000D+00 0.000D+00 0.100D+01
 Coeff:      0.445D-01-0.991D-01 0.394D+00-0.121D+01 0.187D+01
 Gap=     0.547 Goal=   None    Shift=    0.000
 Gap=     0.415 Goal=   None    Shift=    0.000
 RMSDP=1.61D-03 MaxDP=1.79D-02 DE=-1.11D-02 OVMax= 1.12D-01

 Cycle   6  Pass 0  IDiag  1:
 Density matrix breaks symmetry, PCut= 1.00D-04
 Density matrix has no symmetry -- integrals replicated.
 E= -55.2215442079266     Delta-E=       -0.003683380489 Rises=F Damp=F
 DIIS: error= 2.94D-03 at cycle   6 NSaved=   6.
 NSaved= 6 IEnMin= 6 EnMin= -55.2215442079266     IErMin= 6 ErrMin= 2.94D-03
 ErrMax= 2.94D-03  0.00D+00 EMaxC= 1.00D-01 BMatC= 2.28D-04 BMatP= 1.59D-03
 IDIUse=3 WtCom= 9.71D-01 WtEn= 2.94D-02
 Coeff-Com: -0.133D-01 0.313D-01-0.879D-02 0.176D+00-0.818D+00 0.163D+01
 Coeff-En:   0.000D+00 0.000D+00 0.000D+00 0.000D+00 0.000D+00 0.100D+01
 Coeff:     -0.129D-01 0.304D-01-0.853D-02 0.171D+00-0.794D+00 0.161D+01
 Gap=     0.545 Goal=   None    Shift=    0.000
 Gap=     0.418 Goal=   None    Shift=    0.000
 RMSDP=7.23D-04 MaxDP=7.59D-03 DE=-3.68D-03 OVMax= 4.74D-02

 Cycle   7  Pass 0  IDiag  1:
 Density matrix breaks symmetry, PCut= 1.00D-04
 Density matrix has no symmetry -- integrals replicated.
 E= -55.2220700214696     Delta-E=       -0.000525813543 Rises=F Damp=F
 DIIS: error= 6.48D-04 at cycle   7 NSaved=   7.
 NSaved= 7 IEnMin= 7 EnMin= -55.2220700214696     IErMin= 7 ErrMin= 6.48D-04
 ErrMax= 6.48D-04  0.00D+00 EMaxC= 1.00D-01 BMatC= 1.61D-05 BMatP= 2.28D-04
 IDIUse=3 WtCom= 9.94D-01 WtEn= 6.48D-03
 Coeff-Com: -0.190D-02 0.557D-02-0.420D-01 0.733D-01-0.428D-01-0.274D+00
 Coeff-Com:  0.128D+01
 Coeff-En:   0.000D+00 0.000D+00 0.000D+00 0.000D+00 0.000D+00 0.000D+00
 Coeff-En:   0.100D+01
 Coeff:     -0.189D-02 0.553D-02-0.417D-01 0.728D-01-0.425D-01-0.272D+00
 Coeff:      0.128D+01
 Gap=     0.546 Goal=   None    Shift=    0.000
 Gap=     0.420 Goal=   None    Shift=    0.000
 RMSDP=1.99D-04 MaxDP=2.13D-03 DE=-5.26D-04 OVMax= 1.32D-02

 Cycle   8  Pass 0  IDiag  1:
 Density matrix breaks symmetry, PCut= 1.00D-04
 Density matrix has no symmetry -- integrals replicated.
 E= -55.2220990188854     Delta-E=       -0.000028997416 Rises=F Damp=F
 DIIS: error= 1.23D-04 at cycle   8 NSaved=   8.
 NSaved= 8 IEnMin= 8 EnMin= -55.2220990188854     IErMin= 8 ErrMin= 1.23D-04
 ErrMax= 1.23D-04  0.00D+00 EMaxC= 1.00D-01 BMatC= 9.27D-07 BMatP= 1.61D-05
 IDIUse=3 WtCom= 9.99D-01 WtEn= 1.23D-03
 Coeff-Com:  0.389D-03-0.121D-02-0.637D-02 0.187D-01 0.157D-01-0.777D-01
 Coeff-Com: -0.391D-01 0.109D+01
 Coeff-En:   0.000D+00 0.000D+00 0.000D+00 0.000D+00 0.000D+00 0.000D+00
 Coeff-En:   0.000D+00 0.100D+01
 Coeff:      0.388D-03-0.121D-02-0.636D-02 0.187D-01 0.157D-01-0.776D-01
 Coeff:     -0.390D-01 0.109D+01
 Gap=     0.546 Goal=   None    Shift=    0.000
 Gap=     0.419 Goal=   None    Shift=    0.000
 RMSDP=2.01D-05 MaxDP=2.50D-04 DE=-2.90D-05 OVMax= 5.75D-04

 Cycle   9  Pass 0  IDiag  1:
 E= -55.2220819489717     Delta-E=        0.000017069914 Rises=F Damp=F
 DIIS: error= 2.07D-05 at cycle   1 NSaved=   1.
 NSaved= 1 IEnMin= 1 EnMin= -55.2220819489717     IErMin= 1 ErrMin= 2.07D-05
 ErrMax= 2.07D-05  0.00D+00 EMaxC= 1.00D-01 BMatC= 3.80D-08 BMatP= 3.80D-08
 IDIUse=1 WtCom= 1.00D+00 WtEn= 0.00D+00
 Coeff-Com:  0.100D+01
 Coeff:      0.100D+01
 Gap=     0.546 Goal=   None    Shift=    0.000
 Gap=     0.419 Goal=   None    Shift=    0.000
 RMSDP=6.05D-06 MaxDP=4.84D-05 DE= 1.71D-05 OVMax= 2.91D-04

 Initial convergence to 1.0D-05 achieved.  Increase integral accuracy.
 Cycle  10  Pass 1  IDiag  1:
 E= -55.2221006615638     Delta-E=       -0.000018712592 Rises=F Damp=F
 DIIS: error= 3.57D-05 at cycle   1 NSaved=   1.
 NSaved= 1 IEnMin= 1 EnMin= -55.2221006615638     IErMin= 1 ErrMin= 3.57D-05
 ErrMax= 3.57D-05  0.00D+00 EMaxC= 1.00D-01 BMatC= 6.27D-08 BMatP= 6.27D-08
 IDIUse=1 WtCom= 1.00D+00 WtEn= 0.00D+00
 Coeff-Com:  0.100D+01
 Coeff:      0.100D+01
 Gap=     0.546 Goal=   None    Shift=    0.000
 Gap=     0.419 Goal=   None    Shift=    0.000
 RMSDP=6.05D-06 MaxDP=4.84D-05 DE=-1.87D-05 OVMax= 5.76D-05

 Cycle  11  Pass 1  IDiag  1:
 E= -55.2221006704758     Delta-E=       -0.000000008912 Rises=F Damp=F
 DIIS: error= 1.02D-05 at cycle   2 NSaved=   2.
 NSaved= 2 IEnMin= 2 EnMin= -55.2221006704758     IErMin= 2 ErrMin= 1.02D-05
 ErrMax= 1.02D-05  0.00D+00 EMaxC= 1.00D-01 BMatC= 7.15D-09 BMatP= 6.27D-08
 IDIUse=1 WtCom= 1.00D+00 WtEn= 0.00D+00
 Coeff-Com:  0.152D+00 0.848D+00
 Coeff:      0.152D+00 0.848D+00
 Gap=     0.546 Goal=   None    Shift=    0.000
 Gap=     0.419 Goal=   None    Shift=    0.000
 RMSDP=9.82D-07 MaxDP=1.26D-05 DE=-8.91D-09 OVMax= 2.36D-05

 Cycle  12  Pass 1  IDiag  1:
 E= -55.2221006718972     Delta-E=       -0.000000001421 Rises=F Damp=F
 DIIS: error= 3.92D-06 at cycle   3 NSaved=   3.
 NSaved= 3 IEnMin= 3 EnMin= -55.2221006718972     IErMin= 3 ErrMin= 3.92D-06
 ErrMax= 3.92D-06  0.00D+00 EMaxC= 1.00D-01 BMatC= 1.22D-09 BMatP= 7.15D-09
 IDIUse=1 WtCom= 1.00D+00 WtEn= 0.00D+00
 Coeff-Com: -0.489D-01 0.234D+00 0.815D+00
 Coeff:     -0.489D-01 0.234D+00 0.815D+00
 Gap=     0.546 Goal=   None    Shift=    0.000
 Gap=     0.419 Goal=   None    Shift=    0.000
 RMSDP=3.51D-07 MaxDP=5.64D-06 DE=-1.42D-09 OVMax= 1.10D-05

 Cycle  13  Pass 1  IDiag  1:
 E= -55.2221006722044     Delta-E=       -0.000000000307 Rises=F Damp=F
 DIIS: error= 7.33D-07 at cycle   4 NSaved=   4.
 NSaved= 4 IEnMin= 4 EnMin= -55.2221006722044     IErMin= 4 ErrMin= 7.33D-07
 ErrMax= 7.33D-07  0.00D+00 EMaxC= 1.00D-01 BMatC= 4.25D-11 BMatP= 1.22D-09
 IDIUse=1 WtCom= 1.00D+00 WtEn= 0.00D+00
 Coeff-Com:  0.104D-01-0.132D+00-0.329D+00 0.145D+01
 Coeff:      0.104D-01-0.132D+00-0.329D+00 0.145D+01
 Gap=     0.546 Goal=   None    Shift=    0.000
 Gap=     0.419 Goal=   None    Shift=    0.000
 RMSDP=1.87D-07 MaxDP=2.52D-06 DE=-3.07D-10 OVMax= 5.04D-06

 Cycle  14  Pass 1  IDiag  1:
 E= -55.2221006722413     Delta-E=       -0.000000000037 Rises=F Damp=F
 DIIS: error= 1.89D-07 at cycle   5 NSaved=   5.
 NSaved= 5 IEnMin= 5 EnMin= -55.2221006722413     IErMin= 5 ErrMin= 1.89D-07
 ErrMax= 1.89D-07  0.00D+00 EMaxC= 1.00D-01 BMatC= 2.11D-12 BMatP= 4.25D-11
 IDIUse=1 WtCom= 1.00D+00 WtEn= 0.00D+00
 Coeff-Com:  0.821D-03 0.837D-02 0.146D-01-0.318D+00 0.129D+01
 Coeff:      0.821D-03 0.837D-02 0.146D-01-0.318D+00 0.129D+01
 Gap=     0.546 Goal=   None    Shift=    0.000
 Gap=     0.419 Goal=   None    Shift=    0.000
 RMSDP=6.25D-08 MaxDP=7.85D-07 DE=-3.68D-11 OVMax= 1.51D-06

 Cycle  15  Pass 1  IDiag  1:
 E= -55.2221006722436     Delta-E=       -0.000000000002 Rises=F Damp=F
 DIIS: error= 2.94D-08 at cycle   6 NSaved=   6.
 NSaved= 6 IEnMin= 6 EnMin= -55.2221006722436     IErMin= 6 ErrMin= 2.94D-08
 ErrMax= 2.94D-08  0.00D+00 EMaxC= 1.00D-01 BMatC= 5.41D-14 BMatP= 2.11D-12
 IDIUse=1 WtCom= 1.00D+00 WtEn= 0.00D+00
 Coeff-Com: -0.591D-03 0.321D-02 0.803D-02 0.898D-02-0.268D+00 0.125D+01
 Coeff:     -0.591D-03 0.321D-02 0.803D-02 0.898D-02-0.268D+00 0.125D+01
 Gap=     0.546 Goal=   None    Shift=    0.000
 Gap=     0.419 Goal=   None    Shift=    0.000
 RMSDP=1.23D-08 MaxDP=1.47D-07 DE=-2.34D-12 OVMax= 2.57D-07

 Cycle  16  Pass 1  IDiag  1:
 E= -55.2221006722437     Delta-E=       -0.000000000000 Rises=F Damp=F
 DIIS: error= 4.04D-09 at cycle   7 NSaved=   7.
 NSaved= 7 IEnMin= 7 EnMin= -55.2221006722437     IErMin= 7 ErrMin= 4.04D-09
 ErrMax= 4.04D-09  0.00D+00 EMaxC= 1.00D-01 BMatC= 1.27D-15 BMatP= 5.41D-14
 IDIUse=1 WtCom= 1.00D+00 WtEn= 0.00D+00
 Coeff-Com:  0.203D-04-0.649D-03-0.144D-02 0.123D-01-0.295D-01-0.835D-01
 Coeff-Com:  0.110D+01
 Coeff:      0.203D-04-0.649D-03-0.144D-02 0.123D-01-0.295D-01-0.835D-01
 Coeff:      0.110D+01
 Gap=     0.546 Goal=   None    Shift=    0.000
 Gap=     0.419 Goal=   None    Shift=    0.000
 RMSDP=1.51D-09 MaxDP=1.80D-08 DE=-9.95D-14 OVMax= 3.08D-08

 SCF Done:  E(UwB97XD) =  -55.2221006722     A.U. after   16 cycles
            NFock= 16  Conv=0.15D-08     -V/T= 2.0034
 <Sx>= 0.0000 <Sy>= 0.0000 <Sz>= 1.0000 <S**2>= 2.0072 S= 1.0024
 <L.S>= 0.000000000000E+00
 KE= 5.503432257436D+01 PE=-1.367055280211D+02 EE= 2.287818131070D+01
 Annihilation of the first spin contaminant:
 S**2 before annihilation     2.0072,   after     2.0000
 Leave Link  502 at Wed Feb 19 14:50:47 2020, MaxMem=  1879048192 cpu:               7.6 elap:               1.0
 (Enter /opt/g16/l508.exe)
 QCSCF skips out because SCF is already converged.
 Leave Link  508 at Wed Feb 19 14:50:47 2020, MaxMem=  1879048192 cpu:               0.2 elap:               0.0
 (Enter /opt/g16/l601.exe)
 Copying SCF densities to generalized density rwf, IOpCl= 1 IROHF=0.

 **********************************************************************

            Population analysis using the SCF Density.

 **********************************************************************

 Orbital symmetries:
 Alpha Orbitals:
       Occupied  (SG) (SG) (SG) (PI) (PI)
       Virtual   (SG) (SG) (PI) (PI) (SG) (SG) (PI) (PI) (DLTA)
                 (DLTA) (SG) (PI) (PI) (SG) (SG) (PI) (PI) (SG)
                 (SG) (PHI) (PHI) (DLTA) (DLTA) (PI) (PI) (DLTA)
                 (DLTA) (PI) (PI) (SG) (SG) (SG)
 Beta  Orbitals:
       Occupied  (SG) (SG) (SG)
       Virtual   (PI) (PI) (SG) (SG) (SG) (PI) (PI) (SG) (PI) (PI)
                 (DLTA) (DLTA) (SG) (PI) (PI) (SG) (SG) (PI) (PI)
                 (SG) (SG) (DLTA) (DLTA) (PHI) (PHI) (PI) (PI)
                 (DLTA) (DLTA) (PI) (PI) (SG) (SG) (SG)
 The electronic state is 3-SG.
 Alpha  occ. eigenvalues --  -14.50856  -0.94624  -0.49497  -0.42487  -0.42487
 Alpha virt. eigenvalues --    0.12109   0.39147   0.41546   0.41546   0.42256
 Alpha virt. eigenvalues --    0.53782   1.01024   1.01024   1.07503   1.07503
 Alpha virt. eigenvalues --    1.34413   1.90923   1.90923   1.99617   2.01173
 Alpha virt. eigenvalues --    2.12081   2.12081   2.44627   2.97115   3.90400
 Alpha virt. eigenvalues --    3.90400   3.90571   3.90571   4.22643   4.22643
 Alpha virt. eigenvalues --    4.44002   4.44002   4.57027   4.57027   4.75550
 Alpha virt. eigenvalues --    5.46198  31.27059
  Beta  occ. eigenvalues --  -14.47398  -0.82170  -0.44230
  Beta virt. eigenvalues --   -0.02284  -0.02284   0.13360   0.40897   0.42910
  Beta virt. eigenvalues --    0.47600   0.47600   0.56098   1.05290   1.05290
  Beta virt. eigenvalues --    1.15434   1.15434   1.36980   1.94028   1.94028
  Beta virt. eigenvalues --    2.02455   2.06104   2.21498   2.21498   2.47684
  Beta virt. eigenvalues --    2.99481   4.00078   4.00078   4.03516   4.03516
  Beta virt. eigenvalues --    4.30314   4.30314   4.61791   4.61791   4.65731
  Beta virt. eigenvalues --    4.65731   4.83795   5.50850  31.32466
          Condensed to atoms (all electrons):
               1          2
     1  N    6.973333   0.240066
     2  H    0.240066   0.546535
          Atomic-Atomic Spin Densities.
               1          2
     1  N    2.034063   0.013008
     2  H    0.013008  -0.060079
 Mulliken charges and spin densities:
               1          2
     1  N   -0.213399   2.047071
     2  H    0.213399  -0.047071
 Sum of Mulliken charges =  -0.00000   2.00000
 Mulliken charges and spin densities with hydrogens summed into heavy atoms:
               1          2
     1  N   -0.000000   2.000000
 Electronic spatial extent (au):  <R**2>=             17.0793
 Charge=             -0.0000 electrons
 Dipole moment (field-independent basis, Debye):
    X=              0.0000    Y=              0.0000    Z=             -1.6282  Tot=              1.6282
 Quadrupole moment (field-independent basis, Debye-Ang):
   XX=             -6.2924   YY=             -6.2924   ZZ=             -5.8649
   XY=              0.0000   XZ=              0.0000   YZ=              0.0000
 Traceless Quadrupole moment (field-independent basis, Debye-Ang):
   XX=             -0.1425   YY=             -0.1425   ZZ=              0.2850
   XY=              0.0000   XZ=              0.0000   YZ=              0.0000
 Octapole moment (field-independent basis, Debye-Ang**2):
  XXX=              0.0000  YYY=              0.0000  ZZZ=             -2.2467  XYY=              0.0000
  XXY=             -0.0000  XXZ=             -0.3874  XZZ=              0.0000  YZZ=              0.0000
  YYZ=             -0.3874  XYZ=             -0.0000
 Hexadecapole moment (field-independent basis, Debye-Ang**3):
 XXXX=             -5.6660 YYYY=             -5.6660 ZZZZ=             -9.0641 XXXY=              0.0000
 XXXZ=              0.0000 YYYX=              0.0000 YYYZ=              0.0000 ZZZX=              0.0000
 ZZZY=              0.0000 XXYY=             -1.8887 XXZZ=             -2.6644 YYZZ=             -2.6644
 XXYZ=              0.0000 YYXZ=              0.0000 ZZXY=              0.0000
 N-N= 3.570923463795D+00 E-N=-1.367055280122D+02  KE= 5.503432257436D+01
 Symmetry A1   KE= 5.136365368626D+01
 Symmetry A2   KE= 2.587555333316D-30
 Symmetry B1   KE= 1.835334442818D+00
 Symmetry B2   KE= 1.835334445278D+00
 Symmetry A1   SP= 1.079998178562D-14
 Symmetry A2   SP= 4.275748413386D-32
 Symmetry B1   SP= 1.000000000000D+00
 Symmetry B2   SP= 1.000000000000D+00
                          Isotropic Fermi Contact Couplings
        Atom                 a.u.       MegaHertz       Gauss      10(-4) cm-1
     1  N(14)              0.12257      19.80096       7.06547       6.60489
     2  H(1)              -0.02617     -58.49626     -20.87292     -19.51225
 --------------------------------------------------------
       Center         ----  Spin Dipole Couplings  ----
                      3XX-RR        3YY-RR        3ZZ-RR
 --------------------------------------------------------
     1   Atom        1.147001      1.147001     -2.294002
     2   Atom       -0.119976     -0.119976      0.239952
 --------------------------------------------------------
                        XY            XZ            YZ
 --------------------------------------------------------
     1   Atom        0.000000      0.000000      0.000000
     2   Atom        0.000000      0.000000      0.000000
 --------------------------------------------------------


 ---------------------------------------------------------------------------------
              Anisotropic Spin Dipole Couplings in Principal Axis System
 ---------------------------------------------------------------------------------

       Atom             a.u.   MegaHertz   Gauss  10(-4) cm-1        Axes

              Baa    -2.2940   -88.475   -31.570   -29.512  0.0000  0.0000  1.0000
     1 N(14)  Bbb     1.1470    44.237    15.785    14.756  1.0000  0.0000  0.0000
              Bcc     1.1470    44.237    15.785    14.756 -0.0000  1.0000  0.0000
 
              Baa    -0.1200   -64.014   -22.842   -21.353  1.0000  0.0000  0.0000
     2 H(1)   Bbb    -0.1200   -64.014   -22.842   -21.353 -0.0000  1.0000  0.0000
              Bcc     0.2400   128.027    45.683    42.705  0.0000  0.0000  1.0000
 

 ---------------------------------------------------------------------------------

 No NMR shielding tensors so no spin-rotation constants.
 Leave Link  601 at Wed Feb 19 14:50:47 2020, MaxMem=  1879048192 cpu:               2.0 elap:               0.3
 (Enter /opt/g16/l701.exe)
 ... and contract with generalized density number  0.
 Compute integral first derivatives.
 R6Disp: Adding Grimme-D2 dispersion energy 1st derivatives to the gradient.
   4 Symmetry operations used in ECPInt.
 ECPInt:  NShTT=     120 NPrTT=     376 LenC2=     121 LenP2D=     370.
 LDataN:  DoStor=T MaxTD1= 7 Len=  274
 Leave Link  701 at Wed Feb 19 14:50:48 2020, MaxMem=  1879048192 cpu:               1.4 elap:               0.2
 (Enter /opt/g16/l702.exe)
 L702 exits ... SP integral derivatives will be done elsewhere.
 Leave Link  702 at Wed Feb 19 14:50:48 2020, MaxMem=  1879048192 cpu:               0.5 elap:               0.1
 (Enter /opt/g16/l703.exe)
 Integral derivatives from FoFJK, PRISM(SPDF).
 Compute integral first derivatives, UseDBF=F ICtDFT=           0.
 Calling FoFJK, ICntrl=      2127 FMM=F ISym2X=1 I1Cent= 0 IOpClX= 1 NMat=1 NMatS=1 NMatT=0.
 FoFJK:  IHMeth= 1 ICntrl=    2127 DoSepK=T KAlg= 0 I1Cent=           0 FoldK=F
 IRaf=         1 NMat=       1 IRICut=       1 DoRegI=T DoRafI=F ISym2E= 1 IDoP0=0 IntGTp=1.
 FoFCou: FMM=F IPFlag=           0 FMFlag=      100000 FMFlg1=         800
         NFxFlg=           0 DoJE=F BraDBF=F KetDBF=F FulRan=T
         wScrn=  0.000000 ICntrl=      2527 IOpCl=  0 I1Cent=           0 NGrid=           0
         NMat0=    1 NMatS0=      1 NMatT0=    0 NMatD0=    1 NMtDS0=    0 NMtDT0=    0
 Petite list used in FoFCou.
 Leave Link  703 at Wed Feb 19 14:50:49 2020, MaxMem=  1879048192 cpu:               8.3 elap:               1.0
 (Enter /opt/g16/l716.exe)
 Dipole        = 0.00000000D+00 2.47022955D-33-6.40586643D-01
 ***** Axes restored to original set *****
 -------------------------------------------------------------------
 Center     Atomic                   Forces (Hartrees/Bohr)
 Number     Number              X              Y              Z
 -------------------------------------------------------------------
      1        7          -0.000000000   -0.000000000    0.000929965
      2        1           0.000000000    0.000000000   -0.000929965
 -------------------------------------------------------------------
 Cartesian Forces:  Max     0.000929965 RMS     0.000536915
 Leave Link  716 at Wed Feb 19 14:50:49 2020, MaxMem=  1879048192 cpu:               0.5 elap:               0.1
 (Enter /opt/g16/l103.exe)

 GradGradGradGradGradGradGradGradGradGradGradGradGradGradGradGradGradGrad
 Berny optimization.
 FormGI is forming the generalized inverse of G from B-inverse, IUseBI=4.
 Internal  Forces:  Max     0.000929965 RMS     0.000929965
 Search for a local minimum.
 Step number   1 out of a maximum of   20
 All quantities printed in internal units (Hartrees-Bohrs-Radians)
 RMS Force = .92996D-03 SwitMx=.10000D-02 MixMth= 2
 Mixed Optimization -- En-DIIS/RFO-DIIS
 Second derivative matrix not updated -- first step.
 The second derivative matrix:
                          R1
           R1           0.41684
 ITU=  0
     Eigenvalues ---    0.41684
 RFO step:  Lambda=-2.07474093D-06 EMin= 4.16837466D-01
 Linear search not attempted -- first point.
 Iteration  1 RMS(Cart)=  0.00157755 RMS(Int)=  0.00000000
 Iteration  2 RMS(Cart)=  0.00000000 RMS(Int)=  0.00000000
 ITry= 1 IFail=0 DXMaxC= 1.12D-03 DCOld= 1.00D+10 DXMaxT= 3.00D-01 DXLimC= 3.00D+00 Rises=F
 ClnCor:  largest displacement from symmetrization is 0.00D+00 for atom     0.
 Variable       Old X    -DE/DX   Delta X   Delta X   Delta X     New X
                                 (Linear)    (Quad)   (Total)
    R1        1.96028   0.00093   0.00000   0.00223   0.00223   1.96251
         Item               Value     Threshold  Converged?
 Maximum Force            0.000930     0.000450     NO 
 RMS     Force            0.000930     0.000300     NO 
 Maximum Displacement     0.001115     0.001800     YES
 RMS     Displacement     0.001578     0.001200     NO 
 Predicted change in Energy=-1.037376D-06
 Lowest energy point so far.  Saving SCF results.
 GradGradGradGradGradGradGradGradGradGradGradGradGradGradGradGradGradGrad

 Leave Link  103 at Wed Feb 19 14:50:49 2020, MaxMem=  1879048192 cpu:               0.0 elap:               0.0
 (Enter /opt/g16/l202.exe)
                          Input orientation:                          
 ---------------------------------------------------------------------
 Center     Atomic      Atomic             Coordinates (Angstroms)
 Number     Number       Type             X           Y           Z
 ---------------------------------------------------------------------
      1          7           0        0.000000    0.000000    0.130257
      2          1           0        0.000000    0.000000   -0.908257
 ---------------------------------------------------------------------
 Stoichiometry    HN(3)
 Framework group  C*V[C*(HN)]
 Deg. of freedom     1
 Full point group                 C*V     NOp   4
 RotChk:  IX=0 Diff= 0.00D+00
 Largest Abelian subgroup         C2V     NOp   4
 Largest concise Abelian subgroup C1      NOp   1
                         Standard orientation:                         
 ---------------------------------------------------------------------
 Center     Atomic      Atomic             Coordinates (Angstroms)
 Number     Number       Type             X           Y           Z
 ---------------------------------------------------------------------
      1          7           0        0.000000    0.000000    0.129814
      2          1           0        0.000000    0.000000   -0.908700
 ---------------------------------------------------------------------
 Rotational constants (GHZ):           0.0000000         498.4141427         498.4141427
 Leave Link  202 at Wed Feb 19 14:50:49 2020, MaxMem=  1879048192 cpu:               0.2 elap:               0.0
 (Enter /opt/g16/l301.exe)
 Standard basis: def2TZVP (5D, 7F)
 Ernie: Thresh=  0.10000D-02 Tol=  0.10000D-05 Strict=F.
 There are    21 symmetry adapted cartesian basis functions of A1  symmetry.
 There are     3 symmetry adapted cartesian basis functions of A2  symmetry.
 There are     9 symmetry adapted cartesian basis functions of B1  symmetry.
 There are     9 symmetry adapted cartesian basis functions of B2  symmetry.
 There are    18 symmetry adapted basis functions of A1  symmetry.
 There are     3 symmetry adapted basis functions of A2  symmetry.
 There are     8 symmetry adapted basis functions of B1  symmetry.
 There are     8 symmetry adapted basis functions of B2  symmetry.
    37 basis functions,    59 primitive gaussians,    42 cartesian basis functions
     5 alpha electrons        3 beta electrons
       nuclear repulsion energy         3.5668649257 Hartrees.
 IExCor= 4639 DFT=T Ex+Corr=wB97XD ExCW=0 ScaHFX=  1.000000
 ScaDFX=  1.000000  1.000000  1.000000  1.000000 ScalE2=  1.000000  1.000000
 IRadAn=      5 IRanWt=     -1 IRanGd=            0 ICorTp=0 IEmpDi=121
 HFx  wShort=  0.000000 wLong=  0.200000 cFull=  0.222036 cShort=  0.000000 cLong=  0.777964
 DFx  wShort=  0.000000 wLong=  0.200000 cFull=  0.000000 cShort=  0.000000 cLong=  1.000000
 NAtoms=    2 NActive=    2 NUniq=    2 SFac= 1.00D+00 NAtFMM=   60 NAOKFM=F Big=F
 Integral buffers will be    131072 words long.
 Raffenetti 2 integral format.
 Two-electron integral symmetry is turned on.
 R6Disp:  Grimme-D2 Dispersion energy=       -0.0000009140 Hartrees.
 Nuclear repulsion after empirical dispersion term =        3.5668640117 Hartrees.
 Leave Link  301 at Wed Feb 19 14:50:49 2020, MaxMem=  1879048192 cpu:               0.6 elap:               0.1
 (Enter /opt/g16/l302.exe)
 NPDir=0 NMtPBC=     1 NCelOv=     1 NCel=       1 NClECP=     1 NCelD=      1
         NCelK=      1 NCelE2=     1 NClLst=     1 CellRange=     0.0.
 One-electron integrals computed using PRISM.
 One-electron integral symmetry used in STVInt
   4 Symmetry operations used in ECPInt.
 ECPInt:  NShTT=     120 NPrTT=     376 LenC2=     121 LenP2D=     370.
 LDataN:  DoStor=T MaxTD1= 6 Len=  172
 NBasis=    37 RedAO= T EigKep=  7.97D-03  NBF=    18     3     8     8
 NBsUse=    37 1.00D-06 EigRej= -1.00D+00 NBFU=    18     3     8     8
 Precomputing XC quadrature grid using
 IXCGrd= 4 IRadAn=           5 IRanWt=          -1 IRanGd=           0 AccXCQ= 0.00D+00.
 Generated NRdTot=       0 NPtTot=           0 NUsed=           0 NTot=          32
 NSgBfM=    42    42    42    42    42 MxSgAt=     2 MxSgA2=     2.
 Leave Link  302 at Wed Feb 19 14:50:49 2020, MaxMem=  1879048192 cpu:               1.7 elap:               0.2
 (Enter /opt/g16/l303.exe)
 DipDrv:  MaxL=1.
 Leave Link  303 at Wed Feb 19 14:50:49 2020, MaxMem=  1879048192 cpu:               0.5 elap:               0.1
 (Enter /opt/g16/l401.exe)
 Initial guess from the checkpoint file:  "check.chk"
 B after Tr=     0.000000    0.000000    0.000000
         Rot=    1.000000    0.000000    0.000000    0.000000 Ang=   0.00 deg.
 Guess basis will be translated and rotated to current coordinates.
 JPrj=2 DoOrth=T DoCkMO=T.
 Initial guess orbital symmetries:
 Alpha Orbitals:
       Occupied  (SG) (SG) (SG) (PI) (PI)
       Virtual   (SG) (SG) (PI) (PI) (SG) (SG) (PI) (PI) (DLTA)
                 (DLTA) (SG) (PI) (PI) (SG) (SG) (PI) (PI) (SG)
                 (SG) (PHI) (PHI) (DLTA) (DLTA) (PI) (PI) (DLTA)
                 (DLTA) (PI) (PI) (SG) (SG) (SG)
 Beta  Orbitals:
       Occupied  (SG) (SG) (SG)
       Virtual   (PI) (PI) (SG) (SG) (SG) (PI) (PI) (SG) (PI) (PI)
                 (DLTA) (DLTA) (SG) (PI) (PI) (SG) (SG) (PI) (PI)
                 (SG) (SG) (DLTA) (DLTA) (PHI) (PHI) (PI) (PI)
                 (DLTA) (DLTA) (PI) (PI) (SG) (SG) (SG)
 The electronic state of the initial guess is 3-SG.
 Initial guess <Sx>= 0.0000 <Sy>= 0.0000 <Sz>= 1.0000 <S**2>= 2.0072 S= 1.0024
 Leave Link  401 at Wed Feb 19 14:50:49 2020, MaxMem=  1879048192 cpu:               0.9 elap:               0.1
 (Enter /opt/g16/l502.exe)
 Keep R1 and R2 ints in memory in symmetry-blocked form, NReq=7413107.
 FoFCou: FMM=F IPFlag=           0 FMFlag=           0 FMFlg1=           0
         NFxFlg=           0 DoJE=F BraDBF=F KetDBF=F FulRan=T
         wScrn=  0.000000 ICntrl=       600 IOpCl=  0 I1Cent=           0 NGrid=           0
         NMat0=    1 NMatS0=    703 NMatT0=    0 NMatD0=    1 NMtDS0=    0 NMtDT0=    0
 Petite list used in FoFCou.
 UHF open shell SCF:
 Using DIIS extrapolation, IDIIS=  1040.
 NGot=  1879048192 LenX=  1878907737 LenY=  1878905532
 Requested convergence on RMS density matrix=1.00D-08 within  32 cycles.
 Requested convergence on MAX density matrix=1.00D-06.
 Requested convergence on             energy=1.00D-06.
 No special actions if energy rises.
 An orbital has undefined symmetry, so N**3 symmetry is turned off.

 Cycle   1  Pass 1  IDiag  1:
 E= -55.2221014549188    
 DIIS: error= 1.25D-04 at cycle   1 NSaved=   1.
 NSaved= 1 IEnMin= 1 EnMin= -55.2221014549188     IErMin= 1 ErrMin= 1.25D-04
 ErrMax= 1.25D-04  0.00D+00 EMaxC= 1.00D-01 BMatC= 1.45D-06 BMatP= 1.45D-06
 IDIUse=3 WtCom= 9.99D-01 WtEn= 1.25D-03
 Coeff-Com:  0.100D+01
 Coeff-En:   0.100D+01
 Coeff:      0.100D+01
 Gap=     0.546 Goal=   None    Shift=    0.000
 Gap=     0.419 Goal=   None    Shift=    0.000
 RMSDP=1.13D-05 MaxDP=1.20D-04              OVMax= 2.50D-04

 Cycle   2  Pass 1  IDiag  1:
 E= -55.2221017529190     Delta-E=       -0.000000298000 Rises=F Damp=F
 DIIS: error= 3.06D-05 at cycle   2 NSaved=   2.
 NSaved= 2 IEnMin= 2 EnMin= -55.2221017529190     IErMin= 2 ErrMin= 3.06D-05
 ErrMax= 3.06D-05  0.00D+00 EMaxC= 1.00D-01 BMatC= 6.14D-08 BMatP= 1.45D-06
 IDIUse=1 WtCom= 1.00D+00 WtEn= 0.00D+00
 Coeff-Com:  0.288D-01 0.971D+00
 Coeff:      0.288D-01 0.971D+00
 Gap=     0.546 Goal=   None    Shift=    0.000
 Gap=     0.419 Goal=   None    Shift=    0.000
 DSYEVD-2 returned Info=          75 IAlg= 4 N=    37 NDim=    37 NE2=    50781229 trying  DSYEV.
 RMSDP=3.48D-06 MaxDP=4.00D-05 DE=-2.98D-07 OVMax= 6.75D-05

 Cycle   3  Pass 1  IDiag  1:
 E= -55.2221017687277     Delta-E=       -0.000000015809 Rises=F Damp=F
 DIIS: error= 9.55D-06 at cycle   3 NSaved=   3.
 NSaved= 3 IEnMin= 3 EnMin= -55.2221017687277     IErMin= 3 ErrMin= 9.55D-06
 ErrMax= 9.55D-06  0.00D+00 EMaxC= 1.00D-01 BMatC= 1.11D-08 BMatP= 6.14D-08
 IDIUse=1 WtCom= 1.00D+00 WtEn= 0.00D+00
 Coeff-Com: -0.246D-01 0.245D+00 0.779D+00
 Coeff:     -0.246D-01 0.245D+00 0.779D+00
 Gap=     0.546 Goal=   None    Shift=    0.000
 Gap=     0.419 Goal=   None    Shift=    0.000
 RMSDP=1.31D-06 MaxDP=1.66D-05 DE=-1.58D-08 OVMax= 3.84D-05

 Cycle   4  Pass 1  IDiag  1:
 E= -55.2221017717728     Delta-E=       -0.000000003045 Rises=F Damp=F
 DIIS: error= 3.41D-06 at cycle   4 NSaved=   4.
 NSaved= 4 IEnMin= 4 EnMin= -55.2221017717728     IErMin= 4 ErrMin= 3.41D-06
 ErrMax= 3.41D-06  0.00D+00 EMaxC= 1.00D-01 BMatC= 7.58D-10 BMatP= 1.11D-08
 IDIUse=1 WtCom= 1.00D+00 WtEn= 0.00D+00
 Coeff-Com: -0.423D-02-0.624D-01 0.685D-01 0.998D+00
 Coeff:     -0.423D-02-0.624D-01 0.685D-01 0.998D+00
 Gap=     0.546 Goal=   None    Shift=    0.000
 Gap=     0.419 Goal=   None    Shift=    0.000
 RMSDP=5.83D-07 MaxDP=6.22D-06 DE=-3.05D-09 OVMax= 1.46D-05

 Cycle   5  Pass 1  IDiag  1:
 E= -55.2221017721468     Delta-E=       -0.000000000374 Rises=F Damp=F
 DIIS: error= 9.69D-07 at cycle   5 NSaved=   5.
 NSaved= 5 IEnMin= 5 EnMin= -55.2221017721468     IErMin= 5 ErrMin= 9.69D-07
 ErrMax= 9.69D-07  0.00D+00 EMaxC= 1.00D-01 BMatC= 4.14D-11 BMatP= 7.58D-10
 IDIUse=1 WtCom= 1.00D+00 WtEn= 0.00D+00
 Coeff-Com:  0.259D-02-0.167D-01-0.713D-01-0.488D-01 0.113D+01
 Coeff:      0.259D-02-0.167D-01-0.713D-01-0.488D-01 0.113D+01
 Gap=     0.546 Goal=   None    Shift=    0.000
 Gap=     0.419 Goal=   None    Shift=    0.000
 RMSDP=2.49D-07 MaxDP=3.03D-06 DE=-3.74D-10 OVMax= 6.92D-06

 Cycle   6  Pass 1  IDiag  1:
 E= -55.2221017721802     Delta-E=       -0.000000000033 Rises=F Damp=F
 DIIS: error= 2.00D-07 at cycle   6 NSaved=   6.
 NSaved= 6 IEnMin= 6 EnMin= -55.2221017721802     IErMin= 6 ErrMin= 2.00D-07
 ErrMax= 2.00D-07  0.00D+00 EMaxC= 1.00D-01 BMatC= 2.29D-12 BMatP= 4.14D-11
 IDIUse=1 WtCom= 1.00D+00 WtEn= 0.00D+00
 Coeff-Com: -0.577D-03 0.731D-02 0.174D-01-0.279D-01-0.331D+00 0.133D+01
 Coeff:     -0.577D-03 0.731D-02 0.174D-01-0.279D-01-0.331D+00 0.133D+01
 Gap=     0.546 Goal=   None    Shift=    0.000
 Gap=     0.419 Goal=   None    Shift=    0.000
 RMSDP=6.78D-08 MaxDP=9.92D-07 DE=-3.35D-11 OVMax= 1.51D-06

 Cycle   7  Pass 1  IDiag  1:
 E= -55.2221017721826     Delta-E=       -0.000000000002 Rises=F Damp=F
 DIIS: error= 5.82D-08 at cycle   7 NSaved=   7.
 NSaved= 7 IEnMin= 7 EnMin= -55.2221017721826     IErMin= 7 ErrMin= 5.82D-08
 ErrMax= 5.82D-08  0.00D+00 EMaxC= 1.00D-01 BMatC= 1.87D-13 BMatP= 2.29D-12
 IDIUse=1 WtCom= 1.00D+00 WtEn= 0.00D+00
 Coeff-Com:  0.312D-04-0.163D-02-0.197D-02 0.139D-01 0.500D-01-0.551D+00
 Coeff-Com:  0.149D+01
 Coeff:      0.312D-04-0.163D-02-0.197D-02 0.139D-01 0.500D-01-0.551D+00
 Coeff:      0.149D+01
 Gap=     0.546 Goal=   None    Shift=    0.000
 Gap=     0.419 Goal=   None    Shift=    0.000
 RMSDP=2.01D-08 MaxDP=2.82D-07 DE=-2.34D-12 OVMax= 5.12D-07

 Cycle   8  Pass 1  IDiag  1:
 E= -55.2221017721828     Delta-E=       -0.000000000000 Rises=F Damp=F
 DIIS: error= 4.69D-09 at cycle   8 NSaved=   8.
 NSaved= 8 IEnMin= 8 EnMin= -55.2221017721828     IErMin= 8 ErrMin= 4.69D-09
 ErrMax= 4.69D-09  0.00D+00 EMaxC= 1.00D-01 BMatC= 2.44D-15 BMatP= 1.87D-13
 IDIUse=1 WtCom= 1.00D+00 WtEn= 0.00D+00
 Coeff-Com:  0.100D-04 0.839D-04 0.389D-04-0.119D-02-0.348D-02 0.848D-01
 Coeff-Com: -0.326D+00 0.125D+01
 Coeff:      0.100D-04 0.839D-04 0.389D-04-0.119D-02-0.348D-02 0.848D-01
 Coeff:     -0.326D+00 0.125D+01
 Gap=     0.546 Goal=   None    Shift=    0.000
 Gap=     0.419 Goal=   None    Shift=    0.000
 RMSDP=2.98D-09 MaxDP=3.17D-08 DE=-2.34D-13 OVMax= 4.63D-08

 SCF Done:  E(UwB97XD) =  -55.2221017722     A.U. after    8 cycles
            NFock=  8  Conv=0.30D-08     -V/T= 2.0034
 <Sx>= 0.0000 <Sy>= 0.0000 <Sz>= 1.0000 <S**2>= 2.0072 S= 1.0024
 <L.S>= 0.000000000000E+00
 KE= 5.503262838828D+01 PE=-1.366965006480D+02 EE= 2.287490647588D+01
 Annihilation of the first spin contaminant:
 S**2 before annihilation     2.0072,   after     2.0000
 Leave Link  502 at Wed Feb 19 14:50:50 2020, MaxMem=  1879048192 cpu:               5.7 elap:               0.7
 (Enter /opt/g16/l508.exe)
 QCSCF skips out because SCF is already converged.
 Leave Link  508 at Wed Feb 19 14:50:50 2020, MaxMem=  1879048192 cpu:               0.2 elap:               0.0
 (Enter /opt/g16/l701.exe)
 ... and contract with generalized density number  0.
 Compute integral first derivatives.
 R6Disp: Adding Grimme-D2 dispersion energy 1st derivatives to the gradient.
   4 Symmetry operations used in ECPInt.
 ECPInt:  NShTT=     120 NPrTT=     376 LenC2=     121 LenP2D=     370.
 LDataN:  DoStor=T MaxTD1= 7 Len=  274
 Leave Link  701 at Wed Feb 19 14:50:50 2020, MaxMem=  1879048192 cpu:               1.3 elap:               0.2
 (Enter /opt/g16/l702.exe)
 L702 exits ... SP integral derivatives will be done elsewhere.
 Leave Link  702 at Wed Feb 19 14:50:50 2020, MaxMem=  1879048192 cpu:               0.5 elap:               0.1
 (Enter /opt/g16/l703.exe)
 Integral derivatives from FoFJK, PRISM(SPDF).
 Compute integral first derivatives, UseDBF=F ICtDFT=           0.
 Calling FoFJK, ICntrl=      2127 FMM=F ISym2X=1 I1Cent= 0 IOpClX= 1 NMat=1 NMatS=1 NMatT=0.
 FoFJK:  IHMeth= 1 ICntrl=    2127 DoSepK=T KAlg= 0 I1Cent=           0 FoldK=F
 IRaf=         1 NMat=       1 IRICut=       1 DoRegI=T DoRafI=F ISym2E= 1 IDoP0=0 IntGTp=1.
 FoFCou: FMM=F IPFlag=           0 FMFlag=      100000 FMFlg1=         800
         NFxFlg=           0 DoJE=F BraDBF=F KetDBF=F FulRan=T
         wScrn=  0.000000 ICntrl=      2527 IOpCl=  0 I1Cent=           0 NGrid=           0
         NMat0=    1 NMatS0=      1 NMatT0=    0 NMatD0=    1 NMtDS0=    0 NMtDT0=    0
 Petite list used in FoFCou.
 Leave Link  703 at Wed Feb 19 14:50:52 2020, MaxMem=  1879048192 cpu:               8.3 elap:               1.1
 (Enter /opt/g16/l716.exe)
 Dipole        = 0.00000000D+00-5.20210694D-33-6.40238255D-01
 ***** Axes restored to original set *****
 -------------------------------------------------------------------
 Center     Atomic                   Forces (Hartrees/Bohr)
 Number     Number              X              Y              Z
 -------------------------------------------------------------------
      1        7          -0.000000000   -0.000000000    0.000057177
      2        1           0.000000000    0.000000000   -0.000057177
 -------------------------------------------------------------------
 Cartesian Forces:  Max     0.000057177 RMS     0.000033011
 Leave Link  716 at Wed Feb 19 14:50:52 2020, MaxMem=  1879048192 cpu:               0.5 elap:               0.1
 (Enter /opt/g16/l103.exe)

 GradGradGradGradGradGradGradGradGradGradGradGradGradGradGradGradGradGrad
 Berny optimization.
 Using GEDIIS/GDIIS optimizer.
 Red2BG is reusing G-inverse.
 Internal  Forces:  Max     0.000057177 RMS     0.000057177
 Search for a local minimum.
 Step number   2 out of a maximum of   20
 All quantities printed in internal units (Hartrees-Bohrs-Radians)
 RMS Force = .57177D-04 SwitMx=.10000D-02 MixMth= 2
 Mixed Optimization -- En-DIIS/RFO-DIIS
 Swapping is turned off.
 Update second derivatives using D2CorX and points    1    2
 DE= -1.10D-06 DEPred=-1.04D-06 R= 1.06D+00
 TightC=F SS=  1.41D+00  RLast= 2.23D-03 DXNew= 5.0454D-01 6.6930D-03
 Trust test= 1.06D+00 RLast= 2.23D-03 DXMaxT set to 3.00D-01
 The second derivative matrix:
                          R1
           R1           0.39121
 ITU=  1  0
     Eigenvalues ---    0.39121
 En-DIIS/RFO-DIIS/Sim-DIIS IScMMF=       -3 using points:     2    1
 RFO step:  Lambda=-8.35669520D-09.
 NNeg= 0 NGDIIS= 2 SimSw=  2.50D-03 Rises=F DC= -1.10D-06 SmlDif=  1.00D-05
 NRisDI= 0 DoIntr=F SqrtH=F CThrHd= 10.0 CDAdj=  3.0
 RMS Error=  0.1461543662D-03 NUsed= 2 OKEnD=F EnDIS=F
 InvSVX:  RCond= 1.24D-06 Info=           0 Equed=N FErr=  1.02D-15 BErr=  7.15D-17
 DidBck=F Rises=F RFO-DIIS coefs:    1.06551   -0.06551
 Iteration  1 RMS(Cart)=  0.00010335 RMS(Int)=  0.00000000
 Iteration  2 RMS(Cart)=  0.00000000 RMS(Int)=  0.00000000
 ITry= 1 IFail=0 DXMaxC= 7.31D-05 DCOld= 1.00D+10 DXMaxT= 3.00D-01 DXLimC= 3.00D+00 Rises=F
 ClnCor:  largest displacement from symmetrization is 0.00D+00 for atom     0.
 Variable       Old X    -DE/DX   Delta X   Delta X   Delta X     New X
                                 (Linear)    (Quad)   (Total)
    R1        1.96251   0.00006   0.00015   0.00000   0.00015   1.96265
         Item               Value     Threshold  Converged?
 Maximum Force            0.000057     0.000450     YES
 RMS     Force            0.000057     0.000300     YES
 Maximum Displacement     0.000073     0.001800     YES
 RMS     Displacement     0.000103     0.001200     YES
 Predicted change in Energy=-4.178348D-09
 Optimization completed.
    -- Stationary point found.
                           ----------------------------
                           !   Optimized Parameters   !
                           ! (Angstroms and Degrees)  !
 --------------------------                            --------------------------
 ! Name  Definition              Value          Derivative Info.                !
 --------------------------------------------------------------------------------
 ! R1    R(1,2)                  1.0385         -DE/DX =    0.0001              !
 --------------------------------------------------------------------------------
 Lowest energy point so far.  Saving SCF results.
 Largest change from initial coordinates is atom    2       0.001 Angstoms.
 GradGradGradGradGradGradGradGradGradGradGradGradGradGradGradGradGradGrad

 Leave Link  103 at Wed Feb 19 14:50:52 2020, MaxMem=  1879048192 cpu:               0.3 elap:               0.0
 (Enter /opt/g16/l202.exe)
                          Input orientation:                          
 ---------------------------------------------------------------------
 Center     Atomic      Atomic             Coordinates (Angstroms)
 Number     Number       Type             X           Y           Z
 ---------------------------------------------------------------------
      1          7           0        0.000000    0.000000    0.130257
      2          1           0        0.000000    0.000000   -0.908257
 ---------------------------------------------------------------------
 Stoichiometry    HN(3)
 Framework group  C*V[C*(HN)]
 Deg. of freedom     1
 Full point group                 C*V     NOp   4
 RotChk:  IX=0 Diff= 0.00D+00
 Largest Abelian subgroup         C2V     NOp   4
 Largest concise Abelian subgroup C1      NOp   1
                         Standard orientation:                         
 ---------------------------------------------------------------------
 Center     Atomic      Atomic             Coordinates (Angstroms)
 Number     Number       Type             X           Y           Z
 ---------------------------------------------------------------------
      1          7           0        0.000000    0.000000    0.129814
      2          1           0        0.000000    0.000000   -0.908700
 ---------------------------------------------------------------------
 Rotational constants (GHZ):           0.0000000         498.4141427         498.4141427
 Leave Link  202 at Wed Feb 19 14:50:52 2020, MaxMem=  1879048192 cpu:               0.1 elap:               0.0
 (Enter /opt/g16/l601.exe)
 Copying SCF densities to generalized density rwf, IOpCl= 1 IROHF=0.

 **********************************************************************

            Population analysis using the SCF Density.

 **********************************************************************

 Orbital symmetries:
 Alpha Orbitals:
       Occupied  (SG) (SG) (SG) (PI) (PI)
       Virtual   (SG) (SG) (PI) (PI) (SG) (SG) (PI) (PI) (DLTA)
                 (DLTA) (SG) (PI) (PI) (SG) (SG) (PI) (PI) (SG)
                 (SG) (PHI) (PHI) (DLTA) (DLTA) (PI) (PI) (DLTA)
                 (DLTA) (PI) (PI) (SG) (SG) (SG)
 Beta  Orbitals:
       Occupied  (SG) (SG) (SG)
       Virtual   (PI) (PI) (SG) (SG) (SG) (PI) (PI) (SG) (PI) (PI)
                 (DLTA) (DLTA) (SG) (PI) (PI) (SG) (SG) (PI) (PI)
                 (SG) (SG) (DLTA) (DLTA) (PHI) (PHI) (PI) (PI)
                 (DLTA) (DLTA) (PI) (PI) (SG) (SG) (SG)
 The electronic state is 3-SG.
 Alpha  occ. eigenvalues --  -14.50869  -0.94596  -0.49487  -0.42485  -0.42485
 Alpha virt. eigenvalues --    0.12091   0.39139   0.41544   0.41544   0.42227
 Alpha virt. eigenvalues --    0.53756   1.01015   1.01015   1.07505   1.07505
 Alpha virt. eigenvalues --    1.34432   1.90852   1.90852   1.99643   2.01218
 Alpha virt. eigenvalues --    2.12054   2.12054   2.44534   2.96998   3.90401
 Alpha virt. eigenvalues --    3.90401   3.90578   3.90578   4.22536   4.22536
 Alpha virt. eigenvalues --    4.44000   4.44000   4.57018   4.57018   4.75474
 Alpha virt. eigenvalues --    5.45841  31.27035
  Beta  occ. eigenvalues --  -14.47411  -0.82136  -0.44225
  Beta virt. eigenvalues --   -0.02283  -0.02283   0.13345   0.40890   0.42882
  Beta virt. eigenvalues --    0.47599   0.47599   0.56066   1.05279   1.05279
  Beta virt. eigenvalues --    1.15437   1.15437   1.37002   1.93943   1.93943
  Beta virt. eigenvalues --    2.02539   2.06093   2.21483   2.21483   2.47572
  Beta virt. eigenvalues --    2.99369   4.00085   4.00085   4.03517   4.03517
  Beta virt. eigenvalues --    4.30204   4.30204   4.61788   4.61788   4.65729
  Beta virt. eigenvalues --    4.65729   4.83728   5.50492  31.32444
          Condensed to atoms (all electrons):
               1          2
     1  N    6.973507   0.239926
     2  H    0.239926   0.546642
          Atomic-Atomic Spin Densities.
               1          2
     1  N    2.034263   0.013007
     2  H    0.013007  -0.060278
 Mulliken charges and spin densities:
               1          2
     1  N   -0.213432   2.047270
     2  H    0.213432  -0.047270
 Sum of Mulliken charges =  -0.00000   2.00000
 Mulliken charges and spin densities with hydrogens summed into heavy atoms:
               1          2
     1  N   -0.000000   2.000000
 Electronic spatial extent (au):  <R**2>=             17.0882
 Charge=             -0.0000 electrons
 Dipole moment (field-independent basis, Debye):
    X=              0.0000    Y=             -0.0000    Z=             -1.6273  Tot=              1.6273
 Quadrupole moment (field-independent basis, Debye-Ang):
   XX=             -6.2936   YY=             -6.2936   ZZ=             -5.8643
   XY=             -0.0000   XZ=              0.0000   YZ=              0.0000
 Traceless Quadrupole moment (field-independent basis, Debye-Ang):
   XX=             -0.1431   YY=             -0.1431   ZZ=              0.2862
   XY=             -0.0000   XZ=              0.0000   YZ=              0.0000
 Octapole moment (field-independent basis, Debye-Ang**2):
  XXX=              0.0000  YYY=              0.0000  ZZZ=             -2.2464  XYY=              0.0000
  XXY=              0.0000  XXZ=             -0.3861  XZZ=              0.0000  YZZ=              0.0000
  YYZ=             -0.3861  XYZ=              0.0000
 Hexadecapole moment (field-independent basis, Debye-Ang**3):
 XXXX=             -5.6675 YYYY=             -5.6675 ZZZZ=             -9.0742 XXXY=             -0.0000
 XXXZ=              0.0000 YYYX=             -0.0000 YYYZ=              0.0000 ZZZX=              0.0000
 ZZZY=              0.0000 XXYY=             -1.8892 XXZZ=             -2.6672 YYZZ=             -2.6672
 XXYZ=              0.0000 YYXZ=              0.0000 ZZXY=             -0.0000
 N-N= 3.566864011676D+00 E-N=-1.366965006452D+02  KE= 5.503262838828D+01
 Symmetry A1   KE= 5.136179105082D+01
 Symmetry A2   KE= 2.175900855050D-30
 Symmetry B1   KE= 1.835418668727D+00
 Symmetry B2   KE= 1.835418668727D+00
 Symmetry A1   SP=-9.979267846100D-16
 Symmetry A2   SP= 5.097618928659D-31
 Symmetry B1   SP= 1.000000000000D+00
 Symmetry B2   SP= 1.000000000000D+00
                          Isotropic Fermi Contact Couplings
        Atom                 a.u.       MegaHertz       Gauss      10(-4) cm-1
     1  N(14)              0.12255      19.79786       7.06437       6.60385
     2  H(1)              -0.02620     -58.55187     -20.89276     -19.53080
 --------------------------------------------------------
       Center         ----  Spin Dipole Couplings  ----
                      3XX-RR        3YY-RR        3ZZ-RR
 --------------------------------------------------------
     1   Atom        1.146891      1.146891     -2.293783
     2   Atom       -0.119819     -0.119819      0.239638
 --------------------------------------------------------
                        XY            XZ            YZ
 --------------------------------------------------------
     1   Atom        0.000000      0.000000      0.000000
     2   Atom        0.000000      0.000000      0.000000
 --------------------------------------------------------


 ---------------------------------------------------------------------------------
              Anisotropic Spin Dipole Couplings in Principal Axis System
 ---------------------------------------------------------------------------------

       Atom             a.u.   MegaHertz   Gauss  10(-4) cm-1        Axes

              Baa    -2.2938   -88.466   -31.567   -29.509  0.0000  0.0000  1.0000
     1 N(14)  Bbb     1.1469    44.233    15.783    14.755  1.0000  0.0000  0.0000
              Bcc     1.1469    44.233    15.783    14.755 -0.0000  1.0000  0.0000
 
              Baa    -0.1198   -63.930   -22.812   -21.325 -0.0000  1.0000  0.0000
     2 H(1)   Bbb    -0.1198   -63.930   -22.812   -21.325  1.0000  0.0000  0.0000
              Bcc     0.2396   127.859    45.623    42.649  0.0000  0.0000  1.0000
 

 ---------------------------------------------------------------------------------

 No NMR shielding tensors so no spin-rotation constants.
 Leave Link  601 at Wed Feb 19 14:50:52 2020, MaxMem=  1879048192 cpu:               2.1 elap:               0.3
 (Enter /opt/g16/l9999.exe)

 Test job not archived.
 1\1\GINC-NODE08\FOpt\UwB97XD\def2TZVP\H1N1(3)\ALONGD\19-Feb-2020\0\\#P
  opt guess=mix uwb97xd/def2tzvp scf=xqc iop(2/9=2000)\\name\\0,3\N,0.,
 0.,0.1302570143\H,0.,0.,-0.9082573543\\Version=ES64L-G16RevB.01\State=
 3-SG\HF=-55.2221018\S2=2.007243\S2-1=0.\S2A=2.000017\RMSD=2.976e-09\RM
 SF=3.301e-05\Dipole=0.,0.,-0.6402383\Quadrupole=-0.1063858,-0.1063858,
 0.2127716,0.,0.,0.\PG=C*V [C*(H1N1)]\\@


 A CHEMICAL PHYSICIST MAKES PRECISE MEASUREMENTS ON IMPURE COMPOUNDS.
 A THEORETICAL PHYSICAL CHEMIST MAKES IMPRECISE
     MEASUREMENTS ON PURE COMPOUNDS.
 AN EXPERIMENTAL PHYSICAL CHEMIST MAKES IMPRECISE
     MEASUREMENTS ON IMPURE COMPOUNDS.
 Job cpu time:       0 days  0 hours  0 minutes 54.8 seconds.
 Elapsed time:       0 days  0 hours  0 minutes  7.1 seconds.
 File lengths (MBytes):  RWF=      6 Int=      0 D2E=      0 Chk=      1 Scr=      1
 Normal termination of Gaussian 16 at Wed Feb 19 14:50:52 2020.
