 Entering Gaussian System, Link 0=g16
 Initial command:
 /opt/g16/l1.exe "/scratch/alongd/g16/a33759-33021/Gau-18433.inp" -scrdir="/scratch/alongd/g16/a33759-33021/"
 Entering Link 1 = /opt/g16/l1.exe PID=     18435.
  
 Copyright (c) 1988-2017, Gaussian, Inc.  All Rights Reserved.
  
 This is part of the Gaussian(R) 16 program.  It is based on
 the Gaussian(R) 09 system (copyright 2009, Gaussian, Inc.),
 the Gaussian(R) 03 system (copyright 2003, Gaussian, Inc.),
 the Gaussian(R) 98 system (copyright 1998, Gaussian, Inc.),
 the Gaussian(R) 94 system (copyright 1995, Gaussian, Inc.),
 the Gaussian 92(TM) system (copyright 1992, Gaussian, Inc.),
 the Gaussian 90(TM) system (copyright 1990, Gaussian, Inc.),
 the Gaussian 88(TM) system (copyright 1988, Gaussian, Inc.),
 the Gaussian 86(TM) system (copyright 1986, Carnegie Mellon
 University), and the Gaussian 82(TM) system (copyright 1983,
 Carnegie Mellon University). Gaussian is a federally registered
 trademark of Gaussian, Inc.
  
 This software contains proprietary and confidential information,
 including trade secrets, belonging to Gaussian, Inc.
  
 This software is provided under written license and may be
 used, copied, transmitted, or stored only in accord with that
 written license.
  
 The following legend is applicable only to US Government
 contracts under FAR:
  
                    RESTRICTED RIGHTS LEGEND
  
 Use, reproduction and disclosure by the US Government is
 subject to restrictions as set forth in subparagraphs (a)
 and (c) of the Commercial Computer Software - Restricted
 Rights clause in FAR 52.227-19.
  
 Gaussian, Inc.
 340 Quinnipiac St., Bldg. 40, Wallingford CT 06492
  
  
 ---------------------------------------------------------------
 Warning -- This program may not be used in any manner that
 competes with the business of Gaussian, Inc. or will provide
 assistance to any competitor of Gaussian, Inc.  The licensee
 of this program is prohibited from giving any competitor of
 Gaussian, Inc. access to this program.  By using this program,
 the user acknowledges that Gaussian, Inc. is engaged in the
 business of creating and licensing software in the field of
 computational chemistry and represents and warrants to the
 licensee that it is not a competitor of Gaussian, Inc. and that
 it will not use this program in any manner prohibited above.
 ---------------------------------------------------------------
  

 Cite this work as:
 Gaussian 16, Revision B.01,
 M. J. Frisch, G. W. Trucks, H. B. Schlegel, G. E. Scuseria, 
 M. A. Robb, J. R. Cheeseman, G. Scalmani, V. Barone, 
 G. A. Petersson, H. Nakatsuji, X. Li, M. Caricato, A. V. Marenich, 
 J. Bloino, B. G. Janesko, R. Gomperts, B. Mennucci, H. P. Hratchian, 
 J. V. Ortiz, A. F. Izmaylov, J. L. Sonnenberg, D. Williams-Young, 
 F. Ding, F. Lipparini, F. Egidi, J. Goings, B. Peng, A. Petrone, 
 T. Henderson, D. Ranasinghe, V. G. Zakrzewski, J. Gao, N. Rega, 
 G. Zheng, W. Liang, M. Hada, M. Ehara, K. Toyota, R. Fukuda, 
 J. Hasegawa, M. Ishida, T. Nakajima, Y. Honda, O. Kitao, H. Nakai, 
 T. Vreven, K. Throssell, J. A. Montgomery, Jr., J. E. Peralta, 
 F. Ogliaro, M. J. Bearpark, J. J. Heyd, E. N. Brothers, K. N. Kudin, 
 V. N. Staroverov, T. A. Keith, R. Kobayashi, J. Normand, 
 K. Raghavachari, A. P. Rendell, J. C. Burant, S. S. Iyengar, 
 J. Tomasi, M. Cossi, J. M. Millam, M. Klene, C. Adamo, R. Cammi, 
 J. W. Ochterski, R. L. Martin, K. Morokuma, O. Farkas, 
 J. B. Foresman, and D. J. Fox, Gaussian, Inc., Wallingford CT, 2016.
 
 ******************************************
 Gaussian 16:  ES64L-G16RevB.01 20-Dec-2017
                19-Feb-2020 
 ******************************************
 %chk=check.chk
 %mem=14336mb
 %NProcShared=8
 Will use up to    8 processors via shared memory.
 ----------------------------------------------------------------------
 #P guess=read uwb97xd/def2tzvp freq iop(7/33=1) scf=(tight, direct) in
 tegral=(grid=ultrafine, Acc2E=12) scf=xqc iop(2/9=2000)
 ----------------------------------------------------------------------
 1/10=4,30=1,38=1/1,3;
 2/9=2000,12=2,17=6,18=5,40=1/2;
 3/5=44,7=101,11=2,25=1,27=12,30=1,71=2,74=-58,75=-5,116=2,140=1/1,2,3;
 4/5=1/1;
 5/5=2,8=3,13=1,32=2,38=6,87=12,98=1/2,8;
 8/6=4,10=90,11=11,87=12/1;
 11/6=1,8=1,9=11,15=111,16=1,87=12/1,2,10;
 10/6=1,87=12/2;
 6/7=2,8=2,9=2,10=2,28=1,87=12/1;
 7/8=1,10=1,25=1,33=1,87=12/1,2,3,16;
 1/10=4,30=1/3;
 99//99;
 Leave Link    1 at Wed Feb 19 14:56:42 2020, MaxMem=  1879048192 cpu:               0.8 elap:               0.1
 (Enter /opt/g16/l101.exe)
 ----
 name
 ----
 Symbolic Z-matrix:
 Charge =  0 Multiplicity = 3
 N                    -0.44735   0.68033  -0.09192 
 H                    -0.45257   1.14463   0.81252 
 H                     0.67533   0.38185  -0.23044 
 N                    -1.22778  -0.47122  -0.00284 
 H                    -1.81516  -0.5031    0.81641 
 H                    -1.7812   -0.5725   -0.84071 
 N                     1.91083  -0.14544  -0.06636 
 H                     1.73701  -0.8542    0.66461 
 
 ITRead=  0  0  0  0  0  0  0  0
 MicOpt= -1 -1 -1 -1 -1 -1 -1 -1
 NAtoms=      8 NQM=        8 NQMF=       0 NMMI=      0 NMMIF=      0
                NMic=       0 NMicF=      0.
                    Isotopes and Nuclear Properties:
 (Nuclear quadrupole moments (NQMom) in fm**2, nuclear magnetic moments (NMagM)
  in nuclear magnetons)

  Atom         1           2           3           4           5           6           7           8
 IAtWgt=          14           1           1          14           1           1          14           1
 AtmWgt=  14.0030740   1.0078250   1.0078250  14.0030740   1.0078250   1.0078250  14.0030740   1.0078250
 NucSpn=           2           1           1           2           1           1           2           1
 AtZEff=  -0.0000000  -0.0000000  -0.0000000  -0.0000000  -0.0000000  -0.0000000  -0.0000000  -0.0000000
 NQMom=    2.0440000   0.0000000   0.0000000   2.0440000   0.0000000   0.0000000   2.0440000   0.0000000
 NMagM=    0.4037610   2.7928460   2.7928460   0.4037610   2.7928460   2.7928460   0.4037610   2.7928460
 AtZNuc=   7.0000000   1.0000000   1.0000000   7.0000000   1.0000000   1.0000000   7.0000000   1.0000000
 Leave Link  101 at Wed Feb 19 14:56:42 2020, MaxMem=  1879048192 cpu:               2.1 elap:               0.3
 (Enter /opt/g16/l103.exe)

 GradGradGradGradGradGradGradGradGradGradGradGradGradGradGradGradGradGrad
 Berny optimization.
 Initialization pass.
 Trust Radius=3.00D-01 FncErr=1.00D-07 GrdErr=1.00D-07 EigMax=2.50D+02 EigMin=1.00D-04
 Number of steps in this run=      2 maximum allowed number of steps=      2.
 GradGradGradGradGradGradGradGradGradGradGradGradGradGradGradGradGradGrad

 Leave Link  103 at Wed Feb 19 14:56:43 2020, MaxMem=  1879048192 cpu:               0.3 elap:               0.0
 (Enter /opt/g16/l202.exe)
                          Input orientation:                          
 ---------------------------------------------------------------------
 Center     Atomic      Atomic             Coordinates (Angstroms)
 Number     Number       Type             X           Y           Z
 ---------------------------------------------------------------------
      1          7           0       -0.447345    0.680330   -0.091919
      2          1           0       -0.452573    1.144632    0.812515
      3          1           0        0.675325    0.381852   -0.230444
      4          7           0       -1.227777   -0.471215   -0.002840
      5          1           0       -1.815164   -0.503104    0.816406
      6          1           0       -1.781195   -0.572496   -0.840710
      7          7           0        1.910833   -0.145436   -0.066360
      8          1           0        1.737011   -0.854197    0.664606
 ---------------------------------------------------------------------
                    Distance matrix (angstroms):
                    1          2          3          4          5
     1  N    0.000000
     2  H    1.016663   0.000000
     3  H    1.169900   1.715153   0.000000
     4  N    1.393939   1.968935   2.097933   0.000000
     5  H    2.023981   2.138154   2.842812   1.008566   0.000000
     6  H    1.977225   2.728904   2.705124   1.009235   1.658916
     7  N    2.498709   2.832381   1.353306   3.156111   3.845810
     8  H    2.774620   2.968412   1.859061   3.063026   3.572710
                    6          7          8
     6  H    0.000000
     7  N    3.796455   0.000000
     8  H    3.837070   1.032893   0.000000
 Stoichiometry    H5N3(3)
 Framework group  C1[X(H5N3)]
 Deg. of freedom    18
 Full point group                 C1      NOp   1
 Largest Abelian subgroup         C1      NOp   1
 Largest concise Abelian subgroup C1      NOp   1
                         Standard orientation:                         
 ---------------------------------------------------------------------
 Center     Atomic      Atomic             Coordinates (Angstroms)
 Number     Number       Type             X           Y           Z
 ---------------------------------------------------------------------
      1          7           0       -0.445235    0.680822   -0.092663
      2          1           0       -0.447139    1.142231    0.813264
      3          1           0        0.675986    0.378216   -0.233933
      4          7           0       -1.230221   -0.467812   -0.006037
      5          1           0       -1.816438   -0.499940    0.814037
      6          1           0       -1.785370   -0.564141   -0.843345
      7          7           0        1.909589   -0.154630   -0.073510
      8          1           0        1.734030   -0.865024    0.655453
 ---------------------------------------------------------------------
 Rotational constants (GHZ):          32.8744434           5.7494718           5.1625688
 Leave Link  202 at Wed Feb 19 14:56:43 2020, MaxMem=  1879048192 cpu:               0.3 elap:               0.0
 (Enter /opt/g16/l301.exe)
 Standard basis: def2TZVP (5D, 7F)
 Ernie: Thresh=  0.10000D-02 Tol=  0.10000D-05 Strict=F.
 There are   138 symmetry adapted cartesian basis functions of A   symmetry.
 There are   123 symmetry adapted basis functions of A   symmetry.
   123 basis functions,   193 primitive gaussians,   138 cartesian basis functions
    14 alpha electrons       12 beta electrons
       nuclear repulsion energy        73.0124503235 Hartrees.
 IExCor= 4639 DFT=T Ex+Corr=wB97XD ExCW=0 ScaHFX=  1.000000
 ScaDFX=  1.000000  1.000000  1.000000  1.000000 ScalE2=  1.000000  1.000000
 IRadAn=      5 IRanWt=     -1 IRanGd=            0 ICorTp=0 IEmpDi=121
 HFx  wShort=  0.000000 wLong=  0.200000 cFull=  0.222036 cShort=  0.000000 cLong=  0.777964
 DFx  wShort=  0.000000 wLong=  0.200000 cFull=  0.000000 cShort=  0.000000 cLong=  1.000000
 NAtoms=    8 NActive=    8 NUniq=    8 SFac= 1.00D+00 NAtFMM=   60 NAOKFM=F Big=F
 Integral buffers will be    131072 words long.
 Raffenetti 2 integral format.
 Two-electron integral symmetry is turned on.
 R6Disp:  Grimme-D2 Dispersion energy=       -0.0018361113 Hartrees.
 Nuclear repulsion after empirical dispersion term =       73.0106142123 Hartrees.
 Leave Link  301 at Wed Feb 19 14:56:43 2020, MaxMem=  1879048192 cpu:               0.5 elap:               0.1
 (Enter /opt/g16/l302.exe)
 NPDir=0 NMtPBC=     1 NCelOv=     1 NCel=       1 NClECP=     1 NCelD=      1
         NCelK=      1 NCelE2=     1 NClLst=     1 CellRange=     0.0.
 One-electron integrals computed using PRISM.
 One-electron integral symmetry used in STVInt
   1 Symmetry operations used in ECPInt.
 ECPInt:  NShTT=    1431 NPrTT=    4176 LenC2=    1423 LenP2D=    3597.
 LDataN:  DoStor=T MaxTD1= 6 Len=  172
 NBasis=   123 RedAO= T EigKep=  1.88D-03  NBF=   123
 NBsUse=   123 1.00D-06 EigRej= -1.00D+00 NBFU=   123
 Precomputing XC quadrature grid using
 IXCGrd= 4 IRadAn=           5 IRanWt=          -1 IRanGd=           0 AccXCQ= 1.00D-12.
 Generated NRdTot=       0 NPtTot=           0 NUsed=           0 NTot=          32
 NSgBfM=   138   138   138   138   138 MxSgAt=     8 MxSgA2=     8.
 Leave Link  302 at Wed Feb 19 14:56:43 2020, MaxMem=  1879048192 cpu:               1.8 elap:               0.2
 (Enter /opt/g16/l303.exe)
 DipDrv:  MaxL=1.
 Leave Link  303 at Wed Feb 19 14:56:43 2020, MaxMem=  1879048192 cpu:               0.5 elap:               0.1
 (Enter /opt/g16/l401.exe)
 Initial guess from the checkpoint file:  "check.chk"
 B after Tr=     0.000000   -0.000000    0.000000
         Rot=    1.000000   -0.000000   -0.000000   -0.000000 Ang=  -0.00 deg.
 Guess basis will be translated and rotated to current coordinates.
 JPrj=2 DoOrth=T DoCkMO=T.
 Initial guess <Sx>= 0.0000 <Sy>= 0.0000 <Sz>= 1.0000 <S**2>= 2.0153 S= 1.0051
 Leave Link  401 at Wed Feb 19 14:56:43 2020, MaxMem=  1879048192 cpu:               1.4 elap:               0.2
 (Enter /opt/g16/l502.exe)
 Keep R1 and R2 ints in memory in canonical form, NReq=124040190.
 FoFCou: FMM=F IPFlag=           0 FMFlag=           0 FMFlg1=           0
         NFxFlg=           0 DoJE=F BraDBF=F KetDBF=F FulRan=T
         wScrn=  0.000000 ICntrl=       600 IOpCl=  0 I1Cent=           0 NGrid=           0
         NMat0=    1 NMatS0=   7626 NMatT0=    0 NMatD0=    1 NMtDS0=    0 NMtDT0=    0
 Symmetry not used in FoFCou.
 Two-electron integral symmetry not used.
 UHF open shell SCF:
 Using DIIS extrapolation, IDIIS=  1040.
 NGot=  1879048192 LenX=  1762680594 LenY=  1762661109
 Requested convergence on RMS density matrix=1.00D-08 within  32 cycles.
 Requested convergence on MAX density matrix=1.00D-06.
 Requested convergence on             energy=1.00D-06.
 No special actions if energy rises.

 Cycle   1  Pass 1  IDiag  1:
 E= -167.089513204418    
 DIIS: error= 2.61D-08 at cycle   1 NSaved=   1.
 NSaved= 1 IEnMin= 1 EnMin= -167.089513204418     IErMin= 1 ErrMin= 2.61D-08
 ErrMax= 2.61D-08  0.00D+00 EMaxC= 1.00D-01 BMatC= 8.36D-13 BMatP= 8.36D-13
 IDIUse=1 WtCom= 1.00D+00 WtEn= 0.00D+00
 Coeff-Com:  0.100D+01
 Coeff:      0.100D+01
 Gap=     0.392 Goal=   None    Shift=    0.000
 Gap=     0.275 Goal=   None    Shift=    0.000
 RMSDP=3.34D-09 MaxDP=5.67D-08              OVMax= 1.77D-07

 SCF Done:  E(UwB97XD) =  -167.089513204     A.U. after    1 cycles
            NFock=  1  Conv=0.33D-08     -V/T= 2.0042
 <Sx>= 0.0000 <Sy>= 0.0000 <Sz>= 1.0000 <S**2>= 2.0153 S= 1.0051
 <L.S>= 0.000000000000E+00
 KE= 1.663967820540D+02 PE=-5.371143060918D+02 EE= 1.306173966210D+02
 Annihilation of the first spin contaminant:
 S**2 before annihilation     2.0153,   after     2.0001
 Leave Link  502 at Wed Feb 19 14:56:46 2020, MaxMem=  1879048192 cpu:              21.7 elap:               2.8
 (Enter /opt/g16/l508.exe)
 QCSCF skips out because SCF is already converged.
 Leave Link  508 at Wed Feb 19 14:56:46 2020, MaxMem=  1879048192 cpu:               0.2 elap:               0.0
 (Enter /opt/g16/l801.exe)
 DoSCS=F DFT=T ScalE2(SS,OS)=  1.000000  1.000000
 Range of M.O.s used for correlation:     1   123
 NBasis=   123 NAE=    14 NBE=    12 NFC=     0 NFV=     0
 NROrb=    123 NOA=    14 NOB=    12 NVA=   109 NVB=   111
 Leave Link  801 at Wed Feb 19 14:56:46 2020, MaxMem=  1879048192 cpu:               0.4 elap:               0.1
 (Enter /opt/g16/l1101.exe)
 Using compressed storage, NAtomX=     8.
 Will process      9 centers per pass.
   1 Symmetry operations used in ECPInt.
 ECPInt:  NShTT=    1431 NPrTT=    4176 LenC2=    1423 LenP2D=    3597.
 LDataN:  DoStor=T MaxTD1= 7 Len=  274
 R6Disp: Adding Grimme-D2 dispersion energy 1st derivatives to the gradient.
 Leave Link 1101 at Wed Feb 19 14:56:46 2020, MaxMem=  1879048192 cpu:               3.2 elap:               0.4
 (Enter /opt/g16/l1102.exe)
 Symmetrizing basis deriv contribution to polar:
 IMax=3 JMax=2 DiffMx= 0.00D+00
 Leave Link 1102 at Wed Feb 19 14:56:47 2020, MaxMem=  1879048192 cpu:               0.5 elap:               0.1
 (Enter /opt/g16/l1110.exe)
 Forming Gx(P) for the SCF density, NAtomX=     8.
 Integral derivatives from FoFJK, PRISM(SPDF).
 Do as many integral derivatives as possible in FoFJK.
 G2DrvN: MDV=    1879047432.
 G2DrvN: will do     9 centers at a time, making    1 passes.
 Calling FoFCou, ICntrl=  3107 FMM=F I1Cent=   0 AccDes= 1.00D-12.
 FoFJK:  IHMeth= 1 ICntrl=    3107 DoSepK=T KAlg= 0 I1Cent=           0 FoldK=F
 IRaf=         1 NMat=       1 IRICut=       1 DoRegI=T DoRafI=F ISym2E= 0 IDoP0=0 IntGTp=1.
 FoFCou: FMM=F IPFlag=           0 FMFlag=      100000 FMFlg1=           0
         NFxFlg=           0 DoJE=F BraDBF=F KetDBF=F FulRan=T
         wScrn=  0.000000 ICntrl=      3507 IOpCl=  0 I1Cent=           0 NGrid=           0
         NMat0=    1 NMatS0=      1 NMatT0=    0 NMatD0=    1 NMtDS0=    0 NMtDT0=    0
 Symmetry not used in FoFCou.
 End of G2Drv F.D. properties file   721 does not exist.
 End of G2Drv F.D. properties file   722 does not exist.
 End of G2Drv F.D. properties file   788 does not exist.
 Leave Link 1110 at Wed Feb 19 14:57:15 2020, MaxMem=  1879048192 cpu:             224.5 elap:              28.1
 (Enter /opt/g16/l1002.exe)
 Minotr:  UHF open shell wavefunction.
          IDoAtm=11111111
          Direct CPHF calculation.
          Differentiating once with respect to electric field.
                with respect to dipole field.
          Differentiating once with respect to nuclear coordinates.
          Requested convergence is 1.0D-08 RMS, and 1.0D-07 maximum.
          Secondary convergence is 1.0D-12 RMS, and 1.0D-12 maximum.
          NewPWx=T KeepS1=F KeepF1=F KeepIn=T MapXYZ=F SortEE=F KeepMc=T.
         2385 words used for storage of precomputed grid.
 Keep R1 and R2 ints in memory in canonical form, NReq=124020005.
 FoFCou: FMM=F IPFlag=           0 FMFlag=           0 FMFlg1=           0
         NFxFlg=           0 DoJE=F BraDBF=F KetDBF=F FulRan=T
         wScrn=  0.000000 ICntrl=       600 IOpCl=  0 I1Cent=           0 NGrid=           0
         NMat0=    1 NMatS0=   7626 NMatT0=    0 NMatD0=    1 NMtDS0=    0 NMtDT0=    0
 Symmetry not used in FoFCou.
 Two-electron integral symmetry not used.
          MDV=    1879048192 using IRadAn=       1.
          Solving linear equations simultaneously, MaxMat=       0.
          There are    27 degrees of freedom in the 1st order CPHF.  IDoFFX=6 NUNeed=     3.
     24 vectors produced by pass  0 Test12= 1.06D-14 3.70D-09 XBig12= 7.43D+01 7.44D+00.
 AX will form    24 AO Fock derivatives at one time.
     24 vectors produced by pass  1 Test12= 1.06D-14 3.70D-09 XBig12= 9.48D+00 6.24D-01.
     24 vectors produced by pass  2 Test12= 1.06D-14 3.70D-09 XBig12= 7.19D-01 1.89D-01.
     24 vectors produced by pass  3 Test12= 1.06D-14 3.70D-09 XBig12= 1.19D-02 1.65D-02.
     24 vectors produced by pass  4 Test12= 1.06D-14 3.70D-09 XBig12= 1.16D-04 1.84D-03.
     24 vectors produced by pass  5 Test12= 1.06D-14 3.70D-09 XBig12= 1.31D-06 1.54D-04.
     24 vectors produced by pass  6 Test12= 1.06D-14 3.70D-09 XBig12= 1.48D-08 1.85D-05.
     16 vectors produced by pass  7 Test12= 1.06D-14 3.70D-09 XBig12= 1.33D-10 1.54D-06.
      3 vectors produced by pass  8 Test12= 1.06D-14 3.70D-09 XBig12= 8.33D-13 1.05D-07.
      1 vectors produced by pass  9 Test12= 1.06D-14 3.70D-09 XBig12= 6.08D-15 1.29D-08.
 InvSVY:  IOpt=1 It=  1 EMax= 4.06D-15
 Solved reduced A of dimension   188 with    27 vectors.
 FullF1:  Do perturbations      1 to       3.
 Isotropic polarizability for W=    0.000000       45.20 Bohr**3.
 End of Minotr F.D. properties file   721 does not exist.
 End of Minotr F.D. properties file   722 does not exist.
 End of Minotr F.D. properties file   788 does not exist.
 Leave Link 1002 at Wed Feb 19 14:57:56 2020, MaxMem=  1879048192 cpu:             330.8 elap:              41.4
 (Enter /opt/g16/l601.exe)
 Copying SCF densities to generalized density rwf, IOpCl= 1 IROHF=0.

 **********************************************************************

            Population analysis using the SCF Density.

 **********************************************************************

 Orbital symmetries:
 Alpha Orbitals:
       Occupied  (A) (A) (A) (A) (A) (A) (A) (A) (A) (A) (A) (A)
                 (A) (A)
       Virtual   (A) (A) (A) (A) (A) (A) (A) (A) (A) (A) (A) (A)
                 (A) (A) (A) (A) (A) (A) (A) (A) (A) (A) (A) (A)
                 (A) (A) (A) (A) (A) (A) (A) (A) (A) (A) (A) (A)
                 (A) (A) (A) (A) (A) (A) (A) (A) (A) (A) (A) (A)
                 (A) (A) (A) (A) (A) (A) (A) (A) (A) (A) (A) (A)
                 (A) (A) (A) (A) (A) (A) (A) (A) (A) (A) (A) (A)
                 (A) (A) (A) (A) (A) (A) (A) (A) (A) (A) (A) (A)
                 (A) (A) (A) (A) (A) (A) (A) (A) (A) (A) (A) (A)
                 (A) (A) (A) (A) (A) (A) (A) (A) (A) (A) (A) (A)
                 (A)
 Beta  Orbitals:
       Occupied  (A) (A) (A) (A) (A) (A) (A) (A) (A) (A) (A) (A)
       Virtual   (A) (A) (A) (A) (A) (A) (A) (A) (A) (A) (A) (A)
                 (A) (A) (A) (A) (A) (A) (A) (A) (A) (A) (A) (A)
                 (A) (A) (A) (A) (A) (A) (A) (A) (A) (A) (A) (A)
                 (A) (A) (A) (A) (A) (A) (A) (A) (A) (A) (A) (A)
                 (A) (A) (A) (A) (A) (A) (A) (A) (A) (A) (A) (A)
                 (A) (A) (A) (A) (A) (A) (A) (A) (A) (A) (A) (A)
                 (A) (A) (A) (A) (A) (A) (A) (A) (A) (A) (A) (A)
                 (A) (A) (A) (A) (A) (A) (A) (A) (A) (A) (A) (A)
                 (A) (A) (A) (A) (A) (A) (A) (A) (A) (A) (A) (A)
                 (A) (A) (A)
 The electronic state is 3-A.
 Alpha  occ. eigenvalues --  -14.46931 -14.46769 -14.45902  -1.08807  -0.92415
 Alpha  occ. eigenvalues --   -0.85614  -0.63905  -0.58399  -0.56763  -0.46579
 Alpha  occ. eigenvalues --   -0.42175  -0.39009  -0.37832  -0.29947
 Alpha virt. eigenvalues --    0.09292   0.13251   0.15029   0.17656   0.26702
 Alpha virt. eigenvalues --    0.30529   0.35824   0.38816   0.41306   0.41548
 Alpha virt. eigenvalues --    0.42731   0.46105   0.48304   0.49135   0.51441
 Alpha virt. eigenvalues --    0.52313   0.53595   0.56793   0.57410   0.60230
 Alpha virt. eigenvalues --    0.64532   0.70124   0.70992   0.90454   0.93348
 Alpha virt. eigenvalues --    1.04290   1.10021   1.13360   1.18555   1.29833
 Alpha virt. eigenvalues --    1.33964   1.37449   1.40579   1.42348   1.45530
 Alpha virt. eigenvalues --    1.48967   1.56686   1.68820   1.73972   1.80043
 Alpha virt. eigenvalues --    1.87311   1.94874   1.95584   1.98365   2.00315
 Alpha virt. eigenvalues --    2.03496   2.06372   2.08847   2.10278   2.13154
 Alpha virt. eigenvalues --    2.15549   2.18776   2.29297   2.32532   2.34595
 Alpha virt. eigenvalues --    2.37862   2.49416   2.49885   2.53302   2.57462
 Alpha virt. eigenvalues --    2.61769   2.65531   2.72160   3.01352   3.05538
 Alpha virt. eigenvalues --    3.08225   3.13655   3.22378   3.38531   3.60672
 Alpha virt. eigenvalues --    3.81627   3.89132   3.94619   3.98583   4.04091
 Alpha virt. eigenvalues --    4.13645   4.17679   4.22623   4.26886   4.29047
 Alpha virt. eigenvalues --    4.41183   4.43133   4.53564   4.56654   4.60955
 Alpha virt. eigenvalues --    4.64981   4.67570   4.71237   4.74078   4.74820
 Alpha virt. eigenvalues --    4.79208   4.85036   4.88846   4.94722   4.99625
 Alpha virt. eigenvalues --    5.06253   5.23165   5.29246   5.39773   5.42622
 Alpha virt. eigenvalues --    5.52331   5.66998   5.70230   5.85840   5.87855
 Alpha virt. eigenvalues --    6.76900  31.52479  31.78424  31.90280
  Beta  occ. eigenvalues --  -14.46579 -14.46089 -14.43179  -1.07462  -0.86114
  Beta  occ. eigenvalues --   -0.80999  -0.63395  -0.57203  -0.53739  -0.42766
  Beta  occ. eigenvalues --   -0.40033  -0.30176
  Beta virt. eigenvalues --   -0.02718  -0.00783   0.09475   0.13695   0.15706
  Beta virt. eigenvalues --    0.17942   0.27314   0.31196   0.36763   0.39280
  Beta virt. eigenvalues --    0.41956   0.42517   0.44753   0.48510   0.49585
  Beta virt. eigenvalues --    0.50116   0.52746   0.53217   0.55850   0.57812
  Beta virt. eigenvalues --    0.58315   0.60903   0.65671   0.70982   0.71490
  Beta virt. eigenvalues --    0.91737   0.94308   1.08240   1.12240   1.17585
  Beta virt. eigenvalues --    1.19738   1.30751   1.35062   1.39946   1.41372
  Beta virt. eigenvalues --    1.43090   1.46264   1.50992   1.57863   1.70878
  Beta virt. eigenvalues --    1.74138   1.80841   1.88272   1.96024   1.97573
  Beta virt. eigenvalues --    1.98759   2.01107   2.05275   2.07557   2.10415
  Beta virt. eigenvalues --    2.13553   2.14512   2.18944   2.23370   2.32012
  Beta virt. eigenvalues --    2.34170   2.35283   2.38649   2.50179   2.52048
  Beta virt. eigenvalues --    2.53900   2.57966   2.62252   2.66073   2.72898
  Beta virt. eigenvalues --    3.03193   3.07068   3.10232   3.16177   3.23796
  Beta virt. eigenvalues --    3.39388   3.61760   3.84403   3.90522   4.02249
  Beta virt. eigenvalues --    4.02671   4.07700   4.20292   4.21680   4.27398
  Beta virt. eigenvalues --    4.31047   4.34044   4.42365   4.46144   4.57166
  Beta virt. eigenvalues --    4.64595   4.67189   4.68286   4.73533   4.74731
  Beta virt. eigenvalues --    4.78343   4.79628   4.83927   4.87019   4.91333
  Beta virt. eigenvalues --    4.97988   5.02167   5.07436   5.24097   5.32212
  Beta virt. eigenvalues --    5.40997   5.45598   5.54992   5.68250   5.72293
  Beta virt. eigenvalues --    5.86363   5.89506   6.77661  31.56199  31.78638
  Beta virt. eigenvalues --   31.91562
          Condensed to atoms (all electrons):
               1          2          3          4          5          6
     1  N    6.774035   0.349143   0.259284   0.173858  -0.031030  -0.048517
     2  H    0.349143   0.496975  -0.025719  -0.035975  -0.017550   0.006598
     3  H    0.259284  -0.025719   0.310847  -0.019095   0.005060  -0.003722
     4  N    0.173858  -0.035975  -0.019095   6.536158   0.378921   0.380433
     5  H   -0.031030  -0.017550   0.005060   0.378921   0.471929  -0.038501
     6  H   -0.048517   0.006598  -0.003722   0.380433  -0.038501   0.450498
     7  N   -0.092257   0.008400   0.174286  -0.003548  -0.001187   0.001131
     8  H    0.016284  -0.000936  -0.031864  -0.000042   0.000256   0.000113
               7          8
     1  N   -0.092257   0.016284
     2  H    0.008400  -0.000936
     3  H    0.174286  -0.031864
     4  N   -0.003548  -0.000042
     5  H   -0.001187   0.000256
     6  H    0.001131   0.000113
     7  N    7.076832   0.266667
     8  H    0.266667   0.541743
          Atomic-Atomic Spin Densities.
               1          2          3          4          5          6
     1  N    0.556275  -0.003637   0.017891  -0.089595   0.000099  -0.002798
     2  H   -0.003637  -0.008728   0.000840   0.002317  -0.000001  -0.000884
     3  H    0.017891   0.000840  -0.053938   0.003435   0.000016  -0.000503
     4  N   -0.089595   0.002317   0.003435   0.159913  -0.001681   0.000045
     5  H    0.000099  -0.000001   0.000016  -0.001681  -0.000676   0.001875
     6  H   -0.002798  -0.000884  -0.000503   0.000045   0.001875   0.008820
     7  N   -0.087154   0.004822  -0.027902   0.024221  -0.000254  -0.001079
     8  H   -0.000206  -0.000046   0.005691  -0.001073  -0.000034   0.000034
               7          8
     1  N   -0.087154  -0.000206
     2  H    0.004822  -0.000046
     3  H   -0.027902   0.005691
     4  N    0.024221  -0.001073
     5  H   -0.000254  -0.000034
     6  H   -0.001079   0.000034
     7  N    1.685161   0.006612
     8  H    0.006612  -0.048931
 Mulliken charges and spin densities:
               1          2
     1  N   -0.400802   0.390875
     2  H    0.219064  -0.005316
     3  H    0.330923  -0.054471
     4  N   -0.410710   0.097582
     5  H    0.232102  -0.000656
     6  H    0.251967   0.005509
     7  N   -0.430324   1.604427
     8  H    0.207781  -0.037951
 Sum of Mulliken charges =  -0.00000   2.00000
 Mulliken charges and spin densities with hydrogens summed into heavy atoms:
               1          2
     1  N    0.149185   0.331089
     4  N    0.073359   0.102435
     7  N   -0.222544   1.566476
 APT charges:
               1
     1  N    0.386233
     2  H    0.113886
     3  H   -0.504235
     4  N   -0.332562
     5  H    0.147948
     6  H    0.098087
     7  N   -0.051474
     8  H    0.142116
 Sum of APT charges =   0.00000
 APT charges with hydrogens summed into heavy atoms:
               1
     1  N   -0.004115
     4  N   -0.086526
     7  N    0.090642
 Electronic spatial extent (au):  <R**2>=            250.6921
 Charge=             -0.0000 electrons
 Dipole moment (field-independent basis, Debye):
    X=             -3.0570    Y=             -0.5740    Z=              2.1819  Tot=              3.7994
 Quadrupole moment (field-independent basis, Debye-Ang):
   XX=            -20.4960   YY=            -20.6368   ZZ=            -17.5469
   XY=              0.0399   XZ=              1.4299   YZ=              1.4992
 Traceless Quadrupole moment (field-independent basis, Debye-Ang):
   XX=             -0.9361   YY=             -1.0769   ZZ=              2.0130
   XY=              0.0399   XZ=              1.4299   YZ=              1.4992
 Octapole moment (field-independent basis, Debye-Ang**2):
  XXX=            -26.3580  YYY=              0.3473  ZZZ=              2.6093  XYY=              0.7129
  XXY=             -5.4308  XXZ=              5.1564  XZZ=             -4.8694  YZZ=             -1.0416
  YYZ=              3.2152  XYZ=             -2.2825
 Hexadecapole moment (field-independent basis, Debye-Ang**3):
 XXXX=           -259.3097 YYYY=            -56.1598 ZZZZ=            -25.0392 XXXY=              4.1675
 XXXZ=             10.1830 YYYX=             -0.9856 YYYZ=              3.3855 ZZZX=              1.6314
 ZZZY=              2.1688 XXYY=            -47.0605 XXZZ=            -38.0991 YYZZ=            -12.2741
 XXYZ=             -0.6538 YYXZ=              0.3845 ZZXY=              1.1105
 N-N= 7.301061421227D+01 E-N=-5.371143076939D+02  KE= 1.663967820540D+02
  Exact polarizability:  83.265  -6.396  27.829   0.715  -0.926  24.497
 Approx polarizability:  57.994  -2.775  27.775  -0.365  -0.955  25.837
                          Isotropic Fermi Contact Couplings
        Atom                 a.u.       MegaHertz       Gauss      10(-4) cm-1
     1  N(14)              0.01592       2.57182       0.91769       0.85787
     2  H(1)              -0.00534     -11.94198      -4.26120      -3.98342
     3  H(1)              -0.02950     -65.93866     -23.52856     -21.99477
     4  N(14)              0.04993       8.06551       2.87797       2.69036
     5  H(1)               0.00057       1.28030       0.45684       0.42706
     6  H(1)               0.00491      10.97180       3.91501       3.65980
     7  N(14)              0.08556      13.82189       4.93199       4.61049
     8  H(1)              -0.02065     -46.16231     -16.47186     -15.39809
 --------------------------------------------------------
       Center         ----  Spin Dipole Couplings  ----
                      3XX-RR        3YY-RR        3ZZ-RR
 --------------------------------------------------------
     1   Atom        0.552800     -0.068654     -0.484146
     2   Atom       -0.014921     -0.015111      0.030032
     3   Atom        0.221046     -0.088322     -0.132725
     4   Atom        0.090339      0.044200     -0.134540
     5   Atom        0.008680     -0.011621      0.002941
     6   Atom        0.006717     -0.010476      0.003758
     7   Atom        0.332334     -0.136501     -0.195833
     8   Atom       -0.101459      0.046233      0.055226
 --------------------------------------------------------
                        XY            XZ            YZ
 --------------------------------------------------------
     1   Atom       -0.772331      0.324291     -0.203349
     2   Atom       -0.026368      0.002013      0.044041
     3   Atom       -0.128394     -0.003083      0.007445
     4   Atom       -0.193312      0.022418     -0.024812
     5   Atom        0.003371     -0.015099     -0.007002
     6   Atom        0.006058      0.013475      0.009639
     7   Atom       -0.051596      0.502257      1.579906
     8   Atom        0.037958     -0.024878     -0.132562
 --------------------------------------------------------


 ---------------------------------------------------------------------------------
              Anisotropic Spin Dipole Couplings in Principal Axis System
 ---------------------------------------------------------------------------------

       Atom             a.u.   MegaHertz   Gauss  10(-4) cm-1        Axes

              Baa    -0.5971   -23.029    -8.217    -7.682  0.5815  0.6752 -0.4539
     1 N(14)  Bbb    -0.5663   -21.841    -7.793    -7.285  0.0942  0.4983  0.8618
              Bcc     1.1634    44.870    16.011    14.967  0.8081 -0.5439  0.2262
 
              Baa    -0.0560   -29.864   -10.656    -9.961  0.5088  0.7614 -0.4018
     2 H(1)   Bbb    -0.0031    -1.649    -0.588    -0.550  0.8434 -0.3471  0.4102
              Bcc     0.0591    31.513    11.245    10.512 -0.1729  0.5476  0.8187
 
              Baa    -0.1398   -74.569   -26.608   -24.874  0.2498  0.7177 -0.6500
     3 H(1)   Bbb    -0.1277   -68.137   -24.313   -22.728  0.2305  0.6079  0.7598
              Bcc     0.2675   142.706    50.921    47.602  0.9404 -0.3397 -0.0136
 
              Baa    -0.1385    -5.342    -1.906    -1.782  0.1491  0.2863  0.9465
     4 N(14)  Bbb    -0.1262    -4.868    -1.737    -1.624  0.6505  0.6925 -0.3120
              Bcc     0.2647    10.210     3.643     3.406  0.7447 -0.6622  0.0830
 
              Baa    -0.0150    -7.978    -2.847    -2.661  0.1969  0.8452  0.4969
     5 H(1)   Bbb    -0.0077    -4.107    -1.465    -1.370  0.6421 -0.4942  0.5861
              Bcc     0.0226    12.085     4.312     4.031  0.7409  0.2036 -0.6400
 
              Baa    -0.0154    -8.203    -2.927    -2.736  0.0508  0.8771 -0.4777
     6 H(1)   Bbb    -0.0071    -3.784    -1.350    -1.262  0.7277 -0.3601 -0.5838
              Bcc     0.0225    11.987     4.277     3.998  0.6840  0.3179  0.6565
 
              Baa    -1.8198   -70.184   -25.043   -23.411 -0.1828 -0.6758  0.7140
     7 N(14)  Bbb     0.3173    12.239     4.367     4.082  0.9453 -0.3204 -0.0612
              Bcc     1.5024    57.945    20.676    19.328  0.2701  0.6638  0.6974
 
              Baa    -0.1115   -59.484   -21.226   -19.842  0.9379 -0.3259 -0.1192
     8 H(1)   Bbb    -0.0786   -41.943   -14.966   -13.991  0.3127  0.6451  0.6971
              Bcc     0.1901   101.427    36.192    33.833 -0.1503 -0.6911  0.7070
 

 ---------------------------------------------------------------------------------

 No NMR shielding tensors so no spin-rotation constants.
 Leave Link  601 at Wed Feb 19 14:57:56 2020, MaxMem=  1879048192 cpu:               2.4 elap:               0.3
 (Enter /opt/g16/l701.exe)
 SCFChk:  SCF convergence  3.34D-09 required  1.00D-08
 ... and contract with generalized density number  0.
 Compute integral second derivatives.
 R6Disp: Adding Grimme-D2 dispersion energy 2nd derivatives to the Hessian.
 Entering OneElI...
 Calculate overlap and kinetic energy integrals
    NBasis = 138  MinDer = 2  MaxDer = 2
 Requested accuracy = 0.1000D-14
 PrmmSu-InSpLW:  IPartL=    0 NPrtUS=    8 NPrtUL=    1 DoSpLW=F IThBeg=    0 IThEnd=    7 NThAct=    8.
 PrSmSu:  IncTry=   512 NBBP=           1427 NTPThr=   100 NPartT=    8 Incr=           1 LDynOK=F GPUOK=F.
 PrsmSu:  NPrtUS=   8 ThrOK=T IAlg=2 LenDen=           0 ISkipM=0 DoSpLW=F IThBeg=    0 IThEnd=    7.
 Prism:   IPart=     0 DynPar=F LinDyn=F Incr=           1.
 PRISM was handed   234833427 working-precision words and  1427 shell-pairs
 PRISM was handed   234833427 working-precision words and  1427 shell-pairs
 PRISM was handed   234833427 working-precision words and  1427 shell-pairs
 PRISM was handed   234833427 working-precision words and  1427 shell-pairs
 PRISM was handed   234833427 working-precision words and  1427 shell-pairs
 PRISM was handed   234833427 working-precision words and  1427 shell-pairs
 PRISM was handed   234833427 working-precision words and  1427 shell-pairs
 PRISM was handed   234833427 working-precision words and  1427 shell-pairs
 IPart=  6 NShTot=         166 NBatch=          27 AvBLen=         6.1
 IPart=  7 NShTot=         163 NBatch=          26 AvBLen=         6.3
 IPart=  4 NShTot=         172 NBatch=          31 AvBLen=         5.5
 IPart=  5 NShTot=         169 NBatch=          29 AvBLen=         5.8
 IPart=  3 NShTot=         176 NBatch=          35 AvBLen=         5.0
 IPart=  0 NShTot=         207 NBatch=          45 AvBLen=         4.6
 IPart=  2 NShTot=         182 NBatch=          39 AvBLen=         4.7
 IPart=  1 NShTot=         192 NBatch=          41 AvBLen=         4.7
 PrSmSu:  NxtVal=              9.
 Entering OneElI...
 Calculate potential energy integrals
    NBasis = 138  MinDer = 2  MaxDer = 2
 Requested accuracy = 0.1000D-14
 PrmmSu-InSpLW:  IPartL=    0 NPrtUS=    8 NPrtUL=    1 DoSpLW=F IThBeg=    0 IThEnd=    7 NThAct=    8.
 PrSmSu:  IncTry=   512 NBBP=          11256 NTPThr=   100 NPartT=    8 Incr=          14 LDynOK=F GPUOK=F.
 PrsmSu:  NPrtUS=   8 ThrOK=T IAlg=2 LenDen=           0 ISkipM=0 DoSpLW=F IThBeg=    0 IThEnd=    7.
 Prism:   IPart=     0 DynPar=F LinDyn=F Incr=          14.
 PRISM was handed   234838049 working-precision words and  1407 shell-pairs
 PRISM was handed   234838049 working-precision words and  1407 shell-pairs
 PRISM was handed   234838049 working-precision words and  1407 shell-pairs
 PRISM was handed   234838049 working-precision words and  1407 shell-pairs
 PRISM was handed   234838049 working-precision words and  1407 shell-pairs
 PRISM was handed   234838049 working-precision words and  1407 shell-pairs
 PRISM was handed   234838049 working-precision words and  1407 shell-pairs
 PRISM was handed   234838049 working-precision words and  1407 shell-pairs
 IPart=  5 NShTot=        1320 NBatch=         165 AvBLen=         8.0
 IPart=  4 NShTot=        1368 NBatch=         171 AvBLen=         8.0
 IPart=  7 NShTot=        1296 NBatch=         162 AvBLen=         8.0
 IPart=  3 NShTot=        1400 NBatch=         175 AvBLen=         8.0
 IPart=  2 NShTot=        1456 NBatch=         182 AvBLen=         8.0
 IPart=  6 NShTot=        1304 NBatch=         163 AvBLen=         8.0
 IPart=  1 NShTot=        1496 NBatch=         187 AvBLen=         8.0
 IPart=  0 NShTot=        1616 NBatch=         202 AvBLen=         8.0
 PrSmSu:  NxtVal=            113.
   1 Symmetry operations used in ECPInt.
 ECPInt:  NShTT=    1431 NPrTT=    4176 LenC2=    1423 LenP2D=    3597.
 LDataN:  DoStor=F MaxTD1= 8 Len=  415
 LDataN:  DoStor=T MaxTD1= 8 Len=  415
 ECPSu:  NPrtUS=   8 ThrOK=T ISkipM=0 DoSpLW=F IThBeg=    0 IThEnd=    7.
 Polarizability after L701:
                1             2             3 
      1  0.832653D+02
      2 -0.639612D+01  0.278290D+02
      3  0.714850D+00 -0.926031D+00  0.244972D+02
 Dipole Derivatives after L701:
                 1             2             3             4             5 
      1   0.161907D+01  0.990518D+00 -0.222939D+00  0.110225D+00  0.685356D-02
      2   0.275608D-01 -0.277467D+00  0.113786D+00 -0.631632D-01  0.208072D+00
      3  -0.339774D-01  0.740799D-01 -0.182907D+00  0.126137D-01 -0.185835D-01
                 6             7             8             9            10 
      1  -0.132664D+00 -0.181520D+01  0.634438D+00  0.125901D+00 -0.495587D+00
      2  -0.805242D-01  0.219785D+00  0.914310D-01 -0.746056D-01  0.162540D+00
      3   0.233621D-01 -0.234122D-01 -0.862239D-02  0.211063D+00  0.203218D-01
                11            12            13            14            15 
      1  -0.147135D+01  0.420090D-01  0.931241D-01  0.325253D-01 -0.397623D-01
      2  -0.353748D+00  0.799957D-01 -0.107280D+00  0.220307D+00 -0.286826D-01
      3   0.725977D-02 -0.148352D+00  0.685360D-01 -0.799966D-01  0.130414D+00
                16            17            18            19            20 
      1  -0.780682D-01  0.204861D+00  0.131932D+00  0.321385D+00 -0.291179D+00
      2  -0.736994D-01  0.226700D+00  0.405672D-03 -0.102477D+00 -0.226572D+00
      3  -0.577837D-01  0.571939D-01  0.145630D+00 -0.668675D-01 -0.213231D+00
                21            22            23            24 
      1  -0.118230D-01  0.245046D+00 -0.106667D+00  0.107346D+00
      2  -0.202361D+00 -0.632665D-01  0.111277D+00  0.191986D+00
      3  -0.249235D+00  0.805694D-01  0.181900D+00  0.700250D-01
 Hessian after L701:
                1             2             3             4             5 
      1  0.653370D+01
      2 -0.257109D+01  0.625631D+01
      3  0.177217D+00 -0.716372D+00  0.103152D+02
      4 -0.377572D+01  0.709230D-01  0.133563D+00  0.379091D+01
      5  0.109244D+00 -0.299576D+01  0.140348D+01 -0.165109D-01  0.287624D+01
      6  0.187328D+00  0.126393D+01 -0.159977D+01 -0.170305D+00 -0.143887D+01
      7  0.373266D+00 -0.691336D+00 -0.189643D+00 -0.190124D-01  0.692538D-01
      8 -0.608305D+00 -0.241562D+01  0.426516D-01  0.687976D-01  0.240641D-01
      9 -0.310007D+00  0.814469D-01 -0.253537D+01  0.107547D+00 -0.672783D-01
     10 -0.358946D+01  0.351366D+01 -0.147798D+00 -0.402071D-01 -0.494662D-01
     11  0.358124D+01 -0.524609D+00 -0.608109D+00 -0.310362D-01  0.123003D+00
     12 -0.117304D+00 -0.499366D+00 -0.620267D+01 -0.482930D-01  0.151286D-01
     13 -0.165526D-01  0.430321D-01 -0.977366D-01 -0.170775D-01 -0.573140D-01
     14 -0.341477D-01  0.323906D-01 -0.415859D-01 -0.566889D-01 -0.373664D-01
     15 -0.812952D-01 -0.106289D+00  0.180719D+00 -0.222253D-02 -0.584293D-02
     16  0.534016D-01 -0.952908D-01  0.709000D-01  0.482838D-02  0.426520D-01
     17 -0.129631D+00 -0.145019D+00 -0.259686D-01  0.198799D-01  0.166873D-01
     18  0.103154D+00  0.332204D-01  0.187456D+00  0.305156D-01  0.540578D-01
     19  0.352812D+00 -0.161278D+00 -0.636835D-02  0.573482D-01 -0.956058D-01
     20 -0.196954D+00 -0.240557D+00  0.189782D-01 -0.534889D-01 -0.134738D-01
     21 -0.593720D-01  0.198554D-01 -0.316455D+00 -0.533541D-01  0.449496D-01
     22  0.685565D-01 -0.108626D+00  0.598665D-01 -0.106337D-02 -0.225263D-02
     23 -0.150352D+00  0.328594D-01 -0.730698D-01 -0.187549D-02  0.660051D-02
     24  0.100280D+00 -0.764269D-01 -0.290866D-01  0.254976D-02 -0.562424D-02
                6             7             8             9            10 
      6  0.148718D+01
      7  0.606678D-01 -0.799347D+00
      8 -0.401953D-01  0.134705D+01  0.351193D+01
      9 -0.181373D-01  0.692199D-01 -0.521103D-02  0.384345D+01
     10 -0.278537D-01  0.213541D-01 -0.139166D+00 -0.242602D-02  0.846249D+01
     11  0.122056D+00 -0.131005D+00 -0.511318D-01  0.154357D-01 -0.386660D+01
     12  0.741145D-01 -0.400696D-01  0.221136D-01  0.687297D-02  0.253961D+00
     13  0.549446D-02  0.497274D-01  0.127319D-01 -0.203426D-01 -0.260047D+01
     14  0.166897D-03  0.290249D-01 -0.129469D-01 -0.560660D-02  0.198347D+00
     15  0.247823D-01 -0.442323D-01 -0.597656D-02 -0.260328D-02 -0.149056D+01
     16  0.446272D-01 -0.542238D-02 -0.256414D-02 -0.200921D-02 -0.275237D+01
     17  0.406739D-01  0.101413D-01 -0.394125D-02 -0.231644D-03  0.311896D+00
     18  0.397651D-01  0.173405D-01 -0.524446D-02  0.382024D-02  0.143175D+01
     19 -0.970437D-01  0.364503D+00 -0.749831D+00  0.211001D+00  0.460624D+00
     20  0.435460D-01 -0.680239D+00 -0.103698D+01 -0.760414D-01  0.553817D-01
     21 -0.146772D-02  0.161572D+00 -0.598726D-01 -0.131794D+01 -0.535021D-01
     22 -0.291416D-02  0.149310D-01  0.712862D-01 -0.529830D-01  0.380400D-01
     23  0.868716D-02  0.471102D-01 -0.153764D-01  0.574864D-01 -0.240542D-01
     24 -0.646628D-02 -0.348545D-01  0.517347D-01  0.199149D-01  0.364374D-01
               11            12            13            14            15 
     11  0.816070D+01
     12  0.268032D+00  0.980401D+01
     13  0.136008D+00 -0.150903D+01  0.241796D+01
     14 -0.373562D+01 -0.237162D+00 -0.145447D+00  0.366911D+01
     15 -0.144976D+00 -0.176128D+01  0.164114D+01  0.287121D+00  0.178097D+01
     16  0.265841D+00  0.147764D+01  0.118234D+00  0.101094D-01  0.190602D-01
     17 -0.369050D+01  0.439203D+00  0.931361D-02  0.977979D-01 -0.225815D-01
     18  0.346979D+00 -0.163664D+01 -0.770337D-02 -0.262702D-02 -0.218749D+00
     19  0.442950D-01 -0.322840D-01  0.391916D-01 -0.955084D-04 -0.381965D-01
     20 -0.254749D+00  0.882016D-03  0.908130D-02 -0.115669D-01 -0.679852D-02
     21  0.574432D-02 -0.263365D+00 -0.176120D-01 -0.150833D-03  0.336330D-02
     22  0.126546D-02  0.153764D-01  0.899572D-02 -0.110273D-02 -0.368871D-02
     23 -0.270945D-01 -0.883059D-02 -0.740591D-02 -0.179575D-02  0.534414D-02
     24 -0.516159D-02 -0.210454D-01  0.579035D-02 -0.154895D-03 -0.720439D-02
               16            17            18            19            20 
     16  0.250507D+01
     17 -0.227553D+00  0.374073D+01
     18 -0.163065D+01 -0.431143D+00  0.163183D+01
     19  0.707079D-01  0.619933D-02  0.506452D-01  0.168377D+01
     20  0.132341D-01 -0.144291D-01  0.106359D-01  0.657705D+00  0.350140D+01
     21  0.120493D-01  0.214275D-03 -0.139099D-01  0.189364D+00  0.111132D+01
     22  0.554168D-02 -0.245707D-03  0.495204D-02 -0.302896D+01  0.195280D+00
     23 -0.642816D-02 -0.132893D-02 -0.587804D-02  0.298611D+00 -0.192964D+01
     24  0.837900D-02 -0.165805D-03  0.643299D-02 -0.277118D+00 -0.110252D+01
               21            22            23            24 
     21  0.379070D+01
     22 -0.179145D+00  0.289395D+01
     23 -0.112206D+01 -0.155605D+00  0.193577D+01
     24 -0.188092D+01  0.158536D+00  0.113832D+01  0.191838D+01
 Leave Link  701 at Wed Feb 19 14:57:57 2020, MaxMem=  1879048192 cpu:               3.6 elap:               0.5
 (Enter /opt/g16/l702.exe)
 L702 exits ... SP integral derivatives will be done elsewhere.
 Leave Link  702 at Wed Feb 19 14:57:57 2020, MaxMem=  1879048192 cpu:               0.4 elap:               0.1
 (Enter /opt/g16/l703.exe)
 Integral derivatives from FoFJK, PRISM(SPDF).
 Compute integral second derivatives, UseDBF=F ICtDFT=           0.
 ICntrl=    100127.
 Calling FoFJK, ICntrl=    100127 FMM=F ISym2X=0 I1Cent= 0 IOpClX= 1 NMat=1 NMatS=1 NMatT=0.
 FoFJK:  IHMeth= 1 ICntrl=  100127 DoSepK=T KAlg= 0 I1Cent=           0 FoldK=F
 IRaf=         1 NMat=       1 IRICut=       1 DoRegI=T DoRafI=F ISym2E= 0 IDoP0=0 IntGTp=1.
 FoFCou: FMM=F IPFlag=           0 FMFlag=      100000 FMFlg1=         800
         NFxFlg=           0 DoJE=F BraDBF=F KetDBF=F FulRan=T
         wScrn=  0.000000 ICntrl=    100527 IOpCl=  0 I1Cent=           0 NGrid=           0
         NMat0=    1 NMatS0=      1 NMatT0=    0 NMatD0=    1 NMtDS0=    0 NMtDT0=    0
 Symmetry not used in FoFCou.
 FoFCou:  KetSym=F NOpSet=  1 NOpAb=1 NOp=  1.
 FoFCou:  CnvScl= 1.00D+00 Thresh= 1.00D-12 IAcrcy=      10.
 PrismS was handed  1878914030 working-precision words and  1419 shell-pairs
 FoFCou: LinMIO=F DoNuc=F BraDBF=F KetDBF=F HaveP=T PDBF=F HaveZ=T HaveW=F
         NIJTC =      10 NIJTAt=       0 NIJTCD=       0 NIJTT =      10
         IJTBeg=       1 IJTEnd=      10 KLTBeg=       1 KLTEnd=      10
         IPTBeg=       1 IPTEnd=      10 IPTBCv=       1 IPTECv=      10
         IZTBeg=       1 IZTEnd=      10 IZTBCv=       1 IZTECv=      10
         IWTBeg=      11 IWTEnd=      10 IWTBCv=      11 IWTECv=      10
         INTBeg=       1 INTEnd=       0 IFTBCv=       1 IFTECv=      10
 NCel replicated for PrismC:     1
 CoulSu-InSpLW:  IPartL=    0 NPrtUS=    8 NPrtUL=    1 DoSpLW=F IThBeg=    0 IThEnd=    7 NThAct=    8.
 CoulSu:  IncTry=  1024 NBBP=        1007490 NTPThr=   100 NPartT=    8 Incr=        1024 LDynOK=F GPUOK=F.
 CoulSu:  NPrtUS=   8 ThrOK=T IAlg=2 LenDen=           0 LWGrdD=           0 DoCopy=F ISkipM=0
          DoSpLW=F IThBeg=    0 IThEnd=    7.
 Enter PrismC:  IPart=  0 JobTyp=22 DoJE=F Cont=F.
 PrismC:  IPart=     0 DynPar=T LinDyn=F Incr=        1024 UseFst=F UseS4=T ISplat=2.
 PrismC was handed   234838173 working-precision words and  1419 shell-pairs
 Enter PrismC:  IPart=  1 JobTyp=22 DoJE=F Cont=F.
 PrismC:  IPart=     1 DynPar=T LinDyn=F Incr=        1024 UseFst=F UseS4=T ISplat=2.
 PrismC was handed   234838173 working-precision words and  1419 shell-pairs
 Enter PrismC:  IPart=  3 JobTyp=22 DoJE=F Cont=F.
 Enter PrismC:  IPart=  4 JobTyp=22 DoJE=F Cont=F.
 PrismC:  IPart=     3 DynPar=T LinDyn=F Incr=        1024 UseFst=F UseS4=T ISplat=2.
 PrismC:  IPart=     4 DynPar=T LinDyn=F Incr=        1024 UseFst=F UseS4=T ISplat=2.
 Enter PrismC:  IPart=  5 JobTyp=22 DoJE=F Cont=F.
 PrismC was handed   234838173 working-precision words and  1419 shell-pairs
 PrismC:  IPart=     5 DynPar=T LinDyn=F Incr=        1024 UseFst=F UseS4=T ISplat=2.
 PrismC was handed   234838173 working-precision words and  1419 shell-pairs
 PrismC was handed   234838173 working-precision words and  1419 shell-pairs
 Enter PrismC:  IPart=  7 JobTyp=22 DoJE=F Cont=F.
 Enter PrismC:  IPart=  6 JobTyp=22 DoJE=F Cont=F.
 PrismC:  IPart=     7 DynPar=T LinDyn=F Incr=        1024 UseFst=F UseS4=T ISplat=2.
 PrismC was handed   234838173 working-precision words and  1419 shell-pairs
 PrismC:  IPart=     6 DynPar=T LinDyn=F Incr=        1024 UseFst=F UseS4=T ISplat=2.
 PrismC was handed   234838173 working-precision words and  1419 shell-pairs
 Enter PrismC:  IPart=  2 JobTyp=22 DoJE=F Cont=F.
 PrismC:  IPart=     2 DynPar=T LinDyn=F Incr=        1024 UseFst=F UseS4=T ISplat=2.
 PrismC was handed   234838173 working-precision words and  1419 shell-pairs
 IPart=  3 NShTot=      117302 NShNF=      117302 NShFF=           0 MinMC=       7
           NShCPU=      117302 NBCPU=        2927 AvBCPU=        40.1
           NShGPU=           0 NBGPU=           0 AvBGPU=         0.0
 IPart=  7 NShTot=      114894 NShNF=      114894 NShFF=           0 MinMC=       7
           NShCPU=      114894 NBCPU=        2787 AvBCPU=        41.2
           NShGPU=           0 NBGPU=           0 AvBGPU=         0.0
 IPart=  5 NShTot=      113468 NShNF=      113468 NShFF=           0 MinMC=       7
           NShCPU=      113468 NBCPU=        2627 AvBCPU=        43.2
           NShGPU=           0 NBGPU=           0 AvBGPU=         0.0
 IPart=  4 NShTot=      107751 NShNF=      107751 NShFF=           0 MinMC=       7
           NShCPU=      107751 NBCPU=        2704 AvBCPU=        39.8
           NShGPU=           0 NBGPU=           0 AvBGPU=         0.0
 IPart=  2 NShTot=      117706 NShNF=      117706 NShFF=           0 MinMC=       7
           NShCPU=      117706 NBCPU=        2530 AvBCPU=        46.5
           NShGPU=           0 NBGPU=           0 AvBGPU=         0.0
 IPart=  6 NShTot=      118894 NShNF=      118894 NShFF=           0 MinMC=       7
           NShCPU=      118894 NBCPU=        2737 AvBCPU=        43.4
           NShGPU=           0 NBGPU=           0 AvBGPU=         0.0
 IPart=  1 NShTot=      114476 NShNF=      114476 NShFF=           0 MinMC=       7
           NShCPU=      114476 NBCPU=        2526 AvBCPU=        45.3
           NShGPU=           0 NBGPU=           0 AvBGPU=         0.0
 IPart=  0 NShTot=      110497 NShNF=      110497 NShFF=           0 MinMC=       7
           NShCPU=      110497 NBCPU=        2196 AvBCPU=        50.3
           NShGPU=           0 NBGPU=           0 AvBGPU=         0.0
 CoulSu:  NxtVal=        1084417 LenVP=      234838174 MinMC=       7.
 FoFCou: FMM=F IPFlag=           0 FMFlag=      100000 FMFlg1=         800
         NFxFlg=           0 DoJE=F BraDBF=F KetDBF=F FulRan=T
         wScrn=  0.000000 ICntrl=    100127 IOpCl=  1 I1Cent=           0 NGrid=           0
         NMat0=    1 NMatS0=      0 NMatT0=    1 NMatD0=    1 NMtDS0=    0 NMtDT0=    0
         CW=    0.222036    0.777964
         WU=    0.000000   12.500000
 Symmetry not used in FoFCou.
 FoFCou:  KetSym=F NOpSet=  1 NOpAb=1 NOp=  1.
 FoFCou:  CnvScl= 1.00D+00 Thresh= 1.00D-12 IAcrcy=      10.
 IniFok:  ToCart=T IDoP0=2 DoConv=F DoRafP=T DoAdj=T
 PrismS was handed  1878912655 working-precision words and  1419 shell-pairs
 FoFCou: LinMIO=F DoNuc=F BraDBF=F KetDBF=F HaveP=T PDBF=F HaveZ=T HaveW=F
         NIJTC =      10 NIJTAt=       0 NIJTCD=       0 NIJTT =      10
         IJTBeg=       1 IJTEnd=      10 KLTBeg=       1 KLTEnd=      10
         IPTBeg=       1 IPTEnd=      10 IPTBCv=       1 IPTECv=      10
         IZTBeg=       1 IZTEnd=      10 IZTBCv=       1 IZTECv=      10
         IWTBeg=      11 IWTEnd=      10 IWTBCv=      11 IWTECv=      10
         INTBeg=       1 INTEnd=       0 IFTBCv=       1 IFTECv=      10
 NCel replicated for PrismC:     1
 CoulSu-InSpLW:  IPartL=    0 NPrtUS=    8 NPrtUL=    1 DoSpLW=F IThBeg=    0 IThEnd=    7 NThAct=    8.
 CoulSu:  IncTry=  1024 NBBP=        1007490 NTPThr=   100 NPartT=    8 Incr=        1024 LDynOK=F GPUOK=F.
 CoulSu:  NPrtUS=   8 ThrOK=T IAlg=2 LenDen=           0 LWGrdD=           0 DoCopy=F ISkipM=0
          DoSpLW=F IThBeg=    0 IThEnd=    7.
 Enter PrismC:  IPart=  0 JobTyp=22 DoJE=F Cont=F.
 Linear combination for Coulomb/exchange, wScrn=  0.000000
 CW=    0.222036    0.777964
 WU=    0.000000   12.500000
 Enter PrismC:  IPart=  4 JobTyp=22 DoJE=F Cont=F.
 Linear combination for Coulomb/exchange, wScrn=  0.000000
 CW=    0.222036    0.777964
 WU=    0.000000   12.500000
 PrismC:  IPart=     0 DynPar=T LinDyn=F Incr=        1024 UseFst=F UseS4=T ISplat=2.
 PrismC was handed   234838001 working-precision words and  1419 shell-pairs
 PrismC:  IPart=     4 DynPar=T LinDyn=F Incr=        1024 UseFst=F UseS4=T ISplat=2.
 PrismC was handed   234838001 working-precision words and  1419 shell-pairs
 Enter PrismC:  IPart=  1 JobTyp=22 DoJE=F Cont=F.
 Enter PrismC:  IPart=  3 JobTyp=22 DoJE=F Cont=F.
 Enter PrismC:  IPart=  6 JobTyp=22 DoJE=F Cont=F.
 Linear combination for Coulomb/exchange, wScrn=  0.000000
 CW=    0.222036    0.777964
 WU=    0.000000   12.500000
 Enter PrismC:  IPart=  7 JobTyp=22 DoJE=F Cont=F.
 PrismC:  IPart=     1 DynPar=T LinDyn=F Incr=        1024 UseFst=F UseS4=T ISplat=2.
 PrismC was handed   234838001 working-precision words and  1419 shell-pairs
 Enter PrismC:  IPart=  2 JobTyp=22 DoJE=F Cont=F.
 Linear combination for Coulomb/exchange, wScrn=  0.000000
 CW=    0.222036    0.777964
 WU=    0.000000   12.500000
 Enter PrismC:  IPart=  5 JobTyp=22 DoJE=F Cont=F.
 Linear combination for Coulomb/exchange, wScrn=  0.000000
 CW=    0.222036    0.777964
 WU=    0.000000   12.500000
 PrismC:  IPart=     3 DynPar=T LinDyn=F Incr=        1024 UseFst=F UseS4=T ISplat=2.
 PrismC was handed   234838001 working-precision words and  1419 shell-pairs
 PrismC:  IPart=     2 DynPar=T LinDyn=F Incr=        1024 UseFst=F UseS4=T ISplat=2.
 Linear combination for Coulomb/exchange, wScrn=  0.000000
 CW=    0.222036    0.777964
 WU=    0.000000   12.500000
 PrismC was handed   234838001 working-precision words and  1419 shell-pairs
 PrismC:  IPart=     6 DynPar=T LinDyn=F Incr=        1024 UseFst=F UseS4=T ISplat=2.
 Linear combination for Coulomb/exchange, wScrn=  0.000000
 CW=    0.222036    0.777964
 WU=    0.000000   12.500000
 PrismC:  IPart=     5 DynPar=T LinDyn=F Incr=        1024 UseFst=F UseS4=T ISplat=2.
 PrismC was handed   234838001 working-precision words and  1419 shell-pairs
 Linear combination for Coulomb/exchange, wScrn=  0.000000
 CW=    0.222036    0.777964
 WU=    0.000000   12.500000
 PrismC was handed   234838001 working-precision words and  1419 shell-pairs
 PrismC:  IPart=     7 DynPar=T LinDyn=F Incr=        1024 UseFst=F UseS4=T ISplat=2.
 PrismC was handed   234838001 working-precision words and  1419 shell-pairs
 IPart=  7 NShTot=      115405 NShNF=      115405 NShFF=           0 MinMC=       7
           NShCPU=      115405 NBCPU=        3066 AvBCPU=        37.6
           NShGPU=           0 NBGPU=           0 AvBGPU=         0.0
 IPart=  1 NShTot=      109483 NShNF=      109483 NShFF=           0 MinMC=       7
           NShCPU=      109483 NBCPU=        2907 AvBCPU=        37.7
           NShGPU=           0 NBGPU=           0 AvBGPU=         0.0
 IPart=  0 NShTot=      110101 NShNF=      110101 NShFF=           0 MinMC=       7
           NShCPU=      110101 NBCPU=        2628 AvBCPU=        41.9
           NShGPU=           0 NBGPU=           0 AvBGPU=         0.0
 IPart=  6 NShTot=      116430 NShNF=      116430 NShFF=           0 MinMC=       7
           NShCPU=      116430 NBCPU=        2977 AvBCPU=        39.1
           NShGPU=           0 NBGPU=           0 AvBGPU=         0.0
 IPart=  2 NShTot=      113058 NShNF=      113058 NShFF=           0 MinMC=       7
           NShCPU=      113058 NBCPU=        2857 AvBCPU=        39.6
           NShGPU=           0 NBGPU=           0 AvBGPU=         0.0
 IPart=  5 NShTot=      115877 NShNF=      115877 NShFF=           0 MinMC=       7
           NShCPU=      115877 NBCPU=        2947 AvBCPU=        39.3
           NShGPU=           0 NBGPU=           0 AvBGPU=         0.0
 IPart=  4 NShTot=      121832 NShNF=      121832 NShFF=           0 MinMC=       7
           NShCPU=      121832 NBCPU=        2988 AvBCPU=        40.8
           NShGPU=           0 NBGPU=           0 AvBGPU=         0.0
 IPart=  3 NShTot=      112518 NShNF=      112518 NShFF=           0 MinMC=       7
           NShCPU=      112518 NBCPU=        2725 AvBCPU=        41.3
           NShGPU=           0 NBGPU=           0 AvBGPU=         0.0
 CoulSu:  NxtVal=        1084417 LenVP=      234838002 MinMC=       7.
 ReadGW:  IGet=0 IStart=           1 Next=           1 LGW=           0.
 Remaining memory in FofDFT     1791.96 Mw
 CkSvGd:  ISavGI=        -1 IRadAn=       5 IRASav=       5 ISavGd=        -1.
 CalDSu-InSpLW:  IPartL=    0 NPrtUS=    8 NPrtUL=    1 DoSpLW=F IThBeg=    0 IThEnd=    7 NThAct=    8.
 CalDSu:  NPrtUS=   8 ThrOK=T IAlg=1 DoDPD=T LenP=        9591 LenD1P=             0 GPUOK=F
          ISkipM=0 DoSpLW=F IThBeg=    0 IThEnd=    7.
 IPart=  0 IRanGd=          0 ScrnBf=T ScrnGd=T RCrit=4.00D+00 DoMicB=T.
 IPart=  3        23804 of        26520 points in      26 batches and      127 microbatches, Max-NSigAt=       8 Max-NSgAt2=       8
 IPart=  7        20728 of        22194 points in      19 batches and      107 microbatches, Max-NSigAt=       8 Max-NSgAt2=       8
 IPart=  0        19523 of        20592 points in      18 batches and      125 microbatches, Max-NSigAt=       8 Max-NSgAt2=       8
 IPart=  2        21815 of        23334 points in      20 batches and      140 microbatches, Max-NSigAt=       8 Max-NSgAt2=       8
 IPart=  5        20339 of        21682 points in      20 batches and      135 microbatches, Max-NSigAt=       8 Max-NSgAt2=       8
 IPart=  4        19369 of        20692 points in      19 batches and      127 microbatches, Max-NSigAt=       8 Max-NSgAt2=       8
 IPart=  1        20823 of        22840 points in      23 batches and      136 microbatches, Max-NSigAt=       8 Max-NSgAt2=       8
 IPart=  6        19947 of        20966 points in      18 batches and      111 microbatches, Max-NSigAt=       8 Max-NSgAt2=       8
 Polarizability after L703:
                1             2             3 
      1  0.832653D+02
      2 -0.639612D+01  0.278290D+02
      3  0.714850D+00 -0.926031D+00  0.244972D+02
 Dipole Derivatives after L703:
                 1             2             3             4             5 
      1   0.161907D+01  0.990518D+00 -0.222939D+00  0.110225D+00  0.685356D-02
      2   0.275608D-01 -0.277467D+00  0.113786D+00 -0.631632D-01  0.208072D+00
      3  -0.339774D-01  0.740799D-01 -0.182907D+00  0.126137D-01 -0.185835D-01
                 6             7             8             9            10 
      1  -0.132664D+00 -0.181520D+01  0.634438D+00  0.125901D+00 -0.495587D+00
      2  -0.805242D-01  0.219785D+00  0.914310D-01 -0.746056D-01  0.162540D+00
      3   0.233621D-01 -0.234122D-01 -0.862239D-02  0.211063D+00  0.203218D-01
                11            12            13            14            15 
      1  -0.147135D+01  0.420090D-01  0.931241D-01  0.325253D-01 -0.397623D-01
      2  -0.353748D+00  0.799957D-01 -0.107280D+00  0.220307D+00 -0.286826D-01
      3   0.725977D-02 -0.148352D+00  0.685360D-01 -0.799966D-01  0.130414D+00
                16            17            18            19            20 
      1  -0.780682D-01  0.204861D+00  0.131932D+00  0.321385D+00 -0.291179D+00
      2  -0.736994D-01  0.226700D+00  0.405672D-03 -0.102477D+00 -0.226572D+00
      3  -0.577837D-01  0.571939D-01  0.145630D+00 -0.668675D-01 -0.213231D+00
                21            22            23            24 
      1  -0.118230D-01  0.245046D+00 -0.106667D+00  0.107346D+00
      2  -0.202361D+00 -0.632665D-01  0.111277D+00  0.191986D+00
      3  -0.249235D+00  0.805694D-01  0.181900D+00  0.700250D-01
 Hessian after L703:
                1             2             3             4             5 
      1  0.255509D+00
      2  0.920762D-01  0.372903D+00
      3 -0.409943D-01  0.177031D+00  0.466296D+00
      4 -0.412980D-01 -0.576197D-02  0.185673D-01  0.523907D-01
      5 -0.169001D-01 -0.963585D-01 -0.125143D+00  0.169934D-01  0.125101D+00
      6  0.193784D-01 -0.182402D+00 -0.354687D+00 -0.150042D-01  0.167342D+00
      7  0.475066D-01  0.378799D-01  0.161183D-01 -0.286096D-02  0.813709D-02
      8 -0.214546D-01 -0.576809D-01 -0.216976D-01  0.137170D-01 -0.568784D-02
      9  0.240776D-02 -0.895493D-02 -0.315912D-01  0.244529D-01 -0.820484D-02
     10 -0.123961D+00 -0.137743D+00  0.612435D-04 -0.722588D-02 -0.681529D-02
     11 -0.482750D-01 -0.185003D+00 -0.293700D-01 -0.167098D-01 -0.217160D-01
     12  0.377861D-01  0.132435D-01 -0.986601D-01 -0.249048D-01 -0.341224D-01
     13 -0.152421D-01  0.446529D-02  0.129773D-01  0.361476D-03  0.639113D-04
     14 -0.323249D-01 -0.161260D-01  0.309175D-01 -0.143858D-03  0.282448D-02
     15  0.259269D-02  0.448328D-03  0.368713D-02 -0.209257D-02 -0.613198D-03
     16 -0.771862D-02 -0.468334D-02 -0.130438D-01 -0.144311D-02 -0.341769D-03
     17 -0.311219D-01 -0.190234D-01 -0.323180D-01 -0.663177D-02 -0.483515D-02
     18 -0.315455D-02 -0.162144D-02  0.105337D-01 -0.542072D-03  0.165092D-02
     19 -0.110298D+00  0.113228D-01  0.944664D-02 -0.878285D-03 -0.881655D-03
     20  0.533766D-01  0.156275D-02  0.221875D-02 -0.223147D-02  0.991546D-03
     21 -0.161493D-01  0.414158D-02  0.462859D-02 -0.111190D-02 -0.949940D-03
     22 -0.449796D-02  0.244386D-02 -0.313258D-02  0.954094D-03 -0.255597D-03
     23  0.462368D-02 -0.274167D-03 -0.163796D-02  0.768456D-03 -0.319520D-03
     24 -0.186669D-02 -0.188603D-02 -0.207640D-03  0.635410D-03  0.411766D-04
                6             7             8             9            10 
      6  0.351227D+00
      7 -0.131245D-01 -0.794437D-01
      8  0.398314D-02  0.557963D-01  0.550442D-01
      9 -0.614916D-02 -0.155824D-01  0.538637D-02  0.603423D-01
     10  0.422319D-02 -0.262048D-01 -0.245705D-01  0.223099D-03  0.487093D+00
     11  0.125262D-01 -0.762308D-01  0.262230D-01 -0.154903D-02  0.200245D+00
     12  0.225660D-02 -0.493580D-02  0.112773D-01 -0.207142D-02 -0.176796D-01
     13 -0.265426D-03  0.254796D-03 -0.402041D-02  0.130379D-02 -0.174780D+00
     14  0.980821D-03  0.600203D-02 -0.452111D-02  0.134595D-02 -0.943413D-02
     15  0.383499D-02 -0.598349D-02  0.148308D-02 -0.574574D-04  0.172916D+00
     16  0.378233D-03 -0.106353D-01  0.129063D-02 -0.242491D-02 -0.159148D+00
     17 -0.250735D-03  0.988972D-02 -0.401430D-02  0.207242D-04 -0.181719D-01
     18  0.143875D-02  0.852743D-02 -0.291165D-02  0.126935D-03 -0.162665D+00
     19  0.422700D-02  0.694248D-01 -0.305507D-01 -0.171529D-02  0.212336D-02
     20 -0.193771D-02 -0.329102D-01 -0.627363D-02  0.357034D-02 -0.196374D-02
     21  0.174189D-02  0.878268D-02  0.724842D-03 -0.194626D-01  0.364127D-02
     22  0.187359D-03  0.195854D-02  0.979234D-02 -0.866494D-02  0.210316D-02
     23 -0.241762D-03 -0.856401D-02 -0.308944D-02  0.838542D-02 -0.154652D-02
     24  0.336915D-03  0.619778D-02  0.175455D-02 -0.113749D-02 -0.720288D-03
               11            12            13            14            15 
     11  0.229230D+00
     12  0.371531D-01  0.751353D+00
     13 -0.363337D-01  0.197734D+00  0.177890D+00
     14 -0.195187D-01 -0.345453D-01  0.321038D-01  0.378385D-01
     15 -0.122282D-02 -0.321288D+00 -0.191330D+00  0.229725D-02  0.335438D+00
     16 -0.460534D-01 -0.189212D+00  0.123387D-01  0.574073D-02  0.225908D-01
     17 -0.158000D-01  0.999379D-02  0.346854D-02 -0.233254D-02 -0.128919D-02
     18 -0.231792D-01 -0.333217D+00 -0.207876D-01  0.133029D-03 -0.223159D-01
     19  0.234748D-01  0.762656D-04 -0.105601D-02 -0.159977D-02  0.973667D-03
     20 -0.115044D-01 -0.226949D-02  0.302336D-03  0.146837D-02 -0.944803D-03
     21  0.539046D-02  0.142477D-02  0.497443D-03 -0.106229D-02  0.727870D-03
     22 -0.116933D-03  0.113563D-02  0.233395D-03 -0.343878D-03  0.333201D-03
     23 -0.191128D-02 -0.730476D-03 -0.497303D-04  0.366937D-03 -0.158648D-03
     24  0.251235D-03  0.202933D-03 -0.129106D-03 -0.669678D-04 -0.268919D-04
               16            17            18            19            20 
     16  0.163853D+00
     17  0.457921D-01  0.440935D-01
     18  0.180787D+00  0.244744D-01  0.344104D+00
     19  0.256318D-02 -0.316017D-02 -0.213968D-02  0.668403D-01
     20 -0.111204D-02  0.145514D-02  0.111757D-02  0.341833D-01  0.202583D+00
     21  0.108655D-02 -0.623529D-03 -0.604476D-03 -0.535971D-01 -0.197700D+00
     22  0.190620D-03 -0.645928D-04 -0.253613D-04 -0.287198D-01 -0.496447D-01
     23 -0.632862D-03  0.456699D-03  0.336355D-03 -0.327886D-01 -0.190283D+00
     24 -0.161922D-03 -0.749851D-05 -0.657924D-04  0.427285D-01  0.195945D+00
               21            22            23            24 
     21  0.211698D+00
     22  0.568503D-01  0.277779D-01
     23  0.190079D+00  0.381895D-01  0.195054D+00
     24 -0.200154D+00 -0.466836D-01 -0.196032D+00  0.201052D+00
 Leave Link  703 at Wed Feb 19 14:58:43 2020, MaxMem=  1879048192 cpu:             367.8 elap:              46.0
 (Enter /opt/g16/l716.exe)
 FrcOut:
 IF    =        48 IFX   =        72 IFXYZ =        96
 IFFX  =       120 IFFFX =       420 IFLen =        24
 IFFLen=       300 IFFFLn=         0 IEDerv=       420
 LEDerv=      1205 IFroze=      1931 ICStrt=     32532
 Dipole        =-1.20271283D+00-2.25836035D-01 8.58412811D-01
 DipoleDeriv   = 1.61907285D+00 2.75607709D-02-3.39774325D-02
                 9.90517627D-01-2.77467467D-01 7.40799372D-02
                -2.22939162D-01 1.13785586D-01-1.82906713D-01
                 1.10224521D-01-6.31631688D-02 1.26136932D-02
                 6.85355842D-03 2.08072269D-01-1.85835249D-02
                -1.32664194D-01-8.05242405D-02 2.33621122D-02
                -1.81519757D+00 2.19784788D-01-2.34122202D-02
                 6.34437588D-01 9.14310450D-02-8.62239196D-03
                 1.25901075D-01-7.46056195D-02 2.11062885D-01
                -4.95586669D-01 1.62539962D-01 2.03217720D-02
                -1.47134924D+00-3.53747933D-01 7.25977254D-03
                 4.20090458D-02 7.99957380D-02-1.48351626D-01
                 9.31240990D-02-1.07279568D-01 6.85359661D-02
                 3.25252886D-02 2.20307141D-01-7.99966038D-02
                -3.97623050D-02-2.86825545D-02 1.30414083D-01
                -7.80681663D-02-7.36994047D-02-5.77837160D-02
                 2.04860663D-01 2.26700310D-01 5.71939018D-02
                 1.31932252D-01 4.05672328D-04 1.45629694D-01
                 3.21384579D-01-1.02476920D-01-6.68674528D-02
                -2.91178852D-01-2.26572002D-01-2.13231092D-01
                -1.18229822D-02-2.02361027D-01-2.49235441D-01
                 2.45046360D-01-6.32664600D-02 8.05693901D-02
                -1.06666628D-01 1.11276636D-01 1.81900002D-01
                 1.07346270D-01 1.91986445D-01 7.00250070D-02
 Polarizability= 8.32652514D+01-6.39612066D+00 2.78290173D+01
                 7.14849979D-01-9.26031156D-01 2.44972089D+01
 Quadrupole    =-6.95935054D-01-8.00673539D-01 1.49660859D+00
                 2.96753451D-02 1.06309012D+00 1.11458776D+00
 VibFq2-Diag1:  N=     24 IV=           9 MDV=  1879013140 NE2=    78292213
 Full mass-weighted force constant matrix:
 Low frequencies ----1747.0930   -8.6694   -5.3055   -0.0009   -0.0007   -0.0004
 Low frequencies ---   12.3864   68.8924  168.2698
 OrtVCM:  Ph=1 IPass= 1 DotMx1= 0.00D+00
 OrtVCM:  IS=    1 I=    1 IndO=    1 Dot= 1.00D+00 DotN= 1.00D+00 ElMax1= 5.46D-01 ElMax1N= 5.46D-01
 OrtVCM:  Ph=2 NNew=    0 IAdd=    2 IPass= 1 DotMx2= 0.00D+00
 OrtVCM:  IS=    1 I=    2 IndO=    2 Dot= 1.00D+00 DotN= 1.00D+00 ElMax1= 5.46D-01 ElMax1N= 5.46D-01
 OrtVCM:  Ph=2 NNew=    0 IAdd=    3 IPass= 1 DotMx2= 0.00D+00
 OrtVCM:  IS=    1 I=    3 IndO=    3 Dot= 1.00D+00 DotN= 1.00D+00 ElMax1= 5.46D-01 ElMax1N= 5.46D-01
 OrtVCM:  Ph=2 NNew=    0 IAdd=    4 IPass= 1 DotMx2= 3.47D-18
 OrtVCM:  IS=    1 I=    4 IndO=    4 Dot= 1.00D+00 DotN= 1.00D+00 ElMax1= 6.40D-01 ElMax1N= 6.40D-01
 OrtVCM:  Ph=2 NNew=    0 IAdd=    5 IPass= 1 DotMx2= 2.22D-16
 OrtVCM:  IS=    1 I=    5 IndO=    5 Dot= 1.00D+00 DotN= 1.00D+00 ElMax1= 7.48D-01 ElMax1N= 7.48D-01
 OrtVCM:  Ph=2 NNew=    0 IAdd=    6 IPass= 1 DotMx2= 2.57D-16
 OrtVCM:  IS=    1 I=    6 IndO=    6 Dot= 1.00D+00 DotN= 1.00D+00 ElMax1= 7.09D-01 ElMax1N= 7.09D-01
 OrtVCM:  Ph=1 IPass= 1 DotMx1= 6.40D-01
 OrtVCM:  Ph=1 IPass= 2 DotMx1= 1.25D-16
 OrtVCM:  IS=    1 I=    1 IndO=    7 Dot= 6.37D-01 DotN= 6.37D-01 ElMax1= 6.37D-01 ElMax1N= 6.37D-01
 OrtVCM:  Ph=2 NNew=    0 IAdd=    2 IPass= 1 DotMx2= 5.81D-02
 OrtVCM:  Ph=2 NNew=    0 IAdd=    2 IPass= 2 DotMx2= 1.04D-17
 OrtVCM:  IS=    1 I=    2 IndO=    8 Dot= 6.62D-01 DotN= 6.62D-01 ElMax1= 6.62D-01 ElMax1N= 6.62D-01
 OrtVCM:  Ph=2 NNew=    0 IAdd=    3 IPass= 1 DotMx2= 5.27D-02
 OrtVCM:  Ph=2 NNew=    0 IAdd=    3 IPass= 2 DotMx2= 1.39D-17
 OrtVCM:  IS=    1 I=    3 IndO=    9 Dot= 2.52D-01 DotN= 2.52D-01 ElMax1= 2.77D-01 ElMax1N= 2.77D-01
 OrtVCM:  Ph=2 NNew=    0 IAdd=    4 IPass= 1 DotMx2= 1.34D-01
 OrtVCM:  Ph=2 NNew=    0 IAdd=    4 IPass= 2 DotMx2= 2.08D-17
 OrtVCM:  IS=    1 I=    4 IndO=   10 Dot= 9.37D-01 DotN= 9.37D-01 ElMax1= 9.37D-01 ElMax1N= 9.37D-01
 OrtVCM:  Ph=2 NNew=    0 IAdd=    5 IPass= 1 DotMx2= 2.63D-01
 OrtVCM:  Ph=2 NNew=    0 IAdd=    5 IPass= 2 DotMx2= 5.55D-17
 OrtVCM:  IS=    1 I=    5 IndO=   11 Dot= 8.52D-01 DotN= 8.52D-01 ElMax1= 8.52D-01 ElMax1N= 8.52D-01
 OrtVCM:  Ph=2 NNew=    0 IAdd=    6 IPass= 1 DotMx2= 5.51D-01
 OrtVCM:  Ph=2 NNew=    0 IAdd=    6 IPass= 2 DotMx2= 8.33D-17
 OrtVCM:  IS=    1 I=    6 IndO=   12 Dot= 5.38D-01 DotN= 5.38D-01 ElMax1= 5.38D-01 ElMax1N= 5.38D-01
 OrtVCM:  Ph=2 NNew=    0 IAdd=    7 IPass= 1 DotMx2= 1.13D-01
 OrtVCM:  Ph=2 NNew=    0 IAdd=    7 IPass= 2 DotMx2= 6.94D-17
 OrtVCM:  IS=    1 I=    7 IndO=   13 Dot= 9.62D-01 DotN= 9.62D-01 ElMax1= 9.62D-01 ElMax1N= 9.62D-01
 OrtVCM:  Ph=2 NNew=    0 IAdd=    8 IPass= 1 DotMx2= 8.65D-02
 OrtVCM:  Ph=2 NNew=    0 IAdd=    8 IPass= 2 DotMx2= 6.94D-17
 OrtVCM:  IS=    1 I=    8 IndO=   14 Dot= 9.51D-01 DotN= 9.51D-01 ElMax1= 9.51D-01 ElMax1N= 9.51D-01
 OrtVCM:  Ph=2 NNew=    0 IAdd=    9 IPass= 1 DotMx2= 2.82D-01
 OrtVCM:  Ph=2 NNew=    0 IAdd=    9 IPass= 2 DotMx2= 1.11D-16
 OrtVCM:  IS=    1 I=    9 IndO=   15 Dot= 8.09D-01 DotN= 8.09D-01 ElMax1= 8.09D-01 ElMax1N= 8.09D-01
 OrtVCM:  Ph=2 NNew=    0 IAdd=   10 IPass= 1 DotMx2= 3.15D-01
 OrtVCM:  Ph=2 NNew=    0 IAdd=   10 IPass= 2 DotMx2= 1.11D-16
 OrtVCM:  IS=    1 I=   10 IndO=   16 Dot= 5.46D-01 DotN= 5.46D-01 ElMax1= 5.46D-01 ElMax1N= 5.46D-01
 OrtVCM:  Ph=2 NNew=    0 IAdd=   11 IPass= 1 DotMx2= 4.83D-01
 OrtVCM:  Ph=2 NNew=    0 IAdd=   11 IPass= 2 DotMx2= 1.05D-16
 OrtVCM:  IS=    1 I=   11 IndO=   17 Dot= 1.70D-01 DotN= 1.70D-01 ElMax1= 2.63D-01 ElMax1N= 2.63D-01
 OrtVCM:  Ph=2 NNew=    0 IAdd=   12 IPass= 1 DotMx2= 1.98D-01
 OrtVCM:  Ph=2 NNew=    0 IAdd=   12 IPass= 2 DotMx2= 1.11D-16
 OrtVCM:  IS=    1 I=   12 IndO=   18 Dot= 1.76D-01 DotN= 1.76D-01 ElMax1= 2.61D-01 ElMax1N= 2.61D-01
 OrtVCM:  Ph=2 NNew=    0 IAdd=   13 IPass= 1 DotMx2= 1.65D-01
 OrtVCM:  Ph=2 NNew=    0 IAdd=   13 IPass= 2 DotMx2= 5.55D-17
 OrtVCM:  IS=    1 I=   13 IndO=   19 Dot= 9.09D-01 DotN= 9.09D-01 ElMax1= 9.09D-01 ElMax1N= 9.09D-01
 OrtVCM:  Ph=2 NNew=    0 IAdd=   14 IPass= 1 DotMx2= 6.32D-01
 OrtVCM:  Ph=2 NNew=    0 IAdd=   14 IPass= 2 DotMx2= 1.04D-16
 OrtVCM:  IS=    1 I=   14 IndO=   20 Dot= 2.27D-01 DotN= 2.27D-01 ElMax1= 2.59D-01 ElMax1N= 2.59D-01
 OrtVCM:  Ph=2 NNew=    0 IAdd=   15 IPass= 1 DotMx2= 6.22D-01
 OrtVCM:  Ph=2 NNew=    0 IAdd=   15 IPass= 2 DotMx2= 2.78D-16
 OrtVCM:  IS=    1 I=   15 IndO=   21 Dot= 5.15D-01 DotN= 5.15D-01 ElMax1= 5.15D-01 ElMax1N= 5.15D-01
 OrtVCM:  Ph=2 NNew=    0 IAdd=   16 IPass= 1 DotMx2= 1.65D-01
 OrtVCM:  Ph=2 NNew=    0 IAdd=   16 IPass= 2 DotMx2= 5.55D-17
 OrtVCM:  IS=    1 I=   16 IndO=   22 Dot= 8.85D-01 DotN= 8.85D-01 ElMax1= 8.85D-01 ElMax1N= 8.85D-01
 OrtVCM:  Ph=2 NNew=    0 IAdd=   17 IPass= 1 DotMx2= 6.37D-01
 OrtVCM:  Ph=2 NNew=    0 IAdd=   17 IPass= 2 DotMx2= 2.60D-16
 OrtVCM:  IS=    1 I=   17 IndO=   23 Dot= 2.92D-02 DotN= 2.92D-02 ElMax1= 1.53D-01 ElMax1N= 1.53D-01
 OrtVCM:  Ph=2 NNew=    0 IAdd=   18 IPass= 1 DotMx2= 6.67D-01
 OrtVCM:  Ph=2 NNew=    0 IAdd=   18 IPass= 2 DotMx2= 5.94D-17
 OrtVCM:  IS=    1 I=   18 IndO=    0 Dot= 1.14D-31 DotN= 1.14D-31 ElMax1= 2.00D-16 ElMax1N= 2.00D-16
 SchOr2:  IPass= 1 Test2A= 1.00D-01 IOff=     0 NDo=    18 NNew=    17
 OrtVCM:  Ph=1 IPass= 1 DotMx1= 6.05D-01
 OrtVCM:  Ph=1 IPass= 2 DotMx1= 2.80D-16
 OrtVCM:  IS=    1 I=    1 IndO=    0 Dot= 1.94D-03 DotN= 1.94D-03 ElMax1= 3.00D-02 ElMax1N= 3.00D-02
 SchOr2:  IPass= 1 Test2A= 1.00D-01 IOff=    18 NDo=     1 NNew=     0
 OrtVCM:  Ph=1 IPass= 1 DotMx1= 7.09D-01
 OrtVCM:  Ph=1 IPass= 2 DotMx1= 5.34D-16
 OrtVCM:  IS=    1 I=    1 IndO=   24 Dot= 3.18D-02 DotN= 3.18D-02 ElMax1= 1.21D-01 ElMax1N= 1.21D-01
 SchOr2:  IPass= 1 Test2A= 1.00D-01 IOff=    19 NDo=     1 NNew=     1
 VibFq2-Diag2:  N=     18 IV=           9 MDV=  1879013140 NE2=   104389618
 ******    1 imaginary frequencies (negative Signs) ****** 
 Dipole derivative wrt mode   1: -6.17950D+01  2.82921D+00 -1.39589D-01
 Vibrational polarizability contributions from mode   1      33.6673023       0.0705718       0.0001718
 Dipole derivative wrt mode   2:  2.73851D+00  5.57379D+00  5.51979D+00
 Vibrational polarizability contributions from mode   2      43.0645770     178.3993338     174.9597155
 Dipole derivative wrt mode   3: -2.84274D-01  2.21397D-01 -6.70633D-01
 Vibrational polarizability contributions from mode   3       0.0768067       0.0465875       0.4274602
 Dipole derivative wrt mode   4:  1.26170D+00 -7.27400D-01  5.83393D+00
 Vibrational polarizability contributions from mode   4       0.7813412       0.2597020      16.7051758
 Dipole derivative wrt mode   5:  1.74715D+00  1.83457D+00 -3.28324D+00
 Vibrational polarizability contributions from mode   5       0.3987831       0.4396870       1.4082502
 Dipole derivative wrt mode   6: -7.52840D+00 -4.84168D+00 -4.60058D-01
 Vibrational polarizability contributions from mode   6       3.5330313       1.4612795       0.0131937
 Dipole derivative wrt mode   7:  9.39272D+00 -4.00908D+00  1.49768D+00
 Vibrational polarizability contributions from mode   7       4.3705366       0.7962345       0.1111192
 Dipole derivative wrt mode   8: -4.22027D+00  1.17126D+01  1.49472D+00
 Vibrational polarizability contributions from mode   8       0.6733253       5.1862358       0.0844630
 Dipole derivative wrt mode   9:  9.48521D+00 -4.13309D+00  1.86241D+00
 Vibrational polarizability contributions from mode   9       1.8116460       0.3439763       0.0698442
 Dipole derivative wrt mode  10: -2.12247D-01 -2.88224D+00  2.22634D+00
 Vibrational polarizability contributions from mode  10       0.0008751       0.1613708       0.0962824
 Dipole derivative wrt mode  11:  7.43176D+00 -5.02711D+00  5.01611D+00
 Vibrational polarizability contributions from mode  11       0.7703224       0.3524728       0.3509320
 Dipole derivative wrt mode  12:  4.54498D-01  2.56882D+00 -1.43449D+00
 Vibrational polarizability contributions from mode  12       0.0026262       0.0838924       0.0261606
 Dipole derivative wrt mode  13:  5.73922D+00  1.39612D+00  3.15064D+00
 Vibrational polarizability contributions from mode  13       0.3618392       0.0214119       0.1090455
 Dipole derivative wrt mode  14:  2.12631D+00  4.05836D-01 -6.05325D-01
 Vibrational polarizability contributions from mode  14       0.0431037       0.0015702       0.0034933
 Dipole derivative wrt mode  15:  2.08511D+00  2.16685D+00 -2.73453D+00
 Vibrational polarizability contributions from mode  15       0.0103189       0.0111439       0.0177478
 Dipole derivative wrt mode  16: -2.62620D+00  6.77285D-01  1.95998D-01
 Vibrational polarizability contributions from mode  16       0.0150450       0.0010006       0.0000838
 Dipole derivative wrt mode  17:  4.48052D+00 -8.91763D-01  7.45516D-01
 Vibrational polarizability contributions from mode  17       0.0428594       0.0016978       0.0011866
 Dipole derivative wrt mode  18: -5.83071D-01  2.90414D-01  3.75844D+00
 Vibrational polarizability contributions from mode  18       0.0006859       0.0001702       0.0284988
 Diagonal vibrational polarizability:
       89.6250252     187.6383388     194.4128244
 NorSel:  MapVib=      1      2      3      4      5      6      7      8      9     10
 NorSel:  MapVib=     11     12     13     14     15     16     17     18
 Harmonic frequencies (cm**-1), IR intensities (KM/Mole), Raman scattering
 activities (A**4/AMU), depolarization ratios for plane and unpolarized
 incident light, reduced masses (AMU), force constants (mDyne/A),
 and normal coordinates:
                      1                      2                      3
                      A                      A                      A
 Frequencies --  -1747.0930                68.4574               168.2689
 Red. masses --      1.0819                 1.1455                 3.4343
 Frc consts  --      1.9457                 0.0032                 0.0573
 IR Inten    --   3826.6507                69.0346                 0.5796
  Atom  AN      X      Y      Z        X      Y      Z        X      Y      Z
     1   7    -0.03  -0.02  -0.00    -0.00   0.01   0.05    -0.05   0.18  -0.00
     2   1     0.04  -0.08   0.05    -0.01  -0.06   0.08    -0.15   0.14   0.02
     3   1     0.92  -0.34   0.08    -0.02  -0.00  -0.03    -0.00   0.32   0.01
     4   7     0.00   0.04   0.00     0.01  -0.00  -0.03     0.29  -0.07   0.02
     5   1     0.00  -0.05   0.01    -0.04  -0.03  -0.07     0.18  -0.13  -0.06
     6   1     0.09  -0.09  -0.04     0.06   0.02  -0.07     0.41  -0.29  -0.04
     7   7    -0.05   0.02  -0.01    -0.03  -0.05  -0.06    -0.23  -0.10  -0.01
     8   1     0.00   0.03  -0.01     0.27   0.64   0.69    -0.59  -0.06  -0.06
                      4                      5                      6
                      A                      A                      A
 Frequencies --    234.1544               453.8676               657.0459
 Red. masses --      1.0792                 1.2982                 2.3974
 Frc consts  --      0.0349                 0.1576                 0.6098
 IR Inten    --     36.1558                17.1979                80.3304
  Atom  AN      X      Y      Z        X      Y      Z        X      Y      Z
     1   7     0.01  -0.01  -0.03     0.09  -0.04  -0.01    -0.19   0.12  -0.04
     2   1     0.06   0.02  -0.04     0.55  -0.39   0.18     0.33  -0.48   0.28
     3   1     0.03  -0.01  -0.07    -0.04  -0.05  -0.42     0.04   0.03  -0.30
     4   7     0.02   0.01  -0.04    -0.00  -0.03   0.01    -0.03   0.01   0.01
     5   1     0.56  -0.43   0.32    -0.14   0.29  -0.07     0.08  -0.22   0.07
     6   1    -0.46   0.30   0.24    -0.04   0.15   0.01     0.04  -0.28   0.01
     7   7    -0.03   0.00   0.03    -0.08   0.06   0.02     0.22  -0.07   0.01
[...]
      1        7          -0.000000243   -0.000000095    0.000000065
      2        1           0.000000537    0.000000333   -0.000000923
      3        1          -0.000000552   -0.000000711   -0.000000904
      4        7           0.000000290    0.000000325    0.000000748
      5        1           0.000000430    0.000000547    0.000001348
      6        1          -0.000000623   -0.000000551    0.000001273
      7        7           0.000000074   -0.000000346   -0.000000942
      8        1           0.000000087    0.000000497   -0.000000666
 -------------------------------------------------------------------
 Cartesian Forces:  Max     0.000001348 RMS     0.000000646
 ***** Axes restored to original set *****
 Rotating derivatives, DoTrsp=F IDiff=-2 LEDeriv=   1204 LFDPrp=       0 LDFDPr=       0.
 -------------------------------------------------------------------
 Center     Atomic                   Forces (Hartrees/Bohr)
 Number     Number              X              Y              Z
 -------------------------------------------------------------------
      1        7           0.000000242    0.000000096   -0.000000065
      2        1          -0.000000537   -0.000000333    0.000000924
      3        1           0.000000548    0.000000716    0.000000902
      4        7          -0.000000288   -0.000000328   -0.000000747
      5        1          -0.000000425   -0.000000553   -0.000001347
      6        1           0.000000623    0.000000549   -0.000001274
      7        7          -0.000000077    0.000000348    0.000000940
      8        1          -0.000000086   -0.000000495    0.000000667
 -------------------------------------------------------------------
 Cartesian Forces:  Max     0.000001347 RMS     0.000000646
 Z-matrix is all fixed cartesians, so copy forces.
 Force constants in Cartesian coordinates: 
                1             2             3             4             5 
      1  0.254893D+00
      2  0.911773D-01  0.374789D+00
      3 -0.423453D-01  0.177301D+00  0.465026D+00
      4 -0.412698D-01 -0.518383D-02  0.195933D-01  0.523040D-01
      5 -0.164097D-01 -0.974393D-01 -0.125918D+00  0.163780D-01  0.126315D+00
      6  0.206739D-01 -0.183155D+00 -0.353634D+00 -0.162152D-01  0.168027D+00
      7  0.474079D-01  0.383750D-01  0.162094D-01 -0.296819D-02  0.811896D-02
      8 -0.209832D-01 -0.577099D-01 -0.215813D-01  0.138004D-01 -0.561198D-02
      9  0.263744D-02 -0.880009D-02 -0.314635D-01  0.244470D-01 -0.809374D-02
     10 -0.123264D+00 -0.137511D+00  0.583129D-03 -0.709738D-02 -0.668792D-02
     11 -0.478549D-01 -0.185811D+00 -0.291661D-01 -0.167497D-01 -0.218812D-01
     12  0.378463D-01  0.134583D-01 -0.985484D-01 -0.247267D-01 -0.341571D-01
     13 -0.151531D-01  0.450975D-02  0.128067D-01  0.365610D-03  0.539774D-04
     14 -0.323617D-01 -0.161386D-01  0.309824D-01 -0.162185D-03  0.282527D-02
     15  0.266470D-02  0.529720D-03  0.361075D-02 -0.209506D-02 -0.618411D-03
     16 -0.754719D-02 -0.467554D-02 -0.129258D-01 -0.141445D-02 -0.329244D-03
     17 -0.310337D-01 -0.192782D-01 -0.323247D-01 -0.661916D-02 -0.485900D-02
     18 -0.307713D-02 -0.154608D-02  0.106171D-01 -0.532103D-03  0.166838D-02
     19 -0.110549D+00  0.108888D-01  0.921916D-02 -0.870534D-03 -0.874124D-03
     20  0.528630D-01  0.184538D-02  0.235043D-02 -0.223954D-02  0.969586D-03
     21 -0.165193D-01  0.410189D-02  0.459690D-02 -0.110499D-02 -0.953386D-03
     22 -0.451876D-02  0.241947D-02 -0.314052D-02  0.950668D-03 -0.249873D-03
     23  0.460295D-02 -0.256759D-03 -0.164325D-02  0.776061D-03 -0.318031D-03
     24 -0.188064D-02 -0.188962D-02 -0.204253D-03  0.633727D-03  0.454743D-04
                6             7             8             9            10 
      6  0.350100D+00
      7 -0.131617D-01 -0.798464D-01
      8  0.394979D-02  0.551864D-01  0.555317D-01
      9 -0.611778D-02 -0.160047D-01  0.542606D-02  0.602575D-01
     10  0.417867D-02 -0.257853D-01 -0.247997D-01  0.271235D-03  0.485513D+00
     11  0.125942D-01 -0.764560D-01  0.258415D-01 -0.175947D-02  0.201171D+00
     12  0.229322D-02 -0.477417D-02  0.111280D-01 -0.210940D-02 -0.189001D-01
     13 -0.275123D-03  0.254108D-03 -0.399910D-02  0.131163D-02 -0.175182D+00
     14  0.982712D-03  0.600005D-02 -0.450387D-02  0.137509D-02 -0.945693D-02
     15  0.383007D-02 -0.600828D-02  0.146654D-02 -0.740026D-04  0.173184D+00
     16  0.375766D-03 -0.106905D-01  0.126018D-02 -0.244626D-02 -0.158324D+00
     17 -0.239521D-03  0.988981D-02 -0.397792D-02  0.397503D-04 -0.192907D-01
     18  0.143395D-02  0.849031D-02 -0.286164D-02  0.145745D-03 -0.162229D+00
     19  0.423353D-02  0.696709D-01 -0.302471D-01 -0.149080D-02  0.202952D-02
     20 -0.192153D-02 -0.325774D-01 -0.651771D-02  0.346988D-02 -0.189328D-02
     21  0.175610D-02  0.902622D-02  0.670972D-03 -0.194645D-01  0.362632D-02
     22  0.190123D-03  0.195743D-02  0.978210D-02 -0.872557D-02  0.210921D-02
     23 -0.237657D-03 -0.853681D-02 -0.305181D-02  0.834253D-02 -0.153126D-02
     24  0.338852D-03  0.622293D-02  0.180156D-02 -0.117402D-02 -0.713359D-03
               11            12            13            14            15 
     11  0.231113D+00
     12  0.390707D-01  0.751050D+00
     13 -0.363292D-01  0.198224D+00  0.178235D+00
     14 -0.198212D-01 -0.347204D-01  0.320563D-01  0.381158D-01
     15 -0.154224D-02 -0.320584D+00 -0.191692D+00  0.252138D-02  0.334815D+00
     16 -0.472051D-01 -0.188822D+00  0.122979D-01  0.587298D-02  0.226323D-01
     17 -0.161148D-01  0.817284D-02  0.346355D-02 -0.229859D-02 -0.125568D-02
     18 -0.249360D-01 -0.333727D+00 -0.207441D-01 -0.672695D-05 -0.223091D-01
     19  0.235215D-01  0.109940D-04 -0.105303D-02 -0.160521D-02  0.979832D-03
     20 -0.114061D-01 -0.223100D-02  0.295163D-03  0.145661D-02 -0.942690D-03
     21  0.548393D-02  0.142036D-02  0.497989D-03 -0.106515D-02  0.736658D-03
     22 -0.972674D-04  0.114195D-02  0.234675D-03 -0.343233D-03  0.335365D-03
     23 -0.191951D-02 -0.721462D-03 -0.504295D-04  0.364603D-03 -0.158624D-03
     24  0.254949D-03  0.205121D-03 -0.128254D-03 -0.692975D-04 -0.258373D-04
               16            17            18            19            20 
     16  0.162902D+00
     17  0.468174D-01  0.446343D-01
     18  0.180248D+00  0.262480D-01  0.344514D+00
     19  0.258225D-02 -0.316144D-02 -0.212900D-02  0.667324D-01
     20 -0.110570D-02  0.143927D-02  0.110050D-02  0.337735D-01  0.201590D+00
     21  0.109771D-02 -0.630683D-03 -0.607677D-03 -0.531301D-01 -0.197831D+00
     22  0.193768D-03 -0.657371D-04 -0.261083D-04 -0.285429D-01 -0.491158D-01
     23 -0.634985D-03  0.454895D-03  0.333566D-03 -0.322959D-01 -0.189377D+00
     24 -0.159440D-03 -0.993528D-05 -0.671362D-04  0.423063D-01  0.196006D+00
               21            22            23            24 
     21  0.212799D+00
     22  0.565061D-01  0.276159D-01
     23  0.190224D+00  0.376704D-01  0.194104D+00
     24 -0.201237D+00 -0.462813D-01 -0.196139D+00  0.202164D+00
 Final forces over variables, Energy=-1.67089513D+02:
  2.42317699D-07-5.37002548D-07 5.47623304D-07-2.87566632D-07
 -4.25479365D-07 6.22642722D-07-7.66218744D-08-8.59133144D-08
  9.58138855D-08-3.32608768D-07 7.15852423D-07-3.28114189D-07
 -5.53334597D-07 5.49073974D-07 3.48272430D-07-4.94955301D-07
 -6.46795785D-08 9.23538691D-07 9.02285448D-07-7.47302019D-07
 -1.34736284D-06-1.27415514D-06 9.40430633D-07 6.67244849D-07
 Leave Link  716 at Wed Feb 19 14:58:43 2020, MaxMem=  1879048192 cpu:               1.8 elap:               0.3
 (Enter /opt/g16/l103.exe)

 GradGradGradGradGradGradGradGradGradGradGradGradGradGradGradGradGradGrad
 Berny optimization.
 Search for a local minimum.
 Step number   1 out of a maximum of    2
 All quantities printed in internal units (Hartrees-Bohrs-Radians)
 Second derivative matrix not updated -- analytic derivatives used.
 ITU=  0
     Eigenvalues ---   -0.16753   0.00026   0.00261   0.00410   0.01053
     Eigenvalues ---    0.04435   0.05306   0.07609   0.08929   0.09784
     Eigenvalues ---    0.14259   0.16166   0.25751   0.44823   0.68633
     Eigenvalues ---    0.78214   0.94911   1.01404
 Eigenvalue     1 is  -1.68D-01 should be greater than     0.000000 Eigenvector:
                          X3        Y3        X7        Y4        X1
   1                    0.84975  -0.32167  -0.27901   0.15138  -0.12495
                          X6        Y6        Y7        Y2        Y5
   1                    0.11708  -0.10140   0.09197  -0.07825  -0.06260
 Angle between quadratic step and forces=  82.47 degrees.
 Linear search not attempted -- first point.
 B after Tr=    -0.000026   -0.000044   -0.000050
         Rot=    1.000000   -0.000007   -0.000014    0.000011 Ang=  -0.00 deg.
 Variable       Old X    -DE/DX   Delta X   Delta X   Delta X     New X
                                 (Linear)    (Quad)   (Total)
    X1       -0.84536   0.00000   0.00000  -0.00000  -0.00000  -0.84536
    Y1        1.28564   0.00000   0.00000   0.00002  -0.00001   1.28563
    Z1       -0.17370  -0.00000   0.00000   0.00013   0.00012  -0.17358
    X2       -0.85524  -0.00000   0.00000   0.00005   0.00011  -0.85513
    Y2        2.16304  -0.00000   0.00000  -0.00017  -0.00022   2.16283
    Z2        1.53543   0.00000   0.00000   0.00022   0.00023   1.53566
    X3        1.27618   0.00000   0.00000  -0.00005  -0.00008   1.27610
    Y3        0.72160   0.00000   0.00000  -0.00003  -0.00010   0.72150
    Z3       -0.43548   0.00000   0.00000  -0.00005  -0.00013  -0.43561
    X4       -2.32016  -0.00000   0.00000  -0.00003  -0.00007  -2.32023
    Y4       -0.89047  -0.00000   0.00000   0.00001   0.00002  -0.89045
    Z4       -0.00537  -0.00000   0.00000  -0.00005  -0.00005  -0.00542
    X5       -3.43016  -0.00000   0.00000  -0.00014  -0.00015  -3.43031
    Y5       -0.95073  -0.00000   0.00000  -0.00001  -0.00000  -0.95073
    Z5        1.54278  -0.00000   0.00000  -0.00014  -0.00011   1.54268
    X6       -3.36597   0.00000   0.00000   0.00008  -0.00001  -3.36599
    Y6       -1.08186   0.00000   0.00000   0.00010   0.00015  -1.08171
    Z6       -1.58871  -0.00000   0.00000  -0.00013  -0.00010  -1.58882
    X7        3.61095  -0.00000   0.00000  -0.00008  -0.00011   3.61084
    Y7       -0.27483   0.00000   0.00000  -0.00022  -0.00034  -0.27518
    Z7       -0.12540   0.00000   0.00000  -0.00028  -0.00043  -0.12584
    X8        3.28248  -0.00000   0.00000   0.00034   0.00031   3.28279
    Y8       -1.61420  -0.00000   0.00000   0.00063   0.00050  -1.61370
    Z8        1.25592   0.00000   0.00000   0.00065   0.00049   1.25641
         Item               Value     Threshold  Converged?
 Maximum Force            0.000001     0.000450     YES
 RMS     Force            0.000001     0.000300     YES
 Maximum Displacement     0.000500     0.001800     YES
 RMS     Displacement     0.000217     0.001200     YES
 Predicted change in Energy=-2.486971D-10
 Optimization completed.
    -- Stationary point found.
 GradGradGradGradGradGradGradGradGradGradGradGradGradGradGradGradGradGrad

 Leave Link  103 at Wed Feb 19 14:58:43 2020, MaxMem=  1879048192 cpu:               0.3 elap:               0.0
 (Enter /opt/g16/l9999.exe)

 ----------------------------------------------------------------------

 Electric dipole moment (input orientation):
 (Debye = 10**-18 statcoulomb cm , SI units = C m)
                  (au)            (Debye)         (10**-30 SI)
   Tot        0.149479D+01      0.379937D+01      0.126733D+02
   x         -0.120315D+01     -0.305810D+01     -0.102007D+02
   y         -0.227988D+00     -0.579488D+00     -0.193296D+01
   z          0.857234D+00      0.217887D+01      0.726793D+01

 Dipole polarizability, Alpha (input orientation).
 (esu units = cm**3 , SI units = C**2 m**2 J**-1)
 Alpha(0;0):
               (au)            (10**-24 esu)      (10**-40 SI)
   iso        0.451972D+02      0.669753D+01      0.745200D+01
   aniso      0.582736D+02      0.863526D+01      0.960802D+01
   xx         0.833141D+02      0.123459D+02      0.137366D+02
   yx        -0.616575D+01     -0.913671D+00     -0.101660D+01
   yy         0.277718D+02      0.411535D+01      0.457894D+01
   zx         0.832094D+00      0.123304D+00      0.137194D+00
   zy        -0.943436D+00     -0.139803D+00     -0.155552D+00
   zz         0.245057D+02      0.363137D+01      0.404044D+01

 ----------------------------------------------------------------------

 Dipole orientation:
     7         -0.73741430          1.30609225          0.38472285
     1          0.56399042          2.43197518          1.23900744
     1          0.34392094          0.54493917         -1.38698703
     7         -1.29971731         -0.69710001          2.00022505
     1         -0.70189263         -0.43374039          3.79068595
     1         -3.17442447         -1.04556395          1.96316362
     7          2.04470679         -0.57162669         -2.93643390
     1          3.06779573         -1.65487864         -1.67559793

 Electric dipole moment (dipole orientation):
 (Debye = 10**-18 statcoulomb cm , SI units = C m)
                  (au)            (Debye)         (10**-30 SI)
   Tot        0.149479D+01      0.379937D+01      0.126733D+02
   x          0.000000D+00      0.000000D+00      0.000000D+00
   y          0.000000D+00      0.000000D+00      0.000000D+00
   z          0.149479D+01      0.379937D+01      0.126733D+02

 Dipole polarizability, Alpha (dipole orientation).
 (esu units = cm**3 , SI units = C**2 m**2 J**-1)
 Alpha(0;0):
               (au)            (10**-24 esu)      (10**-40 SI)
   iso        0.451972D+02      0.669753D+01      0.745200D+01
   aniso      0.582736D+02      0.863526D+01      0.960802D+01
   xx         0.463490D+02      0.686822D+01      0.764193D+01
   yx        -0.727570D+01     -0.107815D+01     -0.119960D+01
   yy         0.286784D+02      0.424970D+01      0.472843D+01
   zx        -0.277408D+02     -0.411076D+01     -0.457383D+01
   zy         0.736786D+01      0.109180D+01      0.121480D+01
   zz         0.605640D+02      0.897466D+01      0.998566D+01

 ----------------------------------------------------------------------

 Test job not archived.
 1\1\GINC-NODE06\Freq\UwB97XD\def2TZVP\H5N3(3)\ALONGD\19-Feb-2020\0\\#P
  guess=read uwb97xd/def2tzvp freq iop(7/33=1) scf=(tight, direct) inte
 gral=(grid=ultrafine, Acc2E=12) scf=xqc iop(2/9=2000)\\name\\0,3\N,-0.
 447345,0.68033,-0.091919\H,-0.452573,1.144632,0.812515\H,0.675325,0.38
 1852,-0.230444\N,-1.227777,-0.471215,-0.00284\H,-1.815164,-0.503104,0.
 816406\H,-1.781195,-0.572496,-0.84071\N,1.910833,-0.145436,-0.06636\H,
 1.737011,-0.854197,0.664606\\Version=ES64L-G16RevB.01\State=3-A\HF=-16
 7.0895132\S2=2.015298\S2-1=0.\S2A=2.000097\RMSD=3.335e-09\RMSF=6.463e-
 07\ZeroPoint=0.058474\Thermal=0.0638397\Dipole=-1.2031477,-0.2279882,0
 .8572337\DipoleDeriv=1.6152961,0.034996,-0.0315276,0.9974017,-0.272679
 ,0.0758174,-0.2237393,0.1132185,-0.1839183,0.1106461,-0.0633905,0.0130
 319,0.0060607,0.2075192,-0.0191133,-0.1322159,-0.0817573,0.0234936,-1.
 8188075,0.2120277,-0.0272906,0.6270538,0.0946221,-0.0073455,0.1209593,
 -0.0733797,0.2114818,-0.4903456,0.161918,0.0192277,-1.471776,-0.358810
 5,0.0056739,0.0458614,0.0811,-0.1485301,0.0933846,-0.1075295,0.0691481
 ,0.0320073,0.2196505,-0.0799516,-0.0398069,-0.0293023,0.1308102,-0.078
 7151,-0.0751326,-0.0581329,0.203946,0.2274157,0.05702,0.1309183,0.0005
 621,0.1455612,0.3231018,-0.100122,-0.0647649,-0.2886285,-0.229505,-0.2
 140256,-0.0091599,-0.2026307,-0.2480196,0.2454397,-0.0627672,0.0803083
 ,-0.106065,0.1117871,0.1819247,0.1071829,0.1921893,0.0691212\Polar=83.
 3140506,-6.1657546,27.7717578,0.8320938,-0.943436,24.5056692\Quadrupol
 e=-0.6995452,-0.7932239,1.4927692,0.031705,1.0549423,1.1263194\PG=C01 
 [X(H5N3)]\NImag=1\\0.25489332,0.09117727,0.37478871,-0.04234534,0.1773
 0088,0.46502552,-0.04126976,-0.00518383,0.01959330,0.05230404,-0.01640
 973,-0.09743926,-0.12591829,0.01637797,0.12631457,0.02067389,-0.183155
 02,-0.35363404,-0.01621518,0.16802704,0.35009964,0.04740794,0.03837495
 ,0.01620937,-0.00296819,0.00811896,-0.01316168,-0.07984643,-0.02098315
 ,-0.05770993,-0.02158128,0.01380040,-0.00561198,0.00394979,0.05518641,
 0.05553171,0.00263744,-0.00880009,-0.03146350,0.02444703,-0.00809374,-
 0.00611778,-0.01600470,0.00542606,0.06025749,-0.12326386,-0.13751083,0
 .00058313,-0.00709738,-0.00668792,0.00417867,-0.02578525,-0.02479972,0
 .00027123,0.48551332,-0.04785492,-0.18581133,-0.02916611,-0.01674970,-
 0.02188115,0.01259418,-0.07645602,0.02584151,-0.00175947,0.20117065,0.
 23111256,0.03784634,0.01345832,-0.09854844,-0.02472672,-0.03415707,0.0
 0229322,-0.00477417,0.01112799,-0.00210940,-0.01890011,0.03907075,0.75
 104975,-0.01515308,0.00450975,0.01280673,0.00036561,0.00005398,-0.0002
 7512,0.00025411,-0.00399910,0.00131163,-0.17518169,-0.03632919,0.19822
 350,0.17823547,-0.03236175,-0.01613864,0.03098235,-0.00016218,0.002825
 27,0.00098271,0.00600005,-0.00450387,0.00137509,-0.00945693,-0.0198211
 7,-0.03472036,0.03205628,0.03811580,0.00266470,0.00052972,0.00361075,-
 0.00209506,-0.00061841,0.00383007,-0.00600828,0.00146654,-0.00007400,0
 .17318361,-0.00154224,-0.32058401,-0.19169242,0.00252138,0.33481545,-0
 .00754719,-0.00467554,-0.01292582,-0.00141445,-0.00032924,0.00037577,-
 0.01069049,0.00126018,-0.00244626,-0.15832387,-0.04720505,-0.18882178,
 0.01229793,0.00587298,0.02263226,0.16290206,-0.03103369,-0.01927817,-0
 .03232474,-0.00661916,-0.00485900,-0.00023952,0.00988981,-0.00397792,0
 .00003975,-0.01929069,-0.01611479,0.00817284,0.00346355,-0.00229859,-0
 .00125568,0.04681737,0.04463431,-0.00307713,-0.00154608,0.01061706,-0.
 00053210,0.00166838,0.00143395,0.00849031,-0.00286164,0.00014575,-0.16
 222948,-0.02493597,-0.33372660,-0.02074405,-0.00000673,-0.02230908,0.1
 8024757,0.02624797,0.34451374,-0.11054861,0.01088877,0.00921916,-0.000
 87053,-0.00087412,0.00423353,0.06967088,-0.03024711,-0.00149080,0.0020
 2952,0.02352150,0.00001099,-0.00105303,-0.00160521,0.00097983,0.002582
 25,-0.00316144,-0.00212900,0.06673238,0.05286303,0.00184538,0.00235043
 ,-0.00223954,0.00096959,-0.00192153,-0.03257735,-0.00651771,0.00346988
 ,-0.00189328,-0.01140613,-0.00223100,0.00029516,0.00145661,-0.00094269
 ,-0.00110570,0.00143927,0.00110050,0.03377351,0.20159004,-0.01651927,0
 .00410189,0.00459690,-0.00110499,-0.00095339,0.00175610,0.00902622,0.0
 0067097,-0.01946453,0.00362632,0.00548393,0.00142036,0.00049799,-0.001
 06515,0.00073666,0.00109771,-0.00063068,-0.00060768,-0.05313006,-0.197
 83116,0.21279921,-0.00451876,0.00241947,-0.00314052,0.00095067,-0.0002
 4987,0.00019012,0.00195743,0.00978210,-0.00872557,0.00210921,-0.000097
 27,0.00114195,0.00023468,-0.00034323,0.00033537,0.00019377,-0.00006574
 ,-0.00002611,-0.02854287,-0.04911582,0.05650608,0.02761588,0.00460295,
 -0.00025676,-0.00164325,0.00077606,-0.00031803,-0.00023766,-0.00853681
 ,-0.00305181,0.00834253,-0.00153126,-0.00191951,-0.00072146,-0.0000504
 3,0.00036460,-0.00015862,-0.00063499,0.00045490,0.00033357,-0.03229589
 ,-0.18937705,0.19022358,0.03767036,0.19410367,-0.00188064,-0.00188962,
 -0.00020425,0.00063373,0.00004547,0.00033885,0.00622293,0.00180156,-0.
 00117402,-0.00071336,0.00025495,0.00020512,-0.00012825,-0.00006930,-0.
 00002584,-0.00015944,-0.00000994,-0.00006714,0.04230635,0.19600555,-0.
 20123702,-0.04628131,-0.19613868,0.20216429\\-0.00000024,-0.00000010,0
 .00000006,0.00000054,0.00000033,-0.00000092,-0.00000055,-0.00000072,-0
 .00000090,0.00000029,0.00000033,0.00000075,0.00000043,0.00000055,0.000
 00135,-0.00000062,-0.00000055,0.00000127,0.00000008,-0.00000035,-0.000
 00094,0.00000009,0.00000049,-0.00000067\\\@


 YOU CAN WIPE THE SLATE CLEAN, BUT YOU'LL STILL
 HAVE TO EAT A LITTLE CHALK DUST.
 Job cpu time:       0 days  0 hours 16 minutes  6.0 seconds.
 Elapsed time:       0 days  0 hours  2 minutes  1.1 seconds.
 File lengths (MBytes):  RWF=     25 Int=      0 D2E=      0 Chk=      3 Scr=      1
 Normal termination of Gaussian 16 at Wed Feb 19 14:58:43 2020.
