 Entering Gaussian System, Link 0=g16
 Initial command:
 /gpfs/apps/medsci/stacks/noOS/software/gaussian/g16.a03.avx2/g16/l1.exe "/localscratch/grinba/g16/a36192-534653/Gau-232068.inp" -scrdir="/localscratch/grinba/g16/a36192-534653/"
 Default is to use a total of  40 processors:
                               40 via shared-memory
                                1 via Linda
 Entering Link 1 = /gpfs/apps/medsci/stacks/noOS/software/gaussian/g16.a03.avx2/g16/l1.exe PID=    232069.
  
 Copyright (c) 1988,1990,1992,1993,1995,1998,2003,2009,2016,
            Gaussian, Inc.  All Rights Reserved.
  
 This is part of the Gaussian(R) 16 program.  It is based on
 the Gaussian(R) 09 system (copyright 2009, Gaussian, Inc.),
 the Gaussian(R) 03 system (copyright 2003, Gaussian, Inc.),
 the Gaussian(R) 98 system (copyright 1998, Gaussian, Inc.),
 the Gaussian(R) 94 system (copyright 1995, Gaussian, Inc.),
 the Gaussian 92(TM) system (copyright 1992, Gaussian, Inc.),
 the Gaussian 90(TM) system (copyright 1990, Gaussian, Inc.),
 the Gaussian 88(TM) system (copyright 1988, Gaussian, Inc.),
 the Gaussian 86(TM) system (copyright 1986, Carnegie Mellon
 University), and the Gaussian 82(TM) system (copyright 1983,
 Carnegie Mellon University). Gaussian is a federally registered
 trademark of Gaussian, Inc.
  
 This software contains proprietary and confidential information,
 including trade secrets, belonging to Gaussian, Inc.
  
 This software is provided under written license and may be
 used, copied, transmitted, or stored only in accord with that
 written license.
  
 The following legend is applicable only to US Government
 contracts under FAR:
  
                    RESTRICTED RIGHTS LEGEND
  
 Use, reproduction and disclosure by the US Government is
 subject to restrictions as set forth in subparagraphs (a)
 and (c) of the Commercial Computer Software - Restricted
 Rights clause in FAR 52.227-19.
  
 Gaussian, Inc.
 340 Quinnipiac St., Bldg. 40, Wallingford CT 06492
  
  
 ---------------------------------------------------------------
 Warning -- This program may not be used in any manner that
 competes with the business of Gaussian, Inc. or will provide
 assistance to any competitor of Gaussian, Inc.  The licensee
 of this program is prohibited from giving any competitor of
 Gaussian, Inc. access to this program.  By using this program,
 the user acknowledges that Gaussian, Inc. is engaged in the
 business of creating and licensing software in the field of
 computational chemistry and represents and warrants to the
 licensee that it is not a competitor of Gaussian, Inc. and that
 it will not use this program in any manner prohibited above.
 ---------------------------------------------------------------
  

 Cite this work as:
 Gaussian 16, Revision A.03,
 M. J. Frisch, G. W. Trucks, H. B. Schlegel, G. E. Scuseria, 
 M. A. Robb, J. R. Cheeseman, G. Scalmani, V. Barone, 
 G. A. Petersson, H. Nakatsuji, X. Li, M. Caricato, A. V. Marenich, 
 J. Bloino, B. G. Janesko, R. Gomperts, B. Mennucci, H. P. Hratchian, 
 J. V. Ortiz, A. F. Izmaylov, J. L. Sonnenberg, D. Williams-Young, 
 F. Ding, F. Lipparini, F. Egidi, J. Goings, B. Peng, A. Petrone, 
 T. Henderson, D. Ranasinghe, V. G. Zakrzewski, J. Gao, N. Rega, 
 G. Zheng, W. Liang, M. Hada, M. Ehara, K. Toyota, R. Fukuda, 
 J. Hasegawa, M. Ishida, T. Nakajima, Y. Honda, O. Kitao, H. Nakai, 
 T. Vreven, K. Throssell, J. A. Montgomery, Jr., J. E. Peralta, 
 F. Ogliaro, M. J. Bearpark, J. J. Heyd, E. N. Brothers, K. N. Kudin, 
 V. N. Staroverov, T. A. Keith, R. Kobayashi, J. Normand, 
 K. Raghavachari, A. P. Rendell, J. C. Burant, S. S. Iyengar, 
 J. Tomasi, M. Cossi, J. M. Millam, M. Klene, C. Adamo, R. Cammi, 
 J. W. Ochterski, R. L. Martin, K. Morokuma, O. Farkas, 
 J. B. Foresman, and D. J. Fox, Gaussian, Inc., Wallingford CT, 2016.
 
 ******************************************
 Gaussian 16:  ES64L-G16RevA.03 25-Dec-2016
                19-Feb-2020 
 ******************************************
 %chk=check.chk
 %mem=14336mb
 %NProcShared=40
 Will use up to   40 processors via shared memory.
 ----------------------------------------------------------------------
 #P irc=(CalcAll,forward,maxpoints=50,stepsize=7) guess=read SCRF=(pcm,
 Solvent=water) b3lyp/cbsb7 scf=xqc iop(2/9=2000)
 ----------------------------------------------------------------------
 1/10=4,18=10,22=1,26=3,38=1,39=7,42=50,44=3,71=1,172=1/1,23;
 2/9=2000,12=2,17=6,18=5,29=1,40=1/2;
 3/5=4,6=6,7=700,11=2,25=1,30=1,70=2201,71=2,72=1,74=-5,116=-2,140=1/1,2,3;
 4/5=1/1;
 5/5=2,8=3,13=1,38=6,53=1/2,8;
 8/6=4,10=90,11=11/1;
 11/6=1,8=1,9=11,15=111,16=1/1,2,10;
 10/6=1,13=1/2;
 6/7=2,8=2,9=2,10=2,18=1,28=1/1;
 7/10=1,25=1/1,2,3,16;
 1/10=4,18=10,22=1,26=3,39=7,42=50,44=3,71=1/23(2);
 2/9=2000,29=1/2;
 99/5=20/99;
 2/9=2000,29=1/2;
 3/5=4,6=6,7=700,11=2,25=1,30=1,70=2205,71=2,72=1,74=-5,140=1/1,2,3;
 4/5=5,16=3,69=1/1;
 5/5=2,8=3,13=1,38=5,53=1/2,8;
 8/6=4,10=90,11=11/1;
 11/6=1,8=1,9=11,15=111,16=1/1,2,10;
 10/6=1,13=1/2;
 7/10=1,25=1/1,2,3,16;
 1/10=4,18=10,22=1,26=3,39=7,42=50,44=3,71=1/23(-8);
 2/9=2000,29=1/2;
 6/7=2,8=2,9=2,10=2,18=1,19=2,28=1/1;
 99/5=20/99;
 Leave Link    1 at Wed Feb 19 11:12:40 2020, MaxMem=  1879048192 cpu:               2.3 elap:               0.1
 (Enter /gpfs/apps/medsci/stacks/noOS/software/gaussian/g16.a03.avx2/g16/l101.exe)
 ----
 name
 ----
 Symbolic Z-matrix:
 Charge =  0 Multiplicity = 1
 C                    -0.02247   1.63354   0.03951 
 C                    -0.31665   0.26982   0.54509 
 C                    -0.11523  -0.91492  -0.33251 
 O                    -0.40268   0.14672   1.81258 
 C                    -2.86369   0.22662   0.08477 
 N                    -3.81085   0.61254  -0.47718 
 H                    -0.45282   1.78128  -0.94896 
 H                    -0.37365   2.39105   0.73673 
 H                     1.06796   1.71684  -0.05565 
 H                     0.97181  -1.07152  -0.37713 
 H                    -0.57355  -1.81064   0.07687 
 H                    -0.47344  -0.72623  -1.34116 
 H                    -0.81803  -0.74643   2.08339 
 O                    -2.05698  -1.68333   2.26889 
 H                    -2.59693  -1.25544   1.56964 
 H                    -2.03544  -2.62583   2.0663 
 
 ITRead=  0  0  0  0  0  0  0  0  0  0  0  0  0  0  0  0
 MicOpt= -1 -1 -1 -1 -1 -1 -1 -1 -1 -1 -1 -1 -1 -1 -1 -1
 NAtoms=     16 NQM=       16 NQMF=       0 NMMI=      0 NMMIF=      0
                NMic=       0 NMicF=      0.
                    Isotopes and Nuclear Properties:
 (Nuclear quadrupole moments (NQMom) in fm**2, nuclear magnetic moments (NMagM)
  in nuclear magnetons)

  Atom         1           2           3           4           5           6           7           8           9          10
 IAtWgt=          12          12          12          16          12          14           1           1           1           1
 AtmWgt=  12.0000000  12.0000000  12.0000000  15.9949146  12.0000000  14.0030740   1.0078250   1.0078250   1.0078250   1.0078250
 NucSpn=           0           0           0           0           0           2           1           1           1           1
 AtZEff=  -0.0000000  -0.0000000  -0.0000000  -0.0000000  -0.0000000  -0.0000000  -0.0000000  -0.0000000  -0.0000000  -0.0000000
 NQMom=    0.0000000   0.0000000   0.0000000   0.0000000   0.0000000   2.0440000   0.0000000   0.0000000   0.0000000   0.0000000
 NMagM=    0.0000000   0.0000000   0.0000000   0.0000000   0.0000000   0.4037610   2.7928460   2.7928460   2.7928460   2.7928460
 AtZNuc=   6.0000000   6.0000000   6.0000000   8.0000000   6.0000000   7.0000000   1.0000000   1.0000000   1.0000000   1.0000000

  Atom        11          12          13          14          15          16
 IAtWgt=           1           1           1          16           1           1
 AtmWgt=   1.0078250   1.0078250   1.0078250  15.9949146   1.0078250   1.0078250
 NucSpn=           1           1           1           0           1           1
 AtZEff=  -0.0000000  -0.0000000  -0.0000000  -0.0000000  -0.0000000  -0.0000000
 NQMom=    0.0000000   0.0000000   0.0000000   0.0000000   0.0000000   0.0000000
 NMagM=    2.7928460   2.7928460   2.7928460   0.0000000   2.7928460   2.7928460
 AtZNuc=   1.0000000   1.0000000   1.0000000   8.0000000   1.0000000   1.0000000
 Leave Link  101 at Wed Feb 19 11:12:40 2020, MaxMem=  1879048192 cpu:               3.2 elap:               0.1
 (Enter /gpfs/apps/medsci/stacks/noOS/software/gaussian/g16.a03.avx2/g16/l123.exe)
 IRC-IRC-IRC-IRC-IRC-IRC-IRC-IRC-IRC-IRC-IRC-IRC-IRC-IRC-IRC-IRC-IRC-IRC
 ------------------------------------------------------------------------
 INPUT DATA FOR L123
 ------------------------------------------------------------------------
 GENERAL PARAMETERS:
 Rxn path following direction = Forward
 Maximum points per path      =  50
 Step size                    =   0.070 bohr
 Integration scheme           = HPC                                 
    Redo corrector integration= Yes                                 
    DWI Weight Power          =  2
    DWI will use Hessian update vectors when possible.
    Max correction cycles     =  20
 Initial Hessian              = CalcFC
 Hessian evaluation           = Analytic at all predictor steps
                              = Update at all corrector steps
 Hessian updating method      = Bofill                              
 ------------------------------------------------------------------------
 IRC-IRC-IRC-IRC-IRC-IRC-IRC-IRC-IRC-IRC-IRC-IRC-IRC-IRC-IRC-IRC-IRC-IRC
 Leave Link  123 at Wed Feb 19 11:12:40 2020, MaxMem=  1879048192 cpu:               0.9 elap:               0.0
 (Enter /gpfs/apps/medsci/stacks/noOS/software/gaussian/g16.a03.avx2/g16/l202.exe)
                          Input orientation:                          
 ---------------------------------------------------------------------
 Center     Atomic      Atomic             Coordinates (Angstroms)
 Number     Number       Type             X           Y           Z
 ---------------------------------------------------------------------
      1          6           0       -0.022465    1.633542    0.039510
      2          6           0       -0.316650    0.269816    0.545085
      3          6           0       -0.115232   -0.914921   -0.332509
      4          8           0       -0.402683    0.146720    1.812575
      5          6           0       -2.863690    0.226617    0.084773
      6          7           0       -3.810851    0.612539   -0.477183
      7          1           0       -0.452816    1.781282   -0.948955
      8          1           0       -0.373654    2.391046    0.736729
      9          1           0        1.067962    1.716842   -0.055650
     10          1           0        0.971805   -1.071516   -0.377132
     11          1           0       -0.573554   -1.810644    0.076869
     12          1           0       -0.473442   -0.726226   -1.341163
     13          1           0       -0.818025   -0.746433    2.083392
     14          8           0       -2.056980   -1.683332    2.268894
     15          1           0       -2.596931   -1.255443    1.569643
     16          1           0       -2.035440   -2.625833    2.066299
 ---------------------------------------------------------------------
                    Distance matrix (angstroms):
                    1          2          3          4          5
     1  C    0.000000
     2  C    1.483880   0.000000
     3  C    2.577143   1.488067   0.000000
     4  O    2.344987   1.276356   2.410621   0.000000
     5  C    3.170812   2.588661   3.005205   3.008029   0.000000
     6  N    3.957434   3.656765   4.001458   4.132262   1.166981
     7  H    1.088160   2.129607   2.786302   3.209416   3.049244
     8  H    1.087778   2.130632   3.484174   2.489033   3.363046
     9  H    1.097736   2.090913   2.898754   2.849271   4.206944
    10  H    2.911958   2.075999   1.099165   2.857995   4.075479
    11  H    3.488196   2.147915   1.086264   2.621669   3.065162
    12  H    2.770946   2.138835   1.086878   3.273088   2.941851
    13  H    3.236456   1.910635   2.521683   1.021554   3.020935
    14  O    4.484535   3.132899   3.335886   2.508788   3.011490
    15  H    4.161180   2.928449   3.145309   2.615301   2.114829
    16  H    5.128569   3.695012   3.516916   3.227588   3.570562
                    6          7          8          9         10
     6  N    0.000000
     7  H    3.586771   0.000000
     8  H    4.055982   1.794327   0.000000
     9  H    5.019959   1.764911   1.777828   0.000000
    10  H    5.071474   3.239596   3.878180   2.808476   0.000000
    11  H    4.081529   3.737489   4.257884   3.892980   1.772163
    12  H    3.698250   2.538080   3.747663   3.161811   1.771248
    13  H    4.166576   3.964574   3.443071   3.768311   3.059959
    14  O    3.985979   4.993140   4.667084   5.170102   4.068084
    15  H    3.025302   4.490241   4.351274   4.990741   4.069354
    16  H    4.484243   5.569481   5.449621   5.743918   4.174899
                   11         12         13         14         15
    11  H    0.000000
    12  H    1.787960   0.000000
    13  H    2.284392   3.441907   0.000000
    14  O    2.649856   4.056619   1.564353   0.000000
    15  H    2.575010   3.641712   1.920296   0.981625   0.000000
    16  H    2.599899   4.202278   2.239316   0.964270   1.562021
                   16
    16  H    0.000000
 Symmetry turned off by external request.
 Stoichiometry    C4H9NO2
 Framework group  C1[X(C4H9NO2)]
 Deg. of freedom    42
 Full point group                 C1      NOp   1
 Rotational constants (GHZ):           2.1859052           1.9303823           1.3139009
 Leave Link  202 at Wed Feb 19 11:12:40 2020, MaxMem=  1879048192 cpu:               1.5 elap:               0.1
 (Enter /gpfs/apps/medsci/stacks/noOS/software/gaussian/g16.a03.avx2/g16/l301.exe)
 Standard basis: 6-311G(2d,d,p) (5D, 7F)
 Ernie: Thresh=  0.10000D-02 Tol=  0.10000D-05 Strict=F.
   180 basis functions,   296 primitive gaussians,   187 cartesian basis functions
    28 alpha electrons       28 beta electrons
       nuclear repulsion energy       296.1273228549 Hartrees.
 IExCor=  402 DFT=T Ex+Corr=B3LYP ExCW=0 ScaHFX=  0.200000
 ScaDFX=  0.800000  0.720000  1.000000  0.810000 ScalE2=  1.000000  1.000000
 IRadAn=      5 IRanWt=     -1 IRanGd=            0 ICorTp=0 IEmpDi=  4
 NAtoms=   16 NActive=   16 NUniq=   16 SFac= 1.00D+00 NAtFMM=   60 NAOKFM=F Big=F
 Integral buffers will be    131072 words long.
 Raffenetti 2 integral format.
 Two-electron integral symmetry is turned off.
 Force inversion solution in PCM.
 ------------------------------------------------------------------------------
 Polarizable Continuum Model (PCM)
 =================================
 Model                : PCM.
 Atomic radii         : UFF (Universal Force Field).
 Polarization charges : Total charges.
 Charge compensation  : None.
 Solution method      : Matrix inversion.
 Cavity type          : Scaled VdW (van der Waals Surface) (Alpha=1.100).
 Cavity algorithm     : GePol (No added spheres)
                        Default sphere list used, NSphG=   16.
                        Lebedev-Laikov grids with approx.  5.0 points / Ang**2.
                        Smoothing algorithm: York/Karplus (Gamma=1.0000).
                        Polarization charges: spherical gaussians, with
                                              point-specific exponents (IZeta= 3).
                        Self-potential: point-specific (ISelfS= 7).
                        Self-field    : sphere-specific E.n sum rule (ISelfD= 2).
 1st derivatives      : Analytical E(r).r(x)/FMM algorithm (CHGder, D1EAlg=3).
                        Cavity 1st derivative terms included.
 2nd derivatives      : Analytical E(r).r(xy)/FMM algorithm (CHGder, D2EAlg=3).
                        Cavity 2nd derivative terms included.
 Solvent              : Water, Eps=  78.355300 Eps(inf)=   1.777849
 ------------------------------------------------------------------------------
 Spheres list:
 ISph  on   Nord     Re0    Alpha      Xe            Ye            Ze
    1   C      1    1.9255  1.100     -0.022465      1.633542      0.039510
    2   C      2    1.9255  1.100     -0.316650      0.269816      0.545085
    3   C      3    1.9255  1.100     -0.115232     -0.914921     -0.332509
    4   O      4    1.7500  1.100     -0.402683      0.146720      1.812575
    5   C      5    1.9255  1.100     -2.863690      0.226617      0.084773
    6   N      6    1.8300  1.100     -3.810851      0.612539     -0.477183
    7   H      7    1.4430  1.100     -0.452816      1.781282     -0.948955
    8   H      8    1.4430  1.100     -0.373654      2.391046      0.736729
    9   H      9    1.4430  1.100      1.067962      1.716842     -0.055650
   10   H     10    1.4430  1.100      0.971805     -1.071516     -0.377132
   11   H     11    1.4430  1.100     -0.573554     -1.810644      0.076869
   12   H     12    1.4430  1.100     -0.473442     -0.726226     -1.341163
   13   H     13    1.4430  1.100     -0.818025     -0.746433      2.083392
   14   O     14    1.7500  1.100     -2.056980     -1.683332      2.268894
   15   H     15    1.4430  1.100     -2.596931     -1.255443      1.569643
   16   H     16    1.4430  1.100     -2.035440     -2.625833      2.066299
 ------------------------------------------------------------------------------
 GePol: Number of generator spheres                  =      16
 GePol: Total number of spheres                      =      16
 GePol: Number of exposed spheres                    =      16 (100.00%)
 GePol: Number of points                             =    1348
 GePol: Average weight of points                     =       0.14
 GePol: Minimum weight of points                     =   0.15D-08
 GePol: Maximum weight of points                     =    0.20577
 GePol: Number of points with low weight             =      58
 GePol: Fraction of low-weight points (<1% of avg)   =       4.30%
 GePol: Cavity surface area                          =    185.113 Ang**2
 GePol: Cavity volume                                =    176.934 Ang**3
 Leave Link  301 at Wed Feb 19 11:12:40 2020, MaxMem=  1879048192 cpu:               2.7 elap:               0.1
 (Enter /gpfs/apps/medsci/stacks/noOS/software/gaussian/g16.a03.avx2/g16/l302.exe)
 NPDir=0 NMtPBC=     1 NCelOv=     1 NCel=       1 NClECP=     1 NCelD=      1
         NCelK=      1 NCelE2=     1 NClLst=     1 CellRange=     0.0.
 One-electron integrals computed using PRISM.
 NBasis=   180 RedAO= T EigKep=  2.21D-03  NBF=   180
 NBsUse=   180 1.00D-06 EigRej= -1.00D+00 NBFU=   180
 Precomputing XC quadrature grid using
 IXCGrd= 4 IRadAn=           5 IRanWt=          -1 IRanGd=           0 AccXCQ= 0.00D+00.
 Generated NRdTot=       0 NPtTot=           0 NUsed=           0 NTot=          32
 NSgBfM=   187   187   187   187   187 MxSgAt=    16 MxSgA2=    16.
 Leave Link  302 at Wed Feb 19 11:12:40 2020, MaxMem=  1879048192 cpu:               6.2 elap:               0.2
 (Enter /gpfs/apps/medsci/stacks/noOS/software/gaussian/g16.a03.avx2/g16/l303.exe)
 DipDrv:  MaxL=1.
 Leave Link  303 at Wed Feb 19 11:12:40 2020, MaxMem=  1879048192 cpu:               1.1 elap:               0.0
 (Enter /gpfs/apps/medsci/stacks/noOS/software/gaussian/g16.a03.avx2/g16/l401.exe)
 Initial guess from the checkpoint file:  "check.chk"
 B after Tr=    -2.414313   -0.103318    1.185893
         Rot=    0.029888   -0.259778    0.894624   -0.362311 Ang=-176.57 deg.
 Guess basis will be translated and rotated to current coordinates.
 JPrj=2 DoOrth=T DoCkMO=T.
 Leave Link  401 at Wed Feb 19 11:12:40 2020, MaxMem=  1879048192 cpu:               4.6 elap:               0.1
 (Enter /gpfs/apps/medsci/stacks/noOS/software/gaussian/g16.a03.avx2/g16/l502.exe)
 Two-electron integral symmetry not used.
 Closed shell SCF:
 Using DIIS extrapolation, IDIIS=  1040.
 NGot=  1879048192 LenX=  1878969171 LenY=  1878933761
 Requested convergence on RMS density matrix=1.00D-08 within  32 cycles.
 Requested convergence on MAX density matrix=1.00D-06.
 Requested convergence on             energy=1.00D-06.
 No special actions if energy rises.
 Fock matrices will be formed incrementally for  20 cycles.

 Cycle   1  Pass 1  IDiag  1:
 FoFJK:  IHMeth= 1 ICntrl=       0 DoSepK=F KAlg= 0 I1Cent=           0 FoldK=F
 IRaf= 960000000 NMat=       1 IRICut=       1 DoRegI=T DoRafI=F ISym2E= 0 IDoP0=0 IntGTp=1.
 FoFCou: FMM=F IPFlag=           0 FMFlag=      100000 FMFlg1=           0
         NFxFlg=           0 DoJE=F BraDBF=F KetDBF=F FulRan=T
         wScrn=  0.000000 ICntrl=         0 IOpCl=  0 I1Cent=           0 NGrid=           0
         NMat0=    1 NMatS0=      1 NMatT0=    0 NMatD0=    1 NMtDS0=    0 NMtDT0=    0
 Symmetry not used in FoFCou.
 Inv3:  Mode=1 IEnd=     5451312.
 Iteration    1 A*A^-1 deviation from unit magnitude is 2.89D-15 for    398.
 Iteration    1 A*A^-1 deviation from orthogonality  is 1.80D-15 for   1307    253.
 Iteration    1 A^-1*A deviation from unit magnitude is 2.89D-15 for    197.
 Iteration    1 A^-1*A deviation from orthogonality  is 1.60D-15 for    779    326.
 E= -363.044454179195    
 DIIS: error= 2.39D-02 at cycle   1 NSaved=   1.
 NSaved= 1 IEnMin= 1 EnMin= -363.044454179195     IErMin= 1 ErrMin= 2.39D-02
 ErrMax= 2.39D-02  0.00D+00 EMaxC= 1.00D-01 BMatC= 1.18D-01 BMatP= 1.18D-01
 IDIUse=3 WtCom= 7.61D-01 WtEn= 2.39D-01
 Coeff-Com:  0.100D+01
 Coeff-En:   0.100D+01
 Coeff:      0.100D+01
 Gap=     4.305 Goal=   None    Shift=    0.000
 GapD=    4.305 DampG=2.000 DampE=0.500 DampFc=1.0000 IDamp=-1.
 RMSDP=1.69D-03 MaxDP=8.62D-02              OVMax= 9.36D-02

 Cycle   2  Pass 1  IDiag  1:
 RMSU=  1.67D-03    CP:  9.82D-01
 E= -363.093423744493     Delta-E=       -0.048969565298 Rises=F Damp=F
 DIIS: error= 4.88D-03 at cycle   2 NSaved=   2.
 NSaved= 2 IEnMin= 2 EnMin= -363.093423744493     IErMin= 2 ErrMin= 4.88D-03
 ErrMax= 4.88D-03  0.00D+00 EMaxC= 1.00D-01 BMatC= 7.46D-03 BMatP= 1.18D-01
 IDIUse=3 WtCom= 9.51D-01 WtEn= 4.88D-02
 Coeff-Com:  0.102D+00 0.898D+00
 Coeff-En:   0.000D+00 0.100D+01
 Coeff:      0.971D-01 0.903D+00
 Gap=     0.191 Goal=   None    Shift=    0.000
 RMSDP=7.90D-04 MaxDP=3.99D-02 DE=-4.90D-02 OVMax= 3.94D-02

 Cycle   3  Pass 1  IDiag  1:
 RMSU=  7.49D-04    CP:  9.81D-01  8.49D-01
 E= -363.092115557263     Delta-E=        0.001308187230 Rises=F Damp=F
 DIIS: error= 5.11D-03 at cycle   3 NSaved=   3.
 NSaved= 3 IEnMin= 2 EnMin= -363.093423744493     IErMin= 2 ErrMin= 4.88D-03
 ErrMax= 5.11D-03  0.00D+00 EMaxC= 1.00D-01 BMatC= 9.07D-03 BMatP= 7.46D-03
 IDIUse=3 WtCom= 1.23D-01 WtEn= 8.77D-01
 Coeff-Com:  0.163D-01 0.523D+00 0.461D+00
 Coeff-En:   0.000D+00 0.540D+00 0.460D+00
 Coeff:      0.200D-02 0.538D+00 0.460D+00
 Gap=     0.184 Goal=   None    Shift=    0.000
 RMSDP=4.15D-04 MaxDP=2.06D-02 DE= 1.31D-03 OVMax= 2.69D-02

 Cycle   4  Pass 1  IDiag  1:
 RMSU=  1.60D-04    CP:  9.81D-01  9.50D-01  5.42D-01
 E= -363.099813148638     Delta-E=       -0.007697591375 Rises=F Damp=F
 DIIS: error= 2.48D-03 at cycle   4 NSaved=   4.
 NSaved= 4 IEnMin= 4 EnMin= -363.099813148638     IErMin= 4 ErrMin= 2.48D-03
 ErrMax= 2.48D-03  0.00D+00 EMaxC= 1.00D-01 BMatC= 7.18D-04 BMatP= 7.46D-03
 IDIUse=3 WtCom= 9.75D-01 WtEn= 2.48D-02
 Coeff-Com: -0.161D-02 0.270D+00 0.280D+00 0.452D+00
 Coeff-En:   0.000D+00 0.000D+00 0.000D+00 0.100D+01
 Coeff:     -0.157D-02 0.263D+00 0.273D+00 0.466D+00
 Gap=     0.184 Goal=   None    Shift=    0.000
 RMSDP=1.03D-04 MaxDP=3.72D-03 DE=-7.70D-03 OVMax= 7.55D-03

 Cycle   5  Pass 1  IDiag  1:
 RMSU=  6.42D-05    CP:  9.81D-01  9.58D-01  5.37D-01  5.07D-01
 E= -363.100281716918     Delta-E=       -0.000468568280 Rises=F Damp=F
 DIIS: error= 1.10D-03 at cycle   5 NSaved=   5.
 NSaved= 5 IEnMin= 5 EnMin= -363.100281716918     IErMin= 5 ErrMin= 1.10D-03
 ErrMax= 1.10D-03  0.00D+00 EMaxC= 1.00D-01 BMatC= 5.29D-05 BMatP= 7.18D-04
 IDIUse=3 WtCom= 9.89D-01 WtEn= 1.10D-02
 Coeff-Com: -0.185D-02 0.922D-01 0.108D+00 0.269D+00 0.533D+00
 Coeff-En:   0.000D+00 0.000D+00 0.000D+00 0.354D-01 0.965D+00
 Coeff:     -0.183D-02 0.912D-01 0.106D+00 0.266D+00 0.538D+00
 Gap=     0.185 Goal=   None    Shift=    0.000
 RMSDP=3.34D-05 MaxDP=2.03D-03 DE=-4.69D-04 OVMax= 3.29D-03

 Cycle   6  Pass 1  IDiag  1:
 RMSU=  2.62D-05    CP:  9.81D-01  9.61D-01  5.29D-01  5.43D-01  7.34D-01
 E= -363.100316016675     Delta-E=       -0.000034299756 Rises=F Damp=F
 DIIS: error= 5.42D-04 at cycle   6 NSaved=   6.
 NSaved= 6 IEnMin= 6 EnMin= -363.100316016675     IErMin= 6 ErrMin= 5.42D-04
 ErrMax= 5.42D-04  0.00D+00 EMaxC= 1.00D-01 BMatC= 1.33D-05 BMatP= 5.29D-05
 IDIUse=3 WtCom= 9.95D-01 WtEn= 5.42D-03
 Coeff-Com: -0.751D-03 0.939D-02 0.203D-01 0.997D-01 0.384D+00 0.488D+00
 Coeff-En:   0.000D+00 0.000D+00 0.000D+00 0.000D+00 0.215D+00 0.785D+00
 Coeff:     -0.747D-03 0.934D-02 0.202D-01 0.992D-01 0.383D+00 0.489D+00
 Gap=     0.185 Goal=   None    Shift=    0.000
 RMSDP=1.49D-05 MaxDP=7.22D-04 DE=-3.43D-05 OVMax= 1.17D-03

 Cycle   7  Pass 1  IDiag  1:
 RMSU=  7.39D-06    CP:  9.81D-01  9.61D-01  5.39D-01  5.62D-01  7.97D-01
                    CP:  6.50D-01
 E= -363.100327298420     Delta-E=       -0.000011281746 Rises=F Damp=F
 DIIS: error= 5.13D-05 at cycle   7 NSaved=   7.
 NSaved= 7 IEnMin= 7 EnMin= -363.100327298420     IErMin= 7 ErrMin= 5.13D-05
 ErrMax= 5.13D-05  0.00D+00 EMaxC= 1.00D-01 BMatC= 4.08D-07 BMatP= 1.33D-05
 IDIUse=1 WtCom= 1.00D+00 WtEn= 0.00D+00
 Coeff-Com: -0.183D-03-0.443D-03 0.368D-02 0.247D-01 0.122D+00 0.219D+00
 Coeff-Com:  0.632D+00
 Coeff:     -0.183D-03-0.443D-03 0.368D-02 0.247D-01 0.122D+00 0.219D+00
 Coeff:      0.632D+00
 Gap=     0.184 Goal=   None    Shift=    0.000
 RMSDP=4.01D-06 MaxDP=1.25D-04 DE=-1.13D-05 OVMax= 4.32D-04

 Cycle   8  Pass 1  IDiag  1:
 RMSU=  2.75D-06    CP:  9.81D-01  9.61D-01  5.39D-01  5.67D-01  8.20D-01
                    CP:  6.61D-01  6.94D-01
 E= -363.100327616616     Delta-E=       -0.000000318195 Rises=F Damp=F
 DIIS: error= 1.88D-05 at cycle   8 NSaved=   8.
 NSaved= 8 IEnMin= 8 EnMin= -363.100327616616     IErMin= 8 ErrMin= 1.88D-05
 ErrMax= 1.88D-05  0.00D+00 EMaxC= 1.00D-01 BMatC= 5.28D-08 BMatP= 4.08D-07
 IDIUse=1 WtCom= 1.00D+00 WtEn= 0.00D+00
 Coeff-Com: -0.869D-06-0.217D-02-0.138D-02-0.259D-02 0.701D-02 0.488D-01
 Coeff-Com:  0.311D+00 0.639D+00
 Coeff:     -0.869D-06-0.217D-02-0.138D-02-0.259D-02 0.701D-02 0.488D-01
 Coeff:      0.311D+00 0.639D+00
 Gap=     0.184 Goal=   None    Shift=    0.000
 RMSDP=1.28D-06 MaxDP=5.75D-05 DE=-3.18D-07 OVMax= 5.84D-05

 Cycle   9  Pass 1  IDiag  1:
 RMSU=  4.18D-07    CP:  9.81D-01  9.61D-01  5.39D-01  5.67D-01  8.21D-01
                    CP:  6.83D-01  7.96D-01  7.87D-01
 E= -363.100327670902     Delta-E=       -0.000000054287 Rises=F Damp=F
 DIIS: error= 1.43D-06 at cycle   9 NSaved=   9.
 NSaved= 9 IEnMin= 9 EnMin= -363.100327670902     IErMin= 9 ErrMin= 1.43D-06
 ErrMax= 1.43D-06  0.00D+00 EMaxC= 1.00D-01 BMatC= 5.82D-10 BMatP= 5.28D-08
 IDIUse=1 WtCom= 1.00D+00 WtEn= 0.00D+00
 Coeff-Com:  0.116D-04-0.490D-03-0.492D-03-0.190D-02-0.348D-02 0.461D-02
 Coeff-Com:  0.498D-01 0.126D+00 0.826D+00
 Coeff:      0.116D-04-0.490D-03-0.492D-03-0.190D-02-0.348D-02 0.461D-02
 Coeff:      0.498D-01 0.126D+00 0.826D+00
 Gap=     0.184 Goal=   None    Shift=    0.000
 RMSDP=2.63D-07 MaxDP=2.03D-05 DE=-5.43D-08 OVMax= 1.71D-05

 Cycle  10  Pass 1  IDiag  1:
 RMSU=  1.35D-07    CP:  9.81D-01  9.61D-01  5.39D-01  5.66D-01  8.23D-01
                    CP:  6.88D-01  8.02D-01  8.17D-01  9.91D-01
 E= -363.100327671380     Delta-E=       -0.000000000478 Rises=F Damp=F
 DIIS: error= 1.06D-06 at cycle  10 NSaved=  10.
 NSaved=10 IEnMin=10 EnMin= -363.100327671380     IErMin=10 ErrMin= 1.06D-06
 ErrMax= 1.06D-06  0.00D+00 EMaxC= 1.00D-01 BMatC= 2.82D-10 BMatP= 5.82D-10
 IDIUse=1 WtCom= 1.00D+00 WtEn= 0.00D+00
 Coeff-Com:  0.367D-05-0.727D-04-0.149D-03-0.843D-03-0.260D-02-0.148D-02
 Coeff-Com:  0.223D-02 0.127D-01 0.460D+00 0.530D+00
 Coeff:      0.367D-05-0.727D-04-0.149D-03-0.843D-03-0.260D-02-0.148D-02
 Coeff:      0.223D-02 0.127D-01 0.460D+00 0.530D+00
 Gap=     0.184 Goal=   None    Shift=    0.000
 RMSDP=7.42D-08 MaxDP=2.72D-06 DE=-4.78D-10 OVMax= 4.87D-06

 Cycle  11  Pass 1  IDiag  1:
 RMSU=  4.06D-08    CP:  9.81D-01  9.61D-01  5.39D-01  5.66D-01  8.23D-01
                    CP:  6.89D-01  8.04D-01  8.25D-01  1.04D+00  6.97D-01
 E= -363.100327671576     Delta-E=       -0.000000000196 Rises=F Damp=F
 DIIS: error= 2.46D-07 at cycle  11 NSaved=  11.
 NSaved=11 IEnMin=11 EnMin= -363.100327671576     IErMin=11 ErrMin= 2.46D-07
 ErrMax= 2.46D-07  0.00D+00 EMaxC= 1.00D-01 BMatC= 1.23D-11 BMatP= 2.82D-10
 IDIUse=1 WtCom= 1.00D+00 WtEn= 0.00D+00
 Coeff-Com:  0.757D-06 0.616D-05-0.240D-04-0.134D-03-0.638D-03-0.856D-03
 Coeff-Com: -0.261D-02-0.796D-02 0.938D-01 0.211D+00 0.707D+00
 Coeff:      0.757D-06 0.616D-05-0.240D-04-0.134D-03-0.638D-03-0.856D-03
 Coeff:     -0.261D-02-0.796D-02 0.938D-01 0.211D+00 0.707D+00
 Gap=     0.184 Goal=   None    Shift=    0.000
 RMSDP=1.95D-08 MaxDP=7.53D-07 DE=-1.96D-10 OVMax= 1.31D-06

 Cycle  12  Pass 1  IDiag  1:
 RMSU=  9.82D-09    CP:  9.81D-01  9.62D-01  5.39D-01  5.66D-01  8.23D-01
                    CP:  6.89D-01  8.05D-01  8.26D-01  1.06D+00  7.44D-01
                    CP:  8.35D-01
 E= -363.100327671586     Delta-E=       -0.000000000010 Rises=F Damp=F
 DIIS: error= 6.08D-08 at cycle  12 NSaved=  12.
 NSaved=12 IEnMin=12 EnMin= -363.100327671586     IErMin=12 ErrMin= 6.08D-08
 ErrMax= 6.08D-08  0.00D+00 EMaxC= 1.00D-01 BMatC= 1.07D-12 BMatP= 1.23D-11
 IDIUse=1 WtCom= 1.00D+00 WtEn= 0.00D+00
 Coeff-Com: -0.135D-07 0.106D-04 0.315D-05 0.231D-04-0.560D-04-0.233D-03
 Coeff-Com: -0.122D-02-0.500D-02 0.196D-02 0.535D-01 0.303D+00 0.648D+00
 Coeff:     -0.135D-07 0.106D-04 0.315D-05 0.231D-04-0.560D-04-0.233D-03
 Coeff:     -0.122D-02-0.500D-02 0.196D-02 0.535D-01 0.303D+00 0.648D+00
 Gap=     0.184 Goal=   None    Shift=    0.000
 RMSDP=5.87D-09 MaxDP=3.26D-07 DE=-9.66D-12 OVMax= 2.33D-07

 Error on total polarization charges =  0.00756
 SCF Done:  E(RB3LYP) =  -363.100327672     A.U. after   12 cycles
            NFock= 12  Conv=0.59D-08     -V/T= 2.0036
 KE= 3.617937631877D+02 PE=-1.441729583775D+03 EE= 4.207081700604D+02
 Leave Link  502 at Wed Feb 19 11:12:45 2020, MaxMem=  1879048192 cpu:             199.3 elap:               5.2
 (Enter /gpfs/apps/medsci/stacks/noOS/software/gaussian/g16.a03.avx2/g16/l508.exe)
 QCSCF skips out because SCF is already converged.
 Leave Link  508 at Wed Feb 19 11:12:46 2020, MaxMem=  1879048192 cpu:               0.2 elap:               0.0
 (Enter /gpfs/apps/medsci/stacks/noOS/software/gaussian/g16.a03.avx2/g16/l801.exe)
 DoSCS=F DFT=T ScalE2(SS,OS)=  1.000000  1.000000
 Range of M.O.s used for correlation:     1   180
 NBasis=   180 NAE=    28 NBE=    28 NFC=     0 NFV=     0
 NROrb=    180 NOA=    28 NOB=    28 NVA=   152 NVB=   152
 Leave Link  801 at Wed Feb 19 11:12:46 2020, MaxMem=  1879048192 cpu:               0.7 elap:               0.0
 (Enter /gpfs/apps/medsci/stacks/noOS/software/gaussian/g16.a03.avx2/g16/l1101.exe)
 Using compressed storage, NAtomX=    16.
 Will process     17 centers per pass.
 Leave Link 1101 at Wed Feb 19 11:12:46 2020, MaxMem=  1879048192 cpu:               9.8 elap:               0.3
 (Enter /gpfs/apps/medsci/stacks/noOS/software/gaussian/g16.a03.avx2/g16/l1102.exe)
 Symmetrizing basis deriv contribution to polar:
 IMax=3 JMax=2 DiffMx= 0.00D+00
 Leave Link 1102 at Wed Feb 19 11:12:46 2020, MaxMem=  1879048192 cpu:               3.5 elap:               0.1
 (Enter /gpfs/apps/medsci/stacks/noOS/software/gaussian/g16.a03.avx2/g16/l1110.exe)
 Forming Gx(P) for the SCF density, NAtomX=    16.
 Integral derivatives from FoFJK, PRISM(SPDF).
 Do as many integral derivatives as possible in FoFJK.
 G2DrvN: MDV=    1879046904.
 G2DrvN: will do    17 centers at a time, making    1 passes.
 Calling FoFCou, ICntrl=  3107 FMM=F I1Cent=   0 AccDes= 0.00D+00.
 FoFJK:  IHMeth= 1 ICntrl=    3107 DoSepK=F KAlg= 0 I1Cent=           0 FoldK=F
 IRaf=         0 NMat=       1 IRICut=       1 DoRegI=T DoRafI=F ISym2E= 0 IDoP0=0 IntGTp=1.
 FoFCou: FMM=F IPFlag=           0 FMFlag=      100000 FMFlg1=           0
         NFxFlg=           0 DoJE=F BraDBF=F KetDBF=F FulRan=T
         wScrn=  0.000000 ICntrl=      3107 IOpCl=  0 I1Cent=           0 NGrid=           0
         NMat0=    1 NMatS0=      1 NMatT0=    0 NMatD0=    1 NMtDS0=    0 NMtDT0=    0
 Symmetry not used in FoFCou.
 NEqPCM:  Using equilibrium solvation (IEInf=0, Eps=  78.3553, EpsInf=   1.7778)
 G2PCM: DoFxE=T DoFxN=T DoGrad=T DoDP/DQ/DG/TGxP=FFFF NFrqRd=   0 IEInf=0 SqF1=F DoCFld=F IF1Alg=4.
 GePol: Maximum number of non-zero 1st derivatives   =     231
 End of G2Drv F.D. properties file   721 does not exist.
 End of G2Drv F.D. properties file   722 does not exist.
 End of G2Drv F.D. properties file   788 does not exist.
 Leave Link 1110 at Wed Feb 19 11:12:51 2020, MaxMem=  1879048192 cpu:             212.5 elap:               5.4
 (Enter /gpfs/apps/medsci/stacks/noOS/software/gaussian/g16.a03.avx2/g16/l1002.exe)
 Minotr:  Closed shell wavefunction.
          IDoAtm=1111111111111111
 NEqPCM:  Using equilibrium solvation (IEInf=0, Eps=  78.3553, EpsInf=   1.7778)
          Direct CPHF calculation.
          Differentiating once with respect to nuclear coordinates.
          Requested convergence is 1.0D-08 RMS, and 1.0D-07 maximum.
          Secondary convergence is 1.0D-12 RMS, and 1.0D-12 maximum.
          NewPWx=T KeepS1=F KeepF1=F KeepIn=T MapXYZ=F SortEE=F KeepMc=T.
         4776 words used for storage of precomputed grid.
 Keep R1 ints in memory in canonical form, NReq=173073270.
 FoFCou: FMM=F IPFlag=           0 FMFlag=           0 FMFlg1=           0
         NFxFlg=           0 DoJE=F BraDBF=F KetDBF=F FulRan=T
         wScrn=  0.000000 ICntrl=       600 IOpCl=  0 I1Cent=           0 NGrid=           0
         NMat0=    1 NMatS0=  16290 NMatT0=    0 NMatD0=    1 NMtDS0=    0 NMtDT0=    0
 Symmetry not used in FoFCou.
 Two-electron integral symmetry not used.
          MDV=    1879048192 using IRadAn=       1.
          Solving linear equations simultaneously, MaxMat=       0.
          There are    51 degrees of freedom in the 1st order CPHF.  IDoFFX=6 NUNeed=     0.
     45 vectors produced by pass  0 Test12= 8.35D-15 1.96D-09 XBig12= 1.28D-01 1.85D-01.
 AX will form    45 AO Fock derivatives at one time.
     45 vectors produced by pass  1 Test12= 8.35D-15 1.96D-09 XBig12= 1.94D-02 3.09D-02.
     45 vectors produced by pass  2 Test12= 8.35D-15 1.96D-09 XBig12= 1.91D-04 3.12D-03.
     45 vectors produced by pass  3 Test12= 8.35D-15 1.96D-09 XBig12= 6.61D-07 1.96D-04.
     45 vectors produced by pass  4 Test12= 8.35D-15 1.96D-09 XBig12= 1.31D-09 1.11D-05.
     30 vectors produced by pass  5 Test12= 8.35D-15 1.96D-09 XBig12= 1.15D-12 1.08D-07.
      4 vectors produced by pass  6 Test12= 8.35D-15 1.96D-09 XBig12= 1.08D-15 5.04D-09.
 InvSVY:  IOpt=1 It=  1 EMax= 4.44D-16
 Solved reduced A of dimension   259 with    51 vectors.
 End of Minotr F.D. properties file   721 does not exist.
 End of Minotr F.D. properties file   722 does not exist.
 End of Minotr F.D. properties file   788 does not exist.
 Leave Link 1002 at Wed Feb 19 11:12:57 2020, MaxMem=  1879048192 cpu:             213.0 elap:               5.4
 (Enter /gpfs/apps/medsci/stacks/noOS/software/gaussian/g16.a03.avx2/g16/l601.exe)
 Copying SCF densities to generalized density rwf, IOpCl= 0 IROHF=0.

 **********************************************************************

            Population analysis using the SCF density.

 **********************************************************************

 Alpha  occ. eigenvalues --  -19.20314 -19.14961 -14.25099 -10.33672 -10.19665
 Alpha  occ. eigenvalues --  -10.19431 -10.12613  -1.13830  -1.04094  -0.84712
 Alpha  occ. eigenvalues --   -0.82126  -0.74568  -0.65189  -0.56493  -0.53947
 Alpha  occ. eigenvalues --   -0.50672  -0.50271  -0.44693  -0.42987  -0.42346
 Alpha  occ. eigenvalues --   -0.41021  -0.40805  -0.37988  -0.37327  -0.34310
 Alpha  occ. eigenvalues --   -0.29660  -0.29486  -0.26934
 Alpha virt. eigenvalues --   -0.08500   0.02963   0.04356   0.06681   0.08244
 Alpha virt. eigenvalues --    0.09382   0.10122   0.10812   0.13013   0.13922
 Alpha virt. eigenvalues --    0.14969   0.16399   0.17747   0.22754   0.25318
 Alpha virt. eigenvalues --    0.25764   0.28796   0.31510   0.33040   0.34873
 Alpha virt. eigenvalues --    0.37309   0.37852   0.39053   0.41685   0.44186
 Alpha virt. eigenvalues --    0.47113   0.49677   0.52334   0.53264   0.55163
 Alpha virt. eigenvalues --    0.56638   0.57415   0.58118   0.58900   0.59292
 Alpha virt. eigenvalues --    0.61692   0.63237   0.65785   0.68302   0.76050
 Alpha virt. eigenvalues --    0.76892   0.80132   0.81747   0.84111   0.86443
 Alpha virt. eigenvalues --    0.88785   0.90330   0.92842   0.96573   0.98852
 Alpha virt. eigenvalues --    1.05844   1.12173   1.14290   1.17109   1.21582
 Alpha virt. eigenvalues --    1.25542   1.26993   1.33069   1.35071   1.36007
 Alpha virt. eigenvalues --    1.37771   1.38864   1.41772   1.42583   1.43155
 Alpha virt. eigenvalues --    1.45084   1.46355   1.48890   1.49955   1.52384
 Alpha virt. eigenvalues --    1.53621   1.56048   1.58519   1.59297   1.62329
 Alpha virt. eigenvalues --    1.64984   1.68481   1.70538   1.72957   1.78215
 Alpha virt. eigenvalues --    1.80556   1.87981   1.90124   1.94045   1.95364
 Alpha virt. eigenvalues --    1.99811   2.04052   2.06380   2.09335   2.11892
 Alpha virt. eigenvalues --    2.12502   2.17745   2.19574   2.23886   2.25759
 Alpha virt. eigenvalues --    2.33410   2.39010   2.40898   2.42080   2.43510
 Alpha virt. eigenvalues --    2.45877   2.47424   2.48300   2.49320   2.54006
 Alpha virt. eigenvalues --    2.55269   2.57292   2.58556   2.58586   2.63966
 Alpha virt. eigenvalues --    2.67386   2.81035   2.82142   2.84723   2.85787
 Alpha virt. eigenvalues --    2.89606   2.94514   2.97730   3.06573   3.07733
 Alpha virt. eigenvalues --    3.08687   3.17177   3.21031   3.26645   3.29603
 Alpha virt. eigenvalues --    3.34903   3.57298   3.61289   3.72247   3.72526
 Alpha virt. eigenvalues --    3.78793   3.79556   3.82797   3.86882   3.88879
 Alpha virt. eigenvalues --    3.91473   4.01855   4.22969   4.44886   4.83448
 Alpha virt. eigenvalues --    4.85912   5.17644   5.30994   5.57806   5.71303
 Alpha virt. eigenvalues --   23.67717  23.88435  23.93082  23.97643  35.73140
 Alpha virt. eigenvalues --   49.82182  49.87806
          Condensed to atoms (all electrons):
               1          2          3          4          5          6
     1  C    4.878626   0.346211  -0.067486  -0.062263  -0.016760   0.000558
     2  C    0.346211   4.858891   0.342776   0.393106   0.064350  -0.007224
     3  C   -0.067486   0.342776   4.911951  -0.046748  -0.034698   0.000142
     4  O   -0.062263   0.393106  -0.046748   7.715587  -0.021852   0.000717
     5  C   -0.016760   0.064350  -0.034698  -0.021852   5.623745   0.744144
     6  N    0.000558  -0.007224   0.000142   0.000717   0.744144   6.629691
     7  H    0.395947  -0.025624  -0.003157   0.002373   0.004707   0.001048
     8  H    0.393576  -0.027040   0.006925   0.004362  -0.000042   0.000052
     9  H    0.383546  -0.024840  -0.002262  -0.000447   0.002147  -0.000034
    10  H   -0.004165  -0.024345   0.379218  -0.000719   0.003847  -0.000112
    11  H    0.007228  -0.018675   0.378095  -0.006450  -0.003333   0.000034
    12  H   -0.002588  -0.021723   0.390674   0.003239   0.002766   0.000623
    13  H    0.004418  -0.040802  -0.004291   0.293972   0.004792  -0.000235
    14  O    0.000292   0.002252  -0.008850  -0.042528  -0.019777   0.000346
    15  H   -0.000461   0.006315  -0.000593   0.003314   0.053525  -0.003237
    16  H    0.000043   0.000342  -0.000370   0.001753   0.001252  -0.000035
               7          8          9         10         11         12
     1  C    0.395947   0.393576   0.383546  -0.004165   0.007228  -0.002588
     2  C   -0.025624  -0.027040  -0.024840  -0.024345  -0.018675  -0.021723
     3  C   -0.003157   0.006925  -0.002262   0.379218   0.378095   0.390674
     4  O    0.002373   0.004362  -0.000447  -0.000719  -0.006450   0.003239
     5  C    0.004707  -0.000042   0.002147   0.003847  -0.003333   0.002766
     6  N    0.001048   0.000052  -0.000034  -0.000112   0.000034   0.000623
     7  H    0.500931  -0.017998  -0.016328   0.000519   0.000293   0.000735
     8  H   -0.017998   0.501913  -0.015010  -0.000083  -0.000369  -0.000260
     9  H   -0.016328  -0.015010   0.503834   0.000692  -0.000064  -0.000101
    10  H    0.000519  -0.000083   0.000692   0.510828  -0.018439  -0.016693
    11  H    0.000293  -0.000369  -0.000064  -0.018439   0.525320  -0.018350
    12  H    0.000735  -0.000260  -0.000101  -0.016693  -0.018350   0.503596
    13  H   -0.000072  -0.000202  -0.000428  -0.000042   0.002121   0.000353
    14  O    0.000051   0.000012  -0.000005  -0.000301   0.019944  -0.000244
    15  H   -0.000107  -0.000006   0.000038   0.000366  -0.002117  -0.000168
    16  H   -0.000007  -0.000006   0.000001   0.000060   0.003059  -0.000002
              13         14         15         16
     1  C    0.004418   0.000292  -0.000461   0.000043
     2  C   -0.040802   0.002252   0.006315   0.000342
     3  C   -0.004291  -0.008850  -0.000593  -0.000370
     4  O    0.293972  -0.042528   0.003314   0.001753
     5  C    0.004792  -0.019777   0.053525   0.001252
     6  N   -0.000235   0.000346  -0.003237  -0.000035
     7  H   -0.000072   0.000051  -0.000107  -0.000007
     8  H   -0.000202   0.000012  -0.000006  -0.000006
     9  H   -0.000428  -0.000005   0.000038   0.000001
    10  H   -0.000042  -0.000301   0.000366   0.000060
    11  H    0.002121   0.019944  -0.002117   0.003059
    12  H    0.000353  -0.000244  -0.000168  -0.000002
    13  H    0.354232   0.102236  -0.021341  -0.006910
    14  O    0.102236   7.852113   0.287405   0.317438
    15  H   -0.021341   0.287405   0.408878  -0.020389
    16  H   -0.006910   0.317438  -0.020389   0.398776
 Mulliken charges:
               1
     1  C   -0.256723
     2  C    0.176030
     3  C   -0.241326
     4  O   -0.237416
     5  C   -0.408813
     6  N   -0.366478
     7  H    0.156687
     8  H    0.154174
     9  H    0.169260
    10  H    0.169371
    11  H    0.131704
    12  H    0.158143
    13  H    0.312199
    14  O   -0.510384
    15  H    0.288578
    16  H    0.304994
 Sum of Mulliken charges =  -0.00000
 Mulliken charges with hydrogens summed into heavy atoms:
               1
     1  C    0.223398
     2  C    0.176030
     3  C    0.217892
     4  O    0.074783
     5  C   -0.408813
     6  N   -0.366478
    14  O    0.083188
 APT charges:
               1
     1  C   -0.939768
     2  C   -0.151995
     3  C   -0.809333
     4  O   -0.121157
     5  C   -2.066712
     6  N    1.291164
     7  H    0.341530
     8  H    0.496817
     9  H    0.339096
    10  H    0.323114
    11  H    0.380305
    12  H    0.338876
    13  H    0.472007
    14  O   -0.714735
    15  H    0.148750
    16  H    0.672041
 Sum of APT charges =  -0.00000
 APT charges with hydrogens summed into heavy atoms:
               1
     1  C    0.237676
     2  C   -0.151995
     3  C    0.232962
     4  O    0.350849
     5  C   -2.066712
     6  N    1.291164
    14  O    0.106056
 Electronic spatial extent (au):  <R**2>=           1406.1517
 Charge=             -0.0000 electrons
 Dipole moment (field-independent basis, Debye):
    X=              9.8929    Y=             -3.8878    Z=              0.9528  Tot=             10.6721
 Quadrupole moment (field-independent basis, Debye-Ang):
   XX=            -81.5089   YY=            -32.4792   ZZ=            -46.6248
   XY=             12.1836   XZ=             -5.4419   YZ=             -3.5338
 Traceless Quadrupole moment (field-independent basis, Debye-Ang):
   XX=            -27.9713   YY=             21.0584   ZZ=              6.9128
   XY=             12.1836   XZ=             -5.4419   YZ=             -3.5338
 Octapole moment (field-independent basis, Debye-Ang**2):
  XXX=            334.3355  YYY=            -24.4106  ZZZ=            -81.4261  XYY=             47.7245
  XXY=            -38.4309  XXZ=             -0.9293  XZZ=             68.1097  YZZ=             -5.9829
  YYZ=             -7.5125  XYZ=              3.0817
 Hexadecapole moment (field-independent basis, Debye-Ang**3):
 XXXX=          -1692.3895 YYYY=           -264.2220 ZZZZ=           -427.6257 XXXY=            117.5764
 XXXZ=            -13.6776 YYYX=             39.7506 YYYZ=             22.1967 ZZZX=            104.5297
 ZZZY=             67.5103 XXYY=           -223.2961 XXZZ=           -275.0332 YYZZ=           -101.5182
 XXYZ=             25.0590 YYXZ=             -4.0149 ZZXY=             -1.7227
 N-N= 2.961273228549D+02 E-N=-1.441729582782D+03  KE= 3.617937631877D+02
  Exact polarizability:   0.000   0.000   0.000   0.000   0.000   0.000
 Approx polarizability: 107.559  -3.746  80.643  11.469  -9.589  87.502
 No NMR shielding tensors so no spin-rotation constants.
 Leave Link  601 at Wed Feb 19 11:12:57 2020, MaxMem=  1879048192 cpu:               5.0 elap:               0.2
 (Enter /gpfs/apps/medsci/stacks/noOS/software/gaussian/g16.a03.avx2/g16/l701.exe)
 ... and contract with generalized density number  0.
 Compute integral second derivatives.
 D2PCM: PCM CHGder 2nd derivatives, FixD1E=F FixD2E=F DoIter=F DoCFld=F I1PDM=0
 GePol: Maximum number of non-zero 2nd derivatives   =     231
 Leave Link  701 at Wed Feb 19 11:12:59 2020, MaxMem=  1879048192 cpu:              63.5 elap:               1.6
 (Enter /gpfs/apps/medsci/stacks/noOS/software/gaussian/g16.a03.avx2/g16/l702.exe)
 L702 exits ... SP integral derivatives will be done elsewhere.
 Leave Link  702 at Wed Feb 19 11:12:59 2020, MaxMem=  1879048192 cpu:               1.6 elap:               0.1
 (Enter /gpfs/apps/medsci/stacks/noOS/software/gaussian/g16.a03.avx2/g16/l703.exe)
 Integral derivatives from FoFJK, PRISM(SPDF).
 Compute integral second derivatives, UseDBF=F ICtDFT=           0.
 Calling FoFJK, ICntrl=    100127 FMM=F ISym2X=0 I1Cent= 0 IOpClX= 0 NMat=1 NMatS=1 NMatT=0.
 FoFJK:  IHMeth= 1 ICntrl=  100127 DoSepK=F KAlg= 0 I1Cent=           0 FoldK=F
 IRaf=         0 NMat=       1 IRICut=       1 DoRegI=T DoRafI=F ISym2E= 0 IDoP0=0 IntGTp=1.
 FoFCou: FMM=F IPFlag=           0 FMFlag=      100000 FMFlg1=         800
         NFxFlg=           0 DoJE=F BraDBF=F KetDBF=F FulRan=T
         wScrn=  0.000000 ICntrl=    100127 IOpCl=  0 I1Cent=           0 NGrid=           0
         NMat0=    1 NMatS0=      1 NMatT0=    0 NMatD0=    1 NMtDS0=    0 NMtDT0=    0
 Symmetry not used in FoFCou.
 Leave Link  703 at Wed Feb 19 11:13:07 2020, MaxMem=  1879048192 cpu:             324.0 elap:               8.2
 (Enter /gpfs/apps/medsci/stacks/noOS/software/gaussian/g16.a03.avx2/g16/l716.exe)
 Dipole        = 3.89218613D+00-1.52956113D+00 3.74849217D-01
 Polarizability= 0.00000000D+00 0.00000000D+00 0.00000000D+00
                 0.00000000D+00 0.00000000D+00 0.00000000D+00
 -------------------------------------------------------------------
 Center     Atomic                   Forces (Hartrees/Bohr)
 Number     Number              X              Y              Z
 -------------------------------------------------------------------
      1        6          -0.000011350    0.000003861   -0.000005190
      2        6           0.000004422   -0.000023199   -0.000021346
      3        6           0.000012467    0.000053720   -0.000027279
      4        8           0.000053063   -0.000014580   -0.000004941
      5        6          -0.000039154    0.000008630    0.000053633
      6        7           0.000041280   -0.000002307   -0.000060336
      7        1           0.000042467    0.000023265    0.000013165
      8        1           0.000006094   -0.000010769    0.000007151
      9        1          -0.000055806   -0.000023907   -0.000053321
     10        1          -0.000021700    0.000048115    0.000061521
     11        1          -0.000064998   -0.000025856    0.000062462
     12        1          -0.000031491   -0.000012111    0.000005765
     13        1          -0.000016222   -0.000048209   -0.000022902
     14        8          -0.000034388   -0.000025870   -0.000047184
     15        1           0.000004985    0.000004398   -0.000000574
     16        1           0.000110331    0.000044818    0.000039377
 -------------------------------------------------------------------
 Cartesian Forces:  Max     0.000110331 RMS     0.000037252
 Z-matrix is all fixed cartesians, so copy forces.
 Leave Link  716 at Wed Feb 19 11:13:07 2020, MaxMem=  1879048192 cpu:               1.1 elap:               0.0
 (Enter /gpfs/apps/medsci/stacks/noOS/software/gaussian/g16.a03.avx2/g16/l123.exe)
 IRC-IRC-IRC-IRC-IRC-IRC-IRC-IRC-IRC-IRC-IRC-IRC-IRC-IRC-IRC-IRC-IRC-IRC
          ******** Start new reaction path calculation ********
 Current Structure is TS -> form Hessian eigenvectors.
                            Diagonalizing Hessian.
 WARNING: TS HAS MORE THAN 1 IMAGINARY FREQUENCY!
 Supplied step size of   0.0700 bohr.
    Integration on MW PES will use step size of   0.1935 sqrt(amu)*bohr.
 Point Number:   0          Path Number:   1
 Calculating another point on the path.
 Point Number  1 in FORWARD path direction.
 Using LQA Reaction Path Following.
 IRC-IRC-IRC-IRC-IRC-IRC-IRC-IRC-IRC-IRC-IRC-IRC-IRC-IRC-IRC-IRC-IRC-IRC
 Leave Link  123 at Wed Feb 19 11:13:07 2020, MaxMem=  1879048192 cpu:               0.7 elap:               0.0
 (Enter /gpfs/apps/medsci/stacks/noOS/software/gaussian/g16.a03.avx2/g16/l202.exe)
                          Input orientation:                          
 ---------------------------------------------------------------------
 Center     Atomic      Atomic             Coordinates (Angstroms)
 Number     Number       Type             X           Y           Z
 ---------------------------------------------------------------------
      1          6           0        1.318751    1.670303   -0.604191
      2          6           0        1.031507    0.306169   -0.097509
      3          6           0        1.224316   -0.877538   -0.977280
      4          8           0        0.934971    0.182823    1.167457
      5          6           0       -1.543983    0.249633   -0.552814
      6          7           0       -2.475075    0.655330   -1.128151
      7          1           0        0.879805    1.816586   -1.589307
      8          1           0        0.971383    2.426697    0.096103
      9          1           0        2.408033    1.756523   -0.709565
     10          1           0        2.310884   -1.035943   -1.028608
     11          1           0        0.766842   -1.772937   -0.566500
     12          1           0        0.861449   -0.686443   -1.983860
     13          1           0        0.515857   -0.711671    1.437626
     14          8           0       -0.717921   -1.642225    1.621240
     15          1           0       -1.251388   -1.209338    0.917634
     16          1           0       -0.695952   -2.584226    1.416339
 ---------------------------------------------------------------------
                    Distance matrix (angstroms):
                    1          2          3          4          5
     1  C    0.000000
     2  C    1.483273   0.000000
     3  C    2.576744   1.487392   0.000000
     4  O    2.344913   1.274626   2.409976   0.000000
     5  C    3.196278   2.616037   3.018967   3.018113   0.000000
     6  N    3.962048   3.671546   4.007236   4.137811   1.167276
     7  H    1.088359   2.128341   2.784164   3.204991   3.066660
     8  H    1.087754   2.130197   3.483403   2.486784   3.389361
     9  H    1.097758   2.091163   2.900196   2.858261   4.232460
    10  H    2.913456   2.074853   1.099253   2.863779   4.091343
    11  H    3.487396   2.147716   1.086169   2.619136   3.070975
    12  H    2.768910   2.138345   1.086919   3.269836   2.951310
    13  H    3.238434   1.912729   2.522141   1.024094   3.021406
    14  O    4.480337   3.132225   3.333067   2.503752   2.998002
    15  H    4.148964   2.922137   3.135267   2.603976   2.091990
    16  H    5.122752   3.691915   3.511357   3.221555   3.553516
                    6          7          8          9         10
     6  N    0.000000
     7  H    3.580000   0.000000
     8  H    4.063817   1.794778   0.000000
     9  H    5.023204   1.764380   1.778258   0.000000
    10  H    5.076979   3.240261   3.879319   2.812310   0.000000
    11  H    4.089249   3.734109   4.256502   3.895005   1.772222
    12  H    3.696618   2.534001   3.745660   3.159720   1.770740
    13  H    4.171039   3.960664   3.443333   3.779251   3.067505
    14  O    3.990676   4.982340   4.662179   5.172594   4.069758
    15  H    3.026487   4.470229   4.340089   4.983520   4.062968
    16  H    4.487140   5.557343   5.443563   5.744240   4.173250
                   11         12         13         14         15
    11  H    0.000000
    12  H    1.788388   0.000000
    13  H    2.281622   3.438988   0.000000
    14  O    2.647227   4.050268   1.556230   0.000000
    15  H    2.567791   3.627143   1.908198   0.983382   0.000000
    16  H    2.594148   4.193857   2.230560   0.964278   1.564459
                   16
    16  H    0.000000
 Symmetry turned off by external request.
 Stoichiometry    C4H9NO2
 Framework group  C1[X(C4H9NO2)]
 Deg. of freedom    42
 Full point group                 C1      NOp   1
 Rotational constants (GHZ):           2.1890521           1.9222189           1.3111231
 Leave Link  202 at Wed Feb 19 11:13:07 2020, MaxMem=  1879048192 cpu:               0.4 elap:               0.0
 (Enter /gpfs/apps/medsci/stacks/noOS/software/gaussian/g16.a03.avx2/g16/l301.exe)
 Standard basis: 6-311G(2d,d,p) (5D, 7F)
 Ernie: Thresh=  0.10000D-02 Tol=  0.10000D-05 Strict=F.
   180 basis functions,   296 primitive gaussians,   187 cartesian basis functions
    28 alpha electrons       28 beta electrons
       nuclear repulsion energy       296.0196647311 Hartrees.
 IExCor=  402 DFT=T Ex+Corr=B3LYP ExCW=0 ScaHFX=  0.200000
 ScaDFX=  0.800000  0.720000  1.000000  0.810000 ScalE2=  1.000000  1.000000
 IRadAn=      5 IRanWt=     -1 IRanGd=            0 ICorTp=0 IEmpDi=  4
 NAtoms=   16 NActive=   16 NUniq=   16 SFac= 1.00D+00 NAtFMM=   60 NAOKFM=F Big=F
 Integral buffers will be    131072 words long.
 Raffenetti 2 integral format.
 Two-electron integral symmetry is turned off.
 Force inversion solution in PCM.
 ------------------------------------------------------------------------------
 Polarizable Continuum Model (PCM)
 =================================
 Model                : PCM.
 Atomic radii         : UFF (Universal Force Field).
 Polarization charges : Total charges.
 Charge compensation  : None.
 Solution method      : Matrix inversion.
 Cavity type          : Scaled VdW (van der Waals Surface) (Alpha=1.100).
 Cavity algorithm     : GePol (No added spheres)
                        Default sphere list used, NSphG=   16.
                        Lebedev-Laikov grids with approx.  5.0 points / Ang**2.
                        Smoothing algorithm: York/Karplus (Gamma=1.0000).
                        Polarization charges: spherical gaussians, with
                                              point-specific exponents (IZeta= 3).
                        Self-potential: point-specific (ISelfS= 7).
                        Self-field    : sphere-specific E.n sum rule (ISelfD= 2).
 1st derivatives      : Analytical E(r).r(x)/FMM algorithm (CHGder, D1EAlg=3).
                        Cavity 1st derivative terms included.
 2nd derivatives      : Analytical E(r).r(xy)/FMM algorithm (CHGder, D2EAlg=3).
                        Cavity 2nd derivative terms included.
 Solvent              : Water, Eps=  78.355300 Eps(inf)=   1.777849
 ------------------------------------------------------------------------------
 Spheres list:
 ISph  on   Nord     Re0    Alpha      Xe            Ye            Ze
    1   C      1    1.9255  1.100      1.318751      1.670303     -0.604191
    2   C      2    1.9255  1.100      1.031507      0.306169     -0.097509
    3   C      3    1.9255  1.100      1.224316     -0.877538     -0.977280
    4   O      4    1.7500  1.100      0.934971      0.182823      1.167457
    5   C      5    1.9255  1.100     -1.543983      0.249633     -0.552814
    6   N      6    1.8300  1.100     -2.475075      0.655330     -1.128151
    7   H      7    1.4430  1.100      0.879805      1.816586     -1.589307
    8   H      8    1.4430  1.100      0.971383      2.426697      0.096103
    9   H      9    1.4430  1.100      2.408033      1.756523     -0.709565
   10   H     10    1.4430  1.100      2.310884     -1.035943     -1.028608
   11   H     11    1.4430  1.100      0.766842     -1.772937     -0.566500
   12   H     12    1.4430  1.100      0.861449     -0.686443     -1.983860
   13   H     13    1.4430  1.100      0.515857     -0.711671      1.437626
   14   O     14    1.7500  1.100     -0.717921     -1.642225      1.621240
   15   H     15    1.4430  1.100     -1.251388     -1.209338      0.917634
   16   H     16    1.4430  1.100     -0.695952     -2.584226      1.416339
 ------------------------------------------------------------------------------
 GePol: Number of generator spheres                  =      16
 GePol: Total number of spheres                      =      16
 GePol: Number of exposed spheres                    =      16 (100.00%)
 GePol: Number of points                             =    1353
 GePol: Average weight of points                     =       0.14
 GePol: Minimum weight of points                     =   0.10D-08
 GePol: Maximum weight of points                     =    0.20577
 GePol: Number of points with low weight             =      67
 GePol: Fraction of low-weight points (<1% of avg)   =       4.95%
 GePol: Cavity surface area                          =    185.153 Ang**2
 GePol: Cavity volume                                =    176.868 Ang**3
 Leave Link  301 at Wed Feb 19 11:13:07 2020, MaxMem=  1879048192 cpu:               2.5 elap:               0.1
 (Enter /gpfs/apps/medsci/stacks/noOS/software/gaussian/g16.a03.avx2/g16/l302.exe)
 NPDir=0 NMtPBC=     1 NCelOv=     1 NCel=       1 NClECP=     1 NCelD=      1
         NCelK=      1 NCelE2=     1 NClLst=     1 CellRange=     0.0.
 One-electron integrals computed using PRISM.
 NBasis=   180 RedAO= T EigKep=  2.16D-03  NBF=   180
 NBsUse=   180 1.00D-06 EigRej= -1.00D+00 NBFU=   180
 Precomputing XC quadrature grid using
 IXCGrd= 4 IRadAn=           5 IRanWt=          -1 IRanGd=           0 AccXCQ= 0.00D+00.
 Generated NRdTot=       0 NPtTot=           0 NUsed=           0 NTot=          32
 NSgBfM=   187   187   187   187   187 MxSgAt=    16 MxSgA2=    16.
 Leave Link  302 at Wed Feb 19 11:13:07 2020, MaxMem=  1879048192 cpu:               6.5 elap:               0.2
 (Enter /gpfs/apps/medsci/stacks/noOS/software/gaussian/g16.a03.avx2/g16/l303.exe)
 DipDrv:  MaxL=1.
 Leave Link  303 at Wed Feb 19 11:13:07 2020, MaxMem=  1879048192 cpu:               1.7 elap:               0.1
 (Enter /gpfs/apps/medsci/stacks/noOS/software/gaussian/g16.a03.avx2/g16/l401.exe)
 Initial guess from the checkpoint file:  "check.chk"
 B after Tr=     2.527644    0.069668   -1.219444
         Rot=    1.000000   -0.000039   -0.000043    0.000019 Ang=  -0.01 deg.
 Guess basis will be translated and rotated to current coordinates.
 JPrj=2 DoOrth=T DoCkMO=T.
 Generating alternative initial guess.
 ExpMin= 1.03D-01 ExpMax= 8.59D+03 ExpMxC= 1.30D+03 IAcc=2 IRadAn=         4 AccDes= 0.00D+00
 Harris functional with IExCor=  402 and IRadAn=       4 diagonalized for initial guess.
 HarFok:  IExCor=  402 AccDes= 0.00D+00 IRadAn=         4 IDoV= 1 UseB2=F ITyADJ=14
 ICtDFT=  3500011 ScaDFX=  1.000000  1.000000  1.000000  1.000000
 FoFCou: FMM=F IPFlag=           0 FMFlag=      100000 FMFlg1=           0
         NFxFlg=           0 DoJE=T BraDBF=F KetDBF=T FulRan=T
         wScrn=  0.000000 ICntrl=       500 IOpCl=  0 I1Cent=   200000004 NGrid=           0
         NMat0=    1 NMatS0=      1 NMatT0=    0 NMatD0=    1 NMtDS0=    0 NMtDT0=    0
 Symmetry not used in FoFCou.
 Harris En= -363.170901308404    
 Leave Link  401 at Wed Feb 19 11:13:08 2020, MaxMem=  1879048192 cpu:              10.6 elap:               0.3
 (Enter /gpfs/apps/medsci/stacks/noOS/software/gaussian/g16.a03.avx2/g16/l502.exe)
 Two-electron integral symmetry not used.
 Closed shell SCF:
 Using DIIS extrapolation, IDIIS=  1040.
 NGot=  1879048192 LenX=  1878969171 LenY=  1878933761
 Requested convergence on RMS density matrix=1.00D-08 within  32 cycles.
 Requested convergence on MAX density matrix=1.00D-06.
 Requested convergence on             energy=1.00D-06.
 No special actions if energy rises.
 Fock matrices will be formed incrementally for  20 cycles.

 Cycle   1  Pass 1  IDiag  1:
 FoFJK:  IHMeth= 1 ICntrl=       0 DoSepK=F KAlg= 0 I1Cent=           0 FoldK=F
 IRaf= 960000000 NMat=       1 IRICut=       1 DoRegI=T DoRafI=F ISym2E= 0 IDoP0=0 IntGTp=1.
 FoFCou: FMM=F IPFlag=           0 FMFlag=      100000 FMFlg1=           0
         NFxFlg=           0 DoJE=F BraDBF=F KetDBF=F FulRan=T
         wScrn=  0.000000 ICntrl=         0 IOpCl=  0 I1Cent=           0 NGrid=           0
         NMat0=    1 NMatS0=      1 NMatT0=    0 NMatD0=    1 NMtDS0=    0 NMtDT0=    0
 Symmetry not used in FoFCou.
 Inv3:  Mode=1 IEnd=     5491827.
 Iteration    1 A*A^-1 deviation from unit magnitude is 3.22D-15 for     15.
 Iteration    1 A*A^-1 deviation from orthogonality  is 1.55D-15 for   1180    894.
 Iteration    1 A^-1*A deviation from unit magnitude is 3.22D-15 for    222.
 Iteration    1 A^-1*A deviation from orthogonality  is 1.78D-15 for   1090    548.
 E= -363.099777418228    
 DIIS: error= 1.47D-03 at cycle   1 NSaved=   1.
 NSaved= 1 IEnMin= 1 EnMin= -363.099777418228     IErMin= 1 ErrMin= 1.47D-03
 ErrMax= 1.47D-03  0.00D+00 EMaxC= 1.00D-01 BMatC= 3.39D-04 BMatP= 3.39D-04
 IDIUse=3 WtCom= 9.85D-01 WtEn= 1.47D-02
 Coeff-Com:  0.100D+01
 Coeff-En:   0.100D+01
 Coeff:      0.100D+01
 Gap=     0.553 Goal=   None    Shift=    0.000
 GapD=    0.553 DampG=2.000 DampE=1.000 DampFc=2.0000 IDamp=-1.
 RMSDP=1.58D-04 MaxDP=3.19D-03              OVMax= 1.76D-02

 Cycle   2  Pass 1  IDiag  1:
 RMSU=  1.58D-04    CP:  1.00D+00
 E= -363.100349678257     Delta-E=       -0.000572260030 Rises=F Damp=F
 DIIS: error= 3.21D-04 at cycle   2 NSaved=   2.
 NSaved= 2 IEnMin= 2 EnMin= -363.100349678257     IErMin= 2 ErrMin= 3.21D-04
 ErrMax= 3.21D-04  0.00D+00 EMaxC= 1.00D-01 BMatC= 1.10D-05 BMatP= 3.39D-04
 IDIUse=3 WtCom= 9.97D-01 WtEn= 3.21D-03
 Coeff-Com: -0.441D-01 0.104D+01
 Coeff-En:   0.000D+00 0.100D+01
 Coeff:     -0.440D-01 0.104D+01
 Gap=     0.182 Goal=   None    Shift=    0.000
 RMSDP=3.62D-05 MaxDP=1.80D-03 DE=-5.72D-04 OVMax= 2.25D-03

 Cycle   3  Pass 1  IDiag  1:
 RMSU=  3.52D-05    CP:  1.00D+00  1.05D+00
 E= -363.100352103807     Delta-E=       -0.000002425550 Rises=F Damp=F
 DIIS: error= 2.64D-04 at cycle   3 NSaved=   3.
 NSaved= 3 IEnMin= 3 EnMin= -363.100352103807     IErMin= 3 ErrMin= 2.64D-04
 ErrMax= 2.64D-04  0.00D+00 EMaxC= 1.00D-01 BMatC= 1.71D-05 BMatP= 1.10D-05
 IDIUse=3 WtCom= 3.81D-01 WtEn= 6.19D-01
 Coeff-Com: -0.438D-01 0.609D+00 0.434D+00
 Coeff-En:   0.000D+00 0.435D+00 0.565D+00
 Coeff:     -0.167D-01 0.501D+00 0.515D+00
 Gap=     0.182 Goal=   None    Shift=    0.000
 RMSDP=2.26D-05 MaxDP=6.91D-04 DE=-2.43D-06 OVMax= 1.59D-03

 Cycle   4  Pass 1  IDiag  1:
 RMSU=  1.27D-05    CP:  1.00D+00  1.09D+00  4.91D-01
 E= -363.100362109576     Delta-E=       -0.000010005769 Rises=F Damp=F
 DIIS: error= 2.13D-04 at cycle   4 NSaved=   4.
 NSaved= 4 IEnMin= 4 EnMin= -363.100362109576     IErMin= 4 ErrMin= 2.13D-04
 ErrMax= 2.13D-04  0.00D+00 EMaxC= 1.00D-01 BMatC= 4.72D-06 BMatP= 1.10D-05
 IDIUse=3 WtCom= 9.98D-01 WtEn= 2.13D-03
 Coeff-Com: -0.148D-01 0.160D+00 0.347D+00 0.508D+00
 Coeff-En:   0.000D+00 0.000D+00 0.234D+00 0.766D+00
 Coeff:     -0.148D-01 0.160D+00 0.347D+00 0.508D+00
 Gap=     0.182 Goal=   None    Shift=    0.000
 RMSDP=7.49D-06 MaxDP=2.47D-04 DE=-1.00D-05 OVMax= 5.45D-04

 Cycle   5  Pass 1  IDiag  1:
 RMSU=  4.30D-06    CP:  1.00D+00  1.10D+00  6.25D-01  6.99D-01
 E= -363.100365367239     Delta-E=       -0.000003257663 Rises=F Damp=F
 DIIS: error= 8.31D-05 at cycle   5 NSaved=   5.
 NSaved= 5 IEnMin= 5 EnMin= -363.100365367239     IErMin= 5 ErrMin= 8.31D-05
 ErrMax= 8.31D-05  0.00D+00 EMaxC= 1.00D-01 BMatC= 3.29D-07 BMatP= 4.72D-06
 IDIUse=1 WtCom= 1.00D+00 WtEn= 0.00D+00
 Coeff-Com: -0.373D-02 0.202D-01 0.172D+00 0.330D+00 0.481D+00
 Coeff:     -0.373D-02 0.202D-01 0.172D+00 0.330D+00 0.481D+00
 Gap=     0.182 Goal=   None    Shift=    0.000
 RMSDP=2.29D-06 MaxDP=9.63D-05 DE=-3.26D-06 OVMax= 2.37D-04

 Cycle   6  Pass 1  IDiag  1:
 RMSU=  1.67D-06    CP:  1.00D+00  1.10D+00  6.36D-01  7.54D-01  6.91D-01
 E= -363.100365616899     Delta-E=       -0.000000249659 Rises=F Damp=F
 DIIS: error= 2.84D-05 at cycle   6 NSaved=   6.
 NSaved= 6 IEnMin= 6 EnMin= -363.100365616899     IErMin= 6 ErrMin= 2.84D-05
 ErrMax= 2.84D-05  0.00D+00 EMaxC= 1.00D-01 BMatC= 3.57D-08 BMatP= 3.29D-07
 IDIUse=1 WtCom= 1.00D+00 WtEn= 0.00D+00
 Coeff-Com:  0.699D-04-0.155D-01 0.539D-01 0.123D+00 0.294D+00 0.544D+00
 Coeff:      0.699D-04-0.155D-01 0.539D-01 0.123D+00 0.294D+00 0.544D+00
 Gap=     0.182 Goal=   None    Shift=    0.000
 RMSDP=1.09D-06 MaxDP=8.06D-05 DE=-2.50D-07 OVMax= 6.92D-05

 Cycle   7  Pass 1  IDiag  1:
 RMSU=  5.32D-07    CP:  1.00D+00  1.10D+00  6.55D-01  7.69D-01  7.15D-01
                    CP:  6.27D-01
 E= -363.100365647198     Delta-E=       -0.000000030299 Rises=F Damp=F
 DIIS: error= 5.16D-06 at cycle   7 NSaved=   7.
 NSaved= 7 IEnMin= 7 EnMin= -363.100365647198     IErMin= 7 ErrMin= 5.16D-06
 ErrMax= 5.16D-06  0.00D+00 EMaxC= 1.00D-01 BMatC= 3.89D-09 BMatP= 3.57D-08
 IDIUse=1 WtCom= 1.00D+00 WtEn= 0.00D+00
 Coeff-Com:  0.670D-03-0.135D-01 0.488D-02 0.197D-01 0.894D-01 0.307D+00
 Coeff-Com:  0.592D+00
 Coeff:      0.670D-03-0.135D-01 0.488D-02 0.197D-01 0.894D-01 0.307D+00
 Coeff:      0.592D+00
 Gap=     0.182 Goal=   None    Shift=    0.000
 RMSDP=2.91D-07 MaxDP=8.77D-06 DE=-3.03D-08 OVMax= 2.33D-05

 Cycle   8  Pass 1  IDiag  1:
 RMSU=  1.42D-07    CP:  1.00D+00  1.10D+00  6.56D-01  7.77D-01  7.41D-01
                    CP:  6.76D-01  6.85D-01
 E= -363.100365650487     Delta-E=       -0.000000003289 Rises=F Damp=F
 DIIS: error= 1.19D-06 at cycle   8 NSaved=   8.
 NSaved= 8 IEnMin= 8 EnMin= -363.100365650487     IErMin= 8 ErrMin= 1.19D-06
 ErrMax= 1.19D-06  0.00D+00 EMaxC= 1.00D-01 BMatC= 2.70D-10 BMatP= 3.89D-09
 IDIUse=1 WtCom= 1.00D+00 WtEn= 0.00D+00
 Coeff-Com:  0.344D-03-0.606D-02-0.964D-03 0.172D-02 0.243D-01 0.120D+00
 Coeff-Com:  0.303D+00 0.558D+00
 Coeff:      0.344D-03-0.606D-02-0.964D-03 0.172D-02 0.243D-01 0.120D+00
 Coeff:      0.303D+00 0.558D+00
 Gap=     0.182 Goal=   None    Shift=    0.000
 RMSDP=7.11D-08 MaxDP=2.65D-06 DE=-3.29D-09 OVMax= 4.87D-06

 Cycle   9  Pass 1  IDiag  1:
 RMSU=  4.73D-08    CP:  1.00D+00  1.10D+00  6.56D-01  7.78D-01  7.45D-01
                    CP:  6.89D-01  6.99D-01  7.14D-01
 E= -363.100365650670     Delta-E=       -0.000000000184 Rises=F Damp=F
 DIIS: error= 2.66D-07 at cycle   9 NSaved=   9.
 NSaved= 9 IEnMin= 9 EnMin= -363.100365650670     IErMin= 9 ErrMin= 2.66D-07
 ErrMax= 2.66D-07  0.00D+00 EMaxC= 1.00D-01 BMatC= 1.60D-11 BMatP= 2.70D-10
 IDIUse=1 WtCom= 1.00D+00 WtEn= 0.00D+00
 Coeff-Com:  0.761D-04-0.120D-02-0.858D-03-0.153D-02 0.417D-03 0.193D-01
 Coeff-Com:  0.712D-01 0.241D+00 0.672D+00
 Coeff:      0.761D-04-0.120D-02-0.858D-03-0.153D-02 0.417D-03 0.193D-01
 Coeff:      0.712D-01 0.241D+00 0.672D+00
 Gap=     0.182 Goal=   None    Shift=    0.000
 RMSDP=2.23D-08 MaxDP=6.87D-07 DE=-1.84D-10 OVMax= 9.40D-07

 Cycle  10  Pass 1  IDiag  1:
 RMSU=  1.39D-08    CP:  1.00D+00  1.10D+00  6.56D-01  7.78D-01  7.45D-01
                    CP:  6.92D-01  7.09D-01  7.45D-01  7.91D-01
 E= -363.100365650681     Delta-E=       -0.000000000011 Rises=F Damp=F
 DIIS: error= 6.70D-08 at cycle  10 NSaved=  10.
 NSaved=10 IEnMin=10 EnMin= -363.100365650681     IErMin=10 ErrMin= 6.70D-08
 ErrMax= 6.70D-08  0.00D+00 EMaxC= 1.00D-01 BMatC= 1.37D-12 BMatP= 1.60D-11
 IDIUse=1 WtCom= 1.00D+00 WtEn= 0.00D+00
 Coeff-Com:  0.668D-05-0.704D-05-0.179D-03-0.666D-03-0.158D-02-0.131D-02
 Coeff-Com:  0.640D-02 0.593D-01 0.293D+00 0.645D+00
 Coeff:      0.668D-05-0.704D-05-0.179D-03-0.666D-03-0.158D-02-0.131D-02
 Coeff:      0.640D-02 0.593D-01 0.293D+00 0.645D+00
 Gap=     0.182 Goal=   None    Shift=    0.000
 RMSDP=7.60D-09 MaxDP=3.93D-07 DE=-1.11D-11 OVMax= 4.57D-07

 Error on total polarization charges =  0.00754
 SCF Done:  E(RB3LYP) =  -363.100365651     A.U. after   10 cycles
            NFock= 10  Conv=0.76D-08     -V/T= 2.0036
 KE= 3.617944496747D+02 PE=-1.441499039485D+03 EE= 4.205845594282D+02
 Leave Link  502 at Wed Feb 19 11:13:12 2020, MaxMem=  1879048192 cpu:             180.9 elap:               4.7
 (Enter /gpfs/apps/medsci/stacks/noOS/software/gaussian/g16.a03.avx2/g16/l508.exe)
 QCSCF skips out because SCF is already converged.
 Leave Link  508 at Wed Feb 19 11:13:12 2020, MaxMem=  1879048192 cpu:               1.9 elap:               0.1
 (Enter /gpfs/apps/medsci/stacks/noOS/software/gaussian/g16.a03.avx2/g16/l801.exe)
 DoSCS=F DFT=T ScalE2(SS,OS)=  1.000000  1.000000
 Range of M.O.s used for correlation:     1   180
 NBasis=   180 NAE=    28 NBE=    28 NFC=     0 NFV=     0
 NROrb=    180 NOA=    28 NOB=    28 NVA=   152 NVB=   152
 Leave Link  801 at Wed Feb 19 11:13:13 2020, MaxMem=  1879048192 cpu:               1.7 elap:               0.1
 (Enter /gpfs/apps/medsci/stacks/noOS/software/gaussian/g16.a03.avx2/g16/l1101.exe)
 Using compressed storage, NAtomX=    16.
 Will process     17 centers per pass.
 Leave Link 1101 at Wed Feb 19 11:13:13 2020, MaxMem=  1879048192 cpu:               6.8 elap:               0.2
 (Enter /gpfs/apps/medsci/stacks/noOS/software/gaussian/g16.a03.avx2/g16/l1102.exe)
 Symmetrizing basis deriv contribution to polar:
 IMax=3 JMax=2 DiffMx= 0.00D+00
 Leave Link 1102 at Wed Feb 19 11:13:13 2020, MaxMem=  1879048192 cpu:               4.7 elap:               0.2
 (Enter /gpfs/apps/medsci/stacks/noOS/software/gaussian/g16.a03.avx2/g16/l1110.exe)
 Forming Gx(P) for the SCF density, NAtomX=    16.
 Integral derivatives from FoFJK, PRISM(SPDF).
 Do as many integral derivatives as possible in FoFJK.
 G2DrvN: MDV=    1879046904.
 G2DrvN: will do    17 centers at a time, making    1 passes.
 Calling FoFCou, ICntrl=  3107 FMM=F I1Cent=   0 AccDes= 0.00D+00.
 FoFJK:  IHMeth= 1 ICntrl=    3107 DoSepK=F KAlg= 0 I1Cent=           0 FoldK=F
 IRaf=         0 NMat=       1 IRICut=       1 DoRegI=T DoRafI=F ISym2E= 0 IDoP0=0 IntGTp=1.
 FoFCou: FMM=F IPFlag=           0 FMFlag=      100000 FMFlg1=           0
         NFxFlg=           0 DoJE=F BraDBF=F KetDBF=F FulRan=T
         wScrn=  0.000000 ICntrl=      3107 IOpCl=  0 I1Cent=           0 NGrid=           0
         NMat0=    1 NMatS0=      1 NMatT0=    0 NMatD0=    1 NMtDS0=    0 NMtDT0=    0
 Symmetry not used in FoFCou.
 NEqPCM:  Using equilibrium solvation (IEInf=0, Eps=  78.3553, EpsInf=   1.7778)
 G2PCM: DoFxE=T DoFxN=T DoGrad=T DoDP/DQ/DG/TGxP=FFFF NFrqRd=   0 IEInf=0 SqF1=F DoCFld=F IF1Alg=4.
 GePol: Maximum number of non-zero 1st derivatives   =     233
 End of G2Drv F.D. properties file   721 does not exist.
 End of G2Drv F.D. properties file   722 does not exist.
 End of G2Drv F.D. properties file   788 does not exist.
 Leave Link 1110 at Wed Feb 19 11:13:18 2020, MaxMem=  1879048192 cpu:             217.2 elap:               5.5
 (Enter /gpfs/apps/medsci/stacks/noOS/software/gaussian/g16.a03.avx2/g16/l1002.exe)
 Minotr:  Closed shell wavefunction.
          IDoAtm=1111111111111111
 NEqPCM:  Using equilibrium solvation (IEInf=0, Eps=  78.3553, EpsInf=   1.7778)
          Direct CPHF calculation.
          Differentiating once with respect to nuclear coordinates.
          Requested convergence is 1.0D-08 RMS, and 1.0D-07 maximum.
          Secondary convergence is 1.0D-12 RMS, and 1.0D-12 maximum.
          NewPWx=T KeepS1=F KeepF1=F KeepIn=T MapXYZ=F SortEE=F KeepMc=T.
         4776 words used for storage of precomputed grid.
 Keep R1 ints in memory in canonical form, NReq=173073270.
 FoFCou: FMM=F IPFlag=           0 FMFlag=           0 FMFlg1=           0
         NFxFlg=           0 DoJE=F BraDBF=F KetDBF=F FulRan=T
         wScrn=  0.000000 ICntrl=       600 IOpCl=  0 I1Cent=           0 NGrid=           0
         NMat0=    1 NMatS0=  16290 NMatT0=    0 NMatD0=    1 NMtDS0=    0 NMtDT0=    0
 Symmetry not used in FoFCou.
 Two-electron integral symmetry not used.
          MDV=    1879048192 using IRadAn=       1.
          Solving linear equations simultaneously, MaxMat=       0.
          There are    51 degrees of freedom in the 1st order CPHF.  IDoFFX=6 NUNeed=     0.
     45 vectors produced by pass  0 Test12= 8.35D-15 1.96D-09 XBig12= 1.26D-01 1.81D-01.
 AX will form    45 AO Fock derivatives at one time.
     45 vectors produced by pass  1 Test12= 8.35D-15 1.96D-09 XBig12= 2.01D-02 3.20D-02.
     45 vectors produced by pass  2 Test12= 8.35D-15 1.96D-09 XBig12= 1.94D-04 3.08D-03.
     45 vectors produced by pass  3 Test12= 8.35D-15 1.96D-09 XBig12= 6.82D-07 1.89D-04.
     45 vectors produced by pass  4 Test12= 8.35D-15 1.96D-09 XBig12= 1.23D-09 1.09D-05.
     29 vectors produced by pass  5 Test12= 8.35D-15 1.96D-09 XBig12= 1.09D-12 1.13D-07.
      4 vectors produced by pass  6 Test12= 8.35D-15 1.96D-09 XBig12= 1.05D-15 4.96D-09.
 InvSVY:  IOpt=1 It=  1 EMax= 4.44D-16
 Solved reduced A of dimension   258 with    51 vectors.
 End of Minotr F.D. properties file   721 does not exist.
 End of Minotr F.D. properties file   722 does not exist.
 End of Minotr F.D. properties file   788 does not exist.
 Leave Link 1002 at Wed Feb 19 11:13:24 2020, MaxMem=  1879048192 cpu:             213.7 elap:               5.4
 (Enter /gpfs/apps/medsci/stacks/noOS/software/gaussian/g16.a03.avx2/g16/l701.exe)
 ... and contract with generalized density number  0.
 Compute integral second derivatives.
 D2PCM: PCM CHGder 2nd derivatives, FixD1E=F FixD2E=F DoIter=F DoCFld=F I1PDM=0
 GePol: Maximum number of non-zero 2nd derivatives   =     233
 Leave Link  701 at Wed Feb 19 11:13:26 2020, MaxMem=  1879048192 cpu:              64.8 elap:               1.6
 (Enter /gpfs/apps/medsci/stacks/noOS/software/gaussian/g16.a03.avx2/g16/l702.exe)
 L702 exits ... SP integral derivatives will be done elsewhere.
 Leave Link  702 at Wed Feb 19 11:13:26 2020, MaxMem=  1879048192 cpu:               0.7 elap:               0.0
 (Enter /gpfs/apps/medsci/stacks/noOS/software/gaussian/g16.a03.avx2/g16/l703.exe)
 Integral derivatives from FoFJK, PRISM(SPDF).
 Compute integral second derivatives, UseDBF=F ICtDFT=           0.
 Calling FoFJK, ICntrl=    100127 FMM=F ISym2X=0 I1Cent= 0 IOpClX= 0 NMat=1 NMatS=1 NMatT=0.
 FoFJK:  IHMeth= 1 ICntrl=  100127 DoSepK=F KAlg= 0 I1Cent=           0 FoldK=F
 IRaf=         0 NMat=       1 IRICut=       1 DoRegI=T DoRafI=F ISym2E= 0 IDoP0=0 IntGTp=1.
 FoFCou: FMM=F IPFlag=           0 FMFlag=      100000 FMFlg1=         800
         NFxFlg=           0 DoJE=F BraDBF=F KetDBF=F FulRan=T
         wScrn=  0.000000 ICntrl=    100127 IOpCl=  0 I1Cent=           0 NGrid=           0
         NMat0=    1 NMatS0=      1 NMatT0=    0 NMatD0=    1 NMtDS0=    0 NMtDT0=    0
 Symmetry not used in FoFCou.
 Leave Link  703 at Wed Feb 19 11:13:34 2020, MaxMem=  1879048192 cpu:             322.6 elap:               8.1
 (Enter /gpfs/apps/medsci/stacks/noOS/software/gaussian/g16.a03.avx2/g16/l716.exe)
 Dipole        = 3.96564942D+00-1.51747271D+00 3.73050961D-01
 Polarizability= 0.00000000D+00 0.00000000D+00 0.00000000D+00
                 0.00000000D+00 0.00000000D+00 0.00000000D+00
 -------------------------------------------------------------------
 Center     Atomic                   Forces (Hartrees/Bohr)
 Number     Number              X              Y              Z
 -------------------------------------------------------------------
      1        6           0.000208502    0.000013742    0.000044944
      2        6           0.000396324   -0.000030583    0.000051540
      3        6           0.000129409    0.000085907   -0.000015012
      4        8           0.000072643   -0.000035736   -0.000016694
      5        6          -0.001419959   -0.000329576    0.000012817
      6        7           0.000597355    0.000037185    0.000040570
      7        1           0.000031941    0.000011913    0.000054739
      8        1           0.000037239   -0.000018452    0.000016667
      9        1          -0.000079441   -0.000009377   -0.000083982
     10        1          -0.000032741    0.000041180    0.000033976
     11        1          -0.000055094   -0.000024023    0.000068989
     12        1          -0.000040117    0.000000308    0.000021593
     13        1          -0.000039973   -0.000077674   -0.000014949
     14        8           0.000069433    0.000227758   -0.000206359
     15        1           0.000003887    0.000042802   -0.000032216
     16        1           0.000120592    0.000064627    0.000023377
 -------------------------------------------------------------------
 Cartesian Forces:  Max     0.001419959 RMS     0.000245193
 Z-matrix is all fixed cartesians, so copy forces.
 Leave Link  716 at Wed Feb 19 11:13:34 2020, MaxMem=  1879048192 cpu:               1.3 elap:               0.1
 (Enter /gpfs/apps/medsci/stacks/noOS/software/gaussian/g16.a03.avx2/g16/l123.exe)
 IRC-IRC-IRC-IRC-IRC-IRC-IRC-IRC-IRC-IRC-IRC-IRC-IRC-IRC-IRC-IRC-IRC-IRC
 Pt  1 Step number   1 out of a maximum of  20
 Using modified Bulirsch-Stoer corrector integration.
   Using distance weighted interpolants to fit PES.
 PreDWI: IReCr0= 2 IReCr1= 1 IReCr2= 1 IReCr3= 1
 Modified Bulirsch-Stoer Extrapolation Cycles:
    EPS =    0.000010000000000
    Cycle     1 NS=    48
      PEZero:  N= 2 I= 1 D=  5.04D-04 Err=  2.95D-02
    Cycle     2 NS=    64 Truncation Error =  0.029548954
      PEZero:  N= 3 I= 2 D=  5.04D-04 Err=  3.67D-02
      PEZero:  N= 3 I= 1 D=  1.01D-03 Err=  2.55D-02
    Cycle     3 NS=    96 Truncation Error =  0.025533893
      PEZero:  N= 4 I= 3 D=  2.52D-04 Err=  1.03D-02
      PEZero:  N= 4 I= 2 D=  7.56D-04 Err=  2.29D-02
[...]
   Old End-Start Dist.        =     0.193424
   New End-Start Dist.        =     0.193382
   New End-Old End Dist.      =     0.000554
 CORRECTOR INTEGRATION CONVERGENCE:
   Recorrection delta-x convergence threshold:    0.010000
   Delta-x Convergence Met
 Point Number:  50          Path Number:   1
                    CURRENT STRUCTURE
                Cartesian Coordinates (Ang):                
 ---------------------------------------------------------------------
 Center     Atomic                     Coordinates (Angstroms)
 Number     Number                        X           Y           Z
 ---------------------------------------------------------------------
      1          6                    1.603093    1.748653   -0.646002
      2          6                    1.303065    0.388492   -0.071979
      3          6                    1.379784   -0.789890   -1.011379
      4          8                    1.004901    0.253700    1.105876
      5          6                   -2.169144   -0.060614   -0.386918
      6          7                   -2.466202    0.703356   -1.193726
      7          1                    0.770733    2.040110   -1.295905
      8          1                    1.709865    2.482635    0.151326
      9          1                    2.500852    1.724659   -1.268472
     10          1                    2.435241   -1.025070   -1.186183
     11          1                    0.891371   -1.660228   -0.576139
     12          1                    0.939147   -0.552464   -1.981930
     13          1                   -0.057015   -1.183606    1.641227
     14          8                   -0.860890   -1.735153    1.692407
     15          1                   -1.845562   -0.771062    0.372360
     16          1                   -0.568648   -2.635958    1.517087
 ---------------------------------------------------------------------
   CHANGE IN THE REACTION COORDINATE =    0.19338
   NET REACTION COORDINATE UP TO THIS POINT =    9.64608
  # OF POINTS ALONG THE PATH =  50
  # OF STEPS =   1

 Maximum number of steps reached.
 Calculation of FORWARD path complete.
 Reaction path calculation complete.
 
 Energies reported relative to the TS energy of        -363.100328
 --------------------------------------------------------------------------
    Summary of reaction path following
 --------------------------------------------------------------------------
                        Energy    RxCoord
   1                    0.00000   0.00000
   2                   -0.00004   0.19148
   3                   -0.00015   0.38484
   4                   -0.00032   0.57826
   5                   -0.00055   0.77169
   6                   -0.00083   0.96513
   7                   -0.00116   1.15856
   8                   -0.00154   1.35200
   9                   -0.00195   1.54543
  10                   -0.00240   1.73887
  11                   -0.00288   1.93231
  12                   -0.00338   2.12574
  13                   -0.00390   2.31918
  14                   -0.00444   2.51260
  15                   -0.00500   2.70601
  16                   -0.00560   2.89934
  17                   -0.00625   3.09236
  18                   -0.00710   3.28435
  19                   -0.00848   3.47657
  20                   -0.01023   3.66828
  21                   -0.01185   3.85930
  22                   -0.01372   4.05198
  23                   -0.01661   4.24432
  24                   -0.02151   4.43735
  25                   -0.02833   4.63069
  26                   -0.03514   4.82395
  27                   -0.03885   5.01053
  28                   -0.04040   5.19965
  29                   -0.04174   5.39300
  30                   -0.04292   5.58641
  31                   -0.04396   5.77984
  32                   -0.04489   5.97328
  33                   -0.04570   6.16671
  34                   -0.04642   6.36015
  35                   -0.04704   6.55357
  36                   -0.04758   6.74699
  37                   -0.04804   6.94040
  38                   -0.04844   7.13379
  39                   -0.04877   7.32715
  40                   -0.04906   7.52047
  41                   -0.04929   7.71374
  42                   -0.04948   7.90694
  43                   -0.04965   8.10010
  44                   -0.04979   8.29325
  45                   -0.04990   8.48640
  46                   -0.05001   8.67959
  47                   -0.05010   8.87281
  48                   -0.05018   9.06606
  49                   -0.05026   9.25935
  50                   -0.05033   9.45269
  51                   -0.05040   9.64608
 --------------------------------------------------------------------------
 
 Total number of points:                   50
 Total number of gradient calculations:    57
 Total number of Hessian calculations:     51
 IRC-IRC-IRC-IRC-IRC-IRC-IRC-IRC-IRC-IRC-IRC-IRC-IRC-IRC-IRC-IRC-IRC-IRC
 Leave Link  123 at Wed Feb 19 11:36:01 2020, MaxMem=  1879048192 cpu:              36.0 elap:               1.2
 (Enter /gpfs/apps/medsci/stacks/noOS/software/gaussian/g16.a03.avx2/g16/l202.exe)
                          Input orientation:                          
 ---------------------------------------------------------------------
 Center     Atomic      Atomic             Coordinates (Angstroms)
 Number     Number       Type             X           Y           Z
 ---------------------------------------------------------------------
      1          6           0        1.603122    1.748665   -0.646010
      2          6           0        1.303083    0.388479   -0.071974
      3          6           0        1.379778   -0.789899   -1.011381
      4          8           0        1.004897    0.253669    1.105903
      5          6           0       -2.169150   -0.060598   -0.386920
      6          7           0       -2.466202    0.703388   -1.193731
      7          1           0        0.770707    2.040103   -1.295927
      8          1           0        1.709900    2.482693    0.151319
      9          1           0        2.500894    1.724647   -1.268486
     10          1           0        2.435247   -1.025091   -1.186193
     11          1           0        0.891342   -1.660243   -0.576124
     12          1           0        0.939120   -0.552454   -1.981943
     13          1           0       -0.057026   -1.183606    1.641218
     14          8           0       -0.860909   -1.735156    1.692396
     15          1           0       -1.845570   -0.771060    0.372360
     16          1           0       -0.568660   -2.635958    1.517059
 ---------------------------------------------------------------------
                    Distance matrix (angstroms):
                    1          2          3          4          5
     1  C    0.000000
     2  C    1.506535   0.000000
     3  C    2.574430   1.508954   0.000000
     4  O    2.379514   1.222491   2.390075   0.000000
     5  C    4.191730   3.515289   3.676509   3.521627   0.000000
     6  N    4.236980   3.945252   4.129736   4.187970   1.150156
     7  H    1.095556   2.123522   2.908753   3.002495   3.725855
     8  H    1.089005   2.145016   3.488655   2.525235   4.669589
     9  H    1.092724   2.156788   2.765131   3.168518   5.076767
    10  H    2.945836   2.126372   1.095394   2.989119   4.771745
    11  H    3.483127   2.149642   1.088814   2.550523   3.458508
    12  H    2.742401   2.160048   1.092040   3.192014   3.528082
    13  H    4.072557   2.693766   3.042316   1.865476   3.136169
    14  O    4.865860   3.507946   3.636563   2.789377   2.973078
    15  H    4.390850   3.384668   3.509695   3.116619   1.089021
    16  H    5.349806   3.895596   3.687459   3.315882   3.580389
                    6          7          8          9         10
     6  N    0.000000
     7  H    3.503546   0.000000
     8  H    4.734439   1.781148   0.000000
     9  H    5.071548   1.758923   1.793363   0.000000
    10  H    5.197297   3.489720   3.823560   2.751752   0.000000
    11  H    4.152264   3.771635   4.285223   3.811496   1.777426
    12  H    3.714113   2.687068   3.789067   2.851902   1.759261
    13  H    4.171548   4.438948   4.334002   4.844302   3.772374
    14  O    4.105264   5.083780   5.174382   5.660280   4.433408
    15  H    2.238710   4.186971   4.824638   5.273772   4.562785
    16  H    4.701094   5.618927   5.766946   6.016336   4.350393
                   11         12         13         14         15
    11  H    0.000000
    12  H    1.790477   0.000000
    13  H    2.458290   3.810243   0.000000
    14  O    2.867434   4.259067   0.976245   0.000000
    15  H    3.030009   3.653085   2.231386   1.908280   0.000000
    16  H    2.732223   4.342512   1.544833   0.963118   2.533512
                   16
    16  H    0.000000
 Symmetry turned off by external request.
 Stoichiometry    C4H9NO2
 Framework group  C1[X(C4H9NO2)]
 Deg. of freedom    42
 Full point group                 C1      NOp   1
 Rotational constants (GHZ):           2.1510001           1.5287907           1.1004655
 Leave Link  202 at Wed Feb 19 11:36:01 2020, MaxMem=  1879048192 cpu:               0.5 elap:               0.0
 (Enter /gpfs/apps/medsci/stacks/noOS/software/gaussian/g16.a03.avx2/g16/l601.exe)
 Copying SCF densities to generalized density rwf, IOpCl= 0 IROHF=0.

 **********************************************************************

            Population analysis using the SCF density.

 **********************************************************************

 Alpha  occ. eigenvalues --  -19.12921 -19.11842 -14.32478 -10.28039 -10.21077
 Alpha  occ. eigenvalues --  -10.17759 -10.17615  -1.06408  -1.01178  -0.92194
 Alpha  occ. eigenvalues --   -0.78011  -0.71870  -0.58442  -0.55419  -0.52883
 Alpha  occ. eigenvalues --   -0.47271  -0.46971  -0.46893  -0.41243  -0.40786
 Alpha  occ. eigenvalues --   -0.39623  -0.38828  -0.38267  -0.36859  -0.36207
 Alpha  occ. eigenvalues --   -0.36106  -0.31954  -0.27458
 Alpha virt. eigenvalues --   -0.03547   0.01646   0.01826   0.03763   0.05401
 Alpha virt. eigenvalues --    0.09423   0.10796   0.11143   0.12877   0.14079
 Alpha virt. eigenvalues --    0.16473   0.16956   0.17225   0.17661   0.24513
 Alpha virt. eigenvalues --    0.26706   0.28441   0.32549   0.33196   0.35511
 Alpha virt. eigenvalues --    0.37823   0.40718   0.40791   0.43141   0.45072
 Alpha virt. eigenvalues --    0.46061   0.47135   0.50896   0.54538   0.55437
 Alpha virt. eigenvalues --    0.56623   0.57346   0.58473   0.59526   0.59720
 Alpha virt. eigenvalues --    0.61689   0.63624   0.64802   0.67808   0.70385
 Alpha virt. eigenvalues --    0.72500   0.75829   0.80130   0.81939   0.84805
 Alpha virt. eigenvalues --    0.86438   0.91586   0.95581   0.97644   1.00920
 Alpha virt. eigenvalues --    1.08992   1.12577   1.15457   1.16489   1.18169
 Alpha virt. eigenvalues --    1.21673   1.24894   1.26032   1.27841   1.29434
 Alpha virt. eigenvalues --    1.30076   1.33589   1.39186   1.41285   1.41574
 Alpha virt. eigenvalues --    1.44713   1.46924   1.47265   1.49175   1.50538
 Alpha virt. eigenvalues --    1.52290   1.53333   1.55778   1.59553   1.65735
 Alpha virt. eigenvalues --    1.69175   1.69911   1.75354   1.79794   1.82446
 Alpha virt. eigenvalues --    1.84422   1.87010   1.90387   1.96885   1.99447
 Alpha virt. eigenvalues --    2.00490   2.05125   2.06812   2.06890   2.08293
 Alpha virt. eigenvalues --    2.15877   2.17810   2.22880   2.25497   2.33915
 Alpha virt. eigenvalues --    2.36524   2.39774   2.40937   2.43195   2.44831
 Alpha virt. eigenvalues --    2.46194   2.48087   2.49212   2.50609   2.54334
 Alpha virt. eigenvalues --    2.54549   2.55586   2.61235   2.66483   2.71226
 Alpha virt. eigenvalues --    2.76303   2.77920   2.80896   2.81851   2.83547
 Alpha virt. eigenvalues --    2.84692   2.90086   2.92878   3.00451   3.07893
 Alpha virt. eigenvalues --    3.09242   3.13417   3.18160   3.29504   3.30238
 Alpha virt. eigenvalues --    3.31744   3.41907   3.54726   3.62515   3.74244
 Alpha virt. eigenvalues --    3.79459   3.82050   3.83419   3.84547   3.85094
 Alpha virt. eigenvalues --    3.85840   4.03306   4.21740   4.48281   4.86358
 Alpha virt. eigenvalues --    4.89435   5.11243   5.29340   5.58926   5.65130
 Alpha virt. eigenvalues --   23.75413  23.89058  23.93372  24.27503  35.79671
 Alpha virt. eigenvalues --   49.85567  49.94242
          Condensed to atoms (all electrons):
               1          2          3          4          5          6
     1  C    5.007382   0.332021  -0.112820  -0.080910  -0.001025  -0.000361
     2  C    0.332021   4.728881   0.326909   0.571751   0.000521  -0.000086
     3  C   -0.112820   0.326909   5.046418  -0.085681  -0.000881  -0.000168
     4  O   -0.080910   0.571751  -0.085681   7.916852   0.000865  -0.000128
     5  C   -0.001025   0.000521  -0.000881   0.000865   4.816677   0.915220
     6  N   -0.000361  -0.000086  -0.000168  -0.000128   0.915220   6.417288
     7  H    0.380051  -0.022247  -0.000124   0.000377   0.001412   0.002992
     8  H    0.379281  -0.028905   0.010440   0.010175   0.000006  -0.000020
     9  H    0.387180  -0.028724   0.003751   0.002391   0.000032  -0.000008
    10  H   -0.000227  -0.018666   0.380618   0.001670   0.000125   0.000008
    11  H    0.008550  -0.029442   0.372327  -0.000926  -0.000902   0.000142
    12  H    0.003241  -0.025013   0.382125   0.003261   0.001365   0.000889
    13  H    0.001483  -0.010502  -0.001031   0.051002   0.007867  -0.000287
    14  O   -0.000025   0.003018  -0.004039  -0.016879  -0.034803   0.000671
    15  H    0.000025   0.001664  -0.000768   0.001395   0.283668  -0.035422
    16  H    0.000019   0.000396  -0.000472   0.000603   0.002643  -0.000030
               7          8          9         10         11         12
     1  C    0.380051   0.379281   0.387180  -0.000227   0.008550   0.003241
     2  C   -0.022247  -0.028905  -0.028724  -0.018666  -0.029442  -0.025013
     3  C   -0.000124   0.010440   0.003751   0.380618   0.372327   0.382125
     4  O    0.000377   0.010175   0.002391   0.001670  -0.000926   0.003261
     5  C    0.001412   0.000006   0.000032   0.000125  -0.000902   0.001365
     6  N    0.002992  -0.000020  -0.000008   0.000008   0.000142   0.000889
     7  H    0.526035  -0.016238  -0.020608   0.000264  -0.000216   0.000254
     8  H   -0.016238   0.534785  -0.019868  -0.000632  -0.000511  -0.000247
     9  H   -0.020608  -0.019868   0.535402   0.000078   0.000080  -0.001740
    10  H    0.000264  -0.000632   0.000078   0.515764  -0.017055  -0.018590
    11  H   -0.000216  -0.000511   0.000080  -0.017055   0.556741  -0.022701
    12  H    0.000254  -0.000247  -0.001740  -0.018590  -0.022701   0.535499
    13  H   -0.000141  -0.000088  -0.000103   0.000185  -0.000448   0.000345
    14  O    0.000014   0.000010   0.000002  -0.000094   0.015167  -0.000316
    15  H    0.000105   0.000018   0.000012   0.000026   0.000286  -0.000421
    16  H    0.000000  -0.000005   0.000000   0.000009   0.003602   0.000014
              13         14         15         16
     1  C    0.001483  -0.000025   0.000025   0.000019
     2  C   -0.010502   0.003018   0.001664   0.000396
     3  C   -0.001031  -0.004039  -0.000768  -0.000472
     4  O    0.051002  -0.016879   0.001395   0.000603
     5  C    0.007867  -0.034803   0.283668   0.002643
     6  N   -0.000287   0.000671  -0.035422  -0.000030
     7  H   -0.000141   0.000014   0.000105   0.000000
     8  H   -0.000088   0.000010   0.000018  -0.000005
     9  H   -0.000103   0.000002   0.000012   0.000000
    10  H    0.000185  -0.000094   0.000026   0.000009
    11  H   -0.000448   0.015167   0.000286   0.003602
    12  H    0.000345  -0.000316  -0.000421   0.000014
    13  H    0.423833   0.297344  -0.020600  -0.028184
    14  O    0.297344   7.853261   0.089118   0.318119
    15  H   -0.020600   0.089118   0.471617  -0.008000
    16  H   -0.028184   0.318119  -0.008000   0.431814
 Mulliken charges:
               1
     1  C   -0.303865
     2  C    0.198426
     3  C   -0.316604
     4  O   -0.375818
     5  C    0.007211
     6  N   -0.300701
     7  H    0.148071
     8  H    0.131798
     9  H    0.142123
    10  H    0.156518
    11  H    0.115306
    12  H    0.142034
    13  H    0.279326
    14  O   -0.520571
    15  H    0.217276
    16  H    0.279472
 Sum of Mulliken charges =  -0.00000
 Mulliken charges with hydrogens summed into heavy atoms:
               1
     1  C    0.118126
     2  C    0.198426
     3  C    0.097254
     4  O   -0.375818
     5  C    0.224487
     6  N   -0.300701
    14  O    0.038227
 APT charges:
               1
     1  C   -1.036308
     2  C    0.027759
     3  C   -0.965712
     4  O   -0.291923
     5  C   -0.790195
     6  N    0.601783
     7  H    0.240385
     8  H    0.415927
     9  H    0.550008
    10  H    0.572053
    11  H    0.195635
    12  H    0.319808
    13  H    0.099123
    14  O   -0.727771
    15  H    0.136121
    16  H    0.653307
 Sum of APT charges =  -0.00000
 APT charges with hydrogens summed into heavy atoms:
               1
     1  C    0.170013
     2  C    0.027759
     3  C    0.121784
     4  O   -0.291923
     5  C   -0.654074
     6  N    0.601783
    14  O    0.024658
 Electronic spatial extent (au):  <R**2>=           1123.5831
 Charge=             -0.0000 electrons
 Dipole moment (field-independent basis, Debye):
    X=              4.8741    Y=             -2.6061    Z=             -1.4355  Tot=              5.7104
 Quadrupole moment (field-independent basis, Debye-Ang):
   XX=            -47.4587   YY=            -36.7318   ZZ=            -49.7429
   XY=              3.7132   XZ=             -6.8750   YZ=              0.3654
 Traceless Quadrupole moment (field-independent basis, Debye-Ang):
   XX=             -2.8142   YY=              7.9127   ZZ=             -5.0984
   XY=              3.7132   XZ=             -6.8750   YZ=              0.3654
 Octapole moment (field-independent basis, Debye-Ang**2):
  XXX=             26.0404  YYY=            -25.0087  ZZZ=              6.4947  XYY=              5.2849
  XXY=             -9.4435  XXZ=             10.0216  XZZ=             12.2074  YZZ=             -2.7382
  YYZ=             11.5167  XYZ=             -9.9359
 Hexadecapole moment (field-independent basis, Debye-Ang**3):
 XXXX=           -763.9690 YYYY=           -312.1389 ZZZZ=           -360.0128 XXXY=            -24.7783
 XXXZ=            -45.5440 YYYX=            -37.6324 YYYZ=             52.2030 ZZZX=             -1.3846
 ZZZY=             89.5222 XXYY=           -192.0491 XXZZ=           -204.7031 YYZZ=           -118.3960
 XXYZ=             43.1749 YYXZ=             -1.8302 ZZXY=            -18.9206
 N-N= 2.823544116431D+02 E-N=-1.414815837392D+03  KE= 3.618494420853D+02
  Exact polarizability:   0.000   0.000   0.000   0.000   0.000   0.000
 Approx polarizability:  66.715  -2.528  82.737  -0.779 -15.667  94.005
 No NMR shielding tensors so no spin-rotation constants.
 Leave Link  601 at Wed Feb 19 11:36:01 2020, MaxMem=  1879048192 cpu:               4.3 elap:               0.1
 (Enter /gpfs/apps/medsci/stacks/noOS/software/gaussian/g16.a03.avx2/g16/l9999.exe)

 This type of calculation cannot be archived.


 My opinions may have changed, but not the fact that I am right.
                       -- Ashleigh Brilliant
 Job cpu time:       0 days 14 hours 58 minutes 20.4 seconds.
 Elapsed time:       0 days  0 hours 23 minutes 13.0 seconds.
 File lengths (MBytes):  RWF=    117 Int=      0 D2E=      0 Chk=     13 Scr=      1
 Normal termination of Gaussian 16 at Wed Feb 19 11:36:01 2020.
