 Entering Gaussian System, Link 0=g16
 Initial command:
 /gpfs/apps/medsci/stacks/noOS/software/gaussian/g16.a03.avx2/g16/l1.exe "/localscratch/grinba/g16/a36620-542927/Gau-425862.inp" -scrdir="/localscratch/grinba/g16/a36620-542927/"
 Default is to use a total of  40 processors:
                               40 via shared-memory
                                1 via Linda
 Entering Link 1 = /gpfs/apps/medsci/stacks/noOS/software/gaussian/g16.a03.avx2/g16/l1.exe PID=    425863.
  
 Copyright (c) 1988,1990,1992,1993,1995,1998,2003,2009,2016,
            Gaussian, Inc.  All Rights Reserved.
  
 This is part of the Gaussian(R) 16 program.  It is based on
 the Gaussian(R) 09 system (copyright 2009, Gaussian, Inc.),
 the Gaussian(R) 03 system (copyright 2003, Gaussian, Inc.),
 the Gaussian(R) 98 system (copyright 1998, Gaussian, Inc.),
 the Gaussian(R) 94 system (copyright 1995, Gaussian, Inc.),
 the Gaussian 92(TM) system (copyright 1992, Gaussian, Inc.),
 the Gaussian 90(TM) system (copyright 1990, Gaussian, Inc.),
 the Gaussian 88(TM) system (copyright 1988, Gaussian, Inc.),
 the Gaussian 86(TM) system (copyright 1986, Carnegie Mellon
 University), and the Gaussian 82(TM) system (copyright 1983,
 Carnegie Mellon University). Gaussian is a federally registered
 trademark of Gaussian, Inc.
  
 This software contains proprietary and confidential information,
 including trade secrets, belonging to Gaussian, Inc.
  
 This software is provided under written license and may be
 used, copied, transmitted, or stored only in accord with that
 written license.
  
 The following legend is applicable only to US Government
 contracts under FAR:
  
                    RESTRICTED RIGHTS LEGEND
  
 Use, reproduction and disclosure by the US Government is
 subject to restrictions as set forth in subparagraphs (a)
 and (c) of the Commercial Computer Software - Restricted
 Rights clause in FAR 52.227-19.
  
 Gaussian, Inc.
 340 Quinnipiac St., Bldg. 40, Wallingford CT 06492
  
  
 ---------------------------------------------------------------
 Warning -- This program may not be used in any manner that
 competes with the business of Gaussian, Inc. or will provide
 assistance to any competitor of Gaussian, Inc.  The licensee
 of this program is prohibited from giving any competitor of
 Gaussian, Inc. access to this program.  By using this program,
 the user acknowledges that Gaussian, Inc. is engaged in the
 business of creating and licensing software in the field of
 computational chemistry and represents and warrants to the
 licensee that it is not a competitor of Gaussian, Inc. and that
 it will not use this program in any manner prohibited above.
 ---------------------------------------------------------------
  

 Cite this work as:
 Gaussian 16, Revision A.03,
 M. J. Frisch, G. W. Trucks, H. B. Schlegel, G. E. Scuseria, 
 M. A. Robb, J. R. Cheeseman, G. Scalmani, V. Barone, 
 G. A. Petersson, H. Nakatsuji, X. Li, M. Caricato, A. V. Marenich, 
 J. Bloino, B. G. Janesko, R. Gomperts, B. Mennucci, H. P. Hratchian, 
 J. V. Ortiz, A. F. Izmaylov, J. L. Sonnenberg, D. Williams-Young, 
 F. Ding, F. Lipparini, F. Egidi, J. Goings, B. Peng, A. Petrone, 
 T. Henderson, D. Ranasinghe, V. G. Zakrzewski, J. Gao, N. Rega, 
 G. Zheng, W. Liang, M. Hada, M. Ehara, K. Toyota, R. Fukuda, 
 J. Hasegawa, M. Ishida, T. Nakajima, Y. Honda, O. Kitao, H. Nakai, 
 T. Vreven, K. Throssell, J. A. Montgomery, Jr., J. E. Peralta, 
 F. Ogliaro, M. J. Bearpark, J. J. Heyd, E. N. Brothers, K. N. Kudin, 
 V. N. Staroverov, T. A. Keith, R. Kobayashi, J. Normand, 
 K. Raghavachari, A. P. Rendell, J. C. Burant, S. S. Iyengar, 
 J. Tomasi, M. Cossi, J. M. Millam, M. Klene, C. Adamo, R. Cammi, 
 J. W. Ochterski, R. L. Martin, K. Morokuma, O. Farkas, 
 J. B. Foresman, and D. J. Fox, Gaussian, Inc., Wallingford CT, 2016.
 
 ******************************************
 Gaussian 16:  ES64L-G16RevA.03 25-Dec-2016
                24-Feb-2020 
 ******************************************
 %chk=check.chk
 %mem=14336mb
 %NProcShared=40
 Will use up to   40 processors via shared memory.
 ----------------------------------------------------------------------
 #P irc=(CalcAll,reverse,maxpoints=50,stepsize=7) guess=read SCRF=(pcm,
 Solvent=water) b3lyp/cbsb7 scf=xqc iop(2/9=2000)
 ----------------------------------------------------------------------
 1/10=4,18=10,22=2,26=3,38=1,39=7,42=50,44=3,71=1,172=1/1,23;
 2/9=2000,12=2,17=6,18=5,29=1,40=1/2;
 3/5=4,6=6,7=700,11=2,25=1,30=1,70=2201,71=2,72=1,74=-5,116=-2,140=1/1,2,3;
 4/5=1/1;
 5/5=2,8=3,13=1,38=6,53=1/2,8;
 8/6=4,10=90,11=11/1;
 11/6=1,8=1,9=11,15=111,16=1/1,2,10;
 10/6=1,13=1/2;
 6/7=2,8=2,9=2,10=2,18=1,28=1/1;
 7/10=1,25=1/1,2,3,16;
 1/10=4,18=10,22=2,26=3,39=7,42=50,44=3,71=1/23(2);
 2/9=2000,29=1/2;
 99/5=20/99;
 2/9=2000,29=1/2;
 3/5=4,6=6,7=700,11=2,25=1,30=1,70=2205,71=2,72=1,74=-5,140=1/1,2,3;
 4/5=5,16=3,69=1/1;
 5/5=2,8=3,13=1,38=5,53=1/2,8;
 8/6=4,10=90,11=11/1;
 11/6=1,8=1,9=11,15=111,16=1/1,2,10;
 10/6=1,13=1/2;
 7/10=1,25=1/1,2,3,16;
 1/10=4,18=10,22=2,26=3,39=7,42=50,44=3,71=1/23(-8);
 2/9=2000,29=1/2;
 6/7=2,8=2,9=2,10=2,18=1,19=2,28=1/1;
 99/5=20/99;
 Leave Link    1 at Mon Feb 24 10:23:45 2020, MaxMem=  1879048192 cpu:               2.0 elap:               0.1
 (Enter /gpfs/apps/medsci/stacks/noOS/software/gaussian/g16.a03.avx2/g16/l101.exe)
 ----
 name
 ----
 Symbolic Z-matrix:
 Charge =  0 Multiplicity = 1
 N                     0.65099   0.35698  -0.27628 
 N                     2.97514  -2.27603   3.23313 
 C                    -0.70604   0.43245  -0.87984 
 C                    -1.73832   0.59333   0.23678 
 C                    -0.73395   1.57121  -1.90007 
 C                     1.45663  -0.63114  -0.33725 
 C                     2.74664  -1.74308   2.21806 
 H                    -0.85146  -0.52334  -1.3857 
 H                    -1.59373   1.53252   0.77734 
 H                    -1.68471  -0.23478   0.94549 
 H                    -2.73653   0.60702  -0.20434 
 H                     0.01356   1.41942  -2.68054 
 H                    -0.55429   2.53716  -1.42075 
 H                    -1.71983   1.60337  -2.36697 
 H                     1.15708  -1.51945  -0.88208 
 H                     2.39616  -0.61332   0.20182 
 H                     0.95015   1.18022   0.24518 
 
 ITRead=  0  0  0  0  0  0  0  0  0  0  0  0  0  0  0  0  0
 MicOpt= -1 -1 -1 -1 -1 -1 -1 -1 -1 -1 -1 -1 -1 -1 -1 -1 -1
 NAtoms=     17 NQM=       17 NQMF=       0 NMMI=      0 NMMIF=      0
                NMic=       0 NMicF=      0.
                    Isotopes and Nuclear Properties:
 (Nuclear quadrupole moments (NQMom) in fm**2, nuclear magnetic moments (NMagM)
  in nuclear magnetons)

  Atom         1           2           3           4           5           6           7           8           9          10
 IAtWgt=          14          14          12          12          12          12          12           1           1           1
 AtmWgt=  14.0030740  14.0030740  12.0000000  12.0000000  12.0000000  12.0000000  12.0000000   1.0078250   1.0078250   1.0078250
 NucSpn=           2           2           0           0           0           0           0           1           1           1
 AtZEff=  -0.0000000  -0.0000000  -0.0000000  -0.0000000  -0.0000000  -0.0000000  -0.0000000  -0.0000000  -0.0000000  -0.0000000
 NQMom=    2.0440000   2.0440000   0.0000000   0.0000000   0.0000000   0.0000000   0.0000000   0.0000000   0.0000000   0.0000000
 NMagM=    0.4037610   0.4037610   0.0000000   0.0000000   0.0000000   0.0000000   0.0000000   2.7928460   2.7928460   2.7928460
 AtZNuc=   7.0000000   7.0000000   6.0000000   6.0000000   6.0000000   6.0000000   6.0000000   1.0000000   1.0000000   1.0000000

  Atom        11          12          13          14          15          16          17
 IAtWgt=           1           1           1           1           1           1           1
 AtmWgt=   1.0078250   1.0078250   1.0078250   1.0078250   1.0078250   1.0078250   1.0078250
 NucSpn=           1           1           1           1           1           1           1
 AtZEff=  -0.0000000  -0.0000000  -0.0000000  -0.0000000  -0.0000000  -0.0000000  -0.0000000
 NQMom=    0.0000000   0.0000000   0.0000000   0.0000000   0.0000000   0.0000000   0.0000000
 NMagM=    2.7928460   2.7928460   2.7928460   2.7928460   2.7928460   2.7928460   2.7928460
 AtZNuc=   1.0000000   1.0000000   1.0000000   1.0000000   1.0000000   1.0000000   1.0000000
 Leave Link  101 at Mon Feb 24 10:23:45 2020, MaxMem=  1879048192 cpu:               3.3 elap:               0.1
 (Enter /gpfs/apps/medsci/stacks/noOS/software/gaussian/g16.a03.avx2/g16/l123.exe)
 IRC-IRC-IRC-IRC-IRC-IRC-IRC-IRC-IRC-IRC-IRC-IRC-IRC-IRC-IRC-IRC-IRC-IRC
 ------------------------------------------------------------------------
 INPUT DATA FOR L123
 ------------------------------------------------------------------------
 GENERAL PARAMETERS:
 Rxn path following direction = Reverse
 Maximum points per path      =  50
 Step size                    =   0.070 bohr
 Integration scheme           = HPC                                 
    Redo corrector integration= Yes                                 
    DWI Weight Power          =  2
    DWI will use Hessian update vectors when possible.
    Max correction cycles     =  20
 Initial Hessian              = CalcFC
 Hessian evaluation           = Analytic at all predictor steps
                              = Update at all corrector steps
 Hessian updating method      = Bofill                              
 ------------------------------------------------------------------------
 IRC-IRC-IRC-IRC-IRC-IRC-IRC-IRC-IRC-IRC-IRC-IRC-IRC-IRC-IRC-IRC-IRC-IRC
 Leave Link  123 at Mon Feb 24 10:23:45 2020, MaxMem=  1879048192 cpu:               0.2 elap:               0.0
 (Enter /gpfs/apps/medsci/stacks/noOS/software/gaussian/g16.a03.avx2/g16/l202.exe)
                          Input orientation:                          
 ---------------------------------------------------------------------
 Center     Atomic      Atomic             Coordinates (Angstroms)
 Number     Number       Type             X           Y           Z
 ---------------------------------------------------------------------
      1          7           0        0.650993    0.356984   -0.276275
      2          7           0        2.975144   -2.276029    3.233131
      3          6           0       -0.706039    0.432448   -0.879837
      4          6           0       -1.738323    0.593331    0.236780
      5          6           0       -0.733949    1.571208   -1.900069
      6          6           0        1.456633   -0.631135   -0.337246
      7          6           0        2.746644   -1.743079    2.218055
      8          1           0       -0.851464   -0.523342   -1.385703
      9          1           0       -1.593728    1.532518    0.777337
     10          1           0       -1.684709   -0.234777    0.945486
     11          1           0       -2.736525    0.607024   -0.204340
     12          1           0        0.013559    1.419417   -2.680543
     13          1           0       -0.554290    2.537162   -1.420749
     14          1           0       -1.719828    1.603370   -2.366969
     15          1           0        1.157082   -1.519448   -0.882075
     16          1           0        2.396160   -0.613317    0.201823
     17          1           0        0.950153    1.180222    0.245177
 ---------------------------------------------------------------------
                    Distance matrix (angstroms):
                    1          2          3          4          5
     1  N    0.000000
     2  N    4.964913   0.000000
     3  C    1.487117   6.148452   0.000000
     4  C    2.455182   6.279181   1.529159   0.000000
     5  C    2.455425   7.410017   1.529191   2.555608   0.000000
     6  C    1.276383   4.214160   2.470377   3.469376   3.477266
     7  C    3.876042   1.169028   5.123561   5.431316   6.329137
     8  H    2.064747   6.248877   1.091139   2.160076   2.159982
     9  H    2.744221   6.435103   2.178158   1.093244   2.812334
    10  H    2.701552   5.578016   2.175957   1.091284   3.501815
    11  H    3.397495   7.263013   2.147009   1.091413   2.795614
    12  H    2.704735   7.576203   2.175884   3.501754   1.091306
    13  H    2.741478   7.568508   2.178402   2.815638   1.093203
    14  H    3.397833   8.273670   2.147181   2.792853   1.091324
    15  H    2.035710   4.562092   2.698356   3.754869   3.763571
    16  H    2.053210   3.505519   3.447789   4.307107   4.357486
    17  H    1.019377   4.997412   2.137240   2.751802   2.755204
                    6          7          8          9         10
     6  C    0.000000
     7  C    3.070849   0.000000
     8  H    2.537359   5.236527   0.000000
     9  H    3.902357   5.625303   3.075103   0.000000
    10  H    3.416216   4.850907   2.492390   1.777606   0.000000
    11  H    4.374160   6.438643   2.495356   1.768110   1.771171
    12  H    3.431948   6.439518   2.489817   3.814852   4.332269
    13  H    3.905880   6.515944   3.075098   2.630841   3.815830
    14  H    4.382088   7.222918   2.497968   3.147631   3.788453
    15  H    1.084283   3.491063   2.297852   4.431151   3.614711
    16  H    1.083339   2.337604   3.615992   4.566731   4.165311
    17  H    1.968947   3.957943   2.967781   2.622716   3.071669
                   11         12         13         14         15
    11  H    0.000000
    12  H    3.788737   0.000000
    13  H    3.157093   1.777326   0.000000
    14  H    2.589081   1.771101   1.767987   0.000000
    15  H    4.487915   3.630297   4.435656   4.498168   0.000000
    16  H    5.291376   4.256387   4.611227   5.334206   1.879155
    17  H    3.757954   3.081276   2.622965   3.759143   2.932871
                   16         17
    16  H    0.000000
    17  H    2.304256   0.000000
 Symmetry turned off by external request.
 Stoichiometry    C5H10N2
 Framework group  C1[X(C5H10N2)]
 Deg. of freedom    45
 Full point group                 C1      NOp   1
 Rotational constants (GHZ):           5.8144378           0.7755868           0.7111262
 Leave Link  202 at Mon Feb 24 10:23:46 2020, MaxMem=  1879048192 cpu:               3.0 elap:               0.1
 (Enter /gpfs/apps/medsci/stacks/noOS/software/gaussian/g16.a03.avx2/g16/l301.exe)
 Standard basis: 6-311G(2d,d,p) (5D, 7F)
 Ernie: Thresh=  0.10000D-02 Tol=  0.10000D-05 Strict=F.
   186 basis functions,   304 primitive gaussians,   193 cartesian basis functions
    27 alpha electrons       27 beta electrons
       nuclear repulsion energy       262.4659211731 Hartrees.
 IExCor=  402 DFT=T Ex+Corr=B3LYP ExCW=0 ScaHFX=  0.200000
 ScaDFX=  0.800000  0.720000  1.000000  0.810000 ScalE2=  1.000000  1.000000
 IRadAn=      5 IRanWt=     -1 IRanGd=            0 ICorTp=0 IEmpDi=  4
 NAtoms=   17 NActive=   17 NUniq=   17 SFac= 1.00D+00 NAtFMM=   60 NAOKFM=F Big=F
 Integral buffers will be    131072 words long.
 Raffenetti 2 integral format.
 Two-electron integral symmetry is turned off.
 Force inversion solution in PCM.
 ------------------------------------------------------------------------------
 Polarizable Continuum Model (PCM)
 =================================
 Model                : PCM.
 Atomic radii         : UFF (Universal Force Field).
 Polarization charges : Total charges.
 Charge compensation  : None.
 Solution method      : Matrix inversion.
 Cavity type          : Scaled VdW (van der Waals Surface) (Alpha=1.100).
 Cavity algorithm     : GePol (No added spheres)
                        Default sphere list used, NSphG=   17.
                        Lebedev-Laikov grids with approx.  5.0 points / Ang**2.
                        Smoothing algorithm: York/Karplus (Gamma=1.0000).
                        Polarization charges: spherical gaussians, with
                                              point-specific exponents (IZeta= 3).
                        Self-potential: point-specific (ISelfS= 7).
                        Self-field    : sphere-specific E.n sum rule (ISelfD= 2).
 1st derivatives      : Analytical E(r).r(x)/FMM algorithm (CHGder, D1EAlg=3).
                        Cavity 1st derivative terms included.
 2nd derivatives      : Analytical E(r).r(xy)/FMM algorithm (CHGder, D2EAlg=3).
                        Cavity 2nd derivative terms included.
 Solvent              : Water, Eps=  78.355300 Eps(inf)=   1.777849
 ------------------------------------------------------------------------------
 Spheres list:
 ISph  on   Nord     Re0    Alpha      Xe            Ye            Ze
    1   N      1    1.8300  1.100      0.650993      0.356984     -0.276275
    2   N      2    1.8300  1.100      2.975144     -2.276029      3.233131
    3   C      3    1.9255  1.100     -0.706039      0.432448     -0.879837
    4   C      4    1.9255  1.100     -1.738323      0.593331      0.236780
    5   C      5    1.9255  1.100     -0.733949      1.571208     -1.900069
    6   C      6    1.9255  1.100      1.456633     -0.631135     -0.337246
    7   C      7    1.9255  1.100      2.746644     -1.743079      2.218055
    8   H      8    1.4430  1.100     -0.851464     -0.523342     -1.385703
    9   H      9    1.4430  1.100     -1.593728      1.532518      0.777337
   10   H     10    1.4430  1.100     -1.684709     -0.234777      0.945486
   11   H     11    1.4430  1.100     -2.736525      0.607024     -0.204340
   12   H     12    1.4430  1.100      0.013559      1.419417     -2.680543
   13   H     13    1.4430  1.100     -0.554290      2.537162     -1.420749
   14   H     14    1.4430  1.100     -1.719828      1.603370     -2.366969
   15   H     15    1.4430  1.100      1.157082     -1.519448     -0.882075
   16   H     16    1.4430  1.100      2.396160     -0.613317      0.201823
   17   H     17    1.4430  1.100      0.950153      1.180222      0.245177
 ------------------------------------------------------------------------------
 GePol: Number of generator spheres                  =      17
 GePol: Total number of spheres                      =      17
 GePol: Number of exposed spheres                    =      17 (100.00%)
 GePol: Number of points                             =    1493
 GePol: Average weight of points                     =       0.14
 GePol: Minimum weight of points                     =   0.19D-09
 GePol: Maximum weight of points                     =    0.20577
 GePol: Number of points with low weight             =      89
 GePol: Fraction of low-weight points (<1% of avg)   =       5.96%
 GePol: Cavity surface area                          =    207.814 Ang**2
 GePol: Cavity volume                                =    190.460 Ang**3
 Leave Link  301 at Mon Feb 24 10:23:46 2020, MaxMem=  1879048192 cpu:               2.4 elap:               0.1
 (Enter /gpfs/apps/medsci/stacks/noOS/software/gaussian/g16.a03.avx2/g16/l302.exe)
 NPDir=0 NMtPBC=     1 NCelOv=     1 NCel=       1 NClECP=     1 NCelD=      1
         NCelK=      1 NCelE2=     1 NClLst=     1 CellRange=     0.0.
 One-electron integrals computed using PRISM.
 NBasis=   186 RedAO= T EigKep=  2.08D-03  NBF=   186
 NBsUse=   186 1.00D-06 EigRej= -1.00D+00 NBFU=   186
 Precomputing XC quadrature grid using
 IXCGrd= 4 IRadAn=           5 IRanWt=          -1 IRanGd=           0 AccXCQ= 0.00D+00.
 Generated NRdTot=       0 NPtTot=           0 NUsed=           0 NTot=          32
 NSgBfM=   193   193   193   193   193 MxSgAt=    17 MxSgA2=    17.
 Leave Link  302 at Mon Feb 24 10:23:46 2020, MaxMem=  1879048192 cpu:               7.2 elap:               0.2
 (Enter /gpfs/apps/medsci/stacks/noOS/software/gaussian/g16.a03.avx2/g16/l303.exe)
 DipDrv:  MaxL=1.
 Leave Link  303 at Mon Feb 24 10:23:46 2020, MaxMem=  1879048192 cpu:               1.1 elap:               0.0
 (Enter /gpfs/apps/medsci/stacks/noOS/software/gaussian/g16.a03.avx2/g16/l401.exe)
 Initial guess from the checkpoint file:  "check.chk"
 B after Tr=     0.941684   -0.213744    0.348323
         Rot=   -0.540481    0.721601   -0.420438    0.102001 Ang= 245.43 deg.
 Guess basis will be translated and rotated to current coordinates.
 JPrj=2 DoOrth=T DoCkMO=T.
 Leave Link  401 at Mon Feb 24 10:23:46 2020, MaxMem=  1879048192 cpu:               5.0 elap:               0.1
 (Enter /gpfs/apps/medsci/stacks/noOS/software/gaussian/g16.a03.avx2/g16/l502.exe)
 Two-electron integral symmetry not used.
 Closed shell SCF:
 Using DIIS extrapolation, IDIIS=  1040.
 NGot=  1879048192 LenX=  1878964310 LenY=  1878926620
 Requested convergence on RMS density matrix=1.00D-08 within  32 cycles.
 Requested convergence on MAX density matrix=1.00D-06.
 Requested convergence on             energy=1.00D-06.
 No special actions if energy rises.
 Fock matrices will be formed incrementally for  20 cycles.

 Cycle   1  Pass 1  IDiag  1:
 FoFJK:  IHMeth= 1 ICntrl=       0 DoSepK=F KAlg= 0 I1Cent=           0 FoldK=F
 IRaf= 910000000 NMat=       1 IRICut=       1 DoRegI=T DoRafI=F ISym2E= 0 IDoP0=0 IntGTp=1.
 FoFCou: FMM=F IPFlag=           0 FMFlag=      100000 FMFlg1=           0
         NFxFlg=           0 DoJE=F BraDBF=F KetDBF=F FulRan=T
         wScrn=  0.000000 ICntrl=         0 IOpCl=  0 I1Cent=           0 NGrid=           0
         NMat0=    1 NMatS0=      1 NMatT0=    0 NMatD0=    1 NMtDS0=    0 NMtDT0=    0
 Symmetry not used in FoFCou.
 Inv3:  Mode=1 IEnd=     6687147.
 Iteration    1 A*A^-1 deviation from unit magnitude is 2.89D-15 for    236.
 Iteration    1 A*A^-1 deviation from orthogonality  is 2.00D-15 for   1280    468.
 Iteration    1 A^-1*A deviation from unit magnitude is 2.78D-15 for    569.
 Iteration    1 A^-1*A deviation from orthogonality  is 1.89D-15 for   1321    120.
 E= -306.023730912049    
 DIIS: error= 2.14D-02 at cycle   1 NSaved=   1.
 NSaved= 1 IEnMin= 1 EnMin= -306.023730912049     IErMin= 1 ErrMin= 2.14D-02
 ErrMax= 2.14D-02  0.00D+00 EMaxC= 1.00D-01 BMatC= 1.01D-01 BMatP= 1.01D-01
 IDIUse=3 WtCom= 7.86D-01 WtEn= 2.14D-01
 Coeff-Com:  0.100D+01
 Coeff-En:   0.100D+01
 Coeff:      0.100D+01
 Gap=     6.767 Goal=   None    Shift=    0.000
 GapD=    6.767 DampG=2.000 DampE=0.500 DampFc=1.0000 IDamp=-1.
 RMSDP=1.83D-03 MaxDP=1.39D-01              OVMax= 5.34D-02

 Cycle   2  Pass 1  IDiag  1:
 RMSU=  1.76D-03    CP:  9.64D-01
 E= -306.068825653232     Delta-E=       -0.045094741183 Rises=F Damp=F
 DIIS: error= 5.10D-03 at cycle   2 NSaved=   2.
 NSaved= 2 IEnMin= 2 EnMin= -306.068825653232     IErMin= 2 ErrMin= 5.10D-03
 ErrMax= 5.10D-03  0.00D+00 EMaxC= 1.00D-01 BMatC= 5.61D-03 BMatP= 1.01D-01
 IDIUse=3 WtCom= 9.49D-01 WtEn= 5.10D-02
 Coeff-Com:  0.988D-01 0.901D+00
 Coeff-En:   0.000D+00 0.100D+01
 Coeff:      0.938D-01 0.906D+00
 Gap=     0.151 Goal=   None    Shift=    0.000
 RMSDP=7.82D-04 MaxDP=6.02D-02 DE=-4.51D-02 OVMax= 3.70D-02

 Cycle   3  Pass 1  IDiag  1:
 RMSU=  6.73D-04    CP:  9.72D-01  7.84D-01
 E= -306.070593827515     Delta-E=       -0.001768174284 Rises=F Damp=F
 DIIS: error= 3.66D-03 at cycle   3 NSaved=   3.
 NSaved= 3 IEnMin= 3 EnMin= -306.070593827515     IErMin= 3 ErrMin= 3.66D-03
 ErrMax= 3.66D-03  0.00D+00 EMaxC= 1.00D-01 BMatC= 3.69D-03 BMatP= 5.61D-03
 IDIUse=3 WtCom= 9.63D-01 WtEn= 3.66D-02
 Coeff-Com:  0.430D-02 0.446D+00 0.550D+00
 Coeff-En:   0.000D+00 0.397D+00 0.603D+00
 Coeff:      0.415D-02 0.444D+00 0.552D+00
 Gap=     0.155 Goal=   None    Shift=    0.000
 RMSDP=3.51D-04 MaxDP=2.91D-02 DE=-1.77D-03 OVMax= 1.43D-02

 Cycle   4  Pass 1  IDiag  1:
 RMSU=  9.84D-05    CP:  9.68D-01  8.97D-01  6.07D-01
 E= -306.073931204534     Delta-E=       -0.003337377019 Rises=F Damp=F
 DIIS: error= 1.94D-03 at cycle   4 NSaved=   4.
 NSaved= 4 IEnMin= 4 EnMin= -306.073931204534     IErMin= 4 ErrMin= 1.94D-03
 ErrMax= 1.94D-03  0.00D+00 EMaxC= 1.00D-01 BMatC= 3.99D-04 BMatP= 3.69D-03
 IDIUse=3 WtCom= 9.81D-01 WtEn= 1.94D-02
 Coeff-Com: -0.380D-02 0.237D+00 0.341D+00 0.426D+00
 Coeff-En:   0.000D+00 0.000D+00 0.000D+00 0.100D+01
 Coeff:     -0.372D-02 0.232D+00 0.335D+00 0.437D+00
 Gap=     0.155 Goal=   None    Shift=    0.000
 RMSDP=6.68D-05 MaxDP=2.90D-03 DE=-3.34D-03 OVMax= 5.10D-03

 Cycle   5  Pass 1  IDiag  1:
 RMSU=  5.04D-05    CP:  9.68D-01  8.97D-01  6.29D-01  5.92D-01
 E= -306.074225019064     Delta-E=       -0.000293814530 Rises=F Damp=F
 DIIS: error= 7.08D-04 at cycle   5 NSaved=   5.
 NSaved= 5 IEnMin= 5 EnMin= -306.074225019064     IErMin= 5 ErrMin= 7.08D-04
 ErrMax= 7.08D-04  0.00D+00 EMaxC= 1.00D-01 BMatC= 2.78D-05 BMatP= 3.99D-04
 IDIUse=3 WtCom= 9.93D-01 WtEn= 7.08D-03
 Coeff-Com: -0.180D-02 0.576D-01 0.101D+00 0.246D+00 0.598D+00
 Coeff-En:   0.000D+00 0.000D+00 0.000D+00 0.446D-01 0.955D+00
 Coeff:     -0.178D-02 0.572D-01 0.100D+00 0.244D+00 0.600D+00
 Gap=     0.155 Goal=   None    Shift=    0.000
 RMSDP=2.74D-05 MaxDP=2.26D-03 DE=-2.94D-04 OVMax= 2.05D-03

 Cycle   6  Pass 1  IDiag  1:
 RMSU=  1.64D-05    CP:  9.68D-01  9.04D-01  6.19D-01  6.53D-01  7.16D-01
 E= -306.074246008761     Delta-E=       -0.000020989697 Rises=F Damp=F
 DIIS: error= 3.15D-04 at cycle   6 NSaved=   6.
 NSaved= 6 IEnMin= 6 EnMin= -306.074246008761     IErMin= 6 ErrMin= 3.15D-04
 ErrMax= 3.15D-04  0.00D+00 EMaxC= 1.00D-01 BMatC= 4.64D-06 BMatP= 2.78D-05
 IDIUse=3 WtCom= 9.97D-01 WtEn= 3.15D-03
 Coeff-Com: -0.740D-03 0.115D-01 0.284D-01 0.109D+00 0.384D+00 0.468D+00
 Coeff-En:   0.000D+00 0.000D+00 0.000D+00 0.000D+00 0.107D+00 0.893D+00
 Coeff:     -0.738D-03 0.114D-01 0.283D-01 0.109D+00 0.383D+00 0.469D+00
 Gap=     0.155 Goal=   None    Shift=    0.000
 RMSDP=9.51D-06 MaxDP=6.06D-04 DE=-2.10D-05 OVMax= 7.31D-04

 Cycle   7  Pass 1  IDiag  1:
 RMSU=  5.12D-06    CP:  9.68D-01  9.03D-01  6.26D-01  6.63D-01  7.70D-01
                    CP:  6.92D-01
 E= -306.074249877357     Delta-E=       -0.000003868596 Rises=F Damp=F
 DIIS: error= 6.87D-05 at cycle   7 NSaved=   7.
 NSaved= 7 IEnMin= 7 EnMin= -306.074249877357     IErMin= 7 ErrMin= 6.87D-05
 ErrMax= 6.87D-05  0.00D+00 EMaxC= 1.00D-01 BMatC= 3.71D-07 BMatP= 4.64D-06
 IDIUse=1 WtCom= 1.00D+00 WtEn= 0.00D+00
 Coeff-Com: -0.245D-03 0.773D-03 0.580D-02 0.305D-01 0.138D+00 0.263D+00
 Coeff-Com:  0.563D+00
 Coeff:     -0.245D-03 0.773D-03 0.580D-02 0.305D-01 0.138D+00 0.263D+00
 Coeff:      0.563D+00
 Gap=     0.155 Goal=   None    Shift=    0.000
 RMSDP=2.55D-06 MaxDP=7.52D-05 DE=-3.87D-06 OVMax= 1.99D-04

 Cycle   8  Pass 1  IDiag  1:
 RMSU=  1.89D-06    CP:  9.68D-01  9.03D-01  6.27D-01  6.69D-01  7.85D-01
                    CP:  7.41D-01  7.85D-01
 E= -306.074250169597     Delta-E=       -0.000000292239 Rises=F Damp=F
 DIIS: error= 1.49D-05 at cycle   8 NSaved=   8.
 NSaved= 8 IEnMin= 8 EnMin= -306.074250169597     IErMin= 8 ErrMin= 1.49D-05
 ErrMax= 1.49D-05  0.00D+00 EMaxC= 1.00D-01 BMatC= 4.48D-08 BMatP= 3.71D-07
 IDIUse=1 WtCom= 1.00D+00 WtEn= 0.00D+00
 Coeff-Com:  0.751D-05-0.181D-02-0.197D-02-0.173D-02 0.147D-01 0.727D-01
 Coeff-Com:  0.306D+00 0.612D+00
 Coeff:      0.751D-05-0.181D-02-0.197D-02-0.173D-02 0.147D-01 0.727D-01
 Coeff:      0.306D+00 0.612D+00
 Gap=     0.155 Goal=   None    Shift=    0.000
 RMSDP=1.03D-06 MaxDP=3.99D-05 DE=-2.92D-07 OVMax= 6.99D-05

 Cycle   9  Pass 1  IDiag  1:
 RMSU=  4.90D-07    CP:  9.68D-01  9.03D-01  6.27D-01  6.69D-01  7.89D-01
                    CP:  7.65D-01  8.80D-01  7.63D-01
 E= -306.074250214817     Delta-E=       -0.000000045220 Rises=F Damp=F
 DIIS: error= 1.94D-06 at cycle   9 NSaved=   9.
 NSaved= 9 IEnMin= 9 EnMin= -306.074250214817     IErMin= 9 ErrMin= 1.94D-06
 ErrMax= 1.94D-06  0.00D+00 EMaxC= 1.00D-01 BMatC= 9.16D-10 BMatP= 4.48D-08
 IDIUse=1 WtCom= 1.00D+00 WtEn= 0.00D+00
 Coeff-Com:  0.152D-04-0.625D-03-0.109D-02-0.257D-02-0.402D-02 0.640D-02
 Coeff-Com:  0.495D-01 0.174D+00 0.778D+00
 Coeff:      0.152D-04-0.625D-03-0.109D-02-0.257D-02-0.402D-02 0.640D-02
 Coeff:      0.495D-01 0.174D+00 0.778D+00
 Gap=     0.155 Goal=   None    Shift=    0.000
 RMSDP=3.67D-07 MaxDP=3.09D-05 DE=-4.52D-08 OVMax= 1.89D-05

 Cycle  10  Pass 1  IDiag  1:
 RMSU=  1.51D-07    CP:  9.68D-01  9.03D-01  6.27D-01  6.69D-01  7.90D-01
                    CP:  7.75D-01  8.95D-01  8.16D-01  9.81D-01
 E= -306.074250215825     Delta-E=       -0.000000001008 Rises=F Damp=F
 DIIS: error= 7.04D-07 at cycle  10 NSaved=  10.
 NSaved=10 IEnMin=10 EnMin= -306.074250215825     IErMin=10 ErrMin= 7.04D-07
 ErrMax= 7.04D-07  0.00D+00 EMaxC= 1.00D-01 BMatC= 1.72D-10 BMatP= 9.16D-10
 IDIUse=1 WtCom= 1.00D+00 WtEn= 0.00D+00
 Coeff-Com:  0.390D-05-0.363D-04-0.213D-03-0.746D-03-0.270D-02-0.385D-02
 Coeff-Com: -0.796D-02 0.157D-01 0.360D+00 0.640D+00
 Coeff:      0.390D-05-0.363D-04-0.213D-03-0.746D-03-0.270D-02-0.385D-02
 Coeff:     -0.796D-02 0.157D-01 0.360D+00 0.640D+00
 Gap=     0.155 Goal=   None    Shift=    0.000
 RMSDP=8.54D-08 MaxDP=3.41D-06 DE=-1.01D-09 OVMax= 1.05D-05

 Cycle  11  Pass 1  IDiag  1:
 RMSU=  3.31D-08    CP:  9.68D-01  9.03D-01  6.27D-01  6.69D-01  7.91D-01
                    CP:  7.77D-01  9.00D-01  8.31D-01  1.06D+00  7.67D-01
 E= -306.074250216019     Delta-E=       -0.000000000195 Rises=F Damp=F
 DIIS: error= 1.11D-07 at cycle  11 NSaved=  11.
 NSaved=11 IEnMin=11 EnMin= -306.074250216019     IErMin=11 ErrMin= 1.11D-07
 ErrMax= 1.11D-07  0.00D+00 EMaxC= 1.00D-01 BMatC= 4.44D-12 BMatP= 1.72D-10
 IDIUse=1 WtCom= 1.00D+00 WtEn= 0.00D+00
 Coeff-Com:  0.274D-07 0.214D-04 0.145D-04 0.539D-04-0.216D-03-0.817D-03
 Coeff-Com: -0.292D-02-0.849D-02 0.728D-02 0.115D+00 0.890D+00
 Coeff:      0.274D-07 0.214D-04 0.145D-04 0.539D-04-0.216D-03-0.817D-03
 Coeff:     -0.292D-02-0.849D-02 0.728D-02 0.115D+00 0.890D+00
 Gap=     0.155 Goal=   None    Shift=    0.000
 RMSDP=2.21D-08 MaxDP=1.10D-06 DE=-1.95D-10 OVMax= 1.65D-06

 Cycle  12  Pass 1  IDiag  1:
 RMSU=  5.73D-09    CP:  9.68D-01  9.03D-01  6.27D-01  6.69D-01  7.91D-01
                    CP:  7.77D-01  9.02D-01  8.33D-01  1.07D+00  8.24D-01
                    CP:  1.04D+00
 E= -306.074250216022     Delta-E=       -0.000000000002 Rises=F Damp=F
 DIIS: error= 4.49D-08 at cycle  12 NSaved=  12.
 NSaved=12 IEnMin=12 EnMin= -306.074250216022     IErMin=12 ErrMin= 4.49D-08
 ErrMax= 4.49D-08  0.00D+00 EMaxC= 1.00D-01 BMatC= 4.24D-13 BMatP= 4.44D-12
 IDIUse=1 WtCom= 1.00D+00 WtEn= 0.00D+00
 Coeff-Com: -0.115D-06 0.110D-04 0.135D-04 0.532D-04-0.260D-04-0.278D-03
 Coeff-Com: -0.115D-02-0.490D-02-0.108D-01 0.292D-01 0.400D+00 0.588D+00
 Coeff:     -0.115D-06 0.110D-04 0.135D-04 0.532D-04-0.260D-04-0.278D-03
 Coeff:     -0.115D-02-0.490D-02-0.108D-01 0.292D-01 0.400D+00 0.588D+00
 Gap=     0.155 Goal=   None    Shift=    0.000
 RMSDP=4.50D-09 MaxDP=2.41D-07 DE=-2.27D-12 OVMax= 1.70D-07

 Error on total polarization charges =  0.01023
 SCF Done:  E(RB3LYP) =  -306.074250216     A.U. after   12 cycles
            NFock= 12  Conv=0.45D-08     -V/T= 2.0044
 KE= 3.047298079434D+02 PE=-1.234726589386D+03 EE= 3.614566100536D+02
 Leave Link  502 at Mon Feb 24 10:23:52 2020, MaxMem=  1879048192 cpu:             208.5 elap:               5.4
 (Enter /gpfs/apps/medsci/stacks/noOS/software/gaussian/g16.a03.avx2/g16/l508.exe)
 QCSCF skips out because SCF is already converged.
 Leave Link  508 at Mon Feb 24 10:23:52 2020, MaxMem=  1879048192 cpu:               0.2 elap:               0.0
 (Enter /gpfs/apps/medsci/stacks/noOS/software/gaussian/g16.a03.avx2/g16/l801.exe)
 DoSCS=F DFT=T ScalE2(SS,OS)=  1.000000  1.000000
 Range of M.O.s used for correlation:     1   186
 NBasis=   186 NAE=    27 NBE=    27 NFC=     0 NFV=     0
 NROrb=    186 NOA=    27 NOB=    27 NVA=   159 NVB=   159

 **** Warning!!: The largest alpha MO coefficient is  0.10176667D+02

 Leave Link  801 at Mon Feb 24 10:23:52 2020, MaxMem=  1879048192 cpu:               1.4 elap:               0.1
 (Enter /gpfs/apps/medsci/stacks/noOS/software/gaussian/g16.a03.avx2/g16/l1101.exe)
 Using compressed storage, NAtomX=    17.
 Will process     18 centers per pass.
 Leave Link 1101 at Mon Feb 24 10:23:52 2020, MaxMem=  1879048192 cpu:               8.3 elap:               0.2
 (Enter /gpfs/apps/medsci/stacks/noOS/software/gaussian/g16.a03.avx2/g16/l1102.exe)
 Symmetrizing basis deriv contribution to polar:
 IMax=3 JMax=2 DiffMx= 0.00D+00
 Leave Link 1102 at Mon Feb 24 10:23:52 2020, MaxMem=  1879048192 cpu:               1.4 elap:               0.1
 (Enter /gpfs/apps/medsci/stacks/noOS/software/gaussian/g16.a03.avx2/g16/l1110.exe)
 Forming Gx(P) for the SCF density, NAtomX=    17.
 Integral derivatives from FoFJK, PRISM(SPDF).
 Do as many integral derivatives as possible in FoFJK.
 G2DrvN: MDV=    1879046832.
 G2DrvN: will do    18 centers at a time, making    1 passes.
 Calling FoFCou, ICntrl=  3107 FMM=F I1Cent=   0 AccDes= 0.00D+00.
 FoFJK:  IHMeth= 1 ICntrl=    3107 DoSepK=F KAlg= 0 I1Cent=           0 FoldK=F
 IRaf=         0 NMat=       1 IRICut=       1 DoRegI=T DoRafI=F ISym2E= 0 IDoP0=0 IntGTp=1.
 FoFCou: FMM=F IPFlag=           0 FMFlag=      100000 FMFlg1=           0
         NFxFlg=           0 DoJE=F BraDBF=F KetDBF=F FulRan=T
         wScrn=  0.000000 ICntrl=      3107 IOpCl=  0 I1Cent=           0 NGrid=           0
         NMat0=    1 NMatS0=      1 NMatT0=    0 NMatD0=    1 NMtDS0=    0 NMtDT0=    0
 Symmetry not used in FoFCou.
 NEqPCM:  Using equilibrium solvation (IEInf=0, Eps=  78.3553, EpsInf=   1.7778)
 G2PCM: DoFxE=T DoFxN=T DoGrad=T DoDP/DQ/DG/TGxP=FFFF NFrqRd=   0 IEInf=0 SqF1=F DoCFld=F IF1Alg=4.
 GePol: Maximum number of non-zero 1st derivatives   =     240
 End of G2Drv F.D. properties file   721 does not exist.
 End of G2Drv F.D. properties file   722 does not exist.
 End of G2Drv F.D. properties file   788 does not exist.
 Leave Link 1110 at Mon Feb 24 10:23:58 2020, MaxMem=  1879048192 cpu:             232.5 elap:               5.9
 (Enter /gpfs/apps/medsci/stacks/noOS/software/gaussian/g16.a03.avx2/g16/l1002.exe)
 Minotr:  Closed shell wavefunction.
          IDoAtm=11111111111111111
 NEqPCM:  Using equilibrium solvation (IEInf=0, Eps=  78.3553, EpsInf=   1.7778)
          Direct CPHF calculation.
          Differentiating once with respect to nuclear coordinates.
          Requested convergence is 1.0D-08 RMS, and 1.0D-07 maximum.
          Secondary convergence is 1.0D-12 RMS, and 1.0D-12 maximum.
          NewPWx=T KeepS1=F KeepF1=F KeepIn=T MapXYZ=F SortEE=F KeepMc=T.
         5074 words used for storage of precomputed grid.
 Keep R1 ints in memory in canonical form, NReq=191944724.
 FoFCou: FMM=F IPFlag=           0 FMFlag=           0 FMFlg1=           0
         NFxFlg=           0 DoJE=F BraDBF=F KetDBF=F FulRan=T
         wScrn=  0.000000 ICntrl=       600 IOpCl=  0 I1Cent=           0 NGrid=           0
         NMat0=    1 NMatS0=  17391 NMatT0=    0 NMatD0=    1 NMtDS0=    0 NMtDT0=    0
 Symmetry not used in FoFCou.
 Two-electron integral symmetry not used.
          MDV=    1879048192 using IRadAn=       1.
          Solving linear equations simultaneously, MaxMat=       0.
          There are    54 degrees of freedom in the 1st order CPHF.  IDoFFX=6 NUNeed=     0.
     48 vectors produced by pass  0 Test12= 7.95D-15 1.85D-09 XBig12= 1.06D-01 1.35D-01.
 AX will form    48 AO Fock derivatives at one time.
     48 vectors produced by pass  1 Test12= 7.95D-15 1.85D-09 XBig12= 9.09D-03 2.83D-02.
     48 vectors produced by pass  2 Test12= 7.95D-15 1.85D-09 XBig12= 1.01D-04 3.35D-03.
     48 vectors produced by pass  3 Test12= 7.95D-15 1.85D-09 XBig12= 5.56D-07 1.78D-04.
     48 vectors produced by pass  4 Test12= 7.95D-15 1.85D-09 XBig12= 1.31D-09 1.16D-05.
     25 vectors produced by pass  5 Test12= 7.95D-15 1.85D-09 XBig12= 1.73D-12 3.09D-07.
      5 vectors produced by pass  6 Test12= 7.95D-15 1.85D-09 XBig12= 3.33D-15 1.07D-08.
 InvSVY:  IOpt=1 It=  1 EMax= 3.33D-16
 Solved reduced A of dimension   270 with    54 vectors.
 End of Minotr F.D. properties file   721 does not exist.
 End of Minotr F.D. properties file   722 does not exist.
 End of Minotr F.D. properties file   788 does not exist.
 Leave Link 1002 at Mon Feb 24 10:24:04 2020, MaxMem=  1879048192 cpu:             238.6 elap:               6.0
 (Enter /gpfs/apps/medsci/stacks/noOS/software/gaussian/g16.a03.avx2/g16/l601.exe)
 Copying SCF densities to generalized density rwf, IOpCl= 0 IROHF=0.

 **********************************************************************

            Population analysis using the SCF density.

 **********************************************************************

 Alpha  occ. eigenvalues --  -14.43336 -14.22649 -10.28359 -10.25038 -10.18083
 Alpha  occ. eigenvalues --  -10.18067 -10.10169  -1.02924  -0.82833  -0.82412
 Alpha  occ. eigenvalues --   -0.71316  -0.70951  -0.65313  -0.56884  -0.53383
 Alpha  occ. eigenvalues --   -0.47225  -0.46922  -0.45542  -0.41192  -0.39996
 Alpha  occ. eigenvalues --   -0.39255  -0.37276  -0.36465  -0.35401  -0.27524
 Alpha  occ. eigenvalues --   -0.27519  -0.24272
 Alpha virt. eigenvalues --   -0.08750   0.02949   0.04359   0.06376   0.07972
 Alpha virt. eigenvalues --    0.08724   0.08947   0.09465   0.11155   0.11628
 Alpha virt. eigenvalues --    0.13251   0.13663   0.14608   0.17036   0.18907
 Alpha virt. eigenvalues --    0.20296   0.24035   0.25787   0.28091   0.28860
 Alpha virt. eigenvalues --    0.30227   0.32651   0.32724   0.34545   0.38877
 Alpha virt. eigenvalues --    0.40868   0.42600   0.44294   0.47727   0.48569
 Alpha virt. eigenvalues --    0.50191   0.53184   0.53997   0.55055   0.56231
 Alpha virt. eigenvalues --    0.57016   0.57133   0.57869   0.59229   0.59530
 Alpha virt. eigenvalues --    0.60072   0.61915   0.63488   0.64581   0.68463
 Alpha virt. eigenvalues --    0.69023   0.69962   0.72943   0.77022   0.85643
 Alpha virt. eigenvalues --    0.86625   0.92042   0.93906   0.94602   0.95378
 Alpha virt. eigenvalues --    1.06338   1.07955   1.14546   1.14866   1.17276
 Alpha virt. eigenvalues --    1.24101   1.28339   1.31835   1.36157   1.36392
 Alpha virt. eigenvalues --    1.36490   1.39296   1.40201   1.44136   1.44220
 Alpha virt. eigenvalues --    1.44915   1.48592   1.48674   1.49308   1.50874
 Alpha virt. eigenvalues --    1.51536   1.53002   1.54271   1.57100   1.58923
 Alpha virt. eigenvalues --    1.61240   1.65589   1.66927   1.67469   1.72100
 Alpha virt. eigenvalues --    1.74767   1.75408   1.81231   1.85112   1.86553
 Alpha virt. eigenvalues --    1.90925   1.93420   1.97634   1.98863   2.04422
 Alpha virt. eigenvalues --    2.05450   2.06266   2.08431   2.13914   2.13923
 Alpha virt. eigenvalues --    2.18652   2.19452   2.24173   2.25675   2.33293
 Alpha virt. eigenvalues --    2.36234   2.36802   2.40685   2.41314   2.43455
 Alpha virt. eigenvalues --    2.47030   2.48556   2.48931   2.49056   2.49474
 Alpha virt. eigenvalues --    2.51341   2.55295   2.56468   2.57000   2.59582
 Alpha virt. eigenvalues --    2.61104   2.63239   2.65773   2.67213   2.73624
 Alpha virt. eigenvalues --    2.74049   2.78829   2.83527   2.85030   2.86377
 Alpha virt. eigenvalues --    2.91974   2.94146   2.96533   3.03569   3.12439
 Alpha virt. eigenvalues --    3.18881   3.27902   3.52674   3.60616   3.71795
 Alpha virt. eigenvalues --    3.72364   3.75839   3.79193   3.80693   3.81445
 Alpha virt. eigenvalues --    3.86404   3.88055   4.05411   4.28221   4.43797
 Alpha virt. eigenvalues --    4.70162   4.93396  23.73671  23.88207  23.88836
 Alpha virt. eigenvalues --   23.91817  23.95180  35.53208  35.72857
          Condensed to atoms (all electrons):
               1          2          3          4          5          6
     1  N    6.295192   0.000036   0.236770  -0.054854  -0.054631   0.511623
     2  N    0.000036   6.765492   0.000004  -0.000001   0.000000   0.000787
     3  C    0.236770   0.000004   5.018524   0.358267   0.360706  -0.054889
     4  C   -0.054854  -0.000001   0.358267   4.870180  -0.074519   0.000507
     5  C   -0.054631   0.000000   0.360706  -0.074519   4.868143   0.000330
     6  C    0.511623   0.000787  -0.054889   0.000507   0.000330   4.725487
     7  C   -0.001195   0.638202  -0.000295   0.000051  -0.000004  -0.031544
     8  H   -0.032930   0.000000   0.416173  -0.037315  -0.036656  -0.005076
     9  H   -0.004551  -0.000000  -0.031342   0.401067  -0.006388  -0.000159
    10  H    0.000246  -0.000000  -0.032390   0.401127   0.007340   0.001692
    11  H    0.004957   0.000000  -0.029956   0.402052  -0.002534  -0.000135
    12  H    0.000930  -0.000000  -0.032179   0.007517   0.400424   0.001397
    13  H   -0.004559  -0.000000  -0.031483  -0.006423   0.401293  -0.000127
    14  H    0.004924   0.000000  -0.030175  -0.002595   0.402289  -0.000110
    15  H   -0.028365  -0.000110  -0.008761   0.000555   0.000429   0.401204
    16  H   -0.015828  -0.008752   0.002354  -0.000017  -0.000506   0.364263
    17  H    0.361324  -0.000038  -0.036893  -0.000751  -0.001337  -0.034091
               7          8          9         10         11         12
     1  N   -0.001195  -0.032930  -0.004551   0.000246   0.004957   0.000930
     2  N    0.638202   0.000000  -0.000000  -0.000000   0.000000  -0.000000
     3  C   -0.000295   0.416173  -0.031342  -0.032390  -0.029956  -0.032179
     4  C    0.000051  -0.037315   0.401067   0.401127   0.402052   0.007517
     5  C   -0.000004  -0.036656  -0.006388   0.007340  -0.002534   0.400424
     6  C   -0.031544  -0.005076  -0.000159   0.001692  -0.000135   0.001397
     7  C    5.801304  -0.000055  -0.000004   0.000230  -0.000003   0.000002
     8  H   -0.000055   0.530147   0.007098  -0.006096  -0.004584  -0.006181
     9  H   -0.000004   0.007098   0.545127  -0.026604  -0.022168  -0.000207
    10  H    0.000230  -0.006096  -0.026604   0.539450  -0.019874  -0.000426
    11  H   -0.000003  -0.004584  -0.022168  -0.019874   0.530316   0.000035
    12  H    0.000002  -0.006181  -0.000207  -0.000426   0.000035   0.540546
    13  H   -0.000001   0.007099   0.004291  -0.000212  -0.000547  -0.026669
    14  H    0.000000  -0.004609  -0.000555   0.000052   0.002389  -0.019752
    15  H    0.002746   0.004673  -0.000017   0.000206  -0.000059   0.000170
    16  H    0.078580  -0.000036   0.000022  -0.000015   0.000006  -0.000020
    17  H    0.001452   0.005368   0.003317  -0.000170  -0.000206  -0.000219
              13         14         15         16         17
     1  N   -0.004559   0.004924  -0.028365  -0.015828   0.361324
     2  N   -0.000000   0.000000  -0.000110  -0.008752  -0.000038
     3  C   -0.031483  -0.030175  -0.008761   0.002354  -0.036893
     4  C   -0.006423  -0.002595   0.000555  -0.000017  -0.000751
     5  C    0.401293   0.402289   0.000429  -0.000506  -0.001337
     6  C   -0.000127  -0.000110   0.401204   0.364263  -0.034091
     7  C   -0.000001   0.000000   0.002746   0.078580   0.001452
     8  H    0.007099  -0.004609   0.004673  -0.000036   0.005368
     9  H    0.004291  -0.000555  -0.000017   0.000022   0.003317
    10  H   -0.000212   0.000052   0.000206  -0.000015  -0.000170
    11  H   -0.000547   0.002389  -0.000059   0.000006  -0.000206
    12  H   -0.026669  -0.019752   0.000170  -0.000020  -0.000219
    13  H    0.545106  -0.022142  -0.000015   0.000028   0.003300
    14  H   -0.022142   0.530219  -0.000053   0.000022  -0.000182
    15  H   -0.000015  -0.000053   0.461597  -0.020915   0.005282
    16  H    0.000028   0.000022  -0.020915   0.440695  -0.005375
    17  H    0.003300  -0.000182   0.005282  -0.005375   0.402929
 Mulliken charges:
               1
     1  N   -0.219090
     2  N   -0.395620
     3  C   -0.104435
     4  C   -0.264848
     5  C   -0.264379
     6  C    0.118842
     7  C   -0.489464
     8  H    0.162981
     9  H    0.131072
    10  H    0.135442
    11  H    0.140310
    12  H    0.134633
    13  H    0.131060
    14  H    0.140279
    15  H    0.181434
    16  H    0.165493
    17  H    0.296290
 Sum of Mulliken charges =  -0.00000
 Mulliken charges with hydrogens summed into heavy atoms:
               1
     1  N    0.077201
     2  N   -0.395620
     3  C    0.058546
     4  C    0.141976
     5  C    0.141593
     6  C    0.465769
     7  C   -0.489464
 APT charges:
               1
     1  N   -0.500353
     2  N    1.583413
     3  C   -0.353309
     4  C   -0.988245
     5  C   -1.174884
     6  C   -0.227696
     7  C   -2.454013
     8  H    0.360294
     9  H    0.346643
    10  H    0.233709
    11  H    0.531662
    12  H    0.390400
    13  H    0.356457
    14  H    0.535423
    15  H    0.395214
    16  H    0.439447
    17  H    0.525838
 Sum of APT charges =  -0.00000
 APT charges with hydrogens summed into heavy atoms:
               1
     1  N    0.025484
     2  N    1.583413
     3  C    0.006985
     4  C    0.123769
     5  C    0.107397
     6  C    0.606965
     7  C   -2.454013
 Electronic spatial extent (au):  <R**2>=           1637.2102
 Charge=             -0.0000 electrons
 Dipole moment (field-independent basis, Debye):
    X=             -9.8939    Y=              9.2918    Z=            -13.5194  Tot=             19.1572
 Quadrupole moment (field-independent basis, Debye-Ang):
   XX=            -71.1010   YY=            -57.2883   ZZ=            -76.6461
   XY=             23.1225   XZ=            -33.3077   YZ=             25.9568
 Traceless Quadrupole moment (field-independent basis, Debye-Ang):
   XX=             -2.7558   YY=             11.0569   ZZ=             -8.3010
   XY=             23.1225   XZ=            -33.3077   YZ=             25.9568
 Octapole moment (field-independent basis, Debye-Ang**2):
  XXX=           -180.6564  YYY=             72.8756  ZZZ=           -161.7885  XYY=            -78.6285
  XXY=             82.6026  XXZ=           -118.2691  XZZ=           -133.8317  YZZ=             90.0168
  YYZ=            -73.2930  XYZ=             77.5141
 Hexadecapole moment (field-independent basis, Debye-Ang**3):
 XXXX=          -1250.8213 YYYY=           -624.5430 ZZZZ=          -1225.4690 XXXY=            499.9304
 XXXZ=           -615.4145 YYYX=            411.6779 YYYZ=            415.6166 ZZZX=           -658.8296
 ZZZY=            538.9427 XXYY=           -409.9084 XXZZ=           -612.6109 YYZZ=           -411.8569
 XXYZ=            314.2486 YYXZ=           -275.7769 ZZXY=            330.3119
 N-N= 2.624659211731D+02 E-N=-1.234726587257D+03  KE= 3.047298079434D+02
  Exact polarizability:   0.000   0.000   0.000   0.000   0.000   0.000
 Approx polarizability:  94.806 -17.154  97.397  13.800 -14.917 105.254
 No NMR shielding tensors so no spin-rotation constants.
 Leave Link  601 at Mon Feb 24 10:24:04 2020, MaxMem=  1879048192 cpu:               4.0 elap:               0.1
 (Enter /gpfs/apps/medsci/stacks/noOS/software/gaussian/g16.a03.avx2/g16/l701.exe)
 ... and contract with generalized density number  0.
 Compute integral second derivatives.
 D2PCM: PCM CHGder 2nd derivatives, FixD1E=F FixD2E=F DoIter=F DoCFld=F I1PDM=0
 GePol: Maximum number of non-zero 2nd derivatives   =     240
 Leave Link  701 at Mon Feb 24 10:24:06 2020, MaxMem=  1879048192 cpu:              69.2 elap:               1.8
 (Enter /gpfs/apps/medsci/stacks/noOS/software/gaussian/g16.a03.avx2/g16/l702.exe)
 L702 exits ... SP integral derivatives will be done elsewhere.
 Leave Link  702 at Mon Feb 24 10:24:06 2020, MaxMem=  1879048192 cpu:               1.0 elap:               0.0
 (Enter /gpfs/apps/medsci/stacks/noOS/software/gaussian/g16.a03.avx2/g16/l703.exe)
 Integral derivatives from FoFJK, PRISM(SPDF).
 Compute integral second derivatives, UseDBF=F ICtDFT=           0.
 Calling FoFJK, ICntrl=    100127 FMM=F ISym2X=0 I1Cent= 0 IOpClX= 0 NMat=1 NMatS=1 NMatT=0.
 FoFJK:  IHMeth= 1 ICntrl=  100127 DoSepK=F KAlg= 0 I1Cent=           0 FoldK=F
 IRaf=         0 NMat=       1 IRICut=       1 DoRegI=T DoRafI=F ISym2E= 0 IDoP0=0 IntGTp=1.
 FoFCou: FMM=F IPFlag=           0 FMFlag=      100000 FMFlg1=         800
         NFxFlg=           0 DoJE=F BraDBF=F KetDBF=F FulRan=T
         wScrn=  0.000000 ICntrl=    100127 IOpCl=  0 I1Cent=           0 NGrid=           0
         NMat0=    1 NMatS0=      1 NMatT0=    0 NMatD0=    1 NMtDS0=    0 NMtDT0=    0
 Symmetry not used in FoFCou.
 Leave Link  703 at Mon Feb 24 10:24:15 2020, MaxMem=  1879048192 cpu:             351.0 elap:               8.8
 (Enter /gpfs/apps/medsci/stacks/noOS/software/gaussian/g16.a03.avx2/g16/l716.exe)
 Dipole        =-3.89256673D+00 3.65566590D+00-5.31892329D+00
 Polarizability= 0.00000000D+00 0.00000000D+00 0.00000000D+00
                 0.00000000D+00 0.00000000D+00 0.00000000D+00
 -------------------------------------------------------------------
 Center     Atomic                   Forces (Hartrees/Bohr)
 Number     Number              X              Y              Z
 -------------------------------------------------------------------
      1        7           0.000064275    0.000100153   -0.000046748
      2        7          -0.000058216   -0.000107858    0.000008552
      3        6           0.000021163    0.000054930   -0.000084806
      4        6          -0.000089608    0.000039572   -0.000052410
      5        6          -0.000052454   -0.000045096    0.000030556
      6        6          -0.000080202   -0.000044957    0.000209084
      7        6           0.000027269    0.000071989   -0.000034054
      8        1           0.000126130   -0.000072110    0.000026043
      9        1           0.000114597   -0.000087731   -0.000067874
     10        1           0.000032179    0.000039210   -0.000012959
     11        1           0.000017664   -0.000010941    0.000030085
     12        1          -0.000021815    0.000002855    0.000045230
     13        1          -0.000022419   -0.000104706    0.000048431
     14        1          -0.000013510   -0.000003727   -0.000012108
     15        1          -0.000082345    0.000026360   -0.000026501
     16        1           0.000019263    0.000020886   -0.000073323
     17        1          -0.000001971    0.000121170    0.000012802
 -------------------------------------------------------------------
 Cartesian Forces:  Max     0.000209084 RMS     0.000065171
 Z-matrix is all fixed cartesians, so copy forces.
 Leave Link  716 at Mon Feb 24 10:24:15 2020, MaxMem=  1879048192 cpu:               1.4 elap:               0.1
 (Enter /gpfs/apps/medsci/stacks/noOS/software/gaussian/g16.a03.avx2/g16/l123.exe)
 IRC-IRC-IRC-IRC-IRC-IRC-IRC-IRC-IRC-IRC-IRC-IRC-IRC-IRC-IRC-IRC-IRC-IRC
          ******** Start new reaction path calculation ********
 Current Structure is TS -> form Hessian eigenvectors.
                            Diagonalizing Hessian.
 Supplied step size of   0.0700 bohr.
    Integration on MW PES will use step size of   0.1301 sqrt(amu)*bohr.
 Point Number:   0          Path Number:   1
 Calculating another point on the path.
 Point Number  1 in REVERSE path direction.
 Using LQA Reaction Path Following.
 IRC-IRC-IRC-IRC-IRC-IRC-IRC-IRC-IRC-IRC-IRC-IRC-IRC-IRC-IRC-IRC-IRC-IRC
 Leave Link  123 at Mon Feb 24 10:24:15 2020, MaxMem=  1879048192 cpu:               1.0 elap:               0.0
 (Enter /gpfs/apps/medsci/stacks/noOS/software/gaussian/g16.a03.avx2/g16/l202.exe)
                          Input orientation:                          
 ---------------------------------------------------------------------
 Center     Atomic      Atomic             Coordinates (Angstroms)
 Number     Number       Type             X           Y           Z
 ---------------------------------------------------------------------
      1          7           0        0.051898    0.538205   -0.545989
      2          7           0        2.381899   -2.090893    2.964026
      3          6           0       -1.303009    0.619640   -1.153649
      4          6           0       -2.337393    0.779205   -0.038706
      5          6           0       -1.325972    1.761365   -2.170529
      6          6           0        0.855337   -0.451356   -0.610130
      7          6           0        2.161214   -1.555454    1.948515
      8          1           0       -1.449482   -0.334245   -1.662796
      9          1           0       -2.192292    1.716476    0.505031
     10          1           0       -2.286858   -0.051143    0.667618
     11          1           0       -3.334620    0.796079   -0.481908
     12          1           0       -0.576836    1.610206   -2.949568
     13          1           0       -1.145621    2.725614   -1.688085
     14          1           0       -2.310628    1.796712   -2.639814
     15          1           0        0.555850   -1.334482   -1.163599
     16          1           0        1.790634   -0.441638   -0.062204
     17          1           0        0.350044    1.356688   -0.016350
 ---------------------------------------------------------------------
                    Distance matrix (angstroms):
                    1          2          3          4          5
     1  N    0.000000
     2  N    4.966011   0.000000
     3  C    1.487163   6.154737   0.000000
     4  C    2.454409   6.286937   1.529218   0.000000
     5  C    2.456374   7.412951   1.529087   2.555832   0.000000
     6  C    1.276268   4.218183   2.470000   3.469053   3.476936
     7  C    3.880100   1.169042   5.133741   5.444001   6.334688
     8  H    2.064599   6.258816   1.091137   2.160051   2.159775
     9  H    2.743967   6.439405   2.178324   1.093244   2.812676
    10  H    2.699992   5.588503   2.175988   1.091295   3.501938
    11  H    3.396927   7.272390   2.147047   1.091410   2.796048
    12  H    2.705861   7.577786   2.175747   3.501891   1.091309
    13  H    2.742843   7.568637   2.178421   2.815897   1.093185
    14  H    3.398451   8.278665   2.146970   2.793170   1.091341
    15  H    2.035280   4.576450   2.697044   3.755517   3.760243
    16  H    2.053617   3.496813   3.447926   4.304836   4.360216
    17  H    1.019472   4.989678   2.137586   2.748873   2.759217
                    6          7          8          9         10
     6  C    0.000000
     7  C    3.077501   0.000000
     8  H    2.536535   5.250718   0.000000
     9  H    3.902707   5.634020   3.075174   0.000000
    10  H    3.415582   4.867134   2.492423   1.777598   0.000000
    11  H    4.373588   6.452973   2.495170   1.768076   1.771158
    12  H    3.431345   6.442789   2.489616   3.815134   4.332239
    13  H    3.906271   6.518248   3.075013   2.631280   3.816037
    14  H    4.381410   7.230985   2.497422   3.148093   3.788699
    15  H    1.084403   3.508742   2.295872   4.432263   3.616809
    16  H    1.084020   2.328284   3.615492   4.565403   4.160657
    17  H    1.968990   3.952418   2.967884   2.620068   3.066440
                   11         12         13         14         15
    11  H    0.000000
    12  H    3.789132   0.000000
    13  H    3.157481   1.777355   0.000000
    14  H    2.589669   1.771092   1.768018   0.000000
    15  H    4.487734   3.625445   4.433335   4.494472   0.000000
    16  H    5.289265   4.260499   4.614820   5.336163   1.880142
    17  H    3.756032   3.086607   2.627863   3.762360   2.932734
                   16         17
    16  H    0.000000
    17  H    2.304642   0.000000
 Symmetry turned off by external request.
 Stoichiometry    C5H10N2
 Framework group  C1[X(C5H10N2)]
 Deg. of freedom    45
 Full point group                 C1      NOp   1
 Rotational constants (GHZ):           5.8162140           0.7740203           0.7100291
 Leave Link  202 at Mon Feb 24 10:24:15 2020, MaxMem=  1879048192 cpu:               1.6 elap:               0.1
 (Enter /gpfs/apps/medsci/stacks/noOS/software/gaussian/g16.a03.avx2/g16/l301.exe)
 Standard basis: 6-311G(2d,d,p) (5D, 7F)
 Ernie: Thresh=  0.10000D-02 Tol=  0.10000D-05 Strict=F.
   186 basis functions,   304 primitive gaussians,   193 cartesian basis functions
    27 alpha electrons       27 beta electrons
       nuclear repulsion energy       262.4059222367 Hartrees.
 IExCor=  402 DFT=T Ex+Corr=B3LYP ExCW=0 ScaHFX=  0.200000
 ScaDFX=  0.800000  0.720000  1.000000  0.810000 ScalE2=  1.000000  1.000000
 IRadAn=      5 IRanWt=     -1 IRanGd=            0 ICorTp=0 IEmpDi=  4
 NAtoms=   17 NActive=   17 NUniq=   17 SFac= 1.00D+00 NAtFMM=   60 NAOKFM=F Big=F
 Integral buffers will be    131072 words long.
 Raffenetti 2 integral format.
 Two-electron integral symmetry is turned off.
 Force inversion solution in PCM.
 ------------------------------------------------------------------------------
 Polarizable Continuum Model (PCM)
 =================================
 Model                : PCM.
 Atomic radii         : UFF (Universal Force Field).
 Polarization charges : Total charges.
 Charge compensation  : None.
 Solution method      : Matrix inversion.
 Cavity type          : Scaled VdW (van der Waals Surface) (Alpha=1.100).
 Cavity algorithm     : GePol (No added spheres)
                        Default sphere list used, NSphG=   17.
                        Lebedev-Laikov grids with approx.  5.0 points / Ang**2.
                        Smoothing algorithm: York/Karplus (Gamma=1.0000).
                        Polarization charges: spherical gaussians, with
                                              point-specific exponents (IZeta= 3).
                        Self-potential: point-specific (ISelfS= 7).
                        Self-field    : sphere-specific E.n sum rule (ISelfD= 2).
 1st derivatives      : Analytical E(r).r(x)/FMM algorithm (CHGder, D1EAlg=3).
                        Cavity 1st derivative terms included.
 2nd derivatives      : Analytical E(r).r(xy)/FMM algorithm (CHGder, D2EAlg=3).
                        Cavity 2nd derivative terms included.
 Solvent              : Water, Eps=  78.355300 Eps(inf)=   1.777849
 ------------------------------------------------------------------------------
 Spheres list:
 ISph  on   Nord     Re0    Alpha      Xe            Ye            Ze
    1   N      1    1.8300  1.100      0.051898      0.538205     -0.545989
    2   N      2    1.8300  1.100      2.381899     -2.090893      2.964026
    3   C      3    1.9255  1.100     -1.303009      0.619640     -1.153649
    4   C      4    1.9255  1.100     -2.337393      0.779205     -0.038706
    5   C      5    1.9255  1.100     -1.325972      1.761365     -2.170529
    6   C      6    1.9255  1.100      0.855337     -0.451356     -0.610130
    7   C      7    1.9255  1.100      2.161214     -1.555454      1.948515
    8   H      8    1.4430  1.100     -1.449482     -0.334245     -1.662796
    9   H      9    1.4430  1.100     -2.192292      1.716476      0.505031
   10   H     10    1.4430  1.100     -2.286858     -0.051143      0.667618
   11   H     11    1.4430  1.100     -3.334620      0.796079     -0.481908
   12   H     12    1.4430  1.100     -0.576836      1.610206     -2.949568
   13   H     13    1.4430  1.100     -1.145621      2.725614     -1.688085
   14   H     14    1.4430  1.100     -2.310628      1.796712     -2.639814
   15   H     15    1.4430  1.100      0.555850     -1.334482     -1.163599
   16   H     16    1.4430  1.100      1.790634     -0.441638     -0.062204
   17   H     17    1.4430  1.100      0.350044      1.356688     -0.016350
 ------------------------------------------------------------------------------
 GePol: Number of generator spheres                  =      17
 GePol: Total number of spheres                      =      17
 GePol: Number of exposed spheres                    =      17 (100.00%)
 GePol: Number of points                             =    1499
 GePol: Average weight of points                     =       0.14
 GePol: Minimum weight of points                     =   0.16D-08
 GePol: Maximum weight of points                     =    0.20577
 GePol: Number of points with low weight             =     103
 GePol: Fraction of low-weight points (<1% of avg)   =       6.87%
 GePol: Cavity surface area                          =    207.816 Ang**2
 GePol: Cavity volume                                =    190.471 Ang**3
 Leave Link  301 at Mon Feb 24 10:24:15 2020, MaxMem=  1879048192 cpu:               2.4 elap:               0.1
 (Enter /gpfs/apps/medsci/stacks/noOS/software/gaussian/g16.a03.avx2/g16/l302.exe)
 NPDir=0 NMtPBC=     1 NCelOv=     1 NCel=       1 NClECP=     1 NCelD=      1
         NCelK=      1 NCelE2=     1 NClLst=     1 CellRange=     0.0.
 One-electron integrals computed using PRISM.
 NBasis=   186 RedAO= T EigKep=  2.08D-03  NBF=   186
 NBsUse=   186 1.00D-06 EigRej= -1.00D+00 NBFU=   186
 Precomputing XC quadrature grid using
 IXCGrd= 4 IRadAn=           5 IRanWt=          -1 IRanGd=           0 AccXCQ= 0.00D+00.
 Generated NRdTot=       0 NPtTot=           0 NUsed=           0 NTot=          32
 NSgBfM=   193   193   193   193   193 MxSgAt=    17 MxSgA2=    17.
 Leave Link  302 at Mon Feb 24 10:24:15 2020, MaxMem=  1879048192 cpu:               8.5 elap:               0.3
 (Enter /gpfs/apps/medsci/stacks/noOS/software/gaussian/g16.a03.avx2/g16/l303.exe)
 DipDrv:  MaxL=1.
 Leave Link  303 at Mon Feb 24 10:24:15 2020, MaxMem=  1879048192 cpu:               4.0 elap:               0.1
 (Enter /gpfs/apps/medsci/stacks/noOS/software/gaussian/g16.a03.avx2/g16/l401.exe)
 Initial guess from the checkpoint file:  "check.chk"
 B after Tr=    -1.125757    0.350009   -0.513398
         Rot=    1.000000   -0.000146    0.000120   -0.000017 Ang=  -0.02 deg.
 Guess basis will be translated and rotated to current coordinates.
 JPrj=2 DoOrth=T DoCkMO=T.
 Generating alternative initial guess.
 ExpMin= 1.03D-01 ExpMax= 6.29D+03 ExpMxC= 9.49D+02 IAcc=2 IRadAn=         4 AccDes= 0.00D+00
 Harris functional with IExCor=  402 and IRadAn=       4 diagonalized for initial guess.
 HarFok:  IExCor=  402 AccDes= 0.00D+00 IRadAn=         4 IDoV= 1 UseB2=F ITyADJ=14
 ICtDFT=  3500011 ScaDFX=  1.000000  1.000000  1.000000  1.000000
 FoFCou: FMM=F IPFlag=           0 FMFlag=      100000 FMFlg1=           0
         NFxFlg=           0 DoJE=T BraDBF=F KetDBF=T FulRan=T
         wScrn=  0.000000 ICntrl=       500 IOpCl=  0 I1Cent=   200000004 NGrid=           0
         NMat0=    1 NMatS0=      1 NMatT0=    0 NMatD0=    1 NMtDS0=    0 NMtDT0=    0
 Symmetry not used in FoFCou.
 Harris En= -306.130926509221    
 Leave Link  401 at Mon Feb 24 10:24:16 2020, MaxMem=  1879048192 cpu:              11.2 elap:               0.3
 (Enter /gpfs/apps/medsci/stacks/noOS/software/gaussian/g16.a03.avx2/g16/l502.exe)
 Two-electron integral symmetry not used.
 Closed shell SCF:
 Using DIIS extrapolation, IDIIS=  1040.
 NGot=  1879048192 LenX=  1878964310 LenY=  1878926620
 Requested convergence on RMS density matrix=1.00D-08 within  32 cycles.
 Requested convergence on MAX density matrix=1.00D-06.
 Requested convergence on             energy=1.00D-06.
 No special actions if energy rises.
 Fock matrices will be formed incrementally for  20 cycles.

 Cycle   1  Pass 1  IDiag  1:
 FoFJK:  IHMeth= 1 ICntrl=       0 DoSepK=F KAlg= 0 I1Cent=           0 FoldK=F
 IRaf= 910000000 NMat=       1 IRICut=       1 DoRegI=T DoRafI=F ISym2E= 0 IDoP0=0 IntGTp=1.
 FoFCou: FMM=F IPFlag=           0 FMFlag=      100000 FMFlg1=           0
         NFxFlg=           0 DoJE=F BraDBF=F KetDBF=F FulRan=T
         wScrn=  0.000000 ICntrl=         0 IOpCl=  0 I1Cent=           0 NGrid=           0
         NMat0=    1 NMatS0=      1 NMatT0=    0 NMatD0=    1 NMtDS0=    0 NMtDT0=    0
 Symmetry not used in FoFCou.
 Inv3:  Mode=1 IEnd=     6741003.
 Iteration    1 A*A^-1 deviation from unit magnitude is 3.22D-15 for    767.
 Iteration    1 A*A^-1 deviation from orthogonality  is 1.86D-15 for   1207    760.
 Iteration    1 A^-1*A deviation from unit magnitude is 3.22D-15 for    767.
 Iteration    1 A^-1*A deviation from orthogonality  is 1.86D-15 for    552    302.
 E= -306.074158665134    
 DIIS: error= 4.14D-04 at cycle   1 NSaved=   1.
 NSaved= 1 IEnMin= 1 EnMin= -306.074158665134     IErMin= 1 ErrMin= 4.14D-04
 ErrMax= 4.14D-04  0.00D+00 EMaxC= 1.00D-01 BMatC= 4.75D-05 BMatP= 4.75D-05
 IDIUse=3 WtCom= 9.96D-01 WtEn= 4.14D-03
 Coeff-Com:  0.100D+01
 Coeff-En:   0.100D+01
 Coeff:      0.100D+01
 Gap=     0.540 Goal=   None    Shift=    0.000
 RMSDP=6.42D-05 MaxDP=2.07D-03              OVMax= 5.15D-03

 Cycle   2  Pass 1  IDiag  1:
 RMSU=  6.42D-05    CP:  1.00D+00
 E= -306.074246302634     Delta-E=       -0.000087637500 Rises=F Damp=F
 DIIS: error= 1.01D-04 at cycle   2 NSaved=   2.
 NSaved= 2 IEnMin= 2 EnMin= -306.074246302634     IErMin= 2 ErrMin= 1.01D-04
 ErrMax= 1.01D-04  0.00D+00 EMaxC= 1.00D-01 BMatC= 1.12D-06 BMatP= 4.75D-05
 IDIUse=3 WtCom= 9.99D-01 WtEn= 1.01D-03
 Coeff-Com: -0.602D-01 0.106D+01
 Coeff-En:   0.000D+00 0.100D+01
 Coeff:     -0.602D-01 0.106D+01
 Gap=     0.155 Goal=   None    Shift=    0.000
 RMSDP=1.74D-05 MaxDP=1.09D-03 DE=-8.76D-05 OVMax= 8.23D-04

 Cycle   3  Pass 1  IDiag  1:
 RMSU=  1.40D-05    CP:  1.00D+00  1.15D+00
 E= -306.074246493684     Delta-E=       -0.000000191051 Rises=F Damp=F
 DIIS: error= 2.48D-04 at cycle   3 NSaved=   3.
 NSaved= 3 IEnMin= 3 EnMin= -306.074246493684     IErMin= 2 ErrMin= 1.01D-04
 ErrMax= 2.48D-04  0.00D+00 EMaxC= 1.00D-01 BMatC= 2.30D-06 BMatP= 1.12D-06
 IDIUse=3 WtCom= 3.89D-01 WtEn= 6.11D-01
 Coeff-Com: -0.513D-01 0.671D+00 0.381D+00
 Coeff-En:   0.000D+00 0.464D+00 0.536D+00
 Coeff:     -0.199D-01 0.544D+00 0.476D+00
 Gap=     0.155 Goal=   None    Shift=    0.000
 RMSDP=9.47D-06 MaxDP=7.27D-04 DE=-1.91D-07 OVMax= 7.54D-04

 Cycle   4  Pass 1  IDiag  1:
 RMSU=  4.43D-06    CP:  1.00D+00  1.16D+00  4.21D-01
 E= -306.074247930769     Delta-E=       -0.000001437085 Rises=F Damp=F
 DIIS: error= 1.51D-04 at cycle   4 NSaved=   4.
 NSaved= 4 IEnMin= 4 EnMin= -306.074247930769     IErMin= 2 ErrMin= 1.01D-04
 ErrMax= 1.51D-04  0.00D+00 EMaxC= 1.00D-01 BMatC= 7.83D-07 BMatP= 1.12D-06
 IDIUse=3 WtCom= 9.98D-01 WtEn= 1.51D-03
 Coeff-Com: -0.145D-01 0.135D+00 0.359D+00 0.521D+00
 Coeff-En:   0.000D+00 0.000D+00 0.289D+00 0.711D+00
 Coeff:     -0.145D-01 0.135D+00 0.358D+00 0.521D+00
 Gap=     0.155 Goal=   None    Shift=    0.000
 RMSDP=3.12D-06 MaxDP=1.80D-04 DE=-1.44D-06 OVMax= 3.02D-04

 Cycle   5  Pass 1  IDiag  1:
 RMSU=  1.56D-06    CP:  1.00D+00  1.17D+00  5.77D-01  7.05D-01
 E= -306.074248588728     Delta-E=       -0.000000657959 Rises=F Damp=F
 DIIS: error= 1.31D-05 at cycle   5 NSaved=   5.
 NSaved= 5 IEnMin= 5 EnMin= -306.074248588728     IErMin= 5 ErrMin= 1.31D-05
 ErrMax= 1.31D-05  0.00D+00 EMaxC= 1.00D-01 BMatC= 1.66D-08 BMatP= 7.83D-07
 IDIUse=1 WtCom= 1.00D+00 WtEn= 0.00D+00
 Coeff-Com: -0.926D-03-0.183D-01 0.142D+00 0.265D+00 0.613D+00
 Coeff:     -0.926D-03-0.183D-01 0.142D+00 0.265D+00 0.613D+00
 Gap=     0.155 Goal=   None    Shift=    0.000
 RMSDP=7.87D-07 MaxDP=3.85D-05 DE=-6.58D-07 OVMax= 3.70D-05

 Cycle   6  Pass 1  IDiag  1:
 RMSU=  3.02D-07    CP:  1.00D+00  1.17D+00  6.12D-01  7.61D-01  7.68D-01
 E= -306.074248603515     Delta-E=       -0.000000014787 Rises=F Damp=F
 DIIS: error= 3.49D-06 at cycle   6 NSaved=   6.
 NSaved= 6 IEnMin= 6 EnMin= -306.074248603515     IErMin= 6 ErrMin= 3.49D-06
 ErrMax= 3.49D-06  0.00D+00 EMaxC= 1.00D-01 BMatC= 2.03D-09 BMatP= 1.66D-08
 IDIUse=1 WtCom= 1.00D+00 WtEn= 0.00D+00
 Coeff-Com:  0.830D-03-0.238D-01 0.487D-01 0.102D+00 0.333D+00 0.540D+00
 Coeff:      0.830D-03-0.238D-01 0.487D-01 0.102D+00 0.333D+00 0.540D+00
 Gap=     0.155 Goal=   None    Shift=    0.000
 RMSDP=2.49D-07 MaxDP=1.67D-05 DE=-1.48D-08 OVMax= 1.49D-05

 Cycle   7  Pass 1  IDiag  1:
 RMSU=  1.28D-07    CP:  1.00D+00  1.18D+00  6.23D-01  7.71D-01  7.77D-01
                    CP:  6.53D-01
 E= -306.074248605051     Delta-E=       -0.000000001537 Rises=F Damp=F
 DIIS: error= 1.55D-06 at cycle   7 NSaved=   7.
 NSaved= 7 IEnMin= 7 EnMin= -306.074248605051     IErMin= 7 ErrMin= 1.55D-06
 ErrMax= 1.55D-06  0.00D+00 EMaxC= 1.00D-01 BMatC= 3.23D-10 BMatP= 2.03D-09
 IDIUse=1 WtCom= 1.00D+00 WtEn= 0.00D+00
 Coeff-Com:  0.650D-03-0.119D-01 0.619D-02 0.174D-01 0.905D-01 0.320D+00
 Coeff-Com:  0.577D+00
 Coeff:      0.650D-03-0.119D-01 0.619D-02 0.174D-01 0.905D-01 0.320D+00
 Coeff:      0.577D+00
 Gap=     0.155 Goal=   None    Shift=    0.000
 RMSDP=7.26D-08 MaxDP=2.61D-06 DE=-1.54D-09 OVMax= 5.76D-06

 Cycle   8  Pass 1  IDiag  1:
 RMSU=  4.10D-08    CP:  1.00D+00  1.18D+00  6.23D-01  7.75D-01  7.96D-01
                    CP:  7.31D-01  7.36D-01
 E= -306.074248605338     Delta-E=       -0.000000000287 Rises=F Damp=F
 DIIS: error= 1.76D-07 at cycle   8 NSaved=   8.
 NSaved= 8 IEnMin= 8 EnMin= -306.074248605338     IErMin= 8 ErrMin= 1.76D-07
 ErrMax= 1.76D-07  0.00D+00 EMaxC= 1.00D-01 BMatC= 8.94D-12 BMatP= 3.23D-10
 IDIUse=1 WtCom= 1.00D+00 WtEn= 0.00D+00
 Coeff-Com:  0.224D-03-0.373D-02 0.267D-03 0.208D-02 0.184D-01 0.105D+00
 Coeff-Com:  0.240D+00 0.638D+00
 Coeff:      0.224D-03-0.373D-02 0.267D-03 0.208D-02 0.184D-01 0.105D+00
 Coeff:      0.240D+00 0.638D+00
 Gap=     0.155 Goal=   None    Shift=    0.000
 RMSDP=1.56D-08 MaxDP=6.59D-07 DE=-2.87D-10 OVMax= 1.04D-06

 Cycle   9  Pass 1  IDiag  1:
 RMSU=  1.16D-08    CP:  1.00D+00  1.18D+00  6.24D-01  7.76D-01  7.99D-01
                    CP:  7.40D-01  7.69D-01  8.68D-01
 E= -306.074248605346     Delta-E=       -0.000000000007 Rises=F Damp=F
 DIIS: error= 6.51D-08 at cycle   9 NSaved=   9.
 NSaved= 9 IEnMin= 9 EnMin= -306.074248605346     IErMin= 9 ErrMin= 6.51D-08
 ErrMax= 6.51D-08  0.00D+00 EMaxC= 1.00D-01 BMatC= 9.35D-13 BMatP= 8.94D-12
 IDIUse=1 WtCom= 1.00D+00 WtEn= 0.00D+00
 Coeff-Com:  0.420D-05 0.107D-03-0.546D-03-0.137D-02-0.530D-02-0.214D-04
 Coeff-Com:  0.183D-01 0.260D+00 0.729D+00
 Coeff:      0.420D-05 0.107D-03-0.546D-03-0.137D-02-0.530D-02-0.214D-04
 Coeff:      0.183D-01 0.260D+00 0.729D+00
 Gap=     0.155 Goal=   None    Shift=    0.000
 RMSDP=7.83D-09 MaxDP=5.70D-07 DE=-7.45D-12 OVMax= 4.07D-07

 Error on total polarization charges =  0.01024
 SCF Done:  E(RB3LYP) =  -306.074248605     A.U. after    9 cycles
            NFock=  9  Conv=0.78D-08     -V/T= 2.0044
 KE= 3.047297401305D+02 PE=-1.234600357122D+03 EE= 3.613904461499D+02
 Leave Link  502 at Mon Feb 24 10:24:20 2020, MaxMem=  1879048192 cpu:             164.0 elap:               4.3
 (Enter /gpfs/apps/medsci/stacks/noOS/software/gaussian/g16.a03.avx2/g16/l508.exe)
 QCSCF skips out because SCF is already converged.
 Leave Link  508 at Mon Feb 24 10:24:20 2020, MaxMem=  1879048192 cpu:               0.3 elap:               0.0
 (Enter /gpfs/apps/medsci/stacks/noOS/software/gaussian/g16.a03.avx2/g16/l801.exe)
 DoSCS=F DFT=T ScalE2(SS,OS)=  1.000000  1.000000
 Range of M.O.s used for correlation:     1   186
 NBasis=   186 NAE=    27 NBE=    27 NFC=     0 NFV=     0
 NROrb=    186 NOA=    27 NOB=    27 NVA=   159 NVB=   159
 Leave Link  801 at Mon Feb 24 10:24:20 2020, MaxMem=  1879048192 cpu:               1.2 elap:               0.0
 (Enter /gpfs/apps/medsci/stacks/noOS/software/gaussian/g16.a03.avx2/g16/l1101.exe)
 Using compressed storage, NAtomX=    17.
 Will process     18 centers per pass.
 Leave Link 1101 at Mon Feb 24 10:24:20 2020, MaxMem=  1879048192 cpu:               7.2 elap:               0.2
 (Enter /gpfs/apps/medsci/stacks/noOS/software/gaussian/g16.a03.avx2/g16/l1102.exe)
 Symmetrizing basis deriv contribution to polar:
 IMax=3 JMax=2 DiffMx= 0.00D+00
 Leave Link 1102 at Mon Feb 24 10:24:20 2020, MaxMem=  1879048192 cpu:               1.4 elap:               0.1
 (Enter /gpfs/apps/medsci/stacks/noOS/software/gaussian/g16.a03.avx2/g16/l1110.exe)
 Forming Gx(P) for the SCF density, NAtomX=    17.
 Integral derivatives from FoFJK, PRISM(SPDF).
 Do as many integral derivatives as possible in FoFJK.
 G2DrvN: MDV=    1879046832.
 G2DrvN: will do    18 centers at a time, making    1 passes.
 Calling FoFCou, ICntrl=  3107 FMM=F I1Cent=   0 AccDes= 0.00D+00.
 FoFJK:  IHMeth= 1 ICntrl=    3107 DoSepK=F KAlg= 0 I1Cent=           0 FoldK=F
 IRaf=         0 NMat=       1 IRICut=       1 DoRegI=T DoRafI=F ISym2E= 0 IDoP0=0 IntGTp=1.
 FoFCou: FMM=F IPFlag=           0 FMFlag=      100000 FMFlg1=           0
         NFxFlg=           0 DoJE=F BraDBF=F KetDBF=F FulRan=T
         wScrn=  0.000000 ICntrl=      3107 IOpCl=  0 I1Cent=           0 NGrid=           0
         NMat0=    1 NMatS0=      1 NMatT0=    0 NMatD0=    1 NMtDS0=    0 NMtDT0=    0
 Symmetry not used in FoFCou.
 NEqPCM:  Using equilibrium solvation (IEInf=0, Eps=  78.3553, EpsInf=   1.7778)
 G2PCM: DoFxE=T DoFxN=T DoGrad=T DoDP/DQ/DG/TGxP=FFFF NFrqRd=   0 IEInf=0 SqF1=F DoCFld=F IF1Alg=4.
 GePol: Maximum number of non-zero 1st derivatives   =     243
 End of G2Drv F.D. properties file   721 does not exist.
 End of G2Drv F.D. properties file   722 does not exist.
 End of G2Drv F.D. properties file   788 does not exist.
 Leave Link 1110 at Mon Feb 24 10:24:26 2020, MaxMem=  1879048192 cpu:             232.8 elap:               5.9
 (Enter /gpfs/apps/medsci/stacks/noOS/software/gaussian/g16.a03.avx2/g16/l1002.exe)
 Minotr:  Closed shell wavefunction.
          IDoAtm=11111111111111111
 NEqPCM:  Using equilibrium solvation (IEInf=0, Eps=  78.3553, EpsInf=   1.7778)
          Direct CPHF calculation.
          Differentiating once with respect to nuclear coordinates.
          Requested convergence is 1.0D-08 RMS, and 1.0D-07 maximum.
          Secondary convergence is 1.0D-12 RMS, and 1.0D-12 maximum.
          NewPWx=T KeepS1=F KeepF1=F KeepIn=T MapXYZ=F SortEE=F KeepMc=T.
         5067 words used for storage of precomputed grid.
 Keep R1 ints in memory in canonical form, NReq=191944717.
 FoFCou: FMM=F IPFlag=           0 FMFlag=           0 FMFlg1=           0
         NFxFlg=           0 DoJE=F BraDBF=F KetDBF=F FulRan=T
         wScrn=  0.000000 ICntrl=       600 IOpCl=  0 I1Cent=           0 NGrid=           0
         NMat0=    1 NMatS0=  17391 NMatT0=    0 NMatD0=    1 NMtDS0=    0 NMtDT0=    0
 Symmetry not used in FoFCou.
 Two-electron integral symmetry not used.
          MDV=    1879048192 using IRadAn=       1.
          Solving linear equations simultaneously, MaxMat=       0.
          There are    54 degrees of freedom in the 1st order CPHF.  IDoFFX=6 NUNeed=     0.
     48 vectors produced by pass  0 Test12= 7.95D-15 1.85D-09 XBig12= 1.06D-01 1.35D-01.
 AX will form    48 AO Fock derivatives at one time.
     48 vectors produced by pass  1 Test12= 7.95D-15 1.85D-09 XBig12= 9.02D-03 2.83D-02.
     48 vectors produced by pass  2 Test12= 7.95D-15 1.85D-09 XBig12= 1.08D-04 3.36D-03.
     48 vectors produced by pass  3 Test12= 7.95D-15 1.85D-09 XBig12= 5.45D-07 1.77D-04.
     48 vectors produced by pass  4 Test12= 7.95D-15 1.85D-09 XBig12= 1.28D-09 1.14D-05.
     25 vectors produced by pass  5 Test12= 7.95D-15 1.85D-09 XBig12= 1.67D-12 3.00D-07.
      5 vectors produced by pass  6 Test12= 7.95D-15 1.85D-09 XBig12= 3.16D-15 1.06D-08.
 InvSVY:  IOpt=1 It=  1 EMax= 4.44D-16
 Solved reduced A of dimension   270 with    54 vectors.
 End of Minotr F.D. properties file   721 does not exist.
 End of Minotr F.D. properties file   722 does not exist.
 End of Minotr F.D. properties file   788 does not exist.
 Leave Link 1002 at Mon Feb 24 10:24:32 2020, MaxMem=  1879048192 cpu:             234.8 elap:               5.9
 (Enter /gpfs/apps/medsci/stacks/noOS/software/gaussian/g16.a03.avx2/g16/l701.exe)
 ... and contract with generalized density number  0.
 Compute integral second derivatives.
 D2PCM: PCM CHGder 2nd derivatives, FixD1E=F FixD2E=F DoIter=F DoCFld=F I1PDM=0
 GePol: Maximum number of non-zero 2nd derivatives   =     243
 Leave Link  701 at Mon Feb 24 10:24:34 2020, MaxMem=  1879048192 cpu:              69.5 elap:               1.8
 (Enter /gpfs/apps/medsci/stacks/noOS/software/gaussian/g16.a03.avx2/g16/l702.exe)
 L702 exits ... SP integral derivatives will be done elsewhere.
 Leave Link  702 at Mon Feb 24 10:24:34 2020, MaxMem=  1879048192 cpu:               1.4 elap:               0.1
 (Enter /gpfs/apps/medsci/stacks/noOS/software/gaussian/g16.a03.avx2/g16/l703.exe)
 Integral derivatives from FoFJK, PRISM(SPDF).
 Compute integral second derivatives, UseDBF=F ICtDFT=           0.
 Calling FoFJK, ICntrl=    100127 FMM=F ISym2X=0 I1Cent= 0 IOpClX= 0 NMat=1 NMatS=1 NMatT=0.
 FoFJK:  IHMeth= 1 ICntrl=  100127 DoSepK=F KAlg= 0 I1Cent=           0 FoldK=F
 IRaf=         0 NMat=       1 IRICut=       1 DoRegI=T DoRafI=F ISym2E= 0 IDoP0=0 IntGTp=1.
 FoFCou: FMM=F IPFlag=           0 FMFlag=      100000 FMFlg1=         800
         NFxFlg=           0 DoJE=F BraDBF=F KetDBF=F FulRan=T
         wScrn=  0.000000 ICntrl=    100127 IOpCl=  0 I1Cent=           0 NGrid=           0
         NMat0=    1 NMatS0=      1 NMatT0=    0 NMatD0=    1 NMtDS0=    0 NMtDT0=    0
 Symmetry not used in FoFCou.
 Leave Link  703 at Mon Feb 24 10:24:43 2020, MaxMem=  1879048192 cpu:             347.9 elap:               8.7
 (Enter /gpfs/apps/medsci/stacks/noOS/software/gaussian/g16.a03.avx2/g16/l716.exe)
 Dipole        =-3.91654843D+00 3.64802686D+00-5.32207781D+00
 Polarizability= 0.00000000D+00 0.00000000D+00 0.00000000D+00
                 0.00000000D+00 0.00000000D+00 0.00000000D+00
 -------------------------------------------------------------------
 Center     Atomic                   Forces (Hartrees/Bohr)
 Number     Number              X              Y              Z
 -------------------------------------------------------------------
      1        7           0.000038035    0.000084770   -0.000016122
      2        7          -0.000048050   -0.000078894   -0.000024073
      3        6           0.000015059    0.000074960   -0.000105573
      4        6          -0.000121363    0.000039665   -0.000085605
      5        6          -0.000025693   -0.000003960    0.000044582
      6        6          -0.000104508   -0.000107761    0.000213752
      7        6           0.000120272    0.000066279    0.000031485
      8        1           0.000127433   -0.000065240    0.000024326
      9        1           0.000109849   -0.000092902   -0.000070026
     10        1           0.000027575    0.000042063   -0.000021943
     11        1           0.000019785   -0.000008463    0.000027952
     12        1          -0.000018974    0.000006312    0.000048827
     13        1          -0.000020392   -0.000105562    0.000049499
     14        1          -0.000005798    0.000002058   -0.000010282
     15        1          -0.000073097    0.000053037   -0.000017669
     16        1          -0.000021065    0.000008671   -0.000091407
     17        1          -0.000019068    0.000084967    0.000002278
 -------------------------------------------------------------------
 Cartesian Forces:  Max     0.000213752 RMS     0.000068910
 Z-matrix is all fixed cartesians, so copy forces.
 Leave Link  716 at Mon Feb 24 10:24:43 2020, MaxMem=  1879048192 cpu:               1.5 elap:               0.1
 (Enter /gpfs/apps/medsci/stacks/noOS/software/gaussian/g16.a03.avx2/g16/l123.exe)
 IRC-IRC-IRC-IRC-IRC-IRC-IRC-IRC-IRC-IRC-IRC-IRC-IRC-IRC-IRC-IRC-IRC-IRC
[...]
 GePol: Number of points with low weight             =      99
 GePol: Fraction of low-weight points (<1% of avg)   =       6.60%
 GePol: Cavity surface area                          =    207.832 Ang**2
 GePol: Cavity volume                                =    190.491 Ang**3
 Leave Link  301 at Mon Feb 24 10:27:29 2020, MaxMem=  1879048192 cpu:               2.5 elap:               0.1
 (Enter /gpfs/apps/medsci/stacks/noOS/software/gaussian/g16.a03.avx2/g16/l302.exe)
 NPDir=0 NMtPBC=     1 NCelOv=     1 NCel=       1 NClECP=     1 NCelD=      1
         NCelK=      1 NCelE2=     1 NClLst=     1 CellRange=     0.0.
 One-electron integrals computed using PRISM.
 NBasis=   186 RedAO= T EigKep=  2.08D-03  NBF=   186
 NBsUse=   186 1.00D-06 EigRej= -1.00D+00 NBFU=   186
 Precomputing XC quadrature grid using
 IXCGrd= 4 IRadAn=           5 IRanWt=          -1 IRanGd=           0 AccXCQ= 0.00D+00.
 Generated NRdTot=       0 NPtTot=           0 NUsed=           0 NTot=          32
 NSgBfM=   193   193   193   193   193 MxSgAt=    17 MxSgA2=    17.
 Leave Link  302 at Mon Feb 24 10:27:30 2020, MaxMem=  1879048192 cpu:               7.8 elap:               0.2
 (Enter /gpfs/apps/medsci/stacks/noOS/software/gaussian/g16.a03.avx2/g16/l303.exe)
 DipDrv:  MaxL=1.
 Leave Link  303 at Mon Feb 24 10:27:30 2020, MaxMem=  1879048192 cpu:               4.8 elap:               0.2
 (Enter /gpfs/apps/medsci/stacks/noOS/software/gaussian/g16.a03.avx2/g16/l401.exe)
 Initial guess from the checkpoint file:  "check.chk"
 B after Tr=     0.000386   -0.000001    0.000077
         Rot=    1.000000    0.000190   -0.000218    0.000170 Ang=   0.04 deg.
 Guess basis will be translated and rotated to current coordinates.
 JPrj=2 DoOrth=T DoCkMO=T.
 Generating alternative initial guess.
 ExpMin= 1.03D-01 ExpMax= 6.29D+03 ExpMxC= 9.49D+02 IAcc=2 IRadAn=         4 AccDes= 0.00D+00
 Harris functional with IExCor=  402 and IRadAn=       4 diagonalized for initial guess.
 HarFok:  IExCor=  402 AccDes= 0.00D+00 IRadAn=         4 IDoV= 1 UseB2=F ITyADJ=14
 ICtDFT=  3500011 ScaDFX=  1.000000  1.000000  1.000000  1.000000
 FoFCou: FMM=F IPFlag=           0 FMFlag=      100000 FMFlg1=           0
         NFxFlg=           0 DoJE=T BraDBF=F KetDBF=T FulRan=T
         wScrn=  0.000000 ICntrl=       500 IOpCl=  0 I1Cent=   200000004 NGrid=           0
         NMat0=    1 NMatS0=      1 NMatT0=    0 NMatD0=    1 NMtDS0=    0 NMtDT0=    0
 Symmetry not used in FoFCou.
 Harris En= -306.130917757828    
 Leave Link  401 at Mon Feb 24 10:27:30 2020, MaxMem=  1879048192 cpu:              11.1 elap:               0.3
 (Enter /gpfs/apps/medsci/stacks/noOS/software/gaussian/g16.a03.avx2/g16/l502.exe)
 Two-electron integral symmetry not used.
 Closed shell SCF:
 Using DIIS extrapolation, IDIIS=  1040.
 NGot=  1879048192 LenX=  1878964310 LenY=  1878926620
 Requested convergence on RMS density matrix=1.00D-08 within  32 cycles.
 Requested convergence on MAX density matrix=1.00D-06.
 Requested convergence on             energy=1.00D-06.
 No special actions if energy rises.
 Fock matrices will be formed incrementally for  20 cycles.

 Cycle   1  Pass 1  IDiag  1:
 FoFJK:  IHMeth= 1 ICntrl=       0 DoSepK=F KAlg= 0 I1Cent=           0 FoldK=F
 IRaf= 910000000 NMat=       1 IRICut=       1 DoRegI=T DoRafI=F ISym2E= 0 IDoP0=0 IntGTp=1.
 FoFCou: FMM=F IPFlag=           0 FMFlag=      100000 FMFlg1=           0
         NFxFlg=           0 DoJE=F BraDBF=F KetDBF=F FulRan=T
         wScrn=  0.000000 ICntrl=         0 IOpCl=  0 I1Cent=           0 NGrid=           0
         NMat0=    1 NMatS0=      1 NMatT0=    0 NMatD0=    1 NMtDS0=    0 NMtDT0=    0
 Symmetry not used in FoFCou.
 Inv3:  Mode=1 IEnd=     6750000.
 Iteration    1 A*A^-1 deviation from unit magnitude is 2.89D-15 for    584.
 Iteration    1 A*A^-1 deviation from orthogonality  is 1.67D-15 for   1332     86.
 Iteration    1 A^-1*A deviation from unit magnitude is 2.66D-15 for    584.
 Iteration    1 A^-1*A deviation from orthogonality  is 2.14D-15 for    552    303.
 E= -306.074137466987    
 DIIS: error= 6.59D-04 at cycle   1 NSaved=   1.
 NSaved= 1 IEnMin= 1 EnMin= -306.074137466987     IErMin= 1 ErrMin= 6.59D-04
 ErrMax= 6.59D-04  0.00D+00 EMaxC= 1.00D-01 BMatC= 6.22D-05 BMatP= 6.22D-05
 IDIUse=3 WtCom= 9.93D-01 WtEn= 6.59D-03
 Coeff-Com:  0.100D+01
 Coeff-En:   0.100D+01
 Coeff:      0.100D+01
 Gap=     0.539 Goal=   None    Shift=    0.000
 RMSDP=6.72D-05 MaxDP=2.04D-03              OVMax= 6.27D-03

 Cycle   2  Pass 1  IDiag  1:
 RMSU=  6.72D-05    CP:  1.00D+00
 E= -306.074241310866     Delta-E=       -0.000103843879 Rises=F Damp=F
 DIIS: error= 1.25D-04 at cycle   2 NSaved=   2.
 NSaved= 2 IEnMin= 2 EnMin= -306.074241310866     IErMin= 2 ErrMin= 1.25D-04
 ErrMax= 1.25D-04  0.00D+00 EMaxC= 1.00D-01 BMatC= 1.07D-06 BMatP= 6.22D-05
 IDIUse=3 WtCom= 9.99D-01 WtEn= 1.25D-03
 Coeff-Com: -0.682D-01 0.107D+01
 Coeff-En:   0.000D+00 0.100D+01
 Coeff:     -0.681D-01 0.107D+01
 Gap=     0.155 Goal=   None    Shift=    0.000
 RMSDP=1.41D-05 MaxDP=8.13D-04 DE=-1.04D-04 OVMax= 9.33D-04

 Cycle   3  Pass 1  IDiag  1:
 RMSU=  1.09D-05    CP:  1.00D+00  1.13D+00
 E= -306.074242336225     Delta-E=       -0.000001025359 Rises=F Damp=F
 DIIS: error= 1.86D-04 at cycle   3 NSaved=   3.
 NSaved= 3 IEnMin= 3 EnMin= -306.074242336225     IErMin= 2 ErrMin= 1.25D-04
 ErrMax= 1.86D-04  0.00D+00 EMaxC= 1.00D-01 BMatC= 1.19D-06 BMatP= 1.07D-06
 IDIUse=3 WtCom= 4.23D-01 WtEn= 5.77D-01
 Coeff-Com: -0.446D-01 0.600D+00 0.445D+00
 Coeff-En:   0.000D+00 0.832D-01 0.917D+00
 Coeff:     -0.189D-01 0.302D+00 0.717D+00
 Gap=     0.155 Goal=   None    Shift=    0.000
 RMSDP=1.01D-05 MaxDP=7.85D-04 DE=-1.03D-06 OVMax= 8.25D-04

 Cycle   4  Pass 1  IDiag  1:
 RMSU=  5.86D-06    CP:  1.00D+00  1.14D+00  2.69D-01
 E= -306.074241585289     Delta-E=        0.000000750936 Rises=F Damp=F
 DIIS: error= 2.61D-04 at cycle   4 NSaved=   4.
 NSaved= 4 IEnMin= 3 EnMin= -306.074242336225     IErMin= 2 ErrMin= 1.25D-04
 ErrMax= 2.61D-04  0.00D+00 EMaxC= 1.00D-01 BMatC= 2.15D-06 BMatP= 1.07D-06
 IDIUse=3 WtCom= 3.82D-01 WtEn= 6.18D-01
 Coeff-Com: -0.919D-02 0.946D-01 0.543D+00 0.371D+00
 Coeff-En:   0.000D+00 0.000D+00 0.596D+00 0.404D+00
 Coeff:     -0.351D-02 0.362D-01 0.576D+00 0.391D+00
 Gap=     0.155 Goal=   None    Shift=    0.000
 RMSDP=4.98D-06 MaxDP=3.51D-04 DE= 7.51D-07 OVMax= 4.69D-04

 Cycle   5  Pass 1  IDiag  1:
 RMSU=  1.38D-06    CP:  1.00D+00  1.14D+00  6.16D-01  5.39D-01
 E= -306.074243421886     Delta-E=       -0.000001836597 Rises=F Damp=F
 DIIS: error= 1.14D-05 at cycle   5 NSaved=   5.
 NSaved= 5 IEnMin= 5 EnMin= -306.074243421886     IErMin= 5 ErrMin= 1.14D-05
 ErrMax= 1.14D-05  0.00D+00 EMaxC= 1.00D-01 BMatC= 1.89D-08 BMatP= 1.07D-06
 IDIUse=1 WtCom= 1.00D+00 WtEn= 0.00D+00
 Coeff-Com: -0.494D-03-0.116D-01 0.268D+00 0.177D+00 0.567D+00
 Coeff:     -0.494D-03-0.116D-01 0.268D+00 0.177D+00 0.567D+00
 Gap=     0.155 Goal=   None    Shift=    0.000
 RMSDP=9.26D-07 MaxDP=6.48D-05 DE=-1.84D-06 OVMax= 5.21D-05

 Cycle   6  Pass 1  IDiag  1:
 RMSU=  2.62D-07    CP:  1.00D+00  1.15D+00  6.84D-01  5.30D-01  6.82D-01
 E= -306.074243440401     Delta-E=       -0.000000018515 Rises=F Damp=F
 DIIS: error= 1.94D-06 at cycle   6 NSaved=   6.
 NSaved= 6 IEnMin= 6 EnMin= -306.074243440401     IErMin= 6 ErrMin= 1.94D-06
 ErrMax= 1.94D-06  0.00D+00 EMaxC= 1.00D-01 BMatC= 9.13D-10 BMatP= 1.89D-08
 IDIUse=1 WtCom= 1.00D+00 WtEn= 0.00D+00
 Coeff-Com:  0.837D-03-0.183D-01 0.652D-01 0.418D-01 0.247D+00 0.663D+00
 Coeff:      0.837D-03-0.183D-01 0.652D-01 0.418D-01 0.247D+00 0.663D+00
 Gap=     0.155 Goal=   None    Shift=    0.000
 RMSDP=1.85D-07 MaxDP=1.03D-05 DE=-1.85D-08 OVMax= 1.28D-05

 Cycle   7  Pass 1  IDiag  1:
 RMSU=  1.02D-07    CP:  1.00D+00  1.15D+00  6.94D-01  5.37D-01  7.11D-01
                    CP:  7.80D-01
 E= -306.074243441041     Delta-E=       -0.000000000640 Rises=F Damp=F
 DIIS: error= 1.31D-06 at cycle   7 NSaved=   7.
 NSaved= 7 IEnMin= 7 EnMin= -306.074243441041     IErMin= 7 ErrMin= 1.31D-06
 ErrMax= 1.31D-06  0.00D+00 EMaxC= 1.00D-01 BMatC= 2.84D-10 BMatP= 9.13D-10
 IDIUse=1 WtCom= 1.00D+00 WtEn= 0.00D+00
 Coeff-Com:  0.592D-03-0.109D-01 0.122D-01 0.740D-02 0.912D-01 0.420D+00
 Coeff-Com:  0.480D+00
 Coeff:      0.592D-03-0.109D-01 0.122D-01 0.740D-02 0.912D-01 0.420D+00
 Coeff:      0.480D+00
 Gap=     0.155 Goal=   None    Shift=    0.000
 RMSDP=5.91D-08 MaxDP=2.35D-06 DE=-6.40D-10 OVMax= 4.63D-06

 Cycle   8  Pass 1  IDiag  1:
 RMSU=  3.39D-08    CP:  1.00D+00  1.15D+00  6.93D-01  5.40D-01  7.27D-01
                    CP:  8.19D-01  6.43D-01
 E= -306.074243441275     Delta-E=       -0.000000000234 Rises=F Damp=F
 DIIS: error= 2.38D-07 at cycle   8 NSaved=   8.
 NSaved= 8 IEnMin= 8 EnMin= -306.074243441275     IErMin= 8 ErrMin= 2.38D-07
 ErrMax= 2.38D-07  0.00D+00 EMaxC= 1.00D-01 BMatC= 9.43D-12 BMatP= 2.84D-10
 IDIUse=1 WtCom= 1.00D+00 WtEn= 0.00D+00
 Coeff-Com:  0.204D-03-0.353D-02 0.833D-03 0.327D-03 0.217D-01 0.142D+00
 Coeff-Com:  0.221D+00 0.617D+00
 Coeff:      0.204D-03-0.353D-02 0.833D-03 0.327D-03 0.217D-01 0.142D+00
 Coeff:      0.221D+00 0.617D+00
 Gap=     0.155 Goal=   None    Shift=    0.000
 RMSDP=1.51D-08 MaxDP=6.08D-07 DE=-2.34D-10 OVMax= 1.12D-06

 Cycle   9  Pass 1  IDiag  1:
 RMSU=  1.16D-08    CP:  1.00D+00  1.15D+00  6.93D-01  5.41D-01  7.30D-01
                    CP:  8.28D-01  6.70D-01  8.21D-01
 E= -306.074243441286     Delta-E=       -0.000000000011 Rises=F Damp=F
 DIIS: error= 6.89D-08 at cycle   9 NSaved=   9.
 NSaved= 9 IEnMin= 9 EnMin= -306.074243441286     IErMin= 9 ErrMin= 6.89D-08
 ErrMax= 6.89D-08  0.00D+00 EMaxC= 1.00D-01 BMatC= 1.02D-12 BMatP= 9.43D-12
 IDIUse=1 WtCom= 1.00D+00 WtEn= 0.00D+00
 Coeff-Com:  0.279D-05 0.864D-04-0.131D-02-0.934D-03-0.437D-02 0.204D-02
 Coeff-Com:  0.243D-01 0.274D+00 0.706D+00
 Coeff:      0.279D-05 0.864D-04-0.131D-02-0.934D-03-0.437D-02 0.204D-02
 Coeff:      0.243D-01 0.274D+00 0.706D+00
 Gap=     0.155 Goal=   None    Shift=    0.000
 RMSDP=7.49D-09 MaxDP=5.40D-07 DE=-1.10D-11 OVMax= 3.14D-07

 Error on total polarization charges =  0.01024
 SCF Done:  E(RB3LYP) =  -306.074243441     A.U. after    9 cycles
            NFock=  9  Conv=0.75D-08     -V/T= 2.0044
 KE= 3.047286774025D+02 PE=-1.234682621084D+03 EE= 3.614354633562D+02
 Leave Link  502 at Mon Feb 24 10:27:34 2020, MaxMem=  1879048192 cpu:             164.1 elap:               4.3
 (Enter /gpfs/apps/medsci/stacks/noOS/software/gaussian/g16.a03.avx2/g16/l508.exe)
 QCSCF skips out because SCF is already converged.
 Leave Link  508 at Mon Feb 24 10:27:34 2020, MaxMem=  1879048192 cpu:               1.7 elap:               0.1
 (Enter /gpfs/apps/medsci/stacks/noOS/software/gaussian/g16.a03.avx2/g16/l801.exe)
 DoSCS=F DFT=T ScalE2(SS,OS)=  1.000000  1.000000
 Range of M.O.s used for correlation:     1   186
 NBasis=   186 NAE=    27 NBE=    27 NFC=     0 NFV=     0
 NROrb=    186 NOA=    27 NOB=    27 NVA=   159 NVB=   159
 Leave Link  801 at Mon Feb 24 10:27:34 2020, MaxMem=  1879048192 cpu:               0.9 elap:               0.0
 (Enter /gpfs/apps/medsci/stacks/noOS/software/gaussian/g16.a03.avx2/g16/l1101.exe)
 Leave Link 1101 at Mon Feb 24 10:27:35 2020, MaxMem=  1879048192 cpu:               0.9 elap:               0.0
 (Enter /gpfs/apps/medsci/stacks/noOS/software/gaussian/g16.a03.avx2/g16/l1102.exe)
 Symmetrizing basis deriv contribution to polar:
 IMax=3 JMax=2 DiffMx= 0.00D+00
 Leave Link 1102 at Mon Feb 24 10:27:35 2020, MaxMem=  1879048192 cpu:               1.3 elap:               0.1
 (Enter /gpfs/apps/medsci/stacks/noOS/software/gaussian/g16.a03.avx2/g16/l1110.exe)
 Leave Link 1110 at Mon Feb 24 10:27:35 2020, MaxMem=  1879048192 cpu:               1.0 elap:               0.0
 (Enter /gpfs/apps/medsci/stacks/noOS/software/gaussian/g16.a03.avx2/g16/l1002.exe)
 Minotr:  Closed shell wavefunction.
 Leave Link 1002 at Mon Feb 24 10:27:35 2020, MaxMem=  1879048192 cpu:               3.2 elap:               0.1
 (Enter /gpfs/apps/medsci/stacks/noOS/software/gaussian/g16.a03.avx2/g16/l701.exe)
 ... and contract with generalized density number  0.
 Compute integral first derivatives.
 D1PCM: PCM CHGder 1st derivatives, ID1Alg=3 FixD1E=F DoIter=F DoCFld=F I1PDM=0.
 GePol: Maximum number of non-zero 1st derivatives   =     242
 Leave Link  701 at Mon Feb 24 10:27:35 2020, MaxMem=  1879048192 cpu:              20.3 elap:               0.5
 (Enter /gpfs/apps/medsci/stacks/noOS/software/gaussian/g16.a03.avx2/g16/l702.exe)
 L702 exits ... SP integral derivatives will be done elsewhere.
 Leave Link  702 at Mon Feb 24 10:27:35 2020, MaxMem=  1879048192 cpu:               0.7 elap:               0.0
 (Enter /gpfs/apps/medsci/stacks/noOS/software/gaussian/g16.a03.avx2/g16/l703.exe)
 Integral derivatives from FoFJK, PRISM(SPDF).
 Compute integral first derivatives, UseDBF=F ICtDFT=           0.
 Calling FoFJK, ICntrl=      2127 FMM=F ISym2X=0 I1Cent= 0 IOpClX= 0 NMat=1 NMatS=1 NMatT=0.
 FoFJK:  IHMeth= 1 ICntrl=    2127 DoSepK=F KAlg= 0 I1Cent=           0 FoldK=F
 IRaf=         0 NMat=       1 IRICut=       1 DoRegI=T DoRafI=F ISym2E= 0 IDoP0=0 IntGTp=1.
 FoFCou: FMM=F IPFlag=           0 FMFlag=      100000 FMFlg1=         800
         NFxFlg=           0 DoJE=F BraDBF=F KetDBF=F FulRan=T
         wScrn=  0.000000 ICntrl=      2127 IOpCl=  0 I1Cent=           0 NGrid=           0
         NMat0=    1 NMatS0=      1 NMatT0=    0 NMatD0=    1 NMtDS0=    0 NMtDT0=    0
 Symmetry not used in FoFCou.
 Leave Link  703 at Mon Feb 24 10:27:36 2020, MaxMem=  1879048192 cpu:              25.8 elap:               0.7
 (Enter /gpfs/apps/medsci/stacks/noOS/software/gaussian/g16.a03.avx2/g16/l716.exe)
 Dipole        =-3.89424466D+00 3.65250265D+00-5.31852779D+00
 Polarizability= 0.00000000D+00 0.00000000D+00 0.00000000D+00
                 0.00000000D+00 0.00000000D+00 0.00000000D+00
 -------------------------------------------------------------------
 Center     Atomic                   Forces (Hartrees/Bohr)
 Number     Number              X              Y              Z
 -------------------------------------------------------------------
      1        7           0.000080187    0.000101096   -0.000041922
      2        7          -0.000070023   -0.000130901    0.000030875
      3        6           0.000023213    0.000112394   -0.000146630
      4        6          -0.000193829    0.000078084   -0.000104031
      5        6          -0.000044232   -0.000042716    0.000072988
      6        6          -0.000143408   -0.000103551    0.000300443
      7        6           0.000059040    0.000104603   -0.000061014
      8        1           0.000216650   -0.000122122    0.000045447
      9        1           0.000198861   -0.000153537   -0.000118781
     10        1           0.000053078    0.000071427   -0.000022841
     11        1           0.000030330   -0.000016016    0.000052729
     12        1          -0.000037784    0.000004270    0.000081416
     13        1          -0.000029889   -0.000184042    0.000085492
     14        1          -0.000019546    0.000002194   -0.000017952
     15        1          -0.000139970    0.000058365   -0.000060158
     16        1           0.000026297    0.000025672   -0.000131231
     17        1          -0.000008974    0.000194780    0.000035170
 -------------------------------------------------------------------
 Cartesian Forces:  Max     0.000300443 RMS     0.000105554
 Z-matrix is all fixed cartesians, so copy forces.
 Leave Link  716 at Mon Feb 24 10:27:36 2020, MaxMem=  1879048192 cpu:               2.7 elap:               0.1
 (Enter /gpfs/apps/medsci/stacks/noOS/software/gaussian/g16.a03.avx2/g16/l123.exe)
 IRC-IRC-IRC-IRC-IRC-IRC-IRC-IRC-IRC-IRC-IRC-IRC-IRC-IRC-IRC-IRC-IRC-IRC
 Error in corrector energy =          -0.0000101844
 Magnitude of corrector gradient =     0.0000215360
 Magnitude of analytic gradient =      0.0007538032
 Magnitude of difference =             0.0007604072
 Angle between gradients (degrees)=  107.0799
 Pt  1 Step number  20 out of a maximum of  20
 Using modified Bulirsch-Stoer corrector integration.
   Using distance weighted interpolants to fit PES.
 PreDWI: IReCr0= 2 IReCr1= 1 IReCr2= 1 IReCr3= 1
 Modified Bulirsch-Stoer Extrapolation Cycles:
    EPS =    0.000010000000000
    Cycle     1 NS=    48
      PEZero:  N= 2 I= 1 D=  3.39D-04 Err=  2.25D-03
    Cycle     2 NS=    64 Truncation Error =  0.002247983
      PEZero:  N= 3 I= 2 D=  3.39D-04 Err=  3.40D-03
      PEZero:  N= 3 I= 1 D=  6.77D-04 Err=  2.86D-03
    Cycle     3 NS=    96 Truncation Error =  0.002855582
      PEZero:  N= 4 I= 3 D=  1.69D-04 Err=  5.56D-03
      PEZero:  N= 4 I= 2 D=  5.08D-04 Err=  4.02D-03
      PEZero:  N= 4 I= 1 D=  8.47D-04 Err=  3.11D-03
    Cycle     4 NS=   128 Truncation Error =  0.003107455
      PEZero:  N= 5 I= 4 D=  1.69D-04 Err=  7.90D-03
      PEZero:  N= 5 I= 3 D=  3.39D-04 Err=  6.29D-03
      PEZero:  N= 5 I= 2 D=  6.77D-04 Err=  4.28D-03
      PEZero:  N= 5 I= 1 D=  1.02D-03 Err=  3.24D-03
    Cycle     5 NS=   192 Truncation Error =  0.003244076
      PEZero:  N= 6 I= 5 D=  8.47D-05 Err=  1.28D-02
      PEZero:  N= 6 I= 4 D=  2.54D-04 Err=  9.17D-03
      PEZero:  N= 6 I= 3 D=  4.23D-04 Err=  7.23D-03
      PEZero:  N= 6 I= 2 D=  7.62D-04 Err=  5.00D-03
      PEZero:  N= 6 I= 1 D=  1.10D-03 Err=  3.87D-03
    Cycle     6 NS=   256 Truncation Error =  0.003868791
      PEZero:  N= 7 I= 6 D=  8.47D-05 Err=  1.94D-02
      PEZero:  N= 7 I= 5 D=  1.69D-04 Err=  1.63D-02
      PEZero:  N= 7 I= 4 D=  3.39D-04 Err=  1.17D-02
      PEZero:  N= 7 I= 3 D=  5.08D-04 Err=  9.33D-03
      PEZero:  N= 7 I= 2 D=  8.47D-04 Err=  6.47D-03
      PEZero:  N= 7 I= 1 D=  1.19D-03 Err=  4.99D-03
    Cycle     7 NS=   384 Truncation Error =  0.004990213
      PEZero:  N= 8 I= 7 D=  4.23D-05 Err=  2.33D-02
      PEZero:  N= 8 I= 6 D=  1.27D-04 Err=  1.17D-02
      PEZero:  N= 8 I= 5 D=  2.12D-04 Err=  4.22D-03
      PEZero:  N= 8 I= 4 D=  3.81D-04 Err=  8.46D-04
      PEZero:  N= 8 I= 3 D=  5.50D-04 Err=  2.30D-03
    Cycle     8 NS=   512 Truncation Error =  0.000845712
      PEZero:  N= 9 I= 8 D=  4.23D-05 Err=  4.62D-03
      PEZero:  N= 9 I= 7 D=  8.47D-05 Err=  1.64D-02
    Cycle     9 NS=   768 Truncation Error =  0.004622869
      PEZero:  N=10 I= 9 D=  2.12D-05 Err=  3.78D-05
      PEZero:  N=10 I= 8 D=  6.35D-05 Err=  4.57D-03
    Cycle    10 NS=  1024 Truncation Error =  0.000037767
      PEZero:  N=11 I=10 D=  2.12D-05 Err=  2.50D-05
      PEZero:  N=11 I= 9 D=  4.23D-05 Err=  2.22D-07
      PEZero:  N=11 I= 8 D=  8.47D-05 Err=  5.84D-03
    Cycle    11 NS=  1536 Truncation Error =  0.000000222
 BS completed in   11 cycles and    5008 integration steps.
 Maximum DWI energy   std dev =  0.000003060 at pt    -1
 Maximum DWI gradient std dev =  1.600139784 at pt     1
 SUMMARY OF CORRECTOR INTEGRATION:
   Predictor End Point Energy =  -306.074249
   Old End Point Energy       =  -306.074243
   Corrected End Point Energy =  -306.074253
   Predictor End-Start Dist.  =     0.130064
   Old End-Start Dist.        =     0.043769
   New End-Start Dist.        =     0.126309
   New End-Old End Dist.      =     0.122213
 CORRECTOR INTEGRATION CONVERGENCE:
   Recorrection delta-x convergence threshold:    0.010000
   Delta-x Convergence NOT Met
 Maximum number of corrector steps exceded.
 Error termination via Lnk1e in /gpfs/apps/medsci/stacks/noOS/software/gaussian/g16.a03.avx2/g16/l123.exe at Mon Feb 24 10:27:38 2020.
 Job cpu time:       0 days  2 hours 10 minutes  0.8 seconds.
 Elapsed time:       0 days  0 hours  3 minutes 50.2 seconds.
 File lengths (MBytes):  RWF=    112 Int=      0 D2E=      0 Chk=     15 Scr=      1
