
Running Job 1 of 2 input.in
qchem input.in_1884132.0 /gtmp/calvin.p/qchem/141885.zeus-master/scratch/qchem1884132/ 1
/usr/local/qchem/exe/qcprog.exe_s input.in_1884132.0 /gtmp/calvin.p/qchem/141885.zeus-master/scratch/qchem1884132/
                  Welcome to Q-Chem
     A Quantum Leap Into The Future Of Chemistry


 Q-Chem 6.1, Q-Chem, Inc., Pleasanton, CA (2022)

 License issued to: SRG Alon Grinberg Dana, Technion

 E. Epifanovsky,  A. T. B. Gilbert,  Xintian Feng,  Joonho Lee,  Yuezhi Mao,  
 N. Mardirossian,  P. Pokhilko,  A. White,  M. Wormit,  M. P. Coons,  
 A. L. Dempwolff,  Zhengting Gan,  D. Hait,  P. R. Horn,  L. D. Jacobson,  
 I. Kaliman,  J. Kussmann,  A. W. Lange,  Ka Un Lao,  D. S. Levine,  Jie Liu,  
 S. C. McKenzie,  A. F. Morrison,  K. D. Nanda,  F. Plasser,  D. R. Rehn,  
 M. L. Vidal,  Zhi-Qiang You,  Ying Zhu,  B. Alam,  B. Albrecht,  
 A. Aldossary,  E. Alguire,  J. H. Andersen,  V. Athavale,  D. Barton,  
 K. Begam,  A. Behn,  N. Bellonzi,  Y. A. Bernard,  E. J. Berquist,  
 H. Burton,  A. Carreras,  K. Carter-Fenk,  Mathew Chow,  Romit Chakraborty,  
 Chandrima Chakravarty,  Junhan Chen,  A. D. Chien,  K. D. Closser,  
 V. Cofer-Shabica,  L. Cunha,  S. Dasgupta,  Jia Deng,  M. de Wergifosse,  
 M. Diedenhofen,  Hainam Do,  S. Ehlert,  Po-Tung Fang,  S. Fatehi,  
 Qingguo Feng,  T. Friedhoff,  Thomas Froitzheim,  B. Ganoe,  J. Gayvert,  
 Qinghui Ge,  G. Gidofalvi,  M. Gimferrer,  M. Goldey,  Montgomery Gray,  
 J. Gomes,  C. Gonzalez-Espinoza,  S. Gulania,  A. Gunina,  J. A. Gyamfi,  
 M. W. D. Hanson-Heine,  P. H. P. Harbach,  A. W. Hauser,  M. F. Herbst,  
 M. Hernandez Vera,  M. Hodecker,  Z. C. Holden,  S. Houck,  Xunkun Huang,  
 Kerwin Hui,  B. C. Huynh,  K. Ikeda,  M. Ivanov,  Hyunjun Ji,  Zuxin Jin,  
 Hanjie Jiang,  Subrata Jana,  B. Kaduk,  S. Kaehler,  R. Kang,  
 K. Khistyaev,  Jaehoon Kim,  Yongbin Kim,  P. Klunzinger,  Z. Koczor-Benda,  
 Joong Hoon Koh,  D. Kosenkov,  Saikiran Kotaru,  L. Koulias,  T. Kowalczyk,  
 C. M. Krauter,  K. Kue,  A. Kunitsa,  T. Kus,  A. Landau,  K. V. Lawler,  
 D. Lefrancois,  S. Lehtola,  Rain Li,  Shaozhi Li,  Yi-Pei Li,  
 Jiashu Liang,  M. Liebenthal,  Hung-Hsuan Lin,  You-Sheng Lin,  Fenglai Liu,  
 Kuan-Yu Liu,  Xiao Liu,  M. Loipersberger,  A. Luenser,  C. Malbon,  
 A. Manjanath,  P. Manohar,  E. Mansoor,  S. F. Manzer,  Shan-Ping Mao,  
 A. V. Marenich,  T. Markovich,  S. Mason,  F. Matz,  S. A. Maurer,  
 P. F. McLaughlin,  M. F. S. J. Menger,  J.-M. Mewes,  S. A. Mewes,  
 P. Morgante,  Mohammad Mostafanejad,  J. W. Mullinax,  K. J. Oosterbaan,  
 G. Paran,  V. Parravicini,  Alexander C. Paul,  Suranjan K. Paul,  
 F. Pavosevic,  Zheng Pei,  S. Prager,  E. I. Proynov,  E. Ramos,  B. Rana,  
 A. E. Rask,  A. Rettig,  R. M. Richard,  F. Rob,  E. Rossomme,  T. Scheele,  
 M. Scheurer,  M. Schneider,  P. E. Schneider,  Tim K. Schramm,  N. Sergueev,  
 S. M. Sharada,  M. Sharma,  Hengyuan Shen,  W. Skomorowski,  D. W. Small,  
 C. J. Stein,  Alistair J. Sterling,  Yingli Su,  Yu-Chuan Su,  
 E. J. Sundstrom,  J. Talbot,  Zhen Tao,  J. Thirman,  Hung-Yi Tsai,  
 T. Tsuchimochi,  N. M. Tubman,  C. Utku,  S. P. Veccham,  O. Vydrov,  
 J. Wenzel,  Jonathan Wong,  J. Witte,  A. Yamada,  Chou-Hsun Yang,  Kun Yao,  
 S. Yeganeh,  S. R. Yost,  A. Zech,  F. Zeller,  Igor Ying Zhang,  
 Xing Zhang,  Yu Zhang,  D. Zuev,  A. Aspuru-Guzik,  A. T. Bell,  
 N. A. Besley,  K. B. Bravaya,  B. R. Brooks,  D. Casanova,  Jeng-Da Chai,  
 Hsing-Ta Chen,  S. Coriani,  C. J. Cramer,  A. E. DePrince, III,  
 R. A. DiStasio Jr.,  A. Dreuw,  B. D. Dunietz,  T. R. Furlani,  
 W. A. Goddard III,  S. Grimme,  S. Hammes-Schiffer,  T. Head-Gordon,  
 W. J. Hehre,  Chao-Ping Hsu,  T.-C. Jagau,  Yousung Jung,  A. Klamt,  
 Jing Kong,  D. S. Lambrecht,  Xiangyuan Li,  WanZhen Liang,  N. J. Mayhall,  
 C. W. McCurdy,  J. B. Neaton,  T. Neudecker,  C. Ochsenfeld,  
 J. A. Parkhill,  R. Peverati,  V. A. Rassolov,  Haisheng Ren,  Yihan Shao,  
 L. V. Slipchenko,  R. P. Steele,  J. E. Subotnik,  A. J. W. Thom,  
 A. Tkatchenko,  D. G. Truhlar,  T. Van Voorhis,  Fan Wang,  
 T. A. Wesolowski,  K. B. Whaley,  H. L. Woodcock III,  P. M. Zimmerman,  
 S. Faraji,  P. M. W. Gill,  M. Head-Gordon,  J. M. Herbert,  A. I. Krylov

 Contributors to earlier versions of Q-Chem not listed above: 
 R. D. Adamson,  B. Austin,  R. Baer,  J. Baker,  G. J. O. Beran,  
 K. Brandhorst,  S. T. Brown,  E. F. C. Byrd,  Arup K. Chakraborty,  
 G. K. L. Chan,  Chun-Min Chang,  Yunqing Chen,  C.-L. Cheng,  
 Siu Hung Chien,  D. M. Chipman,  D. L. Crittenden,  H. Dachsel,  
 R. J. Doerksen,  A. D. Dutoi,  R. G. Edgar,  J. Fosso-Tande,  
 L. Fusti-Molnar,  D. Ghosh,  A. Ghysels,  A. Golubeva-Zadorozhnaya,  
 J. Gonthier,  M. S. Gordon,  S. R. Gwaltney,  G. Hawkins,  J. E. Herr,  
 A. Heyden,  S. Hirata,  E. G. Hohenstein,  G. Kedziora,  F. J. Keil,  
 C. Kelley,  Jihan Kim,  R. A. King,  R. Z. Khaliullin,  P. P. Korambath,  
 W. Kurlancheek,  A. Laurent,  A. M. Lee,  M. S. Lee,  S. V. Levchenko,  
 Ching Yeh Lin,  D. Liotard,  E. Livshits,  R. C. Lochan,  I. Lotan,  
 L. A. Martinez-Martinez,  P. E. Maslen,  N. Nair,  D. P. O'Neill,  
 D. Neuhauser,  E. Neuscamman,  C. M. Oana,  R. Olivares-Amaya,  R. Olson,  
 T. M. Perrine,  B. Peters,  P. A. Pieniazek,  A. Prociuk,  Y. M. Rhee,  
 J. Ritchie,  M. A. Rohrdanz,  E. Rosta,  N. J. Russ,  H. F. Schaefer III,  
 M. W. Schmidt,  N. E. Schultz,  S. Sharma,  N. Shenvi,  C. D. Sherrill,  
 A. C. Simmonett,  A. Sodt,  T. Stein,  D. Stuck,  K. S. Thanthiriwatte,  
 V. Vanovschi,  L. Vogt,  Tao Wang,  A. Warshel,  M. A. Watson,  
 C. F. Williams,  Q. Wu,  X. Xu,  Jun Yang,  W. Zhang,  Yan Zhao

   Please cite Q-Chem as follows:
  "Software for the frontiers of quantum chemistry:
   An overview of developments in the Q-Chem 5 package"
   J. Chem. Phys. 155, 084801 (2021)
   https://doi.org/10.1063/5.0055522 (open access)

 Q-Chem 6.1.0 for Intel X86 EM64T Linux

 Parts of Q-Chem use Armadillo 9.900.5 (Nocturnal Misbehaviour).
 http://arma.sourceforge.net/

 Q-Chem begins on Tue Feb 13 16:58:16 2024  

 Host: 
0

     Scratch files written to /gtmp/calvin.p/qchem/141885.zeus-master/scratch/qchem1884132//
 Jul923 |scratch|qcdevops|jenkins|workspace|build_RNUM DZOC   
 Processing $rem in /usr/local/qchem/config/preferences:
 Processing $rem in /home/calvin.p/.qchemrc:

 Checking the input file for inconsistencies... 	...done.

--------------------------------------------------------------
User input:
--------------------------------------------------------------
$molecule
0 2
O      -2.38581540   -1.15232342    0.44030394
O      -2.64434187   -0.20062142   -0.53961486
H      -3.04839011   -0.95798483    1.11305837
H      -1.89231061    0.66725009   -0.31701556
C      -0.95058642    1.58580514    0.00580013
C       0.22272508    0.78594841    0.48068512
C       0.82771628   -0.10467881   -0.59788207
C       2.04793650   -0.87383939   -0.11942617
O       3.11005728   -0.03466584    0.29652826
H      -0.82554786    2.10583131   -0.94319634
H      -1.45774968    2.18875785    0.75603549
H      -0.07559294    0.16866499    1.33393362
H       0.99303138    1.46973692    0.85954474
H       0.07662172   -0.81927674   -0.94455245
H       1.10340784    0.50533066   -1.46691504
H       1.78921248   -1.47579304    0.75404154
H       2.38205599   -1.56404541   -0.90309238
H       3.41871804    0.46143324   -0.46326755
$end
$rem
JOBTYPE       freq
METHOD        wb97xd
UNRESTRICTED  TRUE
BASIS         def2-tzvp
IQMOL_FCHK    FALSE
$end


--------------------------------------------------------------
 ----------------------------------------------------------------
             Standard Nuclear Orientation (Angstroms)
    I     Atom           X                Y                Z
 ----------------------------------------------------------------
    1      O      -2.3854380023    -1.1518176397     0.4435466389
    2      O      -2.6444461721    -0.2014051514    -0.5374958459
    3      H      -3.0476594305    -0.9565716542     1.1163861757
    4      H      -1.8922768568     0.6667394922    -0.3164333632
    5      C      -0.9503614480     1.5856949874     0.0046802619
    6      C       0.2231743778     0.7864349855     0.4800154416
    7      C       0.8275839103    -0.1056340454    -0.5976859742
    8      C       2.0480311106    -0.8741944775    -0.1188447429
    9      O       3.1103891743    -0.0345005320     0.2954502105
   10      H      -0.8258000802     2.1044624847    -0.9450675512
   11      H      -1.4571205358     2.1896529610     0.7543799559
   12      H      -0.0747185382     0.1702884296     1.3342336202
   13      H       0.9936946928     1.4707029099     0.8575720410
   14      H       0.0762911692    -0.8206693226    -0.9430225659
   15      H       1.1028420107     0.5032183107    -1.4676672840
   16      H       1.7897430557    -1.4749856180     0.7555518730
   17      H       2.3817268444    -1.5654451855    -0.9017703640
   18      H       3.4186699648     0.4605850774    -0.4651604839
 ----------------------------------------------------------------
 Molecular Point Group                 C1    NOp =  1
 Largest Abelian Subgroup              C1    NOp =  1
 Nuclear Repulsion Energy =         320.93968297 hartrees
 There are       30 alpha and       29 beta electrons
 Requested basis set is def2-TZVP
 There are 121 shells and 283 basis functions

 Total QAlloc Memory Limit   8000 MB
 Mega-Array Size       188 MB
 MEM_STATIC part       192 MB

 A cutoff of  1.0D-12 yielded   6485 shell pairs
 There are     35283 function pairs (     44433 Cartesian)
 Smallest overlap matrix eigenvalue = 1.81E-04
 Guess from superposition of atomic densities
 Warning:  Energy on first SCF cycle will be non-variational
 SAD guess density has 59.000000 electrons

 -----------------------------------------------------------------------
  General SCF calculation program by
  Eric Jon Sundstrom, Paul Horn, Yuezhi Mao, Dmitri Zuev, Alec White,
  David Stuck, Shaama M.S., Shane Yost, Joonho Lee, David Small,
  Daniel Levine, Susi Lehtola, Hugh Burton, Evgeny Epifanovsky,
  Bang C. Huynh
 -----------------------------------------------------------------------
 Exchange:     0.2220 Hartree-Fock + 1.0000 wB97X-D + LR-HF
 Correlation:  1.0000 wB97X-D
 Using SG-2 standard quadrature grid
 Dispersion:   Grimme D
 using 16 threads for integral computing
 -------------------------------------------------------
 OpenMP Integral computing Module                
 Release: version 1.0, May 2013, Q-Chem Inc. Pittsburgh 
 -------------------------------------------------------
 A unrestricted SCF calculation will be
 performed using DIIS
 SCF converges when DIIS error is below 1.0e-08
 ---------------------------------------
  Cycle       Energy         DIIS error
 ---------------------------------------
    1    -385.7227620390      1.52e-02  
    2    -384.4670914995      1.74e-03  
    3    -384.5066257241      1.54e-03  
    4    -384.5698379639      2.48e-04  
    5    -384.5716167852      8.34e-05  
    6    -384.5719594881      3.05e-05  
    7    -384.5720363300      1.11e-05  
    8    -384.5720539704      7.19e-06  
    9    -384.5720573319      3.23e-06  
   10    -384.5720581339      1.36e-06  
   11    -384.5720583220      4.78e-07  
   12    -384.5720583715      2.83e-07  
   13    -384.5720583791      9.92e-08  
   14    -384.5720583803      2.95e-08  
   15    -384.5720583804      8.58e-09  Convergence criterion met
 ---------------------------------------
 SCF time:   CPU 865.39s  wall 56.00s 
<S^2> =          0.758688309
 SCF   energy in the final basis set =     -384.5720583804
 Total energy in the final basis set =     -384.5720583804
 
 --------------------------------------------------------------
 
                    Orbital Energies (a.u.)
 --------------------------------------------------------------
 
 Alpha MOs
 -- Occupied --
-19.3146 -19.3075 -19.2467 -10.3255 -10.3037 -10.2870 -10.2801  -1.2410
 -1.1253  -0.9741  -0.9063  -0.8289  -0.7377  -0.6893  -0.6333  -0.5955
 -0.5907  -0.5531  -0.5456  -0.5318  -0.5232  -0.4934  -0.4629  -0.4451
 -0.4313  -0.4134  -0.4032  -0.3783  -0.3612  -0.3154
 -- Virtual --
  0.1000   0.1090   0.1261   0.1493   0.1505   0.1610   0.1804   0.1958
  0.1984   0.2046   0.2100   0.2193   0.2469   0.2692   0.2836   0.2949
  0.3122   0.3163   0.3305   0.3499   0.3822   0.3898   0.4157   0.4336
  0.4429   0.4551   0.4624   0.4736   0.4777   0.4906   0.4985   0.5028
  0.5162   0.5195   0.5263   0.5377   0.5449   0.5539   0.5622   0.5806
  0.5888   0.5994   0.6260   0.6446   0.6526   0.6628   0.6740   0.6935
  0.7184   0.7385   0.7527   0.7722   0.7919   0.8427   0.8691   0.8945
  0.9005   0.9150   0.9455   0.9510   0.9668   0.9772   1.0467   1.0610
  1.0869   1.1078   1.1596   1.2014   1.2205   1.2255   1.2457   1.2605
  1.2742   1.2876   1.2937   1.3216   1.3705   1.4195   1.4497   1.4760
  1.5385   1.5549   1.5819   1.6225   1.6379   1.6535   1.6613   1.6696
  1.6837   1.6903   1.7201   1.7317   1.7397   1.7647   1.8078   1.8281
  1.8431   1.8470   1.8837   1.8916   1.9180   1.9331   1.9504   1.9646
  1.9908   2.0108   2.0407   2.0595   2.0703   2.1192   2.1287   2.1534
  2.1764   2.1856   2.2234   2.2484   2.2876   2.3214   2.3340   2.3385
  2.3721   2.3817   2.3945   2.4100   2.4173   2.4728   2.4972   2.5092
  2.5386   2.5461   2.5617   2.5744   2.6111   2.6323   2.6456   2.6707
  2.6880   2.7001   2.7178   2.7354   2.7454   2.7601   2.7719   2.7818
  2.7924   2.8112   2.8232   2.8454   2.8788   2.9007   2.9161   2.9500
  2.9834   3.0109   3.0139   3.0773   3.1244   3.1385   3.1426   3.1646
  3.1720   3.2138   3.2306   3.2426   3.2880   3.2990   3.3202   3.3330
  3.3707   3.3849   3.4096   3.4313   3.4552   3.4900   3.5181   3.5228
  3.5499   3.5955   3.5978   3.6227   3.6643   3.6936   3.7821   3.8070
  3.8251   3.8339   3.9399   3.9470   3.9678   3.9857   4.0402   4.0658
  4.1043   4.1409   4.2019   4.2337   4.2418   4.3089   4.3666   4.4472
  4.5283   4.5861   4.6218   4.6405   4.6733   4.7428   4.7808   4.8171
  4.8472   4.8818   4.9173   4.9485   4.9583   5.1123   5.1360   5.3457
  5.3536   5.4285   5.4371   5.5464   5.5617   5.5640   5.8375   5.8754
  5.9731   6.0068   6.0271   6.1757   6.2253   6.3679   6.3912   6.4293
  6.4540   6.4610   6.5122   6.5480   6.7781   6.8292   6.8498   6.8751
  7.0617   7.1343   7.1949   7.2360   7.3414   8.2848  22.3901  22.5114
 22.5848  22.6136  43.5187  43.8715  43.9116
 
 Beta MOs
 -- Occupied --
-19.3131 -19.2964 -19.2467 -10.3256 -10.2959 -10.2872 -10.2800  -1.2273
 -1.1252  -0.9531  -0.8999  -0.8190  -0.7282  -0.6831  -0.6211  -0.5899
 -0.5774  -0.5443  -0.5410  -0.5253  -0.5090  -0.4850  -0.4571  -0.4415
 -0.4256  -0.4073  -0.3768  -0.3650  -0.3596
 -- Virtual --
 -0.0454   0.1012   0.1097   0.1297   0.1508   0.1516   0.1654   0.1841
  0.1974   0.1994   0.2051   0.2104   0.2204   0.2473   0.2718   0.2866
  0.2998   0.3128   0.3196   0.3339   0.3583   0.3836   0.3925   0.4170
  0.4360   0.4438   0.4590   0.4636   0.4744   0.4832   0.4972   0.5017
  0.5078   0.5192   0.5276   0.5295   0.5389   0.5506   0.5583   0.5643
  0.5830   0.5924   0.6009   0.6282   0.6464   0.6538   0.6644   0.6767
  0.6944   0.7191   0.7420   0.7557   0.7773   0.7969   0.8439   0.8748
  0.8959   0.9030   0.9171   0.9503   0.9554   0.9715   0.9801   1.0480
  1.0632   1.0951   1.1099   1.1629   1.2037   1.2241   1.2275   1.2516
  1.2644   1.2773   1.2893   1.2971   1.3280   1.3720   1.4226   1.4553
  1.4763   1.5394   1.5569   1.5893   1.6261   1.6402   1.6593   1.6636
  1.6725   1.6880   1.6928   1.7247   1.7396   1.7423   1.7758   1.8105
  1.8345   1.8451   1.8494   1.8855   1.8967   1.9222   1.9350   1.9536
  1.9689   1.9926   2.0126   2.0431   2.0652   2.0725   2.1233   2.1345
  2.1566   2.1827   2.1886   2.2287   2.2532   2.2957   2.3234   2.3389
  2.3409   2.3750   2.3836   2.4031   2.4143   2.4200   2.4776   2.4995
  2.5111   2.5404   2.5507   2.5638   2.5782   2.6141   2.6361   2.6477
  2.6723   2.6926   2.7059   2.7243   2.7391   2.7476   2.7650   2.7741
  2.7846   2.7976   2.8133   2.8264   2.8498   2.8812   2.9082   2.9255
  2.9513   2.9895   3.0137   3.0187   3.0837   3.1357   3.1427   3.1563
  3.1729   3.1808   3.2201   3.2333   3.2480   3.2946   3.3035   3.3263
  3.3371   3.3742   3.3910   3.4135   3.4348   3.4609   3.4968   3.5258
  3.5295   3.5561   3.6003   3.6051   3.6274   3.6678   3.6986   3.7892
  3.8113   3.8294   3.8374   3.9452   3.9587   3.9708   3.9877   4.0441
  4.0755   4.1081   4.1519   4.2072   4.2385   4.2480   4.3173   4.3714
  4.4499   4.5357   4.5908   4.6249   4.6421   4.6761   4.7435   4.7838
  4.8229   4.8544   4.8890   4.9266   4.9521   4.9630   5.1196   5.1465
  5.3499   5.3703   5.4366   5.4398   5.5588   5.5624   5.5741   5.8376
  5.8755   5.9870   6.0068   6.0363   6.1984   6.2396   6.3871   6.3919
  6.4521   6.4624   6.4707   6.5333   6.5482   6.7783   6.8505   6.8606
  6.8753   7.0618   7.1524   7.2068   7.2361   7.3523   8.2911  22.4002
 22.5135  22.5848  22.6138  43.5227  43.8716  43.9203
 --------------------------------------------------------------
 
          Ground-State Mulliken Net Atomic Charges

     Atom                 Charge (a.u.)    Spin (a.u.)
  --------------------------------------------------------
      1 O                    -0.304293       0.053289
      2 O                    -0.280870       0.370072
      3 H                     0.334764      -0.001465
      4 H                     0.281823      -0.031272
      5 C                    -0.384835       0.592280
      6 C                    -0.147410      -0.027386
      7 C                    -0.262864       0.007895
      8 C                     0.010812      -0.001027
      9 O                    -0.475953       0.001111
     10 H                     0.136950      -0.006858
     11 H                     0.146567      -0.008695
     12 H                     0.101851       0.009389
     13 H                     0.120077       0.042687
     14 H                     0.130696       0.000231
     15 H                     0.090392      -0.000454
     16 H                     0.094738       0.000053
     17 H                     0.099906       0.000123
     18 H                     0.307648       0.000026
  --------------------------------------------------------
  Sum of atomic charges =    -0.000000
  Sum of spin   charges =     1.000000

 -----------------------------------------------------------------
                    Cartesian Multipole Moments
 -----------------------------------------------------------------
    Charge (ESU x 10^10)
                -0.0000
    Dipole Moment (Debye)
         X      -0.1505      Y       1.3973      Z       0.2390
       Tot       1.4256
    Quadrupole Moments (Debye-Ang)
        XX     -46.9954     XY       0.0144     YY     -43.2029
        XZ     -11.7506     YZ      -1.9256     ZZ     -42.3569
    Octopole Moments (Debye-Ang^2)
       XXX     -23.5928    XXY       3.7829    XYY       0.3565
       YYY      -2.1073    XXZ       1.4786    XYZ       2.4014
       YYZ       0.8692    XZZ      -7.1561    YZZ      -2.7945
       ZZZ       4.3219
    Hexadecapole Moments (Debye-Ang^3)
      XXXX   -1095.7547   XXXY      64.8699   XXYY    -222.3303
      XYYY       6.9234   YYYY    -293.1093   XXXZ    -133.4944
      XXYZ     -19.9837   XYYZ      -5.0344   YYYZ      -3.1024
      XXZZ    -183.8592   XYZZ       8.5489   YYZZ     -62.0486
      XZZZ     -13.5295   YZZZ      -8.2043   ZZZZ    -120.2408
 -----------------------------------------------------------------
 Calculating MO derivatives via CPSCF
    1     0    57    0.0207623  
    2     0    57    0.0113286  
    3     0    57    0.0028913  
    4     0    57    0.0005211  
    5     5    52    0.0000957  
    6    43    14    0.0000215  
    7    54     3    0.0000032  
    8    57     0    0.0000004  Converged
 Polarizability Matrix (a.u.)
            1           2           3
    1 -83.0337648 -10.7080453   0.2902148
    2 -10.7080453 -76.5878025   1.3251751
    3   0.2902148   1.3251751 -59.7980907
 Calculating analytic Hessian of the SCF energy
atom: 0 element: 8
atom: 1 element: 8
atom: 2 element: 1
atom: 3 element: 1
atom: 4 element: 6
atom: 5 element: 6
atom: 6 element: 6
atom: 7 element: 6
atom: 8 element: 8
atom: 9 element: 1
atom: 10 element: 1
atom: 11 element: 1
atom: 12 element: 1
atom: 13 element: 1
atom: 14 element: 1
atom: 15 element: 1
atom: 16 element: 1
atom: 17 element: 1
 
 Direct stationary perturbation theory relativistic correction:
 
 rels  =       0.126080884524
 relv  =      -0.563813090159
 rel2e =       0.000000000000
 E_rel =      -0.437732205635
 
 **********************************************************************
 **                                                                  **
 **                       VIBRATIONAL ANALYSIS                       **
 **                       --------------------                       **
 **                                                                  **
 **        VIBRATIONAL FREQUENCIES (CM**-1) AND NORMAL MODES         **
 **     FORCE CONSTANTS (mDYN/ANGSTROM) AND REDUCED MASSES (AMU)     **
 **                  INFRARED INTENSITIES (KM/MOL)                   **
 **                                                                  **
 **********************************************************************
 

 Mode:                 1                      2                      3
 Frequency:     -1886.79                  43.55                  48.59
 Force Cnst:      2.3083                 0.0055                 0.0046
 Red. Mass:       1.1005                 4.9204                 3.2958
 IR Active:          YES                    YES                    YES
 IR Intens:     1505.318                  1.634                  3.959
 Raman Active:       YES                    YES                    YES
               X      Y      Z        X      Y      Z        X      Y      Z
 O         -0.008  0.014 -0.019    0.365 -0.108 -0.129    0.022  0.041  0.147
 O         -0.012 -0.041  0.015   -0.009  0.038  0.111    0.026 -0.082  0.027
 H          0.013  0.014  0.016    0.525 -0.303  0.086   -0.010  0.097  0.100
 H          0.626  0.740  0.168   -0.039  0.082  0.051   -0.015 -0.030 -0.037
 C         -0.051 -0.042 -0.018   -0.035  0.116 -0.050   -0.035 -0.006 -0.050
 C          0.009  0.005  0.003   -0.023  0.141 -0.037   -0.023 -0.006 -0.083
 C         -0.000  0.001  0.002   -0.096  0.035  0.009    0.079  0.161 -0.162
 C         -0.000 -0.000 -0.000   -0.165 -0.047  0.049   -0.020  0.016 -0.141
 O          0.000 -0.001 -0.000   -0.100 -0.123  0.037   -0.051 -0.113  0.198
 H          0.076  0.070  0.049   -0.071  0.036 -0.098   -0.059  0.023 -0.037
 H          0.085  0.061  0.005   -0.001  0.179 -0.079   -0.039 -0.039 -0.025
 H          0.003 -0.005 -0.003    0.009  0.217  0.029   -0.051 -0.133 -0.183
 H          0.009 -0.014  0.003    0.007  0.159 -0.130   -0.079 -0.024  0.062
 H         -0.000  0.001 -0.003   -0.154  0.077  0.051    0.093  0.253 -0.386
 H         -0.001 -0.000  0.000   -0.047 -0.033 -0.023    0.215  0.303 -0.020
 H          0.001  0.000  0.001   -0.227  0.004  0.066   -0.175 -0.158 -0.307
 H          0.002 -0.001  0.000   -0.212 -0.100  0.077    0.071  0.166 -0.235
 H         -0.003  0.002  0.000   -0.046 -0.175  0.024    0.089  0.031  0.348
 TransDip  -0.884 -0.874 -0.015    0.024 -0.027  0.019    0.014  0.057 -0.026

 Mode:                 4                      5                      6
 Frequency:        84.32                 115.35                 156.96
 Force Cnst:      0.0245                 0.0280                 0.0372
 Red. Mass:       5.8550                 3.5660                 2.5601
 IR Active:          YES                    YES                    YES
 IR Intens:       12.342                  0.197                  0.461
 Raman Active:       YES                    YES                    YES
               X      Y      Z        X      Y      Z        X      Y      Z
 O          0.019  0.075  0.123   -0.190 -0.165 -0.049    0.051  0.043  0.005
 O          0.343 -0.197 -0.226   -0.059 -0.028  0.049   -0.080 -0.015 -0.017
 H         -0.320  0.144 -0.231   -0.198 -0.177 -0.054    0.107  0.050  0.058
 H          0.093 -0.019 -0.049    0.004 -0.105  0.134   -0.077  0.006 -0.114
 C         -0.066  0.075  0.126   -0.042  0.006  0.008   -0.073 -0.013 -0.056
 C         -0.015  0.122  0.084    0.133  0.227 -0.042   -0.148 -0.056  0.069
 C         -0.114  0.069  0.069    0.079  0.131  0.006    0.069  0.118  0.048
 C         -0.148 -0.015  0.007   -0.005  0.014  0.039    0.002  0.026  0.082
 O         -0.030 -0.099 -0.128    0.114 -0.116 -0.007    0.160 -0.082 -0.104
 H         -0.069  0.200  0.194   -0.213 -0.058 -0.051    0.040 -0.019 -0.044
 H         -0.175 -0.072  0.171   -0.045  0.006  0.006   -0.136  0.002 -0.110
 H          0.054  0.161  0.134    0.340  0.327  0.103   -0.326 -0.200 -0.095
 H          0.011  0.149 -0.018    0.100  0.384 -0.260   -0.240 -0.100  0.339
 H         -0.177  0.114  0.117    0.019  0.178  0.035    0.124  0.169 -0.184
 H         -0.121  0.037  0.044    0.134  0.066 -0.022    0.202  0.247  0.180
 H         -0.132  0.052  0.059   -0.080  0.088  0.067   -0.025  0.168  0.172
 H         -0.281 -0.087  0.013   -0.103 -0.069  0.069   -0.148 -0.118  0.145
 H         -0.055 -0.161 -0.179    0.208 -0.224 -0.039    0.199 -0.252 -0.199
 TransDip  -0.106  0.031 -0.021    0.012  0.006 -0.004   -0.014 -0.015  0.006

 Mode:                 7                      8                      9
 Frequency:       239.85                 256.60                 304.66
 Force Cnst:      0.0583                 0.0882                 0.0665
 Red. Mass:       1.7203                 2.2723                 1.2164
 IR Active:          YES                    YES                    YES
 IR Intens:       35.196                 11.621                101.339
 Raman Active:       YES                    YES                    YES
               X      Y      Z        X      Y      Z        X      Y      Z
 O         -0.029 -0.041 -0.002   -0.081 -0.117 -0.001    0.001  0.002 -0.001
 O          0.023 -0.009  0.017    0.132  0.023  0.081   -0.006 -0.007 -0.007
 H         -0.045 -0.044 -0.016   -0.241 -0.225 -0.127    0.038  0.039  0.025
 H          0.022 -0.007  0.019    0.050  0.075  0.216    0.009 -0.010 -0.023
 C          0.045  0.034 -0.114    0.110  0.102 -0.041    0.009 -0.006 -0.030
 C         -0.036  0.037  0.106   -0.035 -0.071 -0.006   -0.010  0.011  0.053
 C         -0.033  0.023  0.119    0.006  0.034 -0.061   -0.050 -0.011  0.048
 C          0.026 -0.002 -0.088   -0.063  0.012  0.046    0.024  0.026 -0.077
 O          0.034 -0.056 -0.012   -0.070  0.059 -0.025   -0.013  0.025  0.034
 H          0.142 -0.207 -0.233    0.122 -0.110 -0.154    0.062 -0.076 -0.061
 H          0.032  0.248 -0.297    0.267  0.325 -0.115   -0.021  0.056 -0.100
 H         -0.145  0.076  0.096   -0.230 -0.187 -0.153   -0.018  0.056  0.082
 H         -0.052  0.028  0.155   -0.001 -0.238  0.222    0.002  0.024  0.004
 H         -0.047  0.025  0.143    0.017  0.097 -0.214   -0.053 -0.057  0.147
 H         -0.120  0.048  0.105    0.131  0.118  0.038   -0.169 -0.015  0.011
 H          0.129 -0.193 -0.189   -0.119  0.136  0.116    0.073 -0.120 -0.162
 H         -0.018  0.171 -0.263   -0.047 -0.099  0.153    0.049  0.151 -0.174
 H         -0.362  0.454  0.158    0.137 -0.244 -0.137    0.646 -0.595 -0.099
 TransDip  -0.145  0.119  0.033    0.006 -0.104 -0.032    0.274 -0.155 -0.072

 Mode:                10                     11                     12
 Frequency:       359.27                 417.16                 518.98
 Force Cnst:      0.1542                 0.1571                 0.2268
 Red. Mass:       2.0277                 1.5322                 1.4292
 IR Active:          YES                    YES                    YES
 IR Intens:       35.135                 71.606                 12.670
 Raman Active:       YES                    YES                    YES
               X      Y      Z        X      Y      Z        X      Y      Z
 O          0.025  0.015  0.017   -0.072 -0.077 -0.025    0.005 -0.023  0.024
 O          0.033  0.028  0.024    0.059 -0.005  0.018   -0.072 -0.048  0.012
 H         -0.443 -0.434 -0.315    0.538  0.535  0.401   -0.229 -0.267 -0.137
 H         -0.158  0.153  0.183    0.084 -0.023 -0.073    0.142 -0.027 -0.286
 C         -0.108  0.108  0.032   -0.010  0.106  0.003    0.072  0.110 -0.054
 C         -0.110 -0.009 -0.099   -0.059 -0.000 -0.048    0.013  0.031  0.003
 C         -0.037 -0.082 -0.020   -0.037 -0.033 -0.018    0.025 -0.009  0.029
 C          0.078  0.023 -0.011    0.019  0.026  0.002    0.017 -0.040 -0.005
 O          0.123 -0.048  0.043    0.057 -0.024  0.019   -0.029  0.012 -0.009
 H         -0.230  0.095  0.009    0.008  0.291  0.109    0.291  0.594  0.241
 H          0.100  0.158  0.134   -0.083 -0.075  0.100   -0.228 -0.321  0.092
 H         -0.130  0.018 -0.086   -0.137 -0.025 -0.092   -0.139  0.019 -0.061
 H         -0.089 -0.035 -0.087   -0.022 -0.084  0.032    0.033 -0.048  0.104
 H          0.045 -0.235  0.115    0.002 -0.118  0.073   -0.002  0.025  0.018
 H         -0.158 -0.179 -0.125   -0.111 -0.092 -0.082    0.061 -0.025  0.028
 H          0.101 -0.034 -0.044    0.018  0.019 -0.003    0.058 -0.087 -0.025
 H          0.076  0.067 -0.051    0.010  0.027 -0.002    0.024  0.008 -0.046
 H          0.110  0.043  0.097    0.024  0.050  0.054   -0.006 -0.037 -0.032
 TransDip  -0.165 -0.074 -0.056    0.161  0.190  0.107   -0.029 -0.104 -0.038

 Mode:                13                     14                     15
 Frequency:       540.71                 561.08                 745.50
 Force Cnst:      0.4075                 0.4519                 0.3951
 Red. Mass:       2.3659                 2.4364                 1.2066
 IR Active:          YES                    YES                    YES
 IR Intens:        7.549                  7.013                  6.051
 Raman Active:       YES                    YES                    YES
               X      Y      Z        X      Y      Z        X      Y      Z
 O          0.012  0.005  0.012   -0.013 -0.009 -0.014    0.003  0.011 -0.004
 O         -0.051 -0.031 -0.010    0.154  0.163  0.107   -0.005 -0.002 -0.005
 H         -0.115 -0.129 -0.075   -0.143 -0.119 -0.112    0.002  0.002 -0.002
 H          0.093 -0.048 -0.122    0.329 -0.184 -0.141    0.027 -0.031  0.051
 C          0.129 -0.055 -0.012   -0.072 -0.163 -0.101   -0.016 -0.015  0.003
 C          0.057 -0.054  0.021   -0.039 -0.005 -0.004    0.068  0.066 -0.010
 C         -0.132  0.042 -0.084   -0.012  0.009  0.010    0.066  0.033  0.009
 C         -0.098  0.190  0.004   -0.016  0.020 -0.003    0.008 -0.014 -0.012
 O          0.099 -0.054  0.042    0.001 -0.007 -0.001   -0.040 -0.005 -0.008
 H          0.300 -0.006  0.038   -0.035  0.092  0.048   -0.307 -0.092 -0.076
 H          0.011 -0.084 -0.070   -0.547 -0.586 -0.086   -0.011 -0.057  0.041
 H          0.076 -0.123 -0.024   -0.015  0.008  0.010   -0.251 -0.243 -0.329
 H          0.123 -0.126  0.020   -0.094  0.073 -0.040   -0.055 -0.104  0.528
 H         -0.099 -0.152  0.241    0.004 -0.017  0.025   -0.048 -0.054  0.426
 H         -0.449 -0.049 -0.242   -0.046  0.009 -0.000   -0.138 -0.257 -0.254
 H         -0.273  0.377  0.082   -0.021  0.017 -0.006   -0.044  0.018 -0.004
 H         -0.140 -0.006  0.163   -0.031  0.019 -0.009   -0.004 -0.050  0.012
 H          0.043  0.142  0.145    0.007 -0.001  0.006   -0.016 -0.026 -0.010
 TransDip  -0.080  0.035 -0.011   -0.048 -0.055 -0.042   -0.057 -0.053  0.010

 Mode:                16                     17                     18
 Frequency:       841.84                 890.74                 967.47
 Force Cnst:      0.8113                 0.7440                 0.6863
 Red. Mass:       1.9431                 1.5916                 1.2445
 IR Active:          YES                    YES                    YES
 IR Intens:        0.971                 25.805                  6.567
 Raman Active:       YES                    YES                    YES
               X      Y      Z        X      Y      Z        X      Y      Z
 O         -0.000 -0.001  0.001   -0.004 -0.020  0.009   -0.000  0.001 -0.000
 O          0.002 -0.000 -0.005    0.017  0.016 -0.000   -0.003 -0.000  0.005
 H          0.012  0.013  0.009    0.010  0.016  0.013   -0.013 -0.012 -0.009
 H         -0.082  0.035  0.078   -0.186  0.084 -0.003    0.101 -0.050 -0.098
 C          0.080 -0.075 -0.032   -0.020 -0.014 -0.009   -0.042  0.037  0.061
 C          0.003 -0.044 -0.152   -0.073 -0.050  0.001    0.011 -0.008 -0.015
 C          0.000  0.035  0.154    0.153  0.042  0.031    0.032 -0.001 -0.033
 C         -0.092  0.097  0.058    0.025  0.044 -0.035   -0.051  0.041  0.086
 O         -0.001 -0.015 -0.017   -0.087 -0.039 -0.025    0.006 -0.006 -0.012
 H         -0.203  0.137  0.049    0.405  0.156  0.138    0.302 -0.165 -0.008
 H          0.462 -0.196  0.323    0.194  0.126  0.028   -0.333  0.198 -0.269
 H         -0.094  0.024 -0.132    0.210 -0.000  0.126    0.233 -0.231 -0.101
 H         -0.041 -0.028 -0.082   -0.308  0.319 -0.163    0.057 -0.060 -0.017
 H          0.068  0.016  0.048    0.239 -0.208  0.351    0.110 -0.117  0.036
 H          0.140 -0.008  0.165   -0.175 -0.102 -0.168    0.186 -0.242 -0.152
 H          0.127 -0.240 -0.111   -0.163  0.165 -0.002    0.109 -0.311 -0.113
 H         -0.247  0.401 -0.277   -0.044 -0.106  0.060   -0.090  0.357 -0.214
 H         -0.038 -0.055 -0.058   -0.011 -0.016  0.025   -0.128 -0.101 -0.129
 TransDip  -0.009  0.027  0.013    0.116  0.103  0.049   -0.026 -0.065 -0.043

 Mode:                19                     20                     21
 Frequency:       980.90                1057.75                1080.24
 Force Cnst:      1.0183                 6.4781                 1.2774
 Red. Mass:       1.7963                 9.8272                 1.8580
 IR Active:          YES                    YES                    YES
 IR Intens:        8.130                 30.501                 37.226
 Raman Active:       YES                    YES                    YES
               X      Y      Z        X      Y      Z        X      Y      Z
 O         -0.002  0.027 -0.020   -0.108  0.381 -0.371    0.010 -0.008  0.014
 O         -0.011 -0.027  0.015    0.107 -0.358  0.372   -0.027  0.009 -0.011
 H         -0.003 -0.016 -0.008    0.092 -0.193  0.000   -0.040 -0.008 -0.037
 H          0.192 -0.076 -0.030   -0.260 -0.380 -0.036    0.613 -0.314 -0.344
 C         -0.018  0.087 -0.000    0.078 -0.005  0.024    0.106 -0.046  0.119
 C          0.044 -0.041  0.035   -0.079  0.006 -0.031   -0.139  0.103 -0.056
 C          0.090 -0.086  0.054   -0.006  0.066 -0.012   -0.020  0.005 -0.033
 C         -0.001  0.144 -0.036    0.027 -0.053  0.019    0.082  0.018  0.026
 O         -0.079 -0.064 -0.032    0.006  0.012  0.006   -0.048 -0.039 -0.020
 H         -0.421 -0.090 -0.149    0.111 -0.049  0.013    0.033 -0.309 -0.032
 H         -0.246 -0.041 -0.054    0.035 -0.082  0.049    0.186  0.077  0.052
 H         -0.077  0.149  0.131    0.061  0.031  0.037   -0.243  0.209 -0.011
 H          0.304 -0.263 -0.095   -0.124  0.100 -0.085   -0.161  0.103  0.010
 H          0.381 -0.292 -0.140   -0.018  0.014  0.110    0.099 -0.095 -0.091
 H          0.061  0.098  0.171   -0.153  0.015 -0.093   -0.002 -0.010 -0.043
 H         -0.097  0.239  0.006   -0.018 -0.090 -0.019    0.098  0.007  0.026
 H         -0.110  0.011  0.028    0.069 -0.019  0.006    0.081  0.001  0.031
 H          0.098  0.054  0.122   -0.100 -0.070 -0.092    0.003 -0.011  0.023
 TransDip   0.088  0.024 -0.004   -0.074 -0.157  0.032    0.195  0.003 -0.009

 Mode:                22                     23                     24
 Frequency:      1103.40                1117.92                1120.50
 Force Cnst:      0.9320                 1.4315                 1.8082
 Red. Mass:       1.2993                 1.9442                 2.4444
 IR Active:          YES                    YES                    YES
 IR Intens:       22.885                 27.226                 36.108
 Raman Active:       YES                    YES                    YES
               X      Y      Z        X      Y      Z        X      Y      Z
 O         -0.006  0.010 -0.012   -0.002  0.001 -0.002   -0.002 -0.004  0.002
 O          0.012 -0.008  0.013    0.003 -0.004 -0.005    0.009 -0.001 -0.011
 H          0.011 -0.004  0.009    0.022  0.007  0.022    0.032  0.008  0.035
 H         -0.192  0.049  0.066   -0.221  0.140  0.214   -0.452  0.300  0.371
 C         -0.012 -0.046  0.023    0.057 -0.054 -0.019    0.033 -0.041 -0.032
 C          0.008  0.077 -0.020   -0.048  0.104  0.123    0.016  0.043  0.023
 C         -0.019 -0.091  0.024    0.073 -0.115 -0.117   -0.086  0.029 -0.073
 C         -0.020  0.054 -0.050   -0.109  0.031 -0.001    0.198  0.108  0.135
 O         -0.021 -0.018 -0.016    0.055  0.026  0.015   -0.116 -0.118 -0.054
 H          0.324  0.004  0.094   -0.029  0.064  0.043    0.090  0.069  0.040
 H         -0.022  0.047 -0.056    0.089 -0.168  0.103   -0.161 -0.196 -0.028
 H         -0.037 -0.083 -0.145   -0.321  0.319  0.187   -0.077  0.015 -0.031
 H         -0.096  0.075  0.185   -0.106  0.141  0.180    0.104 -0.069  0.050
 H         -0.106  0.097 -0.164    0.215 -0.237 -0.178   -0.059  0.022 -0.098
 H          0.416 -0.225  0.062    0.151 -0.159 -0.123   -0.135  0.151 -0.012
 H          0.247  0.214  0.139   -0.274 -0.139 -0.174    0.272 -0.096  0.024
 H         -0.182 -0.082  0.000    0.069  0.188 -0.062    0.332  0.222  0.073
 H          0.367  0.238  0.315   -0.180 -0.117 -0.180   -0.138 -0.126 -0.059
 TransDip   0.086  0.107  0.068   -0.165 -0.021 -0.010    0.115  0.109  0.109

 Mode:                25                     26                     27
 Frequency:      1170.88                1216.46                1263.34
 Force Cnst:      1.2722                 1.2072                 1.2599
 Red. Mass:       1.5750                 1.3847                 1.3398
 IR Active:          YES                    YES                    YES
 IR Intens:        3.677                 17.925                  5.661
 Raman Active:       YES                    YES                    YES
               X      Y      Z        X      Y      Z        X      Y      Z
 O         -0.002  0.007 -0.010   -0.002 -0.001 -0.002    0.001 -0.001 -0.000
 O          0.011  0.006  0.025    0.013  0.009  0.009    0.006  0.006  0.003
 H         -0.028  0.010 -0.039   -0.003  0.010 -0.007   -0.006  0.019 -0.013
 H          0.195 -0.330 -0.369   -0.127 -0.082 -0.069   -0.051 -0.074 -0.030
 C         -0.124 -0.002 -0.072   -0.083 -0.070  0.030   -0.037 -0.044 -0.040
 C          0.087 -0.016  0.087    0.038  0.082 -0.076   -0.034  0.030  0.068
 C         -0.032 -0.054 -0.049   -0.007 -0.021  0.067   -0.002  0.096 -0.058
 C          0.014  0.066  0.039    0.013 -0.005 -0.035   -0.003 -0.066  0.033
 O         -0.015 -0.033 -0.014    0.012  0.009  0.017   -0.011  0.014 -0.008
 H         -0.078  0.277  0.073    0.431  0.043  0.150    0.022  0.123  0.058
 H          0.534  0.276  0.158    0.087  0.208 -0.075    0.240  0.041  0.084
 H          0.106 -0.114  0.029   -0.220  0.055 -0.179   -0.076  0.097  0.101
 H         -0.124  0.158  0.189    0.309 -0.308  0.070    0.420 -0.365 -0.140
 H         -0.098  0.048 -0.112    0.188 -0.142 -0.101    0.250 -0.216  0.028
 H          0.062  0.012  0.026   -0.180  0.247  0.193   -0.023 -0.122 -0.216
 H          0.046 -0.042 -0.025   -0.298  0.049 -0.088    0.343 -0.079  0.126
 H          0.166  0.147  0.031    0.104 -0.057  0.054   -0.328 -0.059 -0.123
 H         -0.047 -0.044 -0.032   -0.196 -0.127 -0.162    0.193  0.138  0.162
 TransDip   0.052  0.022 -0.025   -0.102 -0.087 -0.021    0.067 -0.036  0.003

 Mode:                28                     29                     30
 Frequency:      1328.09                1340.74                1391.43
 Force Cnst:      1.1407                 1.4288                 1.4177
 Red. Mass:       1.0977                 1.3491                 1.2428
 IR Active:          YES                    YES                    YES
 IR Intens:        0.906                  7.467                  5.772
 Raman Active:       YES                    YES                    YES
               X      Y      Z        X      Y      Z        X      Y      Z
 O          0.000 -0.001 -0.000    0.002 -0.001  0.002    0.000  0.000  0.001
 O          0.002  0.002  0.003   -0.004  0.000 -0.005   -0.001  0.000 -0.003
 H         -0.003  0.005 -0.005   -0.002  0.004 -0.003    0.002 -0.008  0.006
 H          0.008 -0.025 -0.052    0.017  0.000  0.058    0.006 -0.002  0.030
 C         -0.019 -0.010 -0.000    0.035  0.007 -0.042    0.011  0.001 -0.006
 C         -0.052 -0.022  0.008   -0.075  0.073  0.045   -0.029  0.041 -0.003
 C          0.037  0.020  0.020   -0.074  0.025  0.059    0.022 -0.005  0.004
 C         -0.006  0.035 -0.020    0.033  0.006 -0.060   -0.094 -0.036  0.047
 O         -0.000 -0.017 -0.012    0.003 -0.002  0.022    0.003  0.000 -0.066
 H          0.048 -0.024  0.004   -0.107 -0.006 -0.059   -0.002 -0.013 -0.014
 H          0.058  0.005  0.038    0.116 -0.151  0.134    0.018 -0.040  0.029
 H         -0.116  0.162  0.121    0.486 -0.466 -0.150    0.174 -0.173 -0.089
 H          0.290 -0.293 -0.197    0.101 -0.076 -0.042    0.032 -0.031  0.007
 H         -0.350  0.332  0.230    0.242 -0.205 -0.162    0.116 -0.132  0.063
 H          0.328 -0.320 -0.125    0.281 -0.238 -0.019   -0.158  0.218  0.117
 H         -0.173  0.054 -0.060   -0.123  0.113 -0.027   -0.099 -0.257 -0.092
 H          0.386  0.082  0.118    0.131 -0.115  0.087    0.548  0.120  0.200
 H         -0.016 -0.006 -0.012   -0.185 -0.132 -0.147    0.408  0.294  0.307
 TransDip  -0.030  0.001 -0.005   -0.066 -0.046 -0.035    0.047  0.031  0.052

 Mode:                31                     32                     33
 Frequency:      1416.76                1418.92                1430.47
 Force Cnst:      1.3152                 1.8653                 1.5384
 Red. Mass:       1.1122                 1.5725                 1.2760
 IR Active:          YES                    YES                    YES
 IR Intens:       40.942                  0.186                 37.642
 Raman Active:       YES                    YES                    YES
               X      Y      Z        X      Y      Z        X      Y      Z
 O          0.040 -0.037 -0.016    0.003 -0.001  0.001    0.001 -0.001 -0.000
 O         -0.020 -0.013  0.056   -0.003  0.001 -0.001   -0.001  0.000  0.001
 H         -0.284  0.734 -0.581   -0.013  0.021 -0.021   -0.005  0.013 -0.010
 H         -0.093  0.101 -0.100    0.033 -0.029  0.025   -0.001  0.001  0.000
 C          0.006  0.002  0.005    0.012 -0.003 -0.017    0.001 -0.001  0.007
 C          0.003 -0.001 -0.003   -0.106  0.085  0.017   -0.002  0.001 -0.008
 C         -0.002  0.002  0.003    0.121 -0.120 -0.038    0.041  0.005  0.008
 C          0.000 -0.001  0.002    0.007  0.035  0.016   -0.117  0.026 -0.074
 O          0.000  0.000 -0.002   -0.001  0.001  0.013    0.008 -0.020  0.038
 H         -0.016 -0.042 -0.022   -0.003 -0.022 -0.026    0.006 -0.001  0.007
 H         -0.019 -0.026  0.011    0.096 -0.078  0.092   -0.022  0.014 -0.022
 H          0.010  0.014  0.011    0.366 -0.235 -0.044   -0.027  0.016 -0.011
 H         -0.011  0.001  0.024    0.194 -0.234  0.002    0.003 -0.001 -0.017
 H          0.010 -0.002 -0.019   -0.379  0.349  0.080    0.065 -0.008 -0.011
 H         -0.008 -0.012 -0.009   -0.352  0.298  0.100   -0.144  0.056 -0.016
 H         -0.016 -0.004 -0.005    0.073 -0.005  0.004    0.768  0.096  0.230
 H          0.008  0.003  0.001   -0.342  0.009 -0.115    0.367 -0.058  0.208
 H          0.010  0.007  0.007   -0.059 -0.046 -0.043   -0.229 -0.174 -0.169
 TransDip  -0.053  0.139 -0.141    0.002 -0.013 -0.005   -0.179 -0.063 -0.053

 Mode:                34                     35                     36
 Frequency:      1455.61                1465.02                1476.97
 Force Cnst:      1.3716                 1.3760                 1.4165
 Red. Mass:       1.0987                 1.0881                 1.1021
 IR Active:          YES                    YES                    YES
 IR Intens:        3.800                  8.728                  3.047
 Raman Active:       YES                    YES                    YES
               X      Y      Z        X      Y      Z        X      Y      Z
 O          0.009  0.005 -0.003    0.006  0.005  0.000    0.016  0.013 -0.003
 O         -0.011 -0.004 -0.004   -0.008 -0.000 -0.008   -0.025 -0.005 -0.017
 H         -0.023  0.082 -0.059   -0.006  0.028 -0.020   -0.022  0.115 -0.074
 H          0.101 -0.194  0.295    0.084 -0.157  0.255    0.285 -0.425  0.661
 C          0.051 -0.059  0.013    0.017 -0.025 -0.006   -0.048  0.050 -0.032
 C         -0.019  0.011  0.031   -0.028 -0.014 -0.066    0.020 -0.015  0.008
 C          0.009 -0.009  0.002   -0.005  0.014  0.023    0.004  0.002  0.009
 C          0.003  0.003 -0.003    0.001 -0.004  0.000   -0.001 -0.001  0.003
 O          0.000 -0.000  0.000   -0.000 -0.000 -0.003   -0.000 -0.000 -0.001
 H         -0.279  0.428  0.229   -0.097  0.238  0.123    0.336 -0.127 -0.065
 H         -0.087  0.346 -0.388   -0.058  0.156 -0.198    0.044 -0.195  0.226
 H         -0.184 -0.213 -0.203    0.397  0.300  0.328   -0.122 -0.018 -0.047
 H          0.037  0.130 -0.332   -0.083 -0.242  0.510   -0.015  0.070 -0.082
 H         -0.040  0.025  0.045    0.033  0.056 -0.159    0.002  0.044 -0.084
 H          0.023  0.011  0.025   -0.080 -0.126 -0.102   -0.071 -0.049 -0.054
 H         -0.029  0.004 -0.011   -0.021  0.002 -0.002   -0.002  0.004  0.006
 H         -0.002 -0.003  0.001    0.047  0.006  0.015    0.003  0.016 -0.008
 H         -0.005  0.001 -0.001    0.018  0.004  0.008    0.007  0.005  0.006
 TransDip  -0.001  0.052 -0.035    0.065  0.011  0.068    0.038 -0.019  0.036

 Mode:                37                     38                     39
 Frequency:      1490.81                1515.89                3015.92
 Force Cnst:      1.4301                 1.4727                 5.7147
 Red. Mass:       1.0921                 1.0877                 1.0664
 IR Active:          YES                    YES                    YES
 IR Intens:        8.565                  2.432                 42.204
 Raman Active:       YES                    YES                    YES
               X      Y      Z        X      Y      Z        X      Y      Z
 O          0.004  0.002 -0.001   -0.000 -0.000  0.000   -0.000  0.000 -0.000
 O         -0.006 -0.001 -0.003    0.000 -0.000 -0.000    0.000 -0.000  0.000
 H         -0.013  0.040 -0.030    0.001 -0.001  0.001    0.000  0.000 -0.000
 H          0.060 -0.090  0.147   -0.003  0.006 -0.004    0.003  0.005  0.001
 C         -0.003  0.001 -0.007    0.003 -0.000 -0.001   -0.002  0.001  0.001
 C         -0.012 -0.001 -0.019   -0.005  0.007  0.002   -0.026 -0.017 -0.031
 C         -0.034 -0.001 -0.075    0.004 -0.004 -0.005    0.005 -0.003  0.024
 C          0.002  0.001 -0.014   -0.005 -0.083  0.006    0.015 -0.042 -0.029
 O          0.002  0.001  0.010   -0.003 -0.008 -0.002   -0.001 -0.001 -0.000
 H          0.038  0.024  0.013   -0.009  0.002 -0.001   -0.002 -0.001  0.006
 H          0.002 -0.006  0.003    0.003 -0.003  0.001    0.009 -0.011 -0.019
 H          0.097  0.079  0.081    0.027 -0.029 -0.010   -0.076 -0.148  0.190
 H         -0.022 -0.064  0.131   -0.002  0.004  0.005    0.395  0.355  0.184
 H         -0.052 -0.287  0.603    0.019 -0.033  0.012   -0.133 -0.133 -0.055
 H          0.459  0.343  0.345   -0.033  0.045  0.019    0.079  0.168 -0.233
 H          0.066  0.016  0.014   -0.101  0.558  0.400    0.046  0.081 -0.139
 H         -0.039 -0.042 -0.002    0.184  0.537 -0.426   -0.213  0.416  0.490
 H         -0.062 -0.034 -0.042    0.006 -0.007  0.003   -0.001  0.000 -0.000
 TransDip   0.041 -0.009  0.084   -0.031  0.034 -0.020    0.034 -0.191 -0.076

 Mode:                40                     41                     42
 Frequency:      3017.77                3028.60                3066.34
 Force Cnst:      5.7285                 5.7720                 6.0406
 Red. Mass:       1.0676                 1.0681                 1.0904
 IR Active:          YES                    YES                    YES
 IR Intens:       12.507                 35.740                 10.252
 Raman Active:       YES                    YES                    YES
               X      Y      Z        X      Y      Z        X      Y      Z
 O         -0.000 -0.000 -0.000   -0.000  0.000 -0.000    0.000 -0.000  0.000
 O         -0.000 -0.000  0.000   -0.000 -0.000  0.000   -0.000  0.000 -0.000
 H         -0.000  0.000  0.000    0.000 -0.000 -0.000   -0.001 -0.000  0.000
 H          0.004  0.006  0.001    0.001  0.001 -0.000   -0.004 -0.004  0.000
 C         -0.002  0.001  0.001    0.000 -0.001 -0.000    0.002 -0.006  0.007
 C         -0.035 -0.026 -0.037   -0.006 -0.008  0.007    0.036  0.057 -0.048
 C          0.001  0.007 -0.017    0.002  0.024 -0.061   -0.016 -0.014 -0.011
 C         -0.013  0.033  0.024    0.008 -0.029 -0.008    0.000 -0.004  0.000
 O          0.001  0.001  0.000   -0.001 -0.001 -0.000    0.000 -0.000 -0.000
 H         -0.001 -0.002  0.007    0.003  0.002 -0.008    0.018  0.062 -0.112
 H          0.012 -0.016 -0.024   -0.003  0.005  0.009   -0.022  0.019  0.027
 H         -0.081 -0.155  0.194    0.034  0.072 -0.101   -0.238 -0.499  0.691
 H          0.520  0.464  0.243    0.041  0.035  0.022   -0.215 -0.183 -0.119
 H          0.048  0.053  0.017    0.186  0.178  0.069    0.213  0.198  0.094
 H         -0.063 -0.141  0.195   -0.216 -0.471  0.660   -0.015 -0.024  0.031
 H         -0.033 -0.060  0.103    0.056  0.117 -0.181    0.009  0.016 -0.025
 H          0.173 -0.337 -0.393   -0.127  0.238  0.278   -0.012  0.021  0.026
 H          0.001  0.000 -0.000   -0.007 -0.003  0.003   -0.001 -0.000  0.001
 TransDip  -0.018  0.104 -0.042    0.058 -0.055 -0.174    0.005  0.005 -0.102

 Mode:                43                     44                     45
 Frequency:      3091.28                3093.10                3103.88
 Force Cnst:      6.1010                 6.0120                 6.2292
 Red. Mass:       1.0836                 1.0665                 1.0974
 IR Active:          YES                    YES                    YES
 IR Intens:        8.486                 20.064                 41.372
 Raman Active:       YES                    YES                    YES
               X      Y      Z        X      Y      Z        X      Y      Z
 O         -0.000  0.000 -0.000    0.000 -0.000  0.000    0.000 -0.000  0.000
 O         -0.000 -0.000  0.000   -0.000 -0.000 -0.000    0.000  0.000 -0.000
 H          0.000  0.000 -0.000    0.000 -0.000  0.000   -0.000 -0.000  0.000
 H          0.004  0.006 -0.001   -0.000  0.008 -0.001   -0.002 -0.000 -0.000
 C         -0.011  0.031 -0.010   -0.018  0.050 -0.014   -0.001  0.002  0.001
 C         -0.006 -0.010  0.006    0.013  0.014 -0.008    0.007  0.009 -0.006
 C         -0.044 -0.047 -0.006    0.024  0.026  0.001    0.029  0.033 -0.008
 C          0.011  0.008 -0.033   -0.007 -0.007  0.024    0.022  0.028 -0.069
 O          0.000  0.000  0.001   -0.000 -0.000 -0.001   -0.000 -0.001  0.001
 H         -0.048 -0.188  0.359   -0.072 -0.288  0.553   -0.001 -0.010  0.018
 H          0.162 -0.182 -0.239    0.265 -0.302 -0.395    0.016 -0.020 -0.026
 H          0.032  0.068 -0.096   -0.050 -0.102  0.141   -0.036 -0.067  0.099
 H          0.057  0.053  0.031   -0.087 -0.077 -0.046   -0.049 -0.044 -0.027
 H          0.483  0.458  0.220   -0.252 -0.240 -0.115   -0.277 -0.257 -0.127
 H          0.046  0.109 -0.165   -0.032 -0.069  0.108   -0.062 -0.147  0.210
 H         -0.086 -0.199  0.293    0.065  0.148 -0.219   -0.192 -0.457  0.674
 H         -0.050  0.098  0.103    0.029 -0.059 -0.062   -0.067  0.132  0.139
 H          0.001  0.001 -0.006   -0.001 -0.001  0.005   -0.003  0.004 -0.014
 TransDip  -0.057 -0.003 -0.074   -0.064  0.129  0.002    0.073  0.119 -0.152

 Mode:                46                     47                     48
 Frequency:      3177.45                3799.85                3886.41
 Force Cnst:      6.6098                 9.0893                 9.4877
 Red. Mass:       1.1112                 1.0684                 1.0661
 IR Active:          YES                    YES                    YES
 IR Intens:       15.235                 45.999                 24.474
 Raman Active:       YES                    YES                    YES
               X      Y      Z        X      Y      Z        X      Y      Z
 O          0.000 -0.000  0.000   -0.044  0.013  0.044   -0.000  0.000  0.000
 O          0.000  0.000  0.000    0.000 -0.000 -0.000   -0.000  0.000 -0.000
 H         -0.001 -0.001  0.000    0.692 -0.212 -0.687    0.001 -0.000 -0.001
 H          0.003 -0.001 -0.012    0.005  0.008  0.001   -0.000 -0.000 -0.000
 C          0.035 -0.009 -0.090   -0.000 -0.000 -0.000    0.000 -0.000  0.000
 C          0.001  0.003 -0.005    0.000  0.000  0.000   -0.000  0.000 -0.000
 C          0.000  0.001 -0.000    0.000  0.000  0.000   -0.000 -0.000  0.000
 C         -0.000  0.000 -0.000   -0.000  0.000 -0.000   -0.000  0.001 -0.003
 O          0.000  0.000  0.000   -0.000 -0.000  0.000    0.022  0.033 -0.048
 H         -0.074 -0.315  0.563    0.001  0.001  0.000    0.000  0.000 -0.000
 H         -0.349  0.420  0.516    0.000  0.001  0.001   -0.000  0.000  0.000
 H         -0.015 -0.037  0.050   -0.001 -0.001  0.000   -0.000 -0.000  0.000
 H          0.001  0.001  0.000    0.000 -0.001 -0.000    0.001  0.000 -0.000
 H         -0.002 -0.002 -0.001    0.000 -0.000 -0.000   -0.002  0.000 -0.000
 H         -0.004 -0.003  0.008   -0.000 -0.000 -0.000    0.003  0.001 -0.002
 H         -0.000 -0.002  0.003   -0.000 -0.000  0.000   -0.003 -0.006  0.012
 H         -0.000  0.000  0.000    0.000 -0.000 -0.000   -0.003 -0.001  0.001
 H         -0.000  0.000 -0.000    0.000  0.000 -0.001   -0.333 -0.521  0.783
 TransDip   0.053 -0.021 -0.111    0.175  0.054 -0.117   -0.109 -0.083  0.080

 STANDARD THERMODYNAMIC QUANTITIES AT   298.15 K  AND     1.00 ATM

   This Molecule has  1 Imaginary Frequencies
   Zero point vibrational energy:       93.230 kcal/mol

   Atom    1 Element O  Has Mass   15.99491
   Atom    2 Element O  Has Mass   15.99491
   Atom    3 Element H  Has Mass    1.00783
   Atom    4 Element H  Has Mass    1.00783
   Atom    5 Element C  Has Mass   12.00000
   Atom    6 Element C  Has Mass   12.00000
   Atom    7 Element C  Has Mass   12.00000
   Atom    8 Element C  Has Mass   12.00000
   Atom    9 Element O  Has Mass   15.99491
   Atom   10 Element H  Has Mass    1.00783
   Atom   11 Element H  Has Mass    1.00783
   Atom   12 Element H  Has Mass    1.00783
   Atom   13 Element H  Has Mass    1.00783
   Atom   14 Element H  Has Mass    1.00783
   Atom   15 Element H  Has Mass    1.00783
   Atom   16 Element H  Has Mass    1.00783
   Atom   17 Element H  Has Mass    1.00783
   Atom   18 Element H  Has Mass    1.00783
   Molecular Mass:   107.070860 amu
   Principal axes and moments of inertia in amu*Bohr^2:
                             1           2           3
    Eigenvalues --      405.83938  1759.90940  1977.63915
          X               0.99977     0.01581    -0.01455
          Y               0.01583    -0.99987     0.00116
          Z               0.01453     0.00139     0.99989
   Rotational Symmetry Number is   1
   The Molecule is an Asymmetric Top
   Translational Enthalpy:        0.889 kcal/mol
   Rotational Enthalpy:           0.889 kcal/mol
   Vibrational Enthalpy:         97.599 kcal/mol
   gas constant (RT):             0.592 kcal/mol
   Translational Entropy:        39.922  cal/mol.K
   Rotational Entropy:           28.737  cal/mol.K
   Vibrational Entropy:          29.519  cal/mol.K

   Total Enthalpy:               99.969 kcal/mol
   Total Entropy:                98.178  cal/mol.K

   Quasi-RRHO corrections using alpha = 4, and omega = 100 cm^-1
   QRRHO-Vib. Enthalpy:          96.636 kcal/mol
   QRRHO-Vib. Entropy:           26.246  cal/mol.K
   QRRHO-Total Enthalpy:         99.006 kcal/mol
   QRRHO-Total Entropy:          94.904  cal/mol.K
 Total job time:  4685.66s(wall), 33967.15s(cpu) 
 Tue Feb 13 18:16:21 2024

        *************************************************************
        *                                                           *
        *  Thank you very much for using Q-Chem.  Have a nice day.  *
        *                                                           *
        *************************************************************



Running Job 2 of 2 input.in
qchem input.in_1884132.1 /gtmp/calvin.p/qchem/141885.zeus-master/scratch/qchem1884132/ 1
/usr/local/qchem/exe/qcprog.exe_s input.in_1884132.1 /gtmp/calvin.p/qchem/141885.zeus-master/scratch/qchem1884132/
                  Welcome to Q-Chem
     A Quantum Leap Into The Future Of Chemistry


 Q-Chem 6.1, Q-Chem, Inc., Pleasanton, CA (2022)

 License issued to: SRG Alon Grinberg Dana, Technion

 E. Epifanovsky,  A. T. B. Gilbert,  Xintian Feng,  Joonho Lee,  Yuezhi Mao,  
 N. Mardirossian,  P. Pokhilko,  A. White,  M. Wormit,  M. P. Coons,  
 A. L. Dempwolff,  Zhengting Gan,  D. Hait,  P. R. Horn,  L. D. Jacobson,  
 I. Kaliman,  J. Kussmann,  A. W. Lange,  Ka Un Lao,  D. S. Levine,  Jie Liu,  
 S. C. McKenzie,  A. F. Morrison,  K. D. Nanda,  F. Plasser,  D. R. Rehn,  
 M. L. Vidal,  Zhi-Qiang You,  Ying Zhu,  B. Alam,  B. Albrecht,  
 A. Aldossary,  E. Alguire,  J. H. Andersen,  V. Athavale,  D. Barton,  
 K. Begam,  A. Behn,  N. Bellonzi,  Y. A. Bernard,  E. J. Berquist,  
 H. Burton,  A. Carreras,  K. Carter-Fenk,  Mathew Chow,  Romit Chakraborty,  
 Chandrima Chakravarty,  Junhan Chen,  A. D. Chien,  K. D. Closser,  
 V. Cofer-Shabica,  L. Cunha,  S. Dasgupta,  Jia Deng,  M. de Wergifosse,  
 M. Diedenhofen,  Hainam Do,  S. Ehlert,  Po-Tung Fang,  S. Fatehi,  
 Qingguo Feng,  T. Friedhoff,  Thomas Froitzheim,  B. Ganoe,  J. Gayvert,  
 Qinghui Ge,  G. Gidofalvi,  M. Gimferrer,  M. Goldey,  Montgomery Gray,  
 J. Gomes,  C. Gonzalez-Espinoza,  S. Gulania,  A. Gunina,  J. A. Gyamfi,  
 M. W. D. Hanson-Heine,  P. H. P. Harbach,  A. W. Hauser,  M. F. Herbst,  
 M. Hernandez Vera,  M. Hodecker,  Z. C. Holden,  S. Houck,  Xunkun Huang,  
 Kerwin Hui,  B. C. Huynh,  K. Ikeda,  M. Ivanov,  Hyunjun Ji,  Zuxin Jin,  
 Hanjie Jiang,  Subrata Jana,  B. Kaduk,  S. Kaehler,  R. Kang,  
 K. Khistyaev,  Jaehoon Kim,  Yongbin Kim,  P. Klunzinger,  Z. Koczor-Benda,  
 Joong Hoon Koh,  D. Kosenkov,  Saikiran Kotaru,  L. Koulias,  T. Kowalczyk,  
 C. M. Krauter,  K. Kue,  A. Kunitsa,  T. Kus,  A. Landau,  K. V. Lawler,  
 D. Lefrancois,  S. Lehtola,  Rain Li,  Shaozhi Li,  Yi-Pei Li,  
 Jiashu Liang,  M. Liebenthal,  Hung-Hsuan Lin,  You-Sheng Lin,  Fenglai Liu,  
 Kuan-Yu Liu,  Xiao Liu,  M. Loipersberger,  A. Luenser,  C. Malbon,  
 A. Manjanath,  P. Manohar,  E. Mansoor,  S. F. Manzer,  Shan-Ping Mao,  
 A. V. Marenich,  T. Markovich,  S. Mason,  F. Matz,  S. A. Maurer,  
 P. F. McLaughlin,  M. F. S. J. Menger,  J.-M. Mewes,  S. A. Mewes,  
 P. Morgante,  Mohammad Mostafanejad,  J. W. Mullinax,  K. J. Oosterbaan,  
 G. Paran,  V. Parravicini,  Alexander C. Paul,  Suranjan K. Paul,  
 F. Pavosevic,  Zheng Pei,  S. Prager,  E. I. Proynov,  E. Ramos,  B. Rana,  
 A. E. Rask,  A. Rettig,  R. M. Richard,  F. Rob,  E. Rossomme,  T. Scheele,  
 M. Scheurer,  M. Schneider,  P. E. Schneider,  Tim K. Schramm,  N. Sergueev,  
 S. M. Sharada,  M. Sharma,  Hengyuan Shen,  W. Skomorowski,  D. W. Small,  
 C. J. Stein,  Alistair J. Sterling,  Yingli Su,  Yu-Chuan Su,  
 E. J. Sundstrom,  J. Talbot,  Zhen Tao,  J. Thirman,  Hung-Yi Tsai,  
 T. Tsuchimochi,  N. M. Tubman,  C. Utku,  S. P. Veccham,  O. Vydrov,  
 J. Wenzel,  Jonathan Wong,  J. Witte,  A. Yamada,  Chou-Hsun Yang,  Kun Yao,  
 S. Yeganeh,  S. R. Yost,  A. Zech,  F. Zeller,  Igor Ying Zhang,  
 Xing Zhang,  Yu Zhang,  D. Zuev,  A. Aspuru-Guzik,  A. T. Bell,  
 N. A. Besley,  K. B. Bravaya,  B. R. Brooks,  D. Casanova,  Jeng-Da Chai,  
 Hsing-Ta Chen,  S. Coriani,  C. J. Cramer,  A. E. DePrince, III,  
 R. A. DiStasio Jr.,  A. Dreuw,  B. D. Dunietz,  T. R. Furlani,  
 W. A. Goddard III,  S. Grimme,  S. Hammes-Schiffer,  T. Head-Gordon,  
 W. J. Hehre,  Chao-Ping Hsu,  T.-C. Jagau,  Yousung Jung,  A. Klamt,  
 Jing Kong,  D. S. Lambrecht,  Xiangyuan Li,  WanZhen Liang,  N. J. Mayhall,  
 C. W. McCurdy,  J. B. Neaton,  T. Neudecker,  C. Ochsenfeld,  
 J. A. Parkhill,  R. Peverati,  V. A. Rassolov,  Haisheng Ren,  Yihan Shao,  
 L. V. Slipchenko,  R. P. Steele,  J. E. Subotnik,  A. J. W. Thom,  
 A. Tkatchenko,  D. G. Truhlar,  T. Van Voorhis,  Fan Wang,  
 T. A. Wesolowski,  K. B. Whaley,  H. L. Woodcock III,  P. M. Zimmerman,  
 S. Faraji,  P. M. W. Gill,  M. Head-Gordon,  J. M. Herbert,  A. I. Krylov

 Contributors to earlier versions of Q-Chem not listed above: 
 R. D. Adamson,  B. Austin,  R. Baer,  J. Baker,  G. J. O. Beran,  
 K. Brandhorst,  S. T. Brown,  E. F. C. Byrd,  Arup K. Chakraborty,  
 G. K. L. Chan,  Chun-Min Chang,  Yunqing Chen,  C.-L. Cheng,  
 Siu Hung Chien,  D. M. Chipman,  D. L. Crittenden,  H. Dachsel,  
 R. J. Doerksen,  A. D. Dutoi,  R. G. Edgar,  J. Fosso-Tande,  
 L. Fusti-Molnar,  D. Ghosh,  A. Ghysels,  A. Golubeva-Zadorozhnaya,  
 J. Gonthier,  M. S. Gordon,  S. R. Gwaltney,  G. Hawkins,  J. E. Herr,  
 A. Heyden,  S. Hirata,  E. G. Hohenstein,  G. Kedziora,  F. J. Keil,  
 C. Kelley,  Jihan Kim,  R. A. King,  R. Z. Khaliullin,  P. P. Korambath,  
 W. Kurlancheek,  A. Laurent,  A. M. Lee,  M. S. Lee,  S. V. Levchenko,  
 Ching Yeh Lin,  D. Liotard,  E. Livshits,  R. C. Lochan,  I. Lotan,  
 L. A. Martinez-Martinez,  P. E. Maslen,  N. Nair,  D. P. O'Neill,  
 D. Neuhauser,  E. Neuscamman,  C. M. Oana,  R. Olivares-Amaya,  R. Olson,  
 T. M. Perrine,  B. Peters,  P. A. Pieniazek,  A. Prociuk,  Y. M. Rhee,  
 J. Ritchie,  M. A. Rohrdanz,  E. Rosta,  N. J. Russ,  H. F. Schaefer III,  
 M. W. Schmidt,  N. E. Schultz,  S. Sharma,  N. Shenvi,  C. D. Sherrill,  
 A. C. Simmonett,  A. Sodt,  T. Stein,  D. Stuck,  K. S. Thanthiriwatte,  
 V. Vanovschi,  L. Vogt,  Tao Wang,  A. Warshel,  M. A. Watson,  
 C. F. Williams,  Q. Wu,  X. Xu,  Jun Yang,  W. Zhang,  Yan Zhao

   Please cite Q-Chem as follows:
  "Software for the frontiers of quantum chemistry:
   An overview of developments in the Q-Chem 5 package"
   J. Chem. Phys. 155, 084801 (2021)
   https://doi.org/10.1063/5.0055522 (open access)

 Q-Chem 6.1.0 for Intel X86 EM64T Linux

 Parts of Q-Chem use Armadillo 9.900.5 (Nocturnal Misbehaviour).
 http://arma.sourceforge.net/

 Q-Chem begins on Tue Feb 13 18:16:21 2024  

 Host: 
0

     Scratch files written to /gtmp/calvin.p/qchem/141885.zeus-master/scratch/qchem1884132//
 Jul923 |scratch|qcdevops|jenkins|workspace|build_RNUM DZOC   
 Processing $rem in /usr/local/qchem/config/preferences:
 Processing $rem in /home/calvin.p/.qchemrc:

 Checking the input file for inconsistencies... 	...done.

--------------------------------------------------------------
User input:
--------------------------------------------------------------
$molecule
read
$end
$rem
JOBTYPE       rpath
BASIS        def2-tzvp
METHOD        wb97xd
RPATH_DIRECTION -1
RPATH_MAX_CYCLES 20
RPATH_MAX_STEPSIZE 150
RPATH_TOL_DISPLACEMENT 5000
RPATH_PRINT 2
SCF_GUESS     read
$end



--------------------------------------------------------------
 ----------------------------------------------------------------
             Standard Nuclear Orientation (Angstroms)
    I     Atom           X                Y                Z
 ----------------------------------------------------------------
    1      O      -2.3854380023    -1.1518176397     0.4435466389
    2      O      -2.6444461721    -0.2014051514    -0.5374958459
    3      H      -3.0476594305    -0.9565716542     1.1163861757
    4      H      -1.8922768568     0.6667394922    -0.3164333632
    5      C      -0.9503614480     1.5856949874     0.0046802619
    6      C       0.2231743778     0.7864349855     0.4800154416
    7      C       0.8275839103    -0.1056340454    -0.5976859742
    8      C       2.0480311106    -0.8741944775    -0.1188447429
    9      O       3.1103891743    -0.0345005320     0.2954502105
   10      H      -0.8258000802     2.1044624847    -0.9450675512
   11      H      -1.4571205358     2.1896529610     0.7543799559
   12      H      -0.0747185382     0.1702884296     1.3342336202
   13      H       0.9936946928     1.4707029099     0.8575720410
   14      H       0.0762911692    -0.8206693226    -0.9430225659
   15      H       1.1028420107     0.5032183107    -1.4676672840
   16      H       1.7897430557    -1.4749856180     0.7555518730
   17      H       2.3817268444    -1.5654451855    -0.9017703640
   18      H       3.4186699648     0.4605850774    -0.4651604839
 ----------------------------------------------------------------
 Molecular Point Group                 C1    NOp =  1
 Largest Abelian Subgroup              C1    NOp =  1
 Nuclear Repulsion Energy =         320.93968297 hartrees
 There are       30 alpha and       29 beta electrons
 Requested basis set is def2-TZVP
 There are 121 shells and 283 basis functions

 Total QAlloc Memory Limit   8000 MB
 Mega-Array Size       188 MB
 MEM_STATIC part       192 MB

 Starting direction for rxn path = -1
 A cutoff of  1.0D-12 yielded   6485 shell pairs
 There are     35283 function pairs (     44433 Cartesian)
 Smallest overlap matrix eigenvalue = 1.81E-04

 Scale SEOQF with 1.000000e-01/1.000000e-01/1.000000e-01

 Standard Electronic Orientation quadrupole field applied
 Nucleus-field energy     =     0.0000000108 hartrees
 Guess MOs from SCF MO coefficient file

 -----------------------------------------------------------------------
  General SCF calculation program by
  Eric Jon Sundstrom, Paul Horn, Yuezhi Mao, Dmitri Zuev, Alec White,
  David Stuck, Shaama M.S., Shane Yost, Joonho Lee, David Small,
  Daniel Levine, Susi Lehtola, Hugh Burton, Evgeny Epifanovsky,
  Bang C. Huynh
 -----------------------------------------------------------------------
 Exchange:     0.2220 Hartree-Fock + 1.0000 wB97X-D + LR-HF
 Correlation:  1.0000 wB97X-D
 Using SG-2 standard quadrature grid
 Dispersion:   Grimme D
 using 16 threads for integral computing
 -------------------------------------------------------
 OpenMP Integral computing Module                
 Release: version 1.0, May 2013, Q-Chem Inc. Pittsburgh 
 -------------------------------------------------------
 A unrestricted SCF calculation will be
 performed using DIIS
 SCF converges when DIIS error is below 1.0e-08
 ---------------------------------------
  Cycle       Energy         DIIS error
 ---------------------------------------
    1    -384.5720583804      3.66e-09  
    2    -384.5720583804      2.40e-09  Convergence criterion met
 ---------------------------------------
 SCF time:   CPU 101.15s  wall 7.00s 
<S^2> =          0.758688272
 SCF   energy in the final basis set =     -384.5720583804
 Total energy in the final basis set =     -384.5720583804
 
 --------------------------------------------------------------
 
                    Orbital Energies (a.u.)
 --------------------------------------------------------------
 
 Alpha MOs
 -- Occupied --
-19.3146 -19.3075 -19.2467 -10.3255 -10.3037 -10.2870 -10.2801  -1.2410
 -1.1253  -0.9741  -0.9063  -0.8289  -0.7377  -0.6893  -0.6333  -0.5955
 -0.5907  -0.5531  -0.5456  -0.5318  -0.5232  -0.4934  -0.4629  -0.4451
 -0.4313  -0.4134  -0.4032  -0.3783  -0.3612  -0.3154
 -- Virtual --
  0.1000   0.1090   0.1261   0.1493   0.1505   0.1610   0.1804   0.1958
  0.1984   0.2046   0.2100   0.2193   0.2469   0.2692   0.2836   0.2949
  0.3122   0.3163   0.3305   0.3499   0.3822   0.3898   0.4157   0.4336
  0.4429   0.4551   0.4624   0.4736   0.4777   0.4906   0.4985   0.5028
  0.5162   0.5195   0.5263   0.5377   0.5449   0.5539   0.5622   0.5806
  0.5888   0.5994   0.6260   0.6446   0.6526   0.6628   0.6740   0.6935
  0.7184   0.7385   0.7527   0.7722   0.7919   0.8427   0.8691   0.8945
  0.9005   0.9150   0.9455   0.9510   0.9668   0.9772   1.0467   1.0610
  1.0869   1.1078   1.1596   1.2014   1.2205   1.2255   1.2457   1.2605
  1.2742   1.2876   1.2937   1.3216   1.3705   1.4195   1.4497   1.4760
  1.5385   1.5549   1.5819   1.6225   1.6379   1.6535   1.6613   1.6696
  1.6837   1.6903   1.7201   1.7317   1.7397   1.7647   1.8078   1.8281
  1.8431   1.8470   1.8837   1.8916   1.9180   1.9331   1.9504   1.9646
  1.9908   2.0108   2.0407   2.0595   2.0703   2.1192   2.1287   2.1534
  2.1764   2.1856   2.2234   2.2484   2.2876   2.3214   2.3340   2.3385
  2.3721   2.3817   2.3945   2.4100   2.4173   2.4728   2.4972   2.5092
  2.5386   2.5461   2.5617   2.5744   2.6111   2.6323   2.6456   2.6707
  2.6880   2.7001   2.7178   2.7354   2.7454   2.7601   2.7719   2.7818
  2.7924   2.8112   2.8232   2.8454   2.8788   2.9007   2.9161   2.9500
  2.9834   3.0109   3.0139   3.0773   3.1244   3.1385   3.1426   3.1646
  3.1720   3.2138   3.2306   3.2426   3.2880   3.2990   3.3202   3.3330
  3.3707   3.3849   3.4096   3.4313   3.4552   3.4900   3.5181   3.5228
  3.5499   3.5955   3.5978   3.6227   3.6643   3.6936   3.7821   3.8070
  3.8251   3.8339   3.9399   3.9470   3.9678   3.9857   4.0402   4.0658
  4.1043   4.1409   4.2019   4.2337   4.2418   4.3089   4.3666   4.4472
  4.5283   4.5861   4.6218   4.6405   4.6733   4.7428   4.7808   4.8171
  4.8472   4.8818   4.9173   4.9485   4.9583   5.1123   5.1360   5.3457
  5.3536   5.4285   5.4371   5.5464   5.5617   5.5640   5.8375   5.8754
  5.9731   6.0068   6.0271   6.1757   6.2253   6.3679   6.3912   6.4293
  6.4540   6.4610   6.5122   6.5480   6.7781   6.8292   6.8498   6.8751
  7.0617   7.1343   7.1949   7.2360   7.3414   8.2848  22.3901  22.5114
 22.5848  22.6136  43.5187  43.8715  43.9116
 
 Beta MOs
 -- Occupied --
-19.3131 -19.2964 -19.2467 -10.3256 -10.2959 -10.2872 -10.2800  -1.2273
 -1.1252  -0.9531  -0.8999  -0.8190  -0.7282  -0.6831  -0.6211  -0.5899
 -0.5774  -0.5443  -0.5410  -0.5253  -0.5090  -0.4850  -0.4571  -0.4415
 -0.4256  -0.4073  -0.3768  -0.3650  -0.3596
 -- Virtual --
 -0.0454   0.1012   0.1097   0.1297   0.1508   0.1516   0.1654   0.1841
  0.1974   0.1994   0.2051   0.2104   0.2204   0.2473   0.2718   0.2866
  0.2998   0.3128   0.3196   0.3339   0.3583   0.3836   0.3925   0.4170
  0.4360   0.4438   0.4590   0.4636   0.4744   0.4832   0.4972   0.5017
  0.5078   0.5192   0.5276   0.5295   0.5389   0.5506   0.5583   0.5643
  0.5830   0.5924   0.6009   0.6282   0.6464   0.6538   0.6644   0.6767
  0.6944   0.7191   0.7420   0.7557   0.7773   0.7969   0.8439   0.8748
  0.8959   0.9030   0.9171   0.9503   0.9554   0.9715   0.9801   1.0480
  1.0632   1.0951   1.1099   1.1629   1.2037   1.2241   1.2275   1.2516
  1.2644   1.2773   1.2893   1.2971   1.3280   1.3720   1.4226   1.4553
  1.4763   1.5394   1.5569   1.5893   1.6261   1.6402   1.6593   1.6636
  1.6725   1.6880   1.6928   1.7247   1.7396   1.7423   1.7758   1.8105
  1.8345   1.8451   1.8494   1.8855   1.8967   1.9222   1.9350   1.9536
  1.9689   1.9926   2.0126   2.0431   2.0652   2.0725   2.1233   2.1345
  2.1566   2.1827   2.1886   2.2287   2.2532   2.2957   2.3234   2.3389
  2.3409   2.3750   2.3836   2.4031   2.4143   2.4200   2.4776   2.4995
  2.5111   2.5404   2.5507   2.5638   2.5782   2.6141   2.6361   2.6477
  2.6723   2.6926   2.7059   2.7243   2.7391   2.7476   2.7650   2.7741
  2.7846   2.7976   2.8133   2.8264   2.8498   2.8812   2.9082   2.9255
  2.9513   2.9895   3.0137   3.0187   3.0837   3.1357   3.1427   3.1563
  3.1729   3.1808   3.2201   3.2333   3.2480   3.2946   3.3035   3.3263
  3.3371   3.3742   3.3910   3.4135   3.4348   3.4609   3.4968   3.5258
  3.5295   3.5561   3.6003   3.6051   3.6274   3.6678   3.6986   3.7892
  3.8113   3.8294   3.8374   3.9452   3.9587   3.9708   3.9877   4.0441
  4.0755   4.1081   4.1519   4.2072   4.2385   4.2480   4.3173   4.3714
  4.4499   4.5357   4.5908   4.6249   4.6421   4.6761   4.7435   4.7838
  4.8229   4.8544   4.8890   4.9266   4.9521   4.9630   5.1196   5.1465
  5.3499   5.3703   5.4366   5.4398   5.5588   5.5624   5.5741   5.8376
  5.8755   5.9870   6.0068   6.0363   6.1984   6.2396   6.3871   6.3919
  6.4521   6.4624   6.4707   6.5333   6.5482   6.7783   6.8505   6.8606
  6.8753   7.0618   7.1524   7.2068   7.2361   7.3523   8.2911  22.4002
 22.5135  22.5848  22.6138  43.5227  43.8716  43.9203
 --------------------------------------------------------------
 
          Ground-State Mulliken Net Atomic Charges

     Atom                 Charge (a.u.)    Spin (a.u.)
  --------------------------------------------------------
      1 O                    -0.304293       0.053291
      2 O                    -0.280871       0.370070
      3 H                     0.334764      -0.001465
      4 H                     0.281823      -0.031272
      5 C                    -0.384835       0.592281
      6 C                    -0.147410      -0.027387
      7 C                    -0.262864       0.007895
      8 C                     0.010812      -0.001027
      9 O                    -0.475953       0.001111
     10 H                     0.136950      -0.006858
     11 H                     0.146567      -0.008695
     12 H                     0.101851       0.009389
     13 H                     0.120077       0.042687
     14 H                     0.130696       0.000231
     15 H                     0.090392      -0.000454
     16 H                     0.094738       0.000053
     17 H                     0.099906       0.000123
     18 H                     0.307648       0.000026
  --------------------------------------------------------
  Sum of atomic charges =    -0.000000
  Sum of spin   charges =     1.000000

 -----------------------------------------------------------------
                    Cartesian Multipole Moments
 -----------------------------------------------------------------
    Charge (ESU x 10^10)
                -0.0000
    Dipole Moment (Debye)
         X      -0.1505      Y       1.3973      Z       0.2390
       Tot       1.4256
    Quadrupole Moments (Debye-Ang)
        XX     -46.9955     XY       0.0144     YY     -43.2029
        XZ     -11.7506     YZ      -1.9256     ZZ     -42.3569
    Octopole Moments (Debye-Ang^2)
       XXX     -23.5927    XXY       3.7829    XYY       0.3565
       YYY      -2.1073    XXZ       1.4786    XYZ       2.4014
       YYZ       0.8692    XZZ      -7.1561    YZZ      -2.7945
       ZZZ       4.3219
    Hexadecapole Moments (Debye-Ang^3)
      XXXX   -1095.7549   XXXY      64.8699   XXYY    -222.3303
      XYYY       6.9234   YYYY    -293.1092   XXXZ    -133.4944
      XXYZ     -19.9837   XYYZ      -5.0344   YYYZ      -3.1024
      XXZZ    -183.8593   XYZZ       8.5489   YYZZ     -62.0485
      XZZZ     -13.5295   YZZZ      -8.2043   ZZZZ    -120.2408
 -----------------------------------------------------------------
 Calculating analytic gradient of the SCF energy
 Gradient of SCF Energy
            1           2           3           4           5           6
    1   0.0000011   0.0000044  -0.0000034   0.0000007  -0.0000041  -0.0000082
    2  -0.0000033  -0.0000106  -0.0000034  -0.0000063  -0.0000020   0.0000012
    3  -0.0000066  -0.0000140  -0.0000128  -0.0000147  -0.0000137  -0.0000024
            7           8           9          10          11          12
    1   0.0000079   0.0000022  -0.0000011  -0.0000001  -0.0000092  -0.0000082
    2   0.0000022   0.0000056   0.0000104  -0.0000075  -0.0000019   0.0000038
    3   0.0000064   0.0000148   0.0000165  -0.0000136  -0.0000170  -0.0000024
           13          14          15          16          17          18
    1  -0.0000081   0.0000085   0.0000057   0.0000016   0.0000092   0.0000012
    2   0.0000062  -0.0000050  -0.0000040   0.0000075   0.0000009   0.0000063
    3   0.0000002   0.0000021   0.0000037   0.0000159   0.0000205   0.0000168
 Max gradient component =       2.054E-05
 RMS gradient           =       8.573E-06
 Gradient time:  CPU 150.63 s  wall 9.64 s
 ------------------------------------------------------------------------
 Reaction path following.  The coordinates are cartesian              
 Step   1 E=    -384.572058 |G|=  0.000063 S_lin= 0.0000 S_tot= 0.0000
 ------------------------------------------------------------------------
 IRC -- neg. force constant =  -0.228359781287218     
 IRC -- max trans/rot const =   6.125861433364770E-005
 First IRC step, with rxn. path sign =           -1
 ----------------------------------------------------------------
             Standard Nuclear Orientation (Angstroms)
    I     Atom           X                Y                Z
 ----------------------------------------------------------------
    1      O      -2.3798045368    -1.1505153343     0.4482698274
    2      O      -2.6301037536    -0.1744396608    -0.5378528525
    3      H      -3.0483581720    -0.9563648508     1.1140219555
    4      H      -1.9328499820     0.6179972293    -0.3259306513
    5      C      -0.9260021231     1.6076872736     0.0130766922
    6      C       0.2242545917     0.7856265233     0.4802687185
    7      C       0.8275742508    -0.1058778890    -0.5984398325
    8      C       2.0480357149    -0.8741655464    -0.1187445086
    9      O       3.1100223612    -0.0341289865     0.2955005452
   10      H      -0.8273122061     2.1036118255    -0.9489395639
   11      H      -1.4604886255     2.1895924345     0.7567737085
   12      H      -0.0756766420     0.1709334323     1.3342172407
   13      H       0.9958994352     1.4698393842     0.8585757971
   14      H       0.0760617721    -0.8206846198    -0.9428392481
   15      H       1.1029545834     0.5032966040    -1.4678675844
   16      H       1.7896625613    -1.4749940301     0.7555017014
   17      H       2.3815699391    -1.5653220783    -0.9017155098
   18      H       3.4188860783     0.4604643012    -0.4652083919
 ----------------------------------------------------------------
 Molecular Point Group                 C1    NOp =  1
 Largest Abelian Subgroup              C1    NOp =  1
 Nuclear Repulsion Energy =         320.96913421 hartrees
 There are       30 alpha and       29 beta electrons
 Applying Cartesian multipole field
    Component          Value
    ---------          -----
     (2,0,0)        1.00000E-11
     (0,2,0)        2.00000E-11
     (0,0,2)       -3.00000E-11
 Nucleus-field energy     =     0.0000000108 hartrees
 Requested basis set is def2-TZVP
 There are 121 shells and 283 basis functions
 A cutoff of  1.0D-12 yielded   6484 shell pairs
 There are     35288 function pairs (     44441 Cartesian)
 Smallest overlap matrix eigenvalue = 1.81E-04
 Guess MOs from SCF MO coefficient file

 -----------------------------------------------------------------------
  General SCF calculation program by
  Eric Jon Sundstrom, Paul Horn, Yuezhi Mao, Dmitri Zuev, Alec White,
  David Stuck, Shaama M.S., Shane Yost, Joonho Lee, David Small,
  Daniel Levine, Susi Lehtola, Hugh Burton, Evgeny Epifanovsky,
  Bang C. Huynh
 -----------------------------------------------------------------------
 Exchange:     0.2220 Hartree-Fock + 1.0000 wB97X-D + LR-HF
 Correlation:  1.0000 wB97X-D
 Using SG-2 standard quadrature grid
 Dispersion:   Grimme D
 A unrestricted SCF calculation will be
 performed using DIIS
 SCF converges when DIIS error is below 1.0e-08
 ---------------------------------------
  Cycle       Energy         DIIS error
 ---------------------------------------
    1    -384.5656665533      3.09e-04  
    2    -384.5717521929      1.64e-04  
    3    -384.5728273117      1.25e-04  
[...]
    O    -2.688736    -0.220852    -0.559678
    H    -3.058319    -0.968919     1.110257
    H    -2.043637     0.509746    -0.371440
    C    -0.837663     1.705857     0.039404
    C     0.251451     0.806244     0.488784
    C     0.828206    -0.098646    -0.597432
    C     2.047071    -0.872776    -0.119617
    O     3.110380    -0.034785     0.294542
    H    -0.820371     2.120900    -0.962081
    H    -1.460366     2.208986     0.769539
    H    -0.084331     0.189981     1.329180
    H     1.055120     1.441043     0.884393
    H     0.072621    -0.813039    -0.936272
    H     1.103967     0.504196    -1.470776
    H     1.788501    -1.474030     0.754460
    H     2.379765    -1.564522    -0.902409
    H     3.419962     0.459619    -0.465988
 18
 IRC step # 7, E = -384.581378
    O    -2.368863    -1.150279     0.467651
    O    -2.695076    -0.226137    -0.563509
    H    -3.061005    -0.972377     1.112389
    H    -2.054061     0.503376    -0.379365
    C    -0.832816     1.710774     0.040150
    C     0.253903     0.808771     0.489508
    C     0.828610    -0.097300    -0.597109
    C     2.047125    -0.872470    -0.119686
    O     3.111037    -0.035244     0.294289
    H    -0.817728     2.124768    -0.962095
    H    -1.457547     2.212293     0.769827
    H    -0.085274     0.193140     1.328863
    H     1.062798     1.437420     0.887861
    H     0.071523    -0.810604    -0.934275
    H     1.104365     0.504711    -1.471209
    H     1.788093    -1.473591     0.754306
    H     2.379010    -1.564227    -0.902780
    H     3.420233     0.459532    -0.466147
 18
 IRC step # 8, E = -384.581815
    O    -2.371228    -1.150461     0.469683
    O    -2.704768    -0.240823    -0.564362
    H    -3.063758    -0.978307     1.114039
    H    -2.068497     0.494733    -0.390887
    C    -0.825322     1.718483     0.041177
    C     0.258828     0.812878     0.490969
    C     0.829236    -0.094924    -0.596280
    C     2.046860    -0.871990    -0.120000
    O     3.112137    -0.036109     0.293801
    H    -0.813052     2.130676    -0.961831
    H    -1.452934     2.217429     0.770159
    H    -0.086584     0.197877     1.328331
    H     1.072658     1.431857     0.892448
    H     0.069784    -0.806952    -0.931327
    H     1.104887     0.505497    -1.471546
    H     1.787526    -1.472893     0.754082
    H     2.377813    -1.563825    -0.903363
    H     3.420740     0.459408    -0.466422
 18
 IRC step # 9, E = -384.582049
    O    -2.370502    -1.154065     0.473795
    O    -2.711795    -0.246560    -0.568307
    H    -3.066501    -0.981793     1.115751
    H    -2.077066     0.489485    -0.397785
    C    -0.820943     1.722869     0.041733
    C     0.260836     0.814966     0.491563
    C     0.829578    -0.093715    -0.595871
    C     2.046864    -0.871749    -0.120135
    O     3.112828    -0.036793     0.293359
    H    -0.809550     2.134344    -0.961566
    H    -1.449812     2.220661     0.770281
    H    -0.087199     0.200575     1.328153
    H     1.078394     1.429533     0.895277
    H     0.068807    -0.804552    -0.929487
    H     1.105182     0.506137    -1.471592
    H     1.787186    -1.472450     0.753906
    H     2.376921    -1.563629    -0.903796
    H     3.421096     0.459289    -0.466610
 18
 IRC step # 10, E = -384.582293
    O    -2.372261    -1.153856     0.475172
    O    -2.717764    -0.256559    -0.568080
    H    -3.068733    -0.986431     1.116741
    H    -2.087715     0.482549    -0.406076
    C    -0.815936     1.727708     0.042299
    C     0.263921     0.817589     0.492707
    C     0.830020    -0.092002    -0.595148
    C     2.046671    -0.871490    -0.120424
    O     3.113782    -0.037638     0.292852
    H    -0.805011     2.138802    -0.961340
    H    -1.446104     2.224665     0.770465
    H    -0.087863     0.203685     1.327962
    H     1.084022     1.426831     0.898146
    H     0.067586    -0.801913    -0.927494
    H     1.105530     0.506968    -1.471584
    H     1.786820    -1.471983     0.753736
    H     2.375816    -1.563488    -0.904358
    H     3.421543     0.459117    -0.466907
 18
 IRC step # 11, E = -384.582505
    O    -2.371869    -1.157127     0.479750
    O    -2.726072    -0.264460    -0.571963
    H    -3.071834    -0.990983     1.118321
    H    -2.097196     0.476717    -0.413770
    C    -0.811170     1.732578     0.042748
    C     0.266290     0.820041     0.493532
    C     0.830492    -0.090501    -0.594588
    C     2.046626    -0.871274    -0.120662
    O     3.114733    -0.038651     0.292191
    H    -0.799979     2.143230    -0.960877
    H    -1.442175     2.228732     0.770444
    H    -0.088428     0.206589     1.328047
    H     1.089463     1.424898     0.901058
    H     0.066550    -0.799119    -0.925509
    H     1.105850     0.507913    -1.471375
    H     1.786479    -1.471531     0.753514
    H     2.374558    -1.563363    -0.904950
    H     3.422007     0.458866    -0.467243
 18
 IRC step # 12, E = -384.582596
    O    -2.372856    -1.156268     0.479521
    O    -2.728104    -0.269396    -0.570820
    H    -3.072961    -0.993183     1.118720
    H    -2.102018     0.473468    -0.417337
    C    -0.809133     1.734423     0.042939
    C     0.267571     0.821079     0.494143
    C     0.830672    -0.089696    -0.594161
    C     2.046520    -0.871189    -0.120810
    O     3.115239    -0.039119     0.291915
    H    -0.797574     2.145298    -0.960794
    H    -1.440492     2.230672     0.770467
    H    -0.088601     0.207919     1.328032
    H     1.091413     1.424127     0.902154
    H     0.066081    -0.797976    -0.924733
    H     1.106026     0.508401    -1.471294
    H     1.786341    -1.471366     0.753429
    H     2.373976    -1.563367    -0.905256
    H     3.422222     0.458728    -0.467447
 ============================================
      BACKWARD RXN PATH (direction = -1)     
 ============================================
 18
 IRC step # -1, E = -384.572058
    O    -2.385438    -1.151818     0.443547
    O    -2.644446    -0.201405    -0.537496
    H    -3.047659    -0.956572     1.116386
    H    -1.892277     0.666739    -0.316433
    C    -0.950361     1.585695     0.004680
    C     0.223174     0.786435     0.480015
    C     0.827584    -0.105634    -0.597686
    C     2.048031    -0.874194    -0.118845
    O     3.110389    -0.034501     0.295450
    H    -0.825800     2.104462    -0.945068
    H    -1.457121     2.189653     0.754380
    H    -0.074719     0.170288     1.334234
    H     0.993695     1.470703     0.857572
    H     0.076291    -0.820669    -0.943023
    H     1.102842     0.503218    -1.467667
    H     1.789743    -1.474986     0.755552
    H     2.381727    -1.565445    -0.901770
    H     3.418670     0.460585    -0.465160
 18
 IRC step # -2, E = -384.574692
    O    -2.391070    -1.152329     0.438068
    O    -2.660744    -0.231235    -0.537195
    H    -3.047075    -0.956755     1.118829
    H    -1.852055     0.715029    -0.306862
    C    -0.972598     1.566500    -0.003162
    C     0.222174     0.787375     0.479844
    C     0.827590    -0.105383    -0.596872
    C     2.048028    -0.874229    -0.118979
    O     3.110771    -0.034907     0.295382
    H    -0.824280     2.105229    -0.940917
    H    -1.453640     2.189560     0.751811
    H    -0.073712     0.169613     1.334250
    H     0.991523     1.471486     0.856544
    H     0.076538    -0.820686    -0.943240
    H     1.102718     0.503144    -1.467468
    H     1.789824    -1.474982     0.755599
    H     2.381894    -1.565581    -0.901844
    H     3.418440     0.460707    -0.465121
 18
 IRC step # -3, E = -384.581111
    O    -2.396906    -1.153502     0.433030
    O    -2.682445    -0.266627    -0.539422
    H    -3.046602    -0.957170     1.121830
    H    -1.813415     0.762175    -0.297767
    C    -0.989585     1.552959    -0.009433
    C     0.221374     0.788636     0.479844
    C     0.827566    -0.104966    -0.595937
    C     2.048014    -0.874271    -0.119149
    O     3.111242    -0.035449     0.295261
    H    -0.822069     2.106924    -0.936614
    H    -1.449751     2.190096     0.749355
    H    -0.072583     0.169049     1.334141
    H     0.989952     1.472256     0.855674
    H     0.076836    -0.820723    -0.943498
    H     1.102550     0.503049    -1.467230
    H     1.789925    -1.474987     0.755635
    H     2.382076    -1.565747    -0.901962
    H     3.418148     0.460854    -0.465090
 18
 IRC step # -4, E = -384.587319
    O    -2.403835    -1.157194     0.429985
    O    -2.710005    -0.307551    -0.545853
    H    -3.045821    -0.958227     1.125850
    H    -1.780371     0.805402    -0.291108
    C    -0.996919     1.548609    -0.012688
    C     0.220661     0.790277     0.479918
    C     0.827430    -0.104420    -0.594970
    C     2.048030    -0.874315    -0.119242
    O     3.111872    -0.036185     0.295100
    H    -0.818471     2.110284    -0.931786
    H    -1.444953     2.191741     0.746934
    H    -0.071232     0.168505     1.333953
    H     0.988278     1.473279     0.854643
    H     0.077252    -0.820726    -0.943765
    H     1.102333     0.502931    -1.466874
    H     1.790076    -1.474994     0.755688
    H     2.382255    -1.565936    -0.902094
    H     3.417747     0.461076    -0.465023
 18
 IRC step # -5, E = -384.591851
    O    -2.412002    -1.165478     0.429678
    O    -2.744614    -0.354836    -0.558416
    H    -3.045094    -0.960109     1.132300
    H    -1.759305     0.839665    -0.289458
    C    -0.991677     1.555565    -0.012071
    C     0.221576     0.792221     0.480540
    C     0.827181    -0.103666    -0.594094
    C     2.048049    -0.874311    -0.119231
    O     3.112771    -0.037240     0.294864
    H    -0.811222     2.118103    -0.927157
    H    -1.438504     2.196976     0.746152
    H    -0.069710     0.168299     1.333565
    H     0.987266     1.474790     0.853734
    H     0.077765    -0.820578    -0.943965
    H     1.102079     0.502854    -1.466407
    H     1.790303    -1.475036     0.755773
    H     2.382301    -1.566098    -0.902227
    H     3.417162     0.461435    -0.464913
 18
 IRC step # -6, E = -384.595511
    O    -2.422433    -1.178016     0.430473
    O    -2.782342    -0.406692    -0.574063
    H    -3.044515    -0.962637     1.141231
    H    -1.753071     0.862235    -0.293815
    C    -0.983582     1.566555    -0.011050
    C     0.225177     0.794524     0.481738
    C     0.827553    -0.102670    -0.593351
    C     2.048154    -0.874368    -0.119227
    O     3.113993    -0.038619     0.294519
    H    -0.796918     2.133633    -0.922879
    H    -1.428548     2.208582     0.748794
    H    -0.068309     0.169255     1.332996
    H     0.990168     1.476887     0.854295
    H     0.078155    -0.819877    -0.943723
    H     1.101955     0.503051    -1.466087
    H     1.790583    -1.475117     0.755888
    H     2.381949    -1.566177    -0.902327
    H     3.416358     0.462006    -0.464744
 18
 IRC step # -7, E = -384.598457
    O    -2.433877    -1.193567     0.432267
    O    -2.818811    -0.457546    -0.589445
    H    -3.044015    -0.964975     1.150329
    H    -1.752951     0.880343    -0.300743
    C    -0.978301     1.576655    -0.011578
    C     0.228038     0.798367     0.482431
    C     0.828195    -0.101426    -0.592702
    C     2.048520    -0.874485    -0.119104
    O     3.115458    -0.040180     0.294143
    H    -0.779047     2.151779    -0.915915
    H    -1.415355     2.221662     0.751125
    H    -0.066867     0.171380     1.332494
    H     0.994927     1.478286     0.855421
    H     0.078528    -0.818347    -0.942792
    H     1.102187     0.503473    -1.466012
    H     1.790849    -1.475189     0.755948
    H     2.381374    -1.566443    -0.902617
    H     3.415474     0.462769    -0.464582
 18
 IRC step # -8, E = -384.600784
    O    -2.447045    -1.208969     0.431753
    O    -2.851415    -0.508551    -0.598995
    H    -3.043302    -0.966615     1.157594
    H    -1.755071     0.897507    -0.308897
    C    -0.975221     1.584016    -0.012745
    C     0.229929     0.800798     0.482304
    C     0.829157    -0.099277    -0.591783
    C     2.048648    -0.874411    -0.119246
    O     3.117308    -0.041764     0.293705
    H    -0.759363     2.171010    -0.907477
    H    -1.400768     2.234705     0.752855
    H    -0.065640     0.175258     1.331749
    H     0.999869     1.479250     0.856373
    H     0.078227    -0.816176    -0.941096
    H     1.102961     0.504066    -1.466238
    H     1.791082    -1.475277     0.756046
    H     2.380434    -1.566699    -0.902893
    H     3.414535     0.463686    -0.464340
 18
 IRC step # -9, E = -384.602434
    O    -2.456389    -1.228842     0.435672
    O    -2.880686    -0.549392    -0.610997
    H    -3.043691    -0.967251     1.164516
    H    -1.758496     0.912664    -0.317484
    C    -0.969450     1.593371    -0.013832
    C     0.231642     0.804665     0.482041
    C     0.829739    -0.098475    -0.591971
    C     2.049034    -0.874414    -0.118928
    O     3.118848    -0.043425     0.293094
    H    -0.741645     2.187089    -0.898636
    H    -1.387726     2.244878     0.754035
    H    -0.065280     0.178295     1.332180
    H     1.002373     1.479379     0.856113
    H     0.078017    -0.813623    -0.939339
    H     1.103904     0.504761    -1.466346
    H     1.791212    -1.475065     0.755889
    H     2.379169    -1.566797    -0.903235
    H     3.413749     0.464739    -0.464104
 18
 IRC step # -10, E = -384.602895
    O    -2.461911    -1.231976     0.434269
    O    -2.887189    -0.563787    -0.610246
    H    -3.042742    -0.967817     1.165207
    H    -1.758128     0.918374    -0.319750
    C    -0.969381     1.594346    -0.014188
    C     0.231818     0.804113     0.481978
    C     0.830006    -0.097528    -0.591372
    C     2.048890    -0.874319    -0.119192
    O     3.119386    -0.043833     0.292974
    H    -0.736107     2.192373    -0.896924
    H    -1.384153     2.248030     0.754786
    H    -0.065222     0.179704     1.331810
    H     1.003657     1.479992     0.856244
    H     0.077668    -0.813138    -0.939048
    H     1.104258     0.504934    -1.466469
    H     1.791194    -1.475074     0.756018
    H     2.378785    -1.566919    -0.903376
    H     3.413497     0.465081    -0.464052
 18
 IRC step # -11, E = -384.604269
    O    -2.473520    -1.254062     0.437146
    O    -2.916295    -0.609112    -0.619641
    H    -3.043023    -0.968114     1.172142
    H    -1.760649     0.936346    -0.329834
    C    -0.962963     1.604674    -0.015377
    C     0.233401     0.807539     0.481664
    C     0.830467    -0.096453    -0.591419
    C     2.048974    -0.874362    -0.119125
    O     3.120996    -0.045602     0.292156
    H    -0.716334     2.209925    -0.888013
    H    -1.370726     2.258421     0.756767
    H    -0.065608     0.183266     1.332159
    H     1.006231     1.480516     0.855835
    H     0.077171    -0.810570    -0.937706
    H     1.105369     0.505663    -1.466347
    H     1.791185    -1.474757     0.755956
    H     2.377092    -1.567154    -0.903908
    H     3.412561     0.466394    -0.463788
 18
 IRC step # -12, E = -384.604560
    O    -2.478250    -1.257431     0.436769
    O    -2.921627    -0.620987    -0.619057
    H    -3.041982    -0.968564     1.172286
    H    -1.759762     0.941607    -0.331826
    C    -0.962661     1.605817    -0.015650
    C     0.233449     0.807121     0.481609
    C     0.830607    -0.095754    -0.590917
    C     2.048836    -0.874293    -0.119335
    O     3.121335    -0.045962     0.291976
    H    -0.711701     2.214319    -0.886618
    H    -1.367957     2.260848     0.757426
    H    -0.065769     0.184510     1.331772
    H     1.007287     1.480963     0.855977
    H     0.076752    -0.810185    -0.937529
    H     1.105678     0.505872    -1.466460
    H     1.791126    -1.474741     0.756046
    H     2.376668    -1.567282    -0.904049
    H     3.412296     0.466698    -0.463753
 18
 IRC step # -13, E = -384.605540
    O    -2.489718    -1.280044     0.439883
    O    -2.947747    -0.664435    -0.626150
    H    -3.041774    -0.968302     1.177990
    H    -1.760356     0.959741    -0.341962
    C    -0.955332     1.616771    -0.016576
    C     0.234981     0.810553     0.481267
    C     0.830718    -0.094765    -0.591169
    C     2.048572    -0.874437    -0.119427
    O     3.122498    -0.047597     0.291015
    H    -0.693054     2.231039    -0.878631
    H    -1.356345     2.270119     0.759646
    H    -0.067101     0.188094     1.331870
    H     1.009786     1.481071     0.855840
    H     0.075823    -0.807824    -0.936512
    H     1.106642     0.506604    -1.466182
    H     1.790923    -1.474417     0.756003
    H     2.374652    -1.567611    -0.904611
    H     3.411157     0.467995    -0.463627
 18
 IRC step # -14, E = -384.605684
    O    -2.493017    -1.282237     0.439715
    O    -2.950696    -0.671940    -0.625422
    H    -3.040902    -0.968600     1.177853
    H    -1.759290     0.963207    -0.343176
    C    -0.955448     1.617370    -0.016842
    C     0.234977     0.810079     0.481271
    C     0.830732    -0.094291    -0.590686
    C     2.048405    -0.874355    -0.119562
    O     3.122619    -0.047815     0.290863
    H    -0.690160     2.233935    -0.877875
    H    -1.354763     2.271628     0.760084
    H    -0.067302     0.189002     1.331482
    H     1.010703     1.481331     0.856101
    H     0.075563    -0.807543    -0.936470
    H     1.106813     0.506767    -1.466347
    H     1.790826    -1.474410     0.756051
    H     2.374338    -1.567737    -0.904730
    H     3.410926     0.468166    -0.463640
 18
 IRC step # -15, E = -384.606483
    O    -2.506392    -1.307163     0.443321
    O    -2.976257    -0.718415    -0.631020
    H    -3.039707    -0.967776     1.182897
    H    -1.757584     0.982817    -0.354033
    C    -0.947272     1.629401    -0.017779
    C     0.236669     0.813826     0.481003
    C     0.830624    -0.092895    -0.590843
    C     2.047661    -0.874513    -0.119815
    O     3.123345    -0.049419     0.289705
    H    -0.671022     2.251960    -0.869900
    H    -1.343739     2.281082     0.762377
    H    -0.069548     0.193174     1.331155
    H     1.014209     1.480757     0.856790
    H     0.074548    -0.804881    -0.935860
    H     1.107539     0.507527    -1.466149
    H     1.790204    -1.474107     0.755989
    H     2.371769    -1.568210    -0.905376
    H     3.409279     0.469393    -0.463795
 18
 IRC step # -16, E = -384.606565
    O    -2.508923    -1.309120     0.443373
    O    -2.978299    -0.724015    -0.630393
    H    -3.038977    -0.967891     1.182685
    H    -1.756476     0.985400    -0.354946
    C    -0.947375     1.629922    -0.017990
    C     0.236697     0.813386     0.481036
    C     0.830604    -0.092560    -0.590443
    C     2.047499    -0.874424    -0.119900
    O     3.123377    -0.049589     0.289558
    H    -0.668885     2.254230    -0.869413
    H    -1.342707     2.282218     0.762714
    H    -0.069807     0.193897     1.330779
    H     1.015059     1.480906     0.857136
    H     0.074299    -0.804637    -0.935870
    H     1.107675     0.507729    -1.466346
    H     1.790057    -1.474083     0.755999
    H     2.371466    -1.568302    -0.905467
    H     3.409043     0.469490    -0.463844
 ============================================
 Total job time:  3228.21s(wall), 50760.47s(cpu) 
 Tue Feb 13 19:10:10 2024

        *************************************************************
        *                                                           *
        *  Thank you very much for using Q-Chem.  Have a nice day.  *
        *                                                           *
        *************************************************************


