 Entering Gaussian System, Link 0=/Local/ce_dana/g09/g09
 Initial command:
 /Local/ce_dana/g09/l1.exe "/storage/ce_dana/alongd/scratch/g09/Gau-277065.inp" -scrdir="/storage/ce_dana/alongd/scratch/g09/"
 Entering Link 1 = /Local/ce_dana/g09/l1.exe PID=    277069.
  
 Copyright (c) 1988,1990,1992,1993,1995,1998,2003,2009,2013,
            Gaussian, Inc.  All Rights Reserved.
  
 This is part of the Gaussian(R) 09 program.  It is based on
 the Gaussian(R) 03 system (copyright 2003, Gaussian, Inc.),
 the Gaussian(R) 98 system (copyright 1998, Gaussian, Inc.),
 the Gaussian(R) 94 system (copyright 1995, Gaussian, Inc.),
 the Gaussian 92(TM) system (copyright 1992, Gaussian, Inc.),
 the Gaussian 90(TM) system (copyright 1990, Gaussian, Inc.),
 the Gaussian 88(TM) system (copyright 1988, Gaussian, Inc.),
 the Gaussian 86(TM) system (copyright 1986, Carnegie Mellon
 University), and the Gaussian 82(TM) system (copyright 1983,
 Carnegie Mellon University). Gaussian is a federally registered
 trademark of Gaussian, Inc.
  
 This software contains proprietary and confidential information,
 including trade secrets, belonging to Gaussian, Inc.
  
 This software is provided under written license and may be
 used, copied, transmitted, or stored only in accord with that
 written license.
  
 The following legend is applicable only to US Government
 contracts under FAR:
  
                    RESTRICTED RIGHTS LEGEND
  
 Use, reproduction and disclosure by the US Government is
 subject to restrictions as set forth in subparagraphs (a)
 and (c) of the Commercial Computer Software - Restricted
 Rights clause in FAR 52.227-19.
  
 Gaussian, Inc.
 340 Quinnipiac St., Bldg. 40, Wallingford CT 06492
  
  
 ---------------------------------------------------------------
 Warning -- This program may not be used in any manner that
 competes with the business of Gaussian, Inc. or will provide
 assistance to any competitor of Gaussian, Inc.  The licensee
 of this program is prohibited from giving any competitor of
 Gaussian, Inc. access to this program.  By using this program,
 the user acknowledges that Gaussian, Inc. is engaged in the
 business of creating and licensing software in the field of
 computational chemistry and represents and warrants to the
 licensee that it is not a competitor of Gaussian, Inc. and that
 it will not use this program in any manner prohibited above.
 ---------------------------------------------------------------
  

 Cite this work as:
 Gaussian 09, Revision D.01,
 M. J. Frisch, G. W. Trucks, H. B. Schlegel, G. E. Scuseria, 
 M. A. Robb, J. R. Cheeseman, G. Scalmani, V. Barone, B. Mennucci, 
 G. A. Petersson, H. Nakatsuji, M. Caricato, X. Li, H. P. Hratchian, 
 A. F. Izmaylov, J. Bloino, G. Zheng, J. L. Sonnenberg, M. Hada, 
 M. Ehara, K. Toyota, R. Fukuda, J. Hasegawa, M. Ishida, T. Nakajima, 
 Y. Honda, O. Kitao, H. Nakai, T. Vreven, J. A. Montgomery, Jr., 
 J. E. Peralta, F. Ogliaro, M. Bearpark, J. J. Heyd, E. Brothers, 
 K. N. Kudin, V. N. Staroverov, T. Keith, R. Kobayashi, J. Normand, 
 K. Raghavachari, A. Rendell, J. C. Burant, S. S. Iyengar, J. Tomasi, 
 M. Cossi, N. Rega, J. M. Millam, M. Klene, J. E. Knox, J. B. Cross, 
 V. Bakken, C. Adamo, J. Jaramillo, R. Gomperts, R. E. Stratmann, 
 O. Yazyev, A. J. Austin, R. Cammi, C. Pomelli, J. W. Ochterski, 
 R. L. Martin, K. Morokuma, V. G. Zakrzewski, G. A. Voth, 
 P. Salvador, J. J. Dannenberg, S. Dapprich, A. D. Daniels, 
 O. Farkas, J. B. Foresman, J. V. Ortiz, J. Cioslowski, 
 and D. J. Fox, Gaussian, Inc., Wallingford CT, 2013.
 
 ******************************************
 Gaussian 09:  ES64L-G09RevD.01 24-Apr-2013
                12-Jun-2022 
 ******************************************
 %chk=check.chk
 %mem=7168mb
 %NProcShared=10
 Will use up to   10 processors via shared memory.
 ----------------------------------------------------------------------
 #P irc=(CalcAll, reverse, maxpoints=50, stepsize=7) guess=read ub3lyp/
 cbsb7 IOp(2/9=2000) scf=xqc
 ----------------------------------------------------------------------
 1/10=4,14=-1,18=10,22=2,26=3,38=1,39=7,42=50,44=3,71=1/1,23;
 2/9=2000,12=2,17=6,18=5,29=1,40=1/2;
 3/5=4,6=6,7=700,11=2,16=1,25=1,30=1,71=2,74=-5,116=2,140=1/1,2,3;
 4/5=1/1;
 5/5=2,8=3,13=1,38=6/2,8;
 8/6=4,10=90,11=11/1;
 11/6=1,8=1,9=11,15=111,16=1/1,2,10;
 10/6=1,13=1/2;
 6/7=2,8=2,9=2,10=2,18=1,28=1/1;
 7/10=1,25=1/1,2,3,16;
 1/10=4,14=-1,18=10,22=2,26=3,39=7,42=50,44=3,71=1/23(2);
 2/9=2000,29=1/2;
 99/5=20/99;
 2/9=2000,29=1/2;
 3/5=4,6=6,7=700,11=2,16=1,25=1,30=1,71=2,74=-5,116=2,140=1/1,2,3;
 4/5=5,16=3,69=1/1;
 5/5=2,8=3,13=1,38=5/2,8;
 8/6=4,10=90,11=11/1;
 11/6=1,8=1,9=11,15=111,16=1/1,2,10;
 10/6=1,13=1/2;
 7/10=1,25=1/1,2,3,16;
 1/10=4,14=-1,18=10,22=2,26=3,39=7,42=50,44=3,71=1/23(-8);
 2/9=2000,29=1/2;
 6/7=2,8=2,9=2,10=2,18=1,19=2,28=1/1;
 99/5=20/99;
 Leave Link    1 at Sun Jun 12 00:15:07 2022, MaxMem=   939524096 cpu:         0.0
 (Enter /Local/ce_dana/g09/l101.exe)
 ---
 TS1
 ---
 Symbolic Z-matrix:
 Charge =  0 Multiplicity = 2
 O                    -0.97512   1.69354   1.01983 
 C                    -0.71802   1.02817   0.0855 
 C                    -0.45859  -0.50618  -0.03441 
 O                    -0.62575  -0.73178  -1.41019 
 O                     0.05667   0.32948  -2.03957 
 H                    -0.37414   1.19221  -1.20334 
 H                     0.57698  -0.65773   0.29594 
 H                    -1.15875  -1.12976   0.52336 
 
 NAtoms=      8 NQM=        8 NQMF=       0 NMMI=      0 NMMIF=      0
                NMic=       0 NMicF=      0.
                    Isotopes and Nuclear Properties:
 (Nuclear quadrupole moments (NQMom) in fm**2, nuclear magnetic moments (NMagM)
  in nuclear magnetons)

  Atom         1           2           3           4           5           6           7           8
 IAtWgt=          16          12          12          16          16           1           1           1
 AtmWgt=  15.9949146  12.0000000  12.0000000  15.9949146  15.9949146   1.0078250   1.0078250   1.0078250
 NucSpn=           0           0           0           0           0           1           1           1
 AtZEff=   0.0000000   0.0000000   0.0000000   0.0000000   0.0000000   0.0000000   0.0000000   0.0000000
 NQMom=    0.0000000   0.0000000   0.0000000   0.0000000   0.0000000   0.0000000   0.0000000   0.0000000
 NMagM=    0.0000000   0.0000000   0.0000000   0.0000000   0.0000000   2.7928460   2.7928460   2.7928460
 AtZNuc=   8.0000000   6.0000000   6.0000000   8.0000000   8.0000000   1.0000000   1.0000000   1.0000000
 Leave Link  101 at Sun Jun 12 00:15:07 2022, MaxMem=   939524096 cpu:         0.1
 (Enter /Local/ce_dana/g09/l123.exe)
 IRC-IRC-IRC-IRC-IRC-IRC-IRC-IRC-IRC-IRC-IRC-IRC-IRC-IRC-IRC-IRC-IRC-IRC
 ------------------------------------------------------------------------
 INPUT DATA FOR L123
 ------------------------------------------------------------------------
 GENERAL PARAMETERS:
 Rxn path following direction = Reverse
 Maximum points per path      =  50
 Step size                    =   0.070 bohr
 Integration scheme           = HPC                                 
    Redo corrector integration= Yes                                 
    DWI Weight Power          =  2
    DWI will use Hessian update vectors when possible.
    Max correction cycles     =  20
 Initial Hessian              = CalcFC
 Hessian evaluation           = Analytic at all predictor steps
                              = Update at all corrector steps
 Hessian updating method      = Bofill                              
 ------------------------------------------------------------------------
 IRC-IRC-IRC-IRC-IRC-IRC-IRC-IRC-IRC-IRC-IRC-IRC-IRC-IRC-IRC-IRC-IRC-IRC
 Leave Link  123 at Sun Jun 12 00:15:07 2022, MaxMem=   939524096 cpu:         0.0
 (Enter /Local/ce_dana/g09/l202.exe)
                          Input orientation:                          
 ---------------------------------------------------------------------
 Center     Atomic      Atomic             Coordinates (Angstroms)
 Number     Number       Type             X           Y           Z
 ---------------------------------------------------------------------
      1          8           0       -0.975117    1.693544    1.019828
      2          6           0       -0.718021    1.028168    0.085502
      3          6           0       -0.458586   -0.506183   -0.034413
      4          8           0       -0.625751   -0.731784   -1.410192
      5          8           0        0.056671    0.329477   -2.039574
      6          1           0       -0.374140    1.192211   -1.203343
      7          1           0        0.576975   -0.657727    0.295940
      8          1           0       -1.158748   -1.129757    0.523356
 ---------------------------------------------------------------------
                    Distance matrix (angstroms):
                    1          2          3          4          5
     1  O    0.000000
     2  C    1.175495   0.000000
     3  C    2.493397   1.560743   0.000000
     4  O    3.450981   2.311503   1.404140   0.000000
     5  O    3.505026   2.367333   2.232597   1.409999   0.000000
     6  H    2.356904   1.343981   2.063509   1.951372   1.276397
     7  H    2.908862   2.136245   1.097490   2.088761   2.588419
     8  H    2.872496   2.245573   1.090953   2.044768   3.189862
                    6          7          8
     6  H    0.000000
     7  H    2.564126   0.000000
     8  H    2.998105   1.813082   0.000000
 Symmetry turned off by external request.
 Stoichiometry    C2H3O3(2)
 Framework group  C1[X(C2H3O3)]
 Deg. of freedom    18
 Full point group                 C1      NOp   1
 Rotational constants (GHZ):     13.1722198      3.6157949      2.9814481
 Leave Link  202 at Sun Jun 12 00:15:07 2022, MaxMem=   939524096 cpu:         0.0
 (Enter /Local/ce_dana/g09/l301.exe)
 Standard basis: 6-311G(2d,d,p) (5D, 7F)
 Ernie: Thresh=  0.10000D-02 Tol=  0.10000D-05 Strict=F.
   108 basis functions,   184 primitive gaussians,   113 cartesian basis functions
    20 alpha electrons       19 beta electrons
       nuclear repulsion energy       169.2330354507 Hartrees.
 IExCor=  402 DFT=T Ex+Corr=B3LYP ExCW=0 ScaHFX=  0.200000
 ScaDFX=  0.800000  0.720000  1.000000  0.810000 ScalE2=  1.000000  1.000000
 IRadAn=      0 IRanWt=     -1 IRanGd=            0 ICorTp=0 IEmpDi=  4
 NAtoms=    8 NActive=    8 NUniq=    8 SFac= 1.00D+00 NAtFMM=   60 NAOKFM=F Big=F
 Integral buffers will be    131072 words long.
 Raffenetti 2 integral format.
 Two-electron integral symmetry is turned off.
 Leave Link  301 at Sun Jun 12 00:15:07 2022, MaxMem=   939524096 cpu:         0.1
 (Enter /Local/ce_dana/g09/l302.exe)
 NPDir=0 NMtPBC=     1 NCelOv=     1 NCel=       1 NClECP=     1 NCelD=      1
         NCelK=      1 NCelE2=     1 NClLst=     1 CellRange=     0.0.
 One-electron integrals computed using PRISM.
 NBasis=   108 RedAO= T EigKep=  3.28D-03  NBF=   108
 NBsUse=   108 1.00D-06 EigRej= -1.00D+00 NBFU=   108
 Precomputing XC quadrature grid using
 IXCGrd= 4 IRadAn=           0 IRanWt=          -1 IRanGd=           0 AccXCQ= 0.00D+00.
 Generated NRdTot=       0 NPtTot=           0 NUsed=           0 NTot=          32
 NSgBfM=   113   113   113   113   113 MxSgAt=     8 MxSgA2=     8.
 Leave Link  302 at Sun Jun 12 00:15:08 2022, MaxMem=   939524096 cpu:         1.3
 (Enter /Local/ce_dana/g09/l303.exe)
 DipDrv:  MaxL=1.
 Leave Link  303 at Sun Jun 12 00:15:08 2022, MaxMem=   939524096 cpu:         0.1
 (Enter /Local/ce_dana/g09/l401.exe)
 Initial guess from the checkpoint file:  "check.chk"
 B after Tr=    -0.986976    0.623442   -0.945688
         Rot=   -0.237967    0.582624    0.169735    0.758361 Ang= 207.53 deg.
 Guess basis will be translated and rotated to current coordinates.
 JPrj=2 DoOrth=T DoCkMO=T.
 Initial guess <Sx>= 0.0000 <Sy>= 0.0000 <Sz>= 0.5000 <S**2>= 0.8140 S= 0.5315
 Leave Link  401 at Sun Jun 12 00:15:08 2022, MaxMem=   939524096 cpu:         0.5
 (Enter /Local/ce_dana/g09/l502.exe)
 UHF open shell SCF:
 Using DIIS extrapolation, IDIIS=  1040.
 Two-electron integral symmetry not used.
 Keep R1 and R2 ints in memory in canonical form, NReq=35632381.
 IVT=       46073 IEndB=       46073 NGot=   939524096 MDV=   904827142
 LenX=   904827142 LenY=   904813932
 Requested convergence on RMS density matrix=1.00D-08 within  64 cycles.
 Requested convergence on MAX density matrix=1.00D-06.
 Requested convergence on             energy=1.00D-06.
 No special actions if energy rises.
 FoFCou: FMM=F IPFlag=           0 FMFlag=           0 FMFlg1=           0
         NFxFlg=           0 DoJE=F BraDBF=F KetDBF=F FulRan=T
         wScrn=  0.000000 ICntrl=     600 IOpCl=  0 I1Cent=           0 NGrid=           0
         NMat0=    1 NMatS0=   5886 NMatT0=    0 NMatD0=    1 NMtDS0=    0 NMtDT0=    0
 Symmetry not used in FoFCou.

 Cycle   1  Pass 1  IDiag  1:
 E= -303.523521232946    
 DIIS: error= 1.86D-02 at cycle   1 NSaved=   1.
 NSaved= 1 IEnMin= 1 EnMin= -303.523521232946     IErMin= 1 ErrMin= 1.86D-02
 ErrMax= 1.86D-02  0.00D+00 EMaxC= 1.00D-01 BMatC= 4.40D-01 BMatP= 4.40D-01
 IDIUse=3 WtCom= 8.14D-01 WtEn= 1.86D-01
 Coeff-Com:  0.100D+01
 Coeff-En:   0.100D+01
 Coeff:      0.100D+01
 Gap=     6.436 Goal=   None    Shift=    0.000
 Gap=     1.897 Goal=   None    Shift=    0.000
 GapD=    1.897 DampG=2.000 DampE=0.500 DampFc=1.0000 IDamp=-1.
 RMSDP=2.19D-03 MaxDP=3.93D-02              OVMax= 1.00D-01

 Cycle   2  Pass 1  IDiag  1:
 E= -303.567656898541     Delta-E=       -0.044135665595 Rises=F Damp=F
 DIIS: error= 1.04D-02 at cycle   2 NSaved=   2.
 NSaved= 2 IEnMin= 2 EnMin= -303.567656898541     IErMin= 2 ErrMin= 1.04D-02
 ErrMax= 1.04D-02  0.00D+00 EMaxC= 1.00D-01 BMatC= 4.30D-02 BMatP= 4.40D-01
 IDIUse=3 WtCom= 8.96D-01 WtEn= 1.04D-01
 Coeff-Com:  0.127D+00 0.873D+00
 Coeff-En:   0.000D+00 0.100D+01
 Coeff:      0.114D+00 0.886D+00
 Gap=     0.174 Goal=   None    Shift=    0.000
 Gap=     0.130 Goal=   None    Shift=    0.000
 RMSDP=1.41D-03 MaxDP=3.62D-02 DE=-4.41D-02 OVMax= 7.33D-02

 Cycle   3  Pass 1  IDiag  1:
 E= -303.555248513302     Delta-E=        0.012408385239 Rises=F Damp=F
 DIIS: error= 1.93D-02 at cycle   3 NSaved=   3.
 NSaved= 3 IEnMin= 2 EnMin= -303.567656898541     IErMin= 2 ErrMin= 1.04D-02
 ErrMax= 1.93D-02  0.00D+00 EMaxC= 1.00D-01 BMatC= 1.15D-01 BMatP= 4.30D-02
 IDIUse=2 WtCom= 0.00D+00 WtEn= 1.00D+00
 Coeff-En:   0.000D+00 0.673D+00 0.327D+00
 Coeff:      0.000D+00 0.673D+00 0.327D+00
 Gap=     0.176 Goal=   None    Shift=    0.000
 Gap=     0.135 Goal=   None    Shift=    0.000
 RMSDP=8.01D-04 MaxDP=1.31D-02 DE= 1.24D-02 OVMax= 5.51D-02

 Cycle   4  Pass 1  IDiag  1:
 E= -303.576963702490     Delta-E=       -0.021715189188 Rises=F Damp=F
 DIIS: error= 2.99D-03 at cycle   4 NSaved=   4.
 NSaved= 4 IEnMin= 4 EnMin= -303.576963702490     IErMin= 4 ErrMin= 2.99D-03
 ErrMax= 2.99D-03  0.00D+00 EMaxC= 1.00D-01 BMatC= 2.49D-03 BMatP= 4.30D-02
 IDIUse=3 WtCom= 9.70D-01 WtEn= 2.99D-02
 Coeff-Com: -0.366D-02 0.250D+00 0.123D+00 0.631D+00
 Coeff-En:   0.000D+00 0.000D+00 0.000D+00 0.100D+01
 Coeff:     -0.355D-02 0.242D+00 0.120D+00 0.642D+00
 Gap=     0.172 Goal=   None    Shift=    0.000
 Gap=     0.130 Goal=   None    Shift=    0.000
 RMSDP=2.73D-04 MaxDP=7.07D-03 DE=-2.17D-02 OVMax= 1.88D-02

 Cycle   5  Pass 1  IDiag  1:
 E= -303.577607976864     Delta-E=       -0.000644274374 Rises=F Damp=F
 DIIS: error= 7.59D-04 at cycle   5 NSaved=   5.
 NSaved= 5 IEnMin= 5 EnMin= -303.577607976864     IErMin= 5 ErrMin= 7.59D-04
 ErrMax= 7.59D-04  0.00D+00 EMaxC= 1.00D-01 BMatC= 4.15D-04 BMatP= 2.49D-03
 IDIUse=3 WtCom= 9.92D-01 WtEn= 7.59D-03
 Coeff-Com: -0.599D-02 0.190D-01 0.127D-01 0.254D+00 0.720D+00
 Coeff-En:   0.000D+00 0.000D+00 0.000D+00 0.000D+00 0.100D+01
 Coeff:     -0.594D-02 0.189D-01 0.126D-01 0.253D+00 0.722D+00
 Gap=     0.174 Goal=   None    Shift=    0.000
 Gap=     0.131 Goal=   None    Shift=    0.000
 RMSDP=1.35D-04 MaxDP=2.52D-03 DE=-6.44D-04 OVMax= 1.40D-02

 Cycle   6  Pass 1  IDiag  1:
 E= -303.577746203706     Delta-E=       -0.000138226842 Rises=F Damp=F
 DIIS: error= 7.98D-04 at cycle   6 NSaved=   6.
 NSaved= 6 IEnMin= 6 EnMin= -303.577746203706     IErMin= 5 ErrMin= 7.59D-04
 ErrMax= 7.98D-04  0.00D+00 EMaxC= 1.00D-01 BMatC= 3.45D-04 BMatP= 4.15D-04
 IDIUse=3 WtCom= 9.92D-01 WtEn= 7.59D-03
 Coeff-Com: -0.167D-02-0.910D-01-0.346D-01-0.497D-01 0.570D+00 0.607D+00
 Coeff-En:   0.000D+00 0.000D+00 0.000D+00 0.000D+00 0.000D+00 0.100D+01
 Coeff:     -0.166D-02-0.903D-01-0.344D-01-0.493D-01 0.566D+00 0.610D+00
 Gap=     0.173 Goal=   None    Shift=    0.000
 Gap=     0.129 Goal=   None    Shift=    0.000
 RMSDP=1.21D-04 MaxDP=2.41D-03 DE=-1.38D-04 OVMax= 1.17D-02

 Cycle   7  Pass 1  IDiag  1:
 E= -303.577855560892     Delta-E=       -0.000109357186 Rises=F Damp=F
 DIIS: error= 3.90D-04 at cycle   7 NSaved=   7.
 NSaved= 7 IEnMin= 7 EnMin= -303.577855560892     IErMin= 7 ErrMin= 3.90D-04
 ErrMax= 3.90D-04  0.00D+00 EMaxC= 1.00D-01 BMatC= 3.75D-05 BMatP= 3.45D-04
 IDIUse=3 WtCom= 9.96D-01 WtEn= 3.90D-03
 Coeff-Com:  0.634D-03-0.428D-01-0.120D-01-0.960D-01 0.868D-01 0.299D+00
 Coeff-Com:  0.765D+00
 Coeff-En:   0.000D+00 0.000D+00 0.000D+00 0.000D+00 0.000D+00 0.000D+00
 Coeff-En:   0.100D+01
 Coeff:      0.631D-03-0.426D-01-0.119D-01-0.957D-01 0.864D-01 0.298D+00
 Coeff:      0.765D+00
 Gap=     0.172 Goal=   None    Shift=    0.000
 Gap=     0.128 Goal=   None    Shift=    0.000
 RMSDP=5.71D-05 MaxDP=1.14D-03 DE=-1.09D-04 OVMax= 6.77D-03

 Cycle   8  Pass 1  IDiag  1:
 E= -303.577872487639     Delta-E=       -0.000016926747 Rises=F Damp=F
 DIIS: error= 1.62D-04 at cycle   8 NSaved=   8.
 NSaved= 8 IEnMin= 8 EnMin= -303.577872487639     IErMin= 8 ErrMin= 1.62D-04
 ErrMax= 1.62D-04  0.00D+00 EMaxC= 1.00D-01 BMatC= 1.88D-05 BMatP= 3.75D-05
 IDIUse=3 WtCom= 9.98D-01 WtEn= 1.62D-03
 Coeff-Com:  0.640D-03-0.166D-01-0.315D-02-0.652D-01-0.378D-01 0.121D+00
 Coeff-Com:  0.556D+00 0.445D+00
 Coeff-En:   0.000D+00 0.000D+00 0.000D+00 0.000D+00 0.000D+00 0.000D+00
 Coeff-En:   0.000D+00 0.100D+01
 Coeff:      0.639D-03-0.166D-01-0.315D-02-0.651D-01-0.378D-01 0.121D+00
 Coeff:      0.555D+00 0.446D+00
 Gap=     0.173 Goal=   None    Shift=    0.000
 Gap=     0.129 Goal=   None    Shift=    0.000
 RMSDP=2.05D-05 MaxDP=3.42D-04 DE=-1.69D-05 OVMax= 1.61D-03

 Cycle   9  Pass 1  IDiag  1:
 E= -303.577877810394     Delta-E=       -0.000005322755 Rises=F Damp=F
 DIIS: error= 4.84D-05 at cycle   9 NSaved=   9.
 NSaved= 9 IEnMin= 9 EnMin= -303.577877810394     IErMin= 9 ErrMin= 4.84D-05
 ErrMax= 4.84D-05  0.00D+00 EMaxC= 1.00D-01 BMatC= 1.16D-06 BMatP= 1.88D-05
 IDIUse=1 WtCom= 1.00D+00 WtEn= 0.00D+00
 Coeff-Com:  0.243D-04 0.862D-02 0.209D-02 0.118D-01-0.434D-01-0.498D-01
 Coeff-Com: -0.827D-01 0.113D+00 0.104D+01
 Coeff:      0.243D-04 0.862D-02 0.209D-02 0.118D-01-0.434D-01-0.498D-01
 Coeff:     -0.827D-01 0.113D+00 0.104D+01
 Gap=     0.173 Goal=   None    Shift=    0.000
 Gap=     0.128 Goal=   None    Shift=    0.000
 RMSDP=2.02D-05 MaxDP=2.65D-04 DE=-5.32D-06 OVMax= 2.74D-03

 Cycle  10  Pass 1  IDiag  1:
 E= -303.577879369256     Delta-E=       -0.000001558862 Rises=F Damp=F
 DIIS: error= 3.11D-05 at cycle  10 NSaved=  10.
 NSaved=10 IEnMin=10 EnMin= -303.577879369256     IErMin=10 ErrMin= 3.11D-05
 ErrMax= 3.11D-05  0.00D+00 EMaxC= 1.00D-01 BMatC= 3.48D-07 BMatP= 1.16D-06
 IDIUse=1 WtCom= 1.00D+00 WtEn= 0.00D+00
 Coeff-Com: -0.980D-04 0.495D-02 0.684D-03 0.155D-01-0.108D-01-0.286D-01
 Coeff-Com: -0.110D+00-0.693D-01 0.294D+00 0.904D+00
 Coeff:     -0.980D-04 0.495D-02 0.684D-03 0.155D-01-0.108D-01-0.286D-01
 Coeff:     -0.110D+00-0.693D-01 0.294D+00 0.904D+00
 Gap=     0.173 Goal=   None    Shift=    0.000
 Gap=     0.128 Goal=   None    Shift=    0.000
 RMSDP=8.54D-06 MaxDP=1.09D-04 DE=-1.56D-06 OVMax= 1.03D-03

 Cycle  11  Pass 1  IDiag  1:
 E= -303.577879656719     Delta-E=       -0.000000287463 Rises=F Damp=F
 DIIS: error= 1.56D-05 at cycle  11 NSaved=  11.
 NSaved=11 IEnMin=11 EnMin= -303.577879656719     IErMin=11 ErrMin= 1.56D-05
 ErrMax= 1.56D-05  0.00D+00 EMaxC= 1.00D-01 BMatC= 9.47D-08 BMatP= 3.48D-07
 IDIUse=1 WtCom= 1.00D+00 WtEn= 0.00D+00
 Coeff-Com: -0.407D-04 0.390D-03-0.164D-03 0.525D-02 0.293D-02 0.150D-02
 Coeff-Com: -0.315D-01-0.669D-01-0.105D+00 0.443D+00 0.751D+00
 Coeff:     -0.407D-04 0.390D-03-0.164D-03 0.525D-02 0.293D-02 0.150D-02
 Coeff:     -0.315D-01-0.669D-01-0.105D+00 0.443D+00 0.751D+00
 Gap=     0.173 Goal=   None    Shift=    0.000
 Gap=     0.128 Goal=   None    Shift=    0.000
 RMSDP=3.67D-06 MaxDP=5.22D-05 DE=-2.87D-07 OVMax= 5.04D-04

 Cycle  12  Pass 1  IDiag  1:
 E= -303.577879713469     Delta-E=       -0.000000056750 Rises=F Damp=F
 DIIS: error= 3.46D-06 at cycle  12 NSaved=  12.
 NSaved=12 IEnMin=12 EnMin= -303.577879713469     IErMin=12 ErrMin= 3.46D-06
 ErrMax= 3.46D-06  0.00D+00 EMaxC= 1.00D-01 BMatC= 1.15D-08 BMatP= 9.47D-08
 IDIUse=1 WtCom= 1.00D+00 WtEn= 0.00D+00
 Coeff-Com:  0.578D-05-0.734D-03-0.170D-03-0.145D-02 0.988D-03 0.718D-02
 Coeff-Com:  0.109D-01-0.971D-02-0.490D-01-0.738D-01 0.138D+00 0.978D+00
 Coeff:      0.578D-05-0.734D-03-0.170D-03-0.145D-02 0.988D-03 0.718D-02
 Coeff:      0.109D-01-0.971D-02-0.490D-01-0.738D-01 0.138D+00 0.978D+00
 Gap=     0.173 Goal=   None    Shift=    0.000
 Gap=     0.128 Goal=   None    Shift=    0.000
 RMSDP=1.37D-06 MaxDP=1.64D-05 DE=-5.67D-08 OVMax= 1.67D-04

 Cycle  13  Pass 1  IDiag  1:
 E= -303.577879720518     Delta-E=       -0.000000007049 Rises=F Damp=F
 DIIS: error= 1.43D-06 at cycle  13 NSaved=  13.
 NSaved=13 IEnMin=13 EnMin= -303.577879720518     IErMin=13 ErrMin= 1.43D-06
 ErrMax= 1.43D-06  0.00D+00 EMaxC= 1.00D-01 BMatC= 1.21D-09 BMatP= 1.15D-08
 IDIUse=1 WtCom= 1.00D+00 WtEn= 0.00D+00
 Coeff-Com:  0.515D-05-0.419D-04-0.199D-04-0.597D-03-0.534D-03 0.522D-03
 Coeff-Com:  0.363D-02 0.432D-02 0.208D-01-0.616D-01-0.870D-01-0.201D-01
 Coeff-Com:  0.114D+01
 Coeff:      0.515D-05-0.419D-04-0.199D-04-0.597D-03-0.534D-03 0.522D-03
 Coeff:      0.363D-02 0.432D-02 0.208D-01-0.616D-01-0.870D-01-0.201D-01
 Coeff:      0.114D+01
 Gap=     0.173 Goal=   None    Shift=    0.000
 Gap=     0.128 Goal=   None    Shift=    0.000
 RMSDP=4.87D-07 MaxDP=5.70D-06 DE=-7.05D-09 OVMax= 5.57D-05

 Cycle  14  Pass 1  IDiag  1:
 E= -303.577879721361     Delta-E=       -0.000000000843 Rises=F Damp=F
 DIIS: error= 4.96D-07 at cycle  14 NSaved=  14.
 NSaved=14 IEnMin=14 EnMin= -303.577879721361     IErMin=14 ErrMin= 4.96D-07
 ErrMax= 4.96D-07  0.00D+00 EMaxC= 1.00D-01 BMatC= 6.21D-11 BMatP= 1.21D-09
 IDIUse=1 WtCom= 1.00D+00 WtEn= 0.00D+00
 Coeff-Com: -0.662D-06 0.695D-04 0.700D-05 0.193D-03-0.916D-04-0.766D-03
 Coeff-Com: -0.122D-02 0.330D-03 0.553D-02 0.817D-02-0.114D-01-0.102D+00
 Coeff-Com: -0.419D-01 0.114D+01
 Coeff:     -0.662D-06 0.695D-04 0.700D-05 0.193D-03-0.916D-04-0.766D-03
 Coeff:     -0.122D-02 0.330D-03 0.553D-02 0.817D-02-0.114D-01-0.102D+00
 Coeff:     -0.419D-01 0.114D+01
 Gap=     0.173 Goal=   None    Shift=    0.000
 Gap=     0.128 Goal=   None    Shift=    0.000
 RMSDP=1.56D-07 MaxDP=2.11D-06 DE=-8.43D-10 OVMax= 1.86D-05

 Cycle  15  Pass 1  IDiag  1:
 E= -303.577879721439     Delta-E=       -0.000000000078 Rises=F Damp=F
 DIIS: error= 1.46D-07 at cycle  15 NSaved=  15.
 NSaved=15 IEnMin=15 EnMin= -303.577879721439     IErMin=15 ErrMin= 1.46D-07
 ErrMax= 1.46D-07  0.00D+00 EMaxC= 1.00D-01 BMatC= 6.81D-12 BMatP= 6.21D-11
 IDIUse=1 WtCom= 1.00D+00 WtEn= 0.00D+00
 Coeff-Com: -0.678D-06 0.145D-04 0.472D-05 0.982D-04 0.443D-04-0.163D-03
 Coeff-Com: -0.573D-03-0.530D-03-0.155D-02 0.795D-02 0.847D-02-0.122D-01
 Coeff-Com: -0.135D+00 0.168D+00 0.966D+00
 Coeff:     -0.678D-06 0.145D-04 0.472D-05 0.982D-04 0.443D-04-0.163D-03
 Coeff:     -0.573D-03-0.530D-03-0.155D-02 0.795D-02 0.847D-02-0.122D-01
 Coeff:     -0.135D+00 0.168D+00 0.966D+00
 Gap=     0.173 Goal=   None    Shift=    0.000
 Gap=     0.128 Goal=   None    Shift=    0.000
 RMSDP=4.01D-08 MaxDP=5.99D-07 DE=-7.83D-11 OVMax= 4.74D-06

 Cycle  16  Pass 1  IDiag  1:
 E= -303.577879721444     Delta-E=       -0.000000000004 Rises=F Damp=F
 DIIS: error= 6.60D-08 at cycle  16 NSaved=  16.
 NSaved=16 IEnMin=16 EnMin= -303.577879721444     IErMin=16 ErrMin= 6.60D-08
 ErrMax= 6.60D-08  0.00D+00 EMaxC= 1.00D-01 BMatC= 7.73D-13 BMatP= 6.81D-12
 IDIUse=1 WtCom= 1.00D+00 WtEn= 0.00D+00
 Coeff-Com:  0.608D-07-0.825D-05 0.385D-06-0.243D-04 0.108D-04 0.926D-04
 Coeff-Com:  0.148D-03-0.552D-04-0.701D-03-0.858D-03 0.192D-02 0.121D-01
 Coeff-Com:  0.511D-03-0.142D+00 0.302D-01 0.110D+01
 Coeff:      0.608D-07-0.825D-05 0.385D-06-0.243D-04 0.108D-04 0.926D-04
 Coeff:      0.148D-03-0.552D-04-0.701D-03-0.858D-03 0.192D-02 0.121D-01
 Coeff:      0.511D-03-0.142D+00 0.302D-01 0.110D+01
 Gap=     0.173 Goal=   None    Shift=    0.000
 Gap=     0.128 Goal=   None    Shift=    0.000
 RMSDP=1.27D-08 MaxDP=2.01D-07 DE=-4.09D-12 OVMax= 1.32D-06

 Cycle  17  Pass 1  IDiag  1:
 E= -303.577879721446     Delta-E=       -0.000000000003 Rises=F Damp=F
 DIIS: error= 1.90D-08 at cycle  17 NSaved=  17.
 NSaved=17 IEnMin=17 EnMin= -303.577879721446     IErMin=17 ErrMin= 1.90D-08
 ErrMax= 1.90D-08  0.00D+00 EMaxC= 1.00D-01 BMatC= 7.08D-14 BMatP= 7.73D-13
 IDIUse=1 WtCom= 1.00D+00 WtEn= 0.00D+00
 Coeff-Com:  0.583D-07-0.173D-05-0.552D-06-0.983D-05-0.223D-05 0.137D-04
 Coeff-Com:  0.545D-04 0.462D-04 0.164D-03-0.733D-03-0.832D-03 0.897D-03
 Coeff-Com:  0.124D-01-0.139D-01-0.891D-01 0.134D-02 0.109D+01
 Coeff:      0.583D-07-0.173D-05-0.552D-06-0.983D-05-0.223D-05 0.137D-04
 Coeff:      0.545D-04 0.462D-04 0.164D-03-0.733D-03-0.832D-03 0.897D-03
 Coeff:      0.124D-01-0.139D-01-0.891D-01 0.134D-02 0.109D+01
 Gap=     0.173 Goal=   None    Shift=    0.000
 Gap=     0.128 Goal=   None    Shift=    0.000
 RMSDP=3.72D-09 MaxDP=6.66D-08 DE=-2.84D-12 OVMax= 3.23D-07

 SCF Done:  E(UB3LYP) =  -303.577879721     A.U. after   17 cycles
            NFock= 17  Conv=0.37D-08     -V/T= 2.0026
 <Sx>= 0.0000 <Sy>= 0.0000 <Sz>= 0.5000 <S**2>= 0.7567 S= 0.5033
 <L.S>=  0.00000000000    
 KE= 3.027782265968D+02 PE=-1.052990773678D+03 EE= 2.774016319089D+02
 Annihilation of the first spin contaminant:
 S**2 before annihilation     0.7567,   after     0.7500
 Leave Link  502 at Sun Jun 12 00:15:14 2022, MaxMem=   939524096 cpu:        46.8
 (Enter /Local/ce_dana/g09/l508.exe)
 QCSCF skips out because SCF is already converged.
 Leave Link  508 at Sun Jun 12 00:15:14 2022, MaxMem=   939524096 cpu:         0.0
 (Enter /Local/ce_dana/g09/l801.exe)
 DoSCS=F DFT=T ScalE2(SS,OS)=  1.000000  1.000000
 Range of M.O.s used for correlation:     1   108
 NBasis=   108 NAE=    20 NBE=    19 NFC=     0 NFV=     0
 NROrb=    108 NOA=    20 NOB=    19 NVA=    88 NVB=    89
 Leave Link  801 at Sun Jun 12 00:15:14 2022, MaxMem=   939524096 cpu:         0.0
 (Enter /Local/ce_dana/g09/l1101.exe)
 Using compressed storage, NAtomX=     8.
 Will process      9 centers per pass.
 Leave Link 1101 at Sun Jun 12 00:15:14 2022, MaxMem=   939524096 cpu:         1.3
 (Enter /Local/ce_dana/g09/l1102.exe)
 Symmetrizing basis deriv contribution to polar:
 IMax=3 JMax=2 DiffMx= 0.00D+00
 Leave Link 1102 at Sun Jun 12 00:15:14 2022, MaxMem=   939524096 cpu:         0.0
 (Enter /Local/ce_dana/g09/l1110.exe)
 Forming Gx(P) for the SCF density, NAtomX=     8.
 Integral derivatives from FoFJK, PRISM(SPDF).
 Do as many integral derivatives as possible in FoFJK.
 G2DrvN: MDV=     939523928.
 G2DrvN: will do     9 centers at a time, making    1 passes.
 Calling FoFCou, ICntrl=  3107 FMM=F I1Cent=   0 AccDes= 0.00D+00.
 FoFJK:  IHMeth= 1 ICntrl=    3107 DoSepK=F KAlg= 0 I1Cent=   0 FoldK=F
 IRaf=         0 NMat=   1 IRICut=       1 DoRegI=T DoRafI=F ISym2E= 0.
 FoFCou: FMM=F IPFlag=           0 FMFlag=      100000 FMFlg1=           0
         NFxFlg=           0 DoJE=F BraDBF=F KetDBF=F FulRan=T
         wScrn=  0.000000 ICntrl=    3107 IOpCl=  1 I1Cent=           0 NGrid=           0
         NMat0=    1 NMatS0=      1 NMatT0=    0 NMatD0=    1 NMtDS0=    0 NMtDT0=    0
 Symmetry not used in FoFCou.
 End of G2Drv F.D. properties file   721 does not exist.
 End of G2Drv F.D. properties file   722 does not exist.
 End of G2Drv F.D. properties file   788 does not exist.
 Leave Link 1110 at Sun Jun 12 00:15:19 2022, MaxMem=   939524096 cpu:        52.4
 (Enter /Local/ce_dana/g09/l1002.exe)
 Minotr:  UHF open shell wavefunction.
          IDoAtm=11111111
          Direct CPHF calculation.
          Differentiating once with respect to nuclear coordinates.
          Requested convergence is 1.0D-08 RMS, and 1.0D-07 maximum.
          Secondary convergence is 1.0D-12 RMS, and 1.0D-12 maximum.
          NewPWx=T KeepS1=F KeepF1=F KeepIn=T MapXYZ=F SortEE=F KeepMc=T.
          MDV=     939523796 using IRadAn=       2.
 Generate precomputed XC quadrature information.
 Keep R1 and R2 ints in memory in canonical form, NReq=35587770.
 FoFCou: FMM=F IPFlag=           0 FMFlag=           0 FMFlg1=           0
         NFxFlg=           0 DoJE=F BraDBF=F KetDBF=F FulRan=T
         wScrn=  0.000000 ICntrl=     600 IOpCl=  0 I1Cent=           0 NGrid=           0
         NMat0=    1 NMatS0=   5886 NMatT0=    0 NMatD0=    1 NMtDS0=    0 NMtDT0=    0
 Symmetry not used in FoFCou.
          Solving linear equations simultaneously, MaxMat=       0.
          There are    27 degrees of freedom in the 1st order CPHF.  IDoFFX=6 NUNeed=     0.
     21 vectors produced by pass  0 Test12= 1.28D-14 3.70D-09 XBig12= 2.00D-01 1.45D-01.
 AX will form    21 AO Fock derivatives at one time.
     21 vectors produced by pass  1 Test12= 1.28D-14 3.70D-09 XBig12= 2.10D-02 3.29D-02.
     21 vectors produced by pass  2 Test12= 1.28D-14 3.70D-09 XBig12= 7.85D-04 6.79D-03.
     21 vectors produced by pass  3 Test12= 1.28D-14 3.70D-09 XBig12= 1.69D-05 7.95D-04.
     21 vectors produced by pass  4 Test12= 1.28D-14 3.70D-09 XBig12= 2.79D-07 9.29D-05.
     21 vectors produced by pass  5 Test12= 1.28D-14 3.70D-09 XBig12= 2.24D-09 6.72D-06.
     20 vectors produced by pass  6 Test12= 1.28D-14 3.70D-09 XBig12= 1.12D-11 5.52D-07.
     15 vectors produced by pass  7 Test12= 1.28D-14 3.70D-09 XBig12= 5.61D-14 2.80D-08.
 InvSVY:  IOpt=1 It=  1 EMax= 1.55D-15
 Solved reduced A of dimension   161 with    21 vectors.
 End of Minotr F.D. properties file   721 does not exist.
 End of Minotr F.D. properties file   722 does not exist.
 End of Minotr F.D. properties file   788 does not exist.
 Leave Link 1002 at Sun Jun 12 00:15:27 2022, MaxMem=   939524096 cpu:        73.2
 (Enter /Local/ce_dana/g09/l601.exe)
 Copying SCF densities to generalized density rwf, IOpCl= 1 IROHF=0.

 **********************************************************************

            Population analysis using the SCF density.

 **********************************************************************

 Alpha  occ. eigenvalues --  -19.21494 -19.20211 -19.18112 -10.30692 -10.27602
 Alpha  occ. eigenvalues --   -1.16440  -1.13499  -0.90442  -0.76093  -0.60878
 Alpha  occ. eigenvalues --   -0.55850  -0.53162  -0.52109  -0.47205  -0.45861
 Alpha  occ. eigenvalues --   -0.42239  -0.40549  -0.36688  -0.28213  -0.24091
 Alpha virt. eigenvalues --   -0.06813   0.02037   0.04342   0.07719   0.11813
 Alpha virt. eigenvalues --    0.12692   0.19083   0.21144   0.33571   0.36067
 Alpha virt. eigenvalues --    0.37244   0.39984   0.43565   0.44719   0.53356
 Alpha virt. eigenvalues --    0.55076   0.58285   0.62437   0.66738   0.71272
 Alpha virt. eigenvalues --    0.75067   0.76227   0.79744   0.85278   0.86606
 Alpha virt. eigenvalues --    0.89901   0.90568   0.98810   1.13553   1.14330
 Alpha virt. eigenvalues --    1.15215   1.33970   1.35663   1.38283   1.42480
 Alpha virt. eigenvalues --    1.45503   1.47453   1.48910   1.57483   1.58490
 Alpha virt. eigenvalues --    1.63938   1.65136   1.73907   1.88997   1.93754
 Alpha virt. eigenvalues --    2.01290   2.07951   2.25986   2.31733   2.33396
 Alpha virt. eigenvalues --    2.45141   2.48530   2.53836   2.57117   2.60708
 Alpha virt. eigenvalues --    2.64417   2.69730   2.79483   2.81504   2.84007
 Alpha virt. eigenvalues --    2.90081   2.95003   3.09657   3.15635   3.25702
 Alpha virt. eigenvalues --    3.30371   3.32235   3.44375   3.49282   3.59635
 Alpha virt. eigenvalues --    3.68473   3.74844   3.88536   3.95843   4.65633
 Alpha virt. eigenvalues --    4.73558   4.82466   4.84768   4.92782   4.97862
 Alpha virt. eigenvalues --    5.26857   5.49775   5.69105  23.71553  23.75171
 Alpha virt. eigenvalues --   49.73196  49.77909  49.88944
  Beta  occ. eigenvalues --  -19.21167 -19.19523 -19.17005 -10.30286 -10.27385
  Beta  occ. eigenvalues --   -1.15296  -1.12295  -0.88571  -0.74756  -0.59254
  Beta  occ. eigenvalues --   -0.54346  -0.52671  -0.50679  -0.45625  -0.44687
  Beta  occ. eigenvalues --   -0.41330  -0.37333  -0.33889  -0.26560
  Beta virt. eigenvalues --   -0.13712  -0.06003   0.02837   0.04577   0.07927
  Beta virt. eigenvalues --    0.12384   0.13458   0.19943   0.22401   0.34328
  Beta virt. eigenvalues --    0.36457   0.37637   0.40228   0.44158   0.45363
  Beta virt. eigenvalues --    0.53794   0.55331   0.58999   0.63309   0.67440
  Beta virt. eigenvalues --    0.71623   0.75482   0.77233   0.80228   0.85920
  Beta virt. eigenvalues --    0.88368   0.90360   0.91306   0.99892   1.14059
  Beta virt. eigenvalues --    1.15192   1.15985   1.34413   1.36684   1.38950
  Beta virt. eigenvalues --    1.43173   1.45939   1.47987   1.49467   1.57799
  Beta virt. eigenvalues --    1.58827   1.64161   1.65560   1.74565   1.89963
  Beta virt. eigenvalues --    1.94446   2.01429   2.09331   2.26555   2.32335
  Beta virt. eigenvalues --    2.33635   2.45519   2.49084   2.54611   2.57601
  Beta virt. eigenvalues --    2.61461   2.64956   2.70761   2.81175   2.83090
  Beta virt. eigenvalues --    2.85268   2.92434   2.95946   3.10800   3.17048
  Beta virt. eigenvalues --    3.26319   3.32031   3.32692   3.46382   3.50385
  Beta virt. eigenvalues --    3.60611   3.69493   3.76019   3.88862   3.96506
  Beta virt. eigenvalues --    4.66182   4.74768   4.83159   4.85968   4.95556
  Beta virt. eigenvalues --    5.01542   5.27362   5.50478   5.69756  23.71819
  Beta virt. eigenvalues --   23.75587  49.74069  49.78460  49.89621
          Condensed to atoms (all electrons):
               1          2          3          4          5          6
     1  O    7.667743   0.571856  -0.048336   0.001677   0.001178  -0.018778
     2  C    0.571856   5.002392   0.215321  -0.019724  -0.093924   0.275553
     3  C   -0.048336   0.215321   5.028747   0.220649  -0.049982  -0.090328
     4  O    0.001677  -0.019724   0.220649   7.990928   0.078240  -0.042321
     5  O    0.001178  -0.093924  -0.049982   0.078240   8.166366   0.137009
     6  H   -0.018778   0.275553  -0.090328  -0.042321   0.137009   0.521273
     7  H    0.001230  -0.035016   0.363908  -0.031819   0.007972   0.000144
     8  H    0.002438  -0.019523   0.375020  -0.018811   0.004532   0.003231
               7          8
     1  O    0.001230   0.002438
     2  C   -0.035016  -0.019523
     3  C    0.363908   0.375020
     4  O   -0.031819  -0.018811
     5  O    0.007972   0.004532
     6  H    0.000144   0.003231
     7  H    0.560792  -0.019048
     8  H   -0.019048   0.517059
          Atomic-Atomic Spin Densities.
               1          2          3          4          5          6
     1  O    0.325869  -0.096000  -0.007663  -0.000204   0.000977  -0.002926
     2  C   -0.096000   0.324692  -0.021119   0.014885  -0.049187   0.055154
     3  C   -0.007663  -0.021119   0.144223  -0.020134   0.019383   0.003844
     4  O   -0.000204   0.014885  -0.020134   0.147580  -0.046930   0.006322
     5  O    0.000977  -0.049187   0.019383  -0.046930   0.467846  -0.031566
     6  H   -0.002926   0.055154   0.003844   0.006322  -0.031566  -0.056739
     7  H    0.002304   0.008028  -0.025183  -0.005298  -0.001853   0.004221
     8  H    0.001437  -0.000081  -0.006716  -0.000140  -0.000645   0.000205
               7          8
     1  O    0.002304   0.001437
     2  C    0.008028  -0.000081
     3  C   -0.025183  -0.006716
     4  O   -0.005298  -0.000140
     5  O   -0.001853  -0.000645
     6  H    0.004221   0.000205
     7  H    0.033026   0.006056
     8  H    0.006056  -0.000837
 Mulliken charges and spin densities:
               1          2
     1  O   -0.179008   0.223795
     2  C    0.103064   0.236372
     3  C   -0.014998   0.086634
     4  O   -0.178819   0.096081
     5  O   -0.251392   0.358026
     6  H    0.214216  -0.021486
     7  H    0.151835   0.021299
     8  H    0.155101  -0.000721
 Sum of Mulliken charges =  -0.00000   1.00000
 Mulliken charges and spin densities with hydrogens summed into heavy atoms:
               1          2
     1  O   -0.179008   0.223795
     2  C    0.103064   0.236372
     3  C    0.291939   0.107212
     4  O   -0.178819   0.096081
     5  O   -0.037176   0.336540
 APT charges:
               1
     1  O    0.371084
     2  C   -0.486133
     3  C   -0.416421
     4  O   -0.033014
     5  O   -0.248700
     6  H    0.182953
     7  H    0.235219
     8  H    0.395012
 Sum of APT charges =  -0.00000
 APT charges with hydrogens summed into heavy atoms:
               1
     1  O    0.371084
     2  C   -0.486133
     3  C    0.213810
     4  O   -0.033014
     5  O   -0.065747
 Electronic spatial extent (au):  <R**2>=            481.4725
 Charge=             -0.0000 electrons
 Dipole moment (field-independent basis, Debye):
    X=              0.0302    Y=             -0.8157    Z=              2.1485  Tot=              2.2983
 Quadrupole moment (field-independent basis, Debye-Ang):
   XX=            -27.9162   YY=            -29.6438   ZZ=            -35.6881
   XY=              1.1001   XZ=              0.4046   YZ=             -3.4412
 Traceless Quadrupole moment (field-independent basis, Debye-Ang):
   XX=              3.1665   YY=              1.4389   ZZ=             -4.6054
   XY=              1.1001   XZ=              0.4046   YZ=             -3.4412
 Octapole moment (field-independent basis, Debye-Ang**2):
  XXX=             43.3564  YYY=            -31.3331  ZZZ=             52.1417  XYY=             17.1054
  XXY=            -10.7650  XXZ=             14.0821  XZZ=             17.0857  YZZ=            -10.5809
  YYZ=              9.9501  XYZ=              3.6617
 Hexadecapole moment (field-independent basis, Debye-Ang**3):
 XXXX=            -93.6065 YYYY=           -197.1862 ZZZZ=           -294.6131 XXXY=             26.2727
 XXXZ=              3.2692 YYYX=             32.0719 YYYZ=            -39.0342 ZZZX=              2.8891
 ZZZY=            -30.5275 XXYY=            -48.5883 XXZZ=            -62.7445 YYZZ=            -78.7911
 XXYZ=            -13.1445 YYXZ=              3.5427 ZZXY=              9.6570
 N-N= 1.692330354507D+02 E-N=-1.052990773696D+03  KE= 3.027782265968D+02
  Exact polarizability:   0.000   0.000   0.000   0.000   0.000   0.000
 Approx polarizability:  37.597  -3.784  63.612 -17.712  19.358  86.065
                          Isotropic Fermi Contact Couplings
        Atom                 a.u.       MegaHertz       Gauss      10(-4) cm-1
     1  O(17)              0.02431     -14.73557      -5.25802      -4.91526
     2  C(13)              0.06342      71.29514      25.43988      23.78150
     3  C(13)              0.02605      29.28817      10.45075       9.76948
     4  O(17)              0.05012     -30.38286     -10.84136     -10.13463
     5  O(17)              0.02834     -17.17925      -6.12998      -5.73038
     6  H(1)              -0.01581     -70.64655     -25.20844     -23.56515
     7  H(1)               0.00507      22.66976       8.08913       7.56182
     8  H(1)              -0.00111      -4.96287      -1.77087      -1.65543
 --------------------------------------------------------
       Center         ----  Spin Dipole Couplings  ----
                      3XX-RR        3YY-RR        3ZZ-RR
 --------------------------------------------------------
     1   Atom       -0.558247      0.316845      0.241403
     2   Atom       -0.190770     -0.007421      0.198190
     3   Atom       -0.090436      0.147563     -0.057126
     4   Atom        0.148688      0.113675     -0.262363
     5   Atom       -0.197743      0.577010     -0.379268
     6   Atom       -0.051914     -0.027029      0.078943
     7   Atom        0.006707     -0.001815     -0.004891
     8   Atom       -0.004783      0.008774     -0.003992
 --------------------------------------------------------
                        XY            XZ            YZ
 --------------------------------------------------------
     1   Atom       -0.021944      0.014310     -0.839389
     2   Atom        0.009944     -0.026570     -0.242903
     3   Atom       -0.059203     -0.027298      0.084564
     4   Atom       -0.439076     -0.078584      0.089367
     5   Atom       -0.998872     -0.575516      0.831361
     6   Atom       -0.023363     -0.059262      0.059342
     7   Atom       -0.006031      0.007758     -0.001331
     8   Atom        0.008652     -0.009476     -0.006282
 --------------------------------------------------------


 ---------------------------------------------------------------------------------
              Anisotropic Spin Dipole Couplings in Principal Axis System
 ---------------------------------------------------------------------------------

       Atom             a.u.   MegaHertz   Gauss  10(-4) cm-1        Axes

              Baa    -0.5649    40.872    14.584    13.634  0.6131  0.5527  0.5645
     1 O(17)  Bbb    -0.5549    40.152    14.327    13.393  0.7899 -0.4149 -0.4516
              Bcc     1.1198   -81.025   -28.912   -27.027 -0.0153  0.7228 -0.6909
 
              Baa    -0.1938   -26.001    -9.278    -8.673  0.9686  0.1765  0.1750
     2 C(13)  Bbb    -0.1668   -22.380    -7.986    -7.465 -0.2434  0.8155  0.5250
              Bcc     0.3605    48.380    17.263    16.138 -0.0501 -0.5512  0.8329
 
              Baa    -0.1069   -14.344    -5.118    -4.785  0.9377  0.1085  0.3300
     3 C(13)  Bbb    -0.0860   -11.538    -4.117    -3.849 -0.2659 -0.3871  0.8829
              Bcc     0.1929    25.882     9.235     8.633 -0.2235  0.9156  0.3341
 
              Baa    -0.3113    22.523     8.037     7.513  0.6345  0.7165 -0.2898
     4 O(17)  Bbb    -0.2759    19.963     7.123     6.659  0.2983  0.1189  0.9470
              Bcc     0.5872   -42.487   -15.160   -14.172  0.7131 -0.6873 -0.1383
 
              Baa    -0.8827    63.873    22.792    21.306  0.8573  0.4786  0.1896
     5 O(17)  Bbb    -0.8601    62.233    22.206    20.759  0.0648 -0.4656  0.8826
              Bcc     1.7428  -126.106   -44.998   -42.064 -0.5107  0.7444  0.4301
 
              Baa    -0.0748   -39.894   -14.235   -13.307  0.9352  0.0183  0.3535
     6 H(1)   Bbb    -0.0533   -28.413   -10.138    -9.477  0.1187  0.9246 -0.3618
              Bcc     0.1280    68.307    24.374    22.785 -0.3335  0.3804  0.8626
 
              Baa    -0.0092    -4.903    -1.749    -1.635 -0.5017 -0.2615  0.8246
     7 H(1)   Bbb    -0.0038    -2.048    -0.731    -0.683  0.2080  0.8888  0.4084
              Bcc     0.0130     6.950     2.480     2.318  0.8397 -0.3763  0.3915
 
              Baa    -0.0141    -7.513    -2.681    -2.506  0.7578 -0.1101  0.6431
     8 H(1)   Bbb    -0.0036    -1.922    -0.686    -0.641 -0.4455  0.6328  0.6333
              Bcc     0.0177     9.436     3.367     3.147  0.4767  0.7664 -0.4305
 

 ---------------------------------------------------------------------------------

 No NMR shielding tensors so no spin-rotation constants.
 Leave Link  601 at Sun Jun 12 00:15:27 2022, MaxMem=   939524096 cpu:         2.2
 (Enter /Local/ce_dana/g09/l701.exe)
 Compute integral second derivatives.
 ... and contract with generalized density number  0.
 Leave Link  701 at Sun Jun 12 00:15:28 2022, MaxMem=   939524096 cpu:         1.4
 (Enter /Local/ce_dana/g09/l702.exe)
 L702 exits ... SP integral derivatives will be done elsewhere.
 Leave Link  702 at Sun Jun 12 00:15:28 2022, MaxMem=   939524096 cpu:         0.0
 (Enter /Local/ce_dana/g09/l703.exe)
 Compute integral second derivatives, UseDBF=F ICtDFT=           0.
 Integral derivatives from FoFJK, PRISM(SPDF).
 Calling FoFJK, ICntrl=    100127 FMM=F ISym2X=0 I1Cent= 0 IOpClX= 1 NMat=1 NMatS=1 NMatT=0.
 FoFJK:  IHMeth= 1 ICntrl=  100127 DoSepK=F KAlg= 0 I1Cent=   0 FoldK=F
 IRaf=         0 NMat=   1 IRICut=       1 DoRegI=T DoRafI=F ISym2E= 0.
 FoFCou: FMM=F IPFlag=           0 FMFlag=      100000 FMFlg1=         800
         NFxFlg=           0 DoJE=F BraDBF=F KetDBF=F FulRan=T
         wScrn=  0.000000 ICntrl=  100127 IOpCl=  1 I1Cent=           0 NGrid=           0
         NMat0=    1 NMatS0=      1 NMatT0=    0 NMatD0=    1 NMtDS0=    0 NMtDT0=    0
 Symmetry not used in FoFCou.
 Leave Link  703 at Sun Jun 12 00:15:35 2022, MaxMem=   939524096 cpu:        67.6
 (Enter /Local/ce_dana/g09/l716.exe)
 Dipole        = 1.18761590D-02-3.20919506D-01 8.45291237D-01
 Polarizability= 0.00000000D+00 0.00000000D+00 0.00000000D+00
                 0.00000000D+00 0.00000000D+00 0.00000000D+00
 -------------------------------------------------------------------
 Center     Atomic                   Forces (Hartrees/Bohr)
 Number     Number              X              Y              Z
 -------------------------------------------------------------------
      1        8          -0.000010359    0.000006989    0.000018675
      2        6           0.000020766   -0.000020071   -0.000006520
      3        6           0.000020250    0.000014428    0.000012174
      4        8          -0.000009731    0.000000496   -0.000012866
      5        8           0.000011023   -0.000008187    0.000016327
      6        1          -0.000025279    0.000000681   -0.000020849
      7        1          -0.000002607    0.000002425   -0.000003916
      8        1          -0.000004062    0.000003239   -0.000003025
 -------------------------------------------------------------------
 Cartesian Forces:  Max     0.000025279 RMS     0.000012913
 Z-matrix is all fixed cartesians, so copy forces.
 Force constants in Cartesian coordinates: 
                1             2             3             4             5 
      1  0.620274D-01
      2 -0.122329D+00  0.352426D+00
      3 -0.168410D+00  0.424706D+00  0.623218D+00
      4 -0.795593D-01  0.105765D+00  0.156656D+00  0.171927D+00
      5  0.107844D+00 -0.323484D+00 -0.389395D+00 -0.111572D+00  0.471957D+00
      6  0.153218D+00 -0.381544D+00 -0.610849D+00 -0.157255D+00  0.389118D+00
      7  0.774706D-02  0.132421D-01  0.750878D-02 -0.546058D-01 -0.110095D-03
      8  0.947502D-02 -0.325964D-01 -0.262717D-01 -0.420391D-02 -0.603238D-01
      9  0.114458D-01 -0.328260D-01 -0.417403D-02 -0.989627D-02  0.212461D-01
     10  0.110454D-02  0.181443D-03 -0.966281D-02  0.163258D-02  0.152520D-03
     11  0.538952D-02 -0.125007D-02 -0.713062D-02 -0.109610D-01 -0.466109D-01
     12 -0.161696D-02  0.537623D-03  0.126819D-01  0.716700D-02 -0.442854D-01
     13 -0.156762D-02 -0.598832D-03  0.116696D-01 -0.354766D-02  0.300919D-02
     14 -0.428621D-02  0.254281D-02  0.896970D-02  0.309180D-01  0.537361D-02
     15 -0.508892D-02  0.686194D-03 -0.115810D-01  0.394795D-01 -0.256226D-02
     16  0.998784D-02  0.487482D-02  0.245463D-02 -0.331102D-01 -0.100265D-01
     17  0.468560D-02  0.450060D-03 -0.912821D-02 -0.219637D-01 -0.220137D-01
     18  0.110050D-01 -0.113222D-01 -0.105590D-01 -0.346459D-01  0.212856D-01
     19  0.425186D-03  0.112707D-03  0.593230D-03 -0.646912D-02  0.556539D-02
     20 -0.187230D-02 -0.247040D-03 -0.880017D-03  0.265427D-01 -0.135944D-01
     21 -0.230167D-03 -0.467126D-03  0.727667D-03  0.176364D-02  0.342733D-02
     22 -0.165035D-03 -0.124818D-02 -0.810085D-03  0.373293D-02  0.513726D-02
     23  0.109355D-02  0.215831D-02 -0.870270D-03 -0.145255D-01 -0.113037D-01
     24 -0.323073D-03  0.230227D-03  0.535019D-03 -0.326903D-02  0.116542D-02
                6             7             8             9            10 
      6  0.731596D+00
      7 -0.138186D-02  0.553000D+00
      8  0.356354D-01  0.888959D-01  0.387956D+00
      9 -0.361488D-01 -0.224261D-01 -0.100027D+00  0.461708D+00
     10  0.287978D-01 -0.770067D-01 -0.227848D-01 -0.355356D-01  0.140973D+00
     11 -0.940070D-02 -0.317345D-01 -0.681248D-01 -0.260929D-01  0.116250D+00
     12 -0.661539D-01 -0.488401D-01 -0.387172D-01 -0.182034D+00  0.115668D-01
     13  0.169294D-01 -0.194941D-03  0.379230D-03  0.240861D-01 -0.820959D-01
     14 -0.104293D+00 -0.723465D-02 -0.162496D-01  0.386350D-01 -0.779827D-01
     15 -0.581420D-01  0.286543D-01  0.299932D-01 -0.448208D-01  0.357414D-01
     16 -0.360450D-01  0.134920D-01  0.273633D-03  0.478594D-02  0.109570D-01
     17  0.556380D-01  0.120904D-02 -0.251307D-01  0.191279D-03 -0.113907D-01
     18  0.384421D-01  0.100833D-01  0.204557D-01 -0.241376D-01 -0.184805D-01
     19 -0.221513D-02 -0.277867D+00  0.323252D-01 -0.599316D-01  0.200587D-02
     20  0.331249D-02  0.451352D-01 -0.476678D-01  0.197002D-01 -0.121776D-01
     21 -0.269177D-04 -0.536856D-01  0.111597D-01 -0.583202D-01 -0.344416D-01
     22 -0.204797D-02 -0.164565D+00 -0.104360D+00  0.874717D-01  0.242933D-02
     23  0.115339D-01 -0.109403D+00 -0.137863D+00  0.791736D-01  0.775194D-02
     24  0.128208D-02  0.800872D-01  0.677722D-01 -0.112072D+00  0.220144D-01
               11            12            13            14            15 
     11  0.278432D+00
     12  0.173812D-01  0.355280D+00
     13 -0.776355D-01  0.500002D-01  0.102553D+00
     14 -0.122100D+00  0.631240D-01  0.854750D-01  0.106284D+00
     15  0.317190D-01 -0.868313D-01 -0.940431D-01 -0.865078D-01  0.181629D+00
     16 -0.168330D-02 -0.788954D-02 -0.205408D-01 -0.290783D-01 -0.366952D-02
     17 -0.502627D-01  0.150127D-01 -0.107024D-01  0.266943D-01  0.266972D-01
     18 -0.341821D-01  0.183997D-01 -0.851543D-02  0.883119D-01  0.221052D-01
     19 -0.293677D-02 -0.108170D-01  0.175630D-02 -0.125095D-02  0.537541D-03
     20  0.425524D-02 -0.963414D-02  0.136347D-02 -0.520683D-03  0.273414D-02
     21  0.327836D-02 -0.316971D-01 -0.192600D-03 -0.574308D-02  0.553801D-02
     22  0.331166D-02  0.429663D-03  0.363712D-02  0.343980D-02 -0.161114D-02
     23  0.566056D-02 -0.341877D-02 -0.129014D-02 -0.202484D-02 -0.275965D-02
     24  0.244278D-01 -0.196454D-01  0.658987D-04 -0.249717D-02 -0.789771D-02
               16            17            18            19            20 
     16  0.197954D-01
     17  0.377225D-01  0.695300D-01
     18  0.417171D-01 -0.892460D-01 -0.478712D-01
     19 -0.523757D-03  0.107826D-02  0.177559D-02  0.295066D+00
     20 -0.275630D-02  0.100284D-02 -0.185228D-03 -0.388985D-01  0.516102D-01
     21 -0.149349D-02  0.101516D-02  0.173618D-02  0.748767D-01 -0.987290D-02
     22 -0.575146D-04 -0.638521D-03 -0.293923D-02 -0.143929D-01 -0.173366D-01
     23  0.673478D-03 -0.270122D-03  0.488232D-02  0.400471D-02  0.516165D-02
     24  0.139930D-03 -0.180180D-03  0.188464D-02 -0.481936D-02 -0.517453D-02
               21            22            23            24 
     21  0.756177D-01
     22  0.134030D-01  0.169381D+00
     23 -0.279740D-02  0.111695D+00  0.138481D+00
     24  0.642468D-02 -0.938959D-01 -0.857437D-01  0.129489D+00
 Leave Link  716 at Sun Jun 12 00:15:35 2022, MaxMem=   939524096 cpu:         0.1
 (Enter /Local/ce_dana/g09/l123.exe)
 IRC-IRC-IRC-IRC-IRC-IRC-IRC-IRC-IRC-IRC-IRC-IRC-IRC-IRC-IRC-IRC-IRC-IRC
          ******** Start new reaction path calculation ********
 Current Structure is TS -> form Hessian eigenvectors.
                            Diagonalizing Hessian.
 Supplied step size of   0.0700 bohr.
    Integration on MW PES will use step size of   0.0724 sqrt(amu)*bohr.
 Point Number:   0          Path Number:   1
 Calculating another point on the path.
 Point Number  1 in REVERSE path direction.
 Using LQA Reaction Path Following.
 IRC-IRC-IRC-IRC-IRC-IRC-IRC-IRC-IRC-IRC-IRC-IRC-IRC-IRC-IRC-IRC-IRC-IRC
 Leave Link  123 at Sun Jun 12 00:15:35 2022, MaxMem=   939524096 cpu:         0.0
 (Enter /Local/ce_dana/g09/l202.exe)
                          Input orientation:                          
 ---------------------------------------------------------------------
 Center     Atomic      Atomic             Coordinates (Angstroms)
 Number     Number       Type             X           Y           Z
 ---------------------------------------------------------------------
      1          8           0       -0.444791    1.342663    1.534867
      2          6           0       -0.187134    0.677362    0.599402
      3          6           0        0.071730   -0.857106    0.481094
      4          8           0       -0.095033   -1.081916   -0.895435
      5          8           0        0.587210   -0.023065   -1.525077
      6          1           0        0.142806    0.858450   -0.658319
      7          1           0        1.107222   -1.008956    0.810694
      8          1           0       -0.627998   -1.481496    1.038189
 ---------------------------------------------------------------------
                    Distance matrix (angstroms):
                    1          2          3          4          5
     1  O    0.000000
     2  C    1.176480   0.000000
     3  C    2.493233   1.560641   0.000000
     4  O    3.450692   2.310428   1.404699   0.000000
     5  O    3.506208   2.367196   2.232950   1.408215   0.000000
     6  H    2.321594   1.312827   2.060690   1.969215   1.313709
     7  H    2.909171   2.136274   1.097241   2.088448   2.588092
     8  H    2.873347   2.246678   1.090797   2.045145   3.189684
                    6          7          8
     6  H    0.000000
     7  H    2.564235   0.000000
     8  H    2.991258   1.812742   0.000000
 Symmetry turned off by external request.
 Stoichiometry    C2H3O3(2)
 Framework group  C1[X(C2H3O3)]
 Deg. of freedom    18
 Full point group                 C1      NOp   1
 Rotational constants (GHZ):     13.1859186      3.6151203      2.9816511
 Leave Link  202 at Sun Jun 12 00:15:35 2022, MaxMem=   939524096 cpu:         0.0
 (Enter /Local/ce_dana/g09/l301.exe)
 Standard basis: 6-311G(2d,d,p) (5D, 7F)
 Ernie: Thresh=  0.10000D-02 Tol=  0.10000D-05 Strict=F.
   108 basis functions,   184 primitive gaussians,   113 cartesian basis functions
    20 alpha electrons       19 beta electrons
       nuclear repulsion energy       169.2131609687 Hartrees.
 IExCor=  402 DFT=T Ex+Corr=B3LYP ExCW=0 ScaHFX=  0.200000
 ScaDFX=  0.800000  0.720000  1.000000  0.810000 ScalE2=  1.000000  1.000000
 IRadAn=      0 IRanWt=     -1 IRanGd=            0 ICorTp=0 IEmpDi=  4
 NAtoms=    8 NActive=    8 NUniq=    8 SFac= 1.00D+00 NAtFMM=   60 NAOKFM=F Big=F
 Integral buffers will be    131072 words long.
 Raffenetti 2 integral format.
 Two-electron integral symmetry is turned off.
 Leave Link  301 at Sun Jun 12 00:15:35 2022, MaxMem=   939524096 cpu:         0.1
 (Enter /Local/ce_dana/g09/l302.exe)
 NPDir=0 NMtPBC=     1 NCelOv=     1 NCel=       1 NClECP=     1 NCelD=      1
         NCelK=      1 NCelE2=     1 NClLst=     1 CellRange=     0.0.
 One-electron integrals computed using PRISM.
 NBasis=   108 RedAO= T EigKep=  3.29D-03  NBF=   108
 NBsUse=   108 1.00D-06 EigRej= -1.00D+00 NBFU=   108
 Precomputing XC quadrature grid using
 IXCGrd= 4 IRadAn=           0 IRanWt=          -1 IRanGd=           0 AccXCQ= 0.00D+00.
 Generated NRdTot=       0 NPtTot=           0 NUsed=           0 NTot=          32
 NSgBfM=   113   113   113   113   113 MxSgAt=     8 MxSgA2=     8.
 Leave Link  302 at Sun Jun 12 00:15:35 2022, MaxMem=   939524096 cpu:         1.2
 (Enter /Local/ce_dana/g09/l303.exe)
 DipDrv:  MaxL=1.
 Leave Link  303 at Sun Jun 12 00:15:35 2022, MaxMem=   939524096 cpu:         0.1
 (Enter /Local/ce_dana/g09/l401.exe)
 Initial guess from the checkpoint file:  "check.chk"
 B after Tr=     1.002126   -0.662672    0.973977
         Rot=    1.000000   -0.000102   -0.000047   -0.000083 Ang=  -0.02 deg.
 Guess basis will be translated and rotated to current coordinates.
 JPrj=2 DoOrth=T DoCkMO=T.
 Initial guess <Sx>= 0.0000 <Sy>= 0.0000 <Sz>= 0.5000 <S**2>= 0.7567 S= 0.5033
 Generating alternative initial guess.
 ExpMin= 1.03D-01 ExpMax= 8.59D+03 ExpMxC= 1.30D+03 IAcc=1 IRadAn=         1 AccDes= 0.00D+00
 Harris functional with IExCor=  402 and IRadAn=       1 diagonalized for initial guess.
 HarFok:  IExCor=  402 AccDes= 0.00D+00 IRadAn=         1 IDoV= 1 UseB2=F ITyADJ=14
 ICtDFT=  3500011 ScaDFX=  1.000000  1.000000  1.000000  1.000000
 FoFCou: FMM=F IPFlag=           0 FMFlag=      100000 FMFlg1=           0
         NFxFlg=           0 DoJE=T BraDBF=F KetDBF=T FulRan=T
         wScrn=  0.000000 ICntrl=     500 IOpCl=  0 I1Cent=   200000004 NGrid=           0
         NMat0=    1 NMatS0=      1 NMatT0=    0 NMatD0=    1 NMtDS0=    0 NMtDT0=    0
 Symmetry not used in FoFCou.
 Harris En= -303.576310859718    
 Leave Link  401 at Sun Jun 12 00:15:35 2022, MaxMem=   939524096 cpu:         1.9
 (Enter /Local/ce_dana/g09/l502.exe)
 UHF open shell SCF:
 Using DIIS extrapolation, IDIIS=  1040.
 Two-electron integral symmetry not used.
 Keep R1 and R2 ints in memory in canonical form, NReq=35632381.
 IVT=       46073 IEndB=       46073 NGot=   939524096 MDV=   904827142
 LenX=   904827142 LenY=   904813932
 Requested convergence on RMS density matrix=1.00D-08 within  64 cycles.
 Requested convergence on MAX density matrix=1.00D-06.
 Requested convergence on             energy=1.00D-06.
 No special actions if energy rises.
 FoFCou: FMM=F IPFlag=           0 FMFlag=           0 FMFlg1=           0
         NFxFlg=           0 DoJE=F BraDBF=F KetDBF=F FulRan=T
         wScrn=  0.000000 ICntrl=     600 IOpCl=  0 I1Cent=           0 NGrid=           0
         NMat0=    1 NMatS0=   5886 NMatT0=    0 NMatD0=    1 NMtDS0=    0 NMtDT0=    0
 Symmetry not used in FoFCou.
 Integral accuracy reduced to 1.0D-05 until final iterations.

 Cycle   1  Pass 0  IDiag  1:
 E= -303.577414197087    
 DIIS: error= 1.89D-03 at cycle   1 NSaved=   1.
 NSaved= 1 IEnMin= 1 EnMin= -303.577414197087     IErMin= 1 ErrMin= 1.89D-03
 ErrMax= 1.89D-03  0.00D+00 EMaxC= 1.00D-01 BMatC= 1.51D-03 BMatP= 1.51D-03
 IDIUse=3 WtCom= 9.81D-01 WtEn= 1.89D-02
 Coeff-Com:  0.100D+01
 Coeff-En:   0.100D+01
 Coeff:      0.100D+01
 Gap=     0.831 Goal=   None    Shift=    0.000
 Gap=     0.814 Goal=   None    Shift=    0.000
 GapD=    0.814 DampG=2.000 DampE=1.000 DampFc=2.0000 IDamp=-1.
 RMSDP=3.37D-04 MaxDP=1.05D-02              OVMax= 2.43D-02

 Cycle   2  Pass 0  IDiag  1:
 E= -303.577971886765     Delta-E=       -0.000557689678 Rises=F Damp=F
 DIIS: error= 1.55D-03 at cycle   2 NSaved=   2.
 NSaved= 2 IEnMin= 2 EnMin= -303.577971886765     IErMin= 2 ErrMin= 1.55D-03
 ErrMax= 1.55D-03  0.00D+00 EMaxC= 1.00D-01 BMatC= 9.55D-04 BMatP= 1.51D-03
 IDIUse=3 WtCom= 9.84D-01 WtEn= 1.55D-02
 Coeff-Com:  0.399D+00 0.601D+00
 Coeff-En:   0.000D+00 0.100D+01
 Coeff:      0.392D+00 0.608D+00
 Gap=     0.177 Goal=   None    Shift=    0.000
 Gap=     0.128 Goal=   None    Shift=    0.000
 RMSDP=1.89D-04 MaxDP=3.49D-03 DE=-5.58D-04 OVMax= 1.00D-02

 Cycle   3  Pass 0  IDiag  1:
 E= -303.578012977761     Delta-E=       -0.000041090996 Rises=F Damp=F
 DIIS: error= 1.08D-03 at cycle   3 NSaved=   3.
 NSaved= 3 IEnMin= 3 EnMin= -303.578012977761     IErMin= 3 ErrMin= 1.08D-03
 ErrMax= 1.08D-03  0.00D+00 EMaxC= 1.00D-01 BMatC= 8.07D-04 BMatP= 9.55D-04
 IDIUse=3 WtCom= 9.89D-01 WtEn= 1.08D-02
 Coeff-Com: -0.435D-01 0.493D+00 0.550D+00
 Coeff-En:   0.000D+00 0.456D+00 0.544D+00
 Coeff:     -0.430D-01 0.493D+00 0.550D+00
 Gap=     0.176 Goal=   None    Shift=    0.000
 Gap=     0.127 Goal=   None    Shift=    0.000
 RMSDP=1.18D-04 MaxDP=2.18D-03 DE=-4.11D-05 OVMax= 1.00D-02

 Cycle   4  Pass 0  IDiag  1:
 E= -303.578192719839     Delta-E=       -0.000179742078 Rises=F Damp=F
 DIIS: error= 3.17D-04 at cycle   4 NSaved=   4.
 NSaved= 4 IEnMin= 4 EnMin= -303.578192719839     IErMin= 4 ErrMin= 3.17D-04
 ErrMax= 3.17D-04  0.00D+00 EMaxC= 1.00D-01 BMatC= 7.63D-05 BMatP= 8.07D-04
 IDIUse=3 WtCom= 9.97D-01 WtEn= 3.17D-03
 Coeff-Com: -0.391D-01 0.255D+00 0.356D+00 0.429D+00
 Coeff-En:   0.000D+00 0.000D+00 0.000D+00 0.100D+01
 Coeff:     -0.390D-01 0.254D+00 0.355D+00 0.430D+00
 Gap=     0.176 Goal=   None    Shift=    0.000
 Gap=     0.127 Goal=   None    Shift=    0.000
 RMSDP=3.14D-05 MaxDP=5.56D-04 DE=-1.80D-04 OVMax= 2.63D-03

 Cycle   5  Pass 0  IDiag  1:
 E= -303.578208040715     Delta-E=       -0.000015320876 Rises=F Damp=F
 DIIS: error= 1.71D-04 at cycle   5 NSaved=   5.
 NSaved= 5 IEnMin= 5 EnMin= -303.578208040715     IErMin= 5 ErrMin= 1.71D-04
 ErrMax= 1.71D-04  0.00D+00 EMaxC= 1.00D-01 BMatC= 1.51D-05 BMatP= 7.63D-05
 IDIUse=3 WtCom= 9.98D-01 WtEn= 1.71D-03
 Coeff-Com: -0.112D-02-0.113D+00-0.192D-01 0.273D+00 0.861D+00
 Coeff-En:   0.000D+00 0.000D+00 0.000D+00 0.000D+00 0.100D+01
 Coeff:     -0.112D-02-0.113D+00-0.192D-01 0.273D+00 0.861D+00
 Gap=     0.176 Goal=   None    Shift=    0.000
 Gap=     0.127 Goal=   None    Shift=    0.000
 RMSDP=3.38D-05 MaxDP=4.02D-04 DE=-1.53D-05 OVMax= 3.83D-03

 Cycle   6  Pass 0  IDiag  1:
 E= -303.578214367957     Delta-E=       -0.000006327242 Rises=F Damp=F
 DIIS: error= 8.92D-05 at cycle   6 NSaved=   6.
 NSaved= 6 IEnMin= 6 EnMin= -303.578214367957     IErMin= 6 ErrMin= 8.92D-05
 ErrMax= 8.92D-05  0.00D+00 EMaxC= 1.00D-01 BMatC= 3.51D-06 BMatP= 1.51D-05
 IDIUse=1 WtCom= 1.00D+00 WtEn= 0.00D+00
 Coeff-Com:  0.756D-02-0.134D+00-0.824D-01 0.908D-01 0.503D+00 0.615D+00
 Coeff:      0.756D-02-0.134D+00-0.824D-01 0.908D-01 0.503D+00 0.615D+00
 Gap=     0.176 Goal=   None    Shift=    0.000
 Gap=     0.127 Goal=   None    Shift=    0.000
 RMSDP=1.72D-05 MaxDP=2.61D-04 DE=-6.33D-06 OVMax= 1.55D-03

 Cycle   7  Pass 0  IDiag  1:
 E= -303.578215870668     Delta-E=       -0.000001502711 Rises=F Damp=F
 DIIS: error= 4.82D-05 at cycle   7 NSaved=   7.
 NSaved= 7 IEnMin= 7 EnMin= -303.578215870668     IErMin= 7 ErrMin= 4.82D-05
 ErrMax= 4.82D-05  0.00D+00 EMaxC= 1.00D-01 BMatC= 8.89D-07 BMatP= 3.51D-06
 IDIUse=1 WtCom= 1.00D+00 WtEn= 0.00D+00
 Coeff-Com:  0.544D-02-0.585D-01-0.393D-01 0.150D-01 0.125D+00 0.368D+00
 Coeff-Com:  0.585D+00
 Coeff:      0.544D-02-0.585D-01-0.393D-01 0.150D-01 0.125D+00 0.368D+00
 Coeff:      0.585D+00
 Gap=     0.176 Goal=   None    Shift=    0.000
 Gap=     0.127 Goal=   None    Shift=    0.000
 RMSDP=7.61D-06 MaxDP=1.03D-04 DE=-1.50D-06 OVMax= 1.08D-03

 Initial convergence to 1.0D-05 achieved.  Increase integral accuracy.
 Cycle   8  Pass 1  IDiag  1:
 E= -303.578202798727     Delta-E=        0.000013071941 Rises=F Damp=F
 DIIS: error= 2.37D-05 at cycle   1 NSaved=   1.
 NSaved= 1 IEnMin= 1 EnMin= -303.578202798727     IErMin= 1 ErrMin= 2.37D-05
 ErrMax= 2.37D-05  0.00D+00 EMaxC= 1.00D-01 BMatC= 4.63D-07 BMatP= 4.63D-07
 IDIUse=1 WtCom= 1.00D+00 WtEn= 0.00D+00
 Coeff-Com:  0.100D+01
 Coeff:      0.100D+01
 Gap=     0.176 Goal=   None    Shift=    0.000
 Gap=     0.127 Goal=   None    Shift=    0.000
 RMSDP=7.61D-06 MaxDP=1.03D-04 DE= 1.31D-05 OVMax= 5.53D-04

 Cycle   9  Pass 1  IDiag  1:
 E= -303.578202687409     Delta-E=        0.000000111318 Rises=F Damp=F
 DIIS: error= 5.49D-05 at cycle   2 NSaved=   2.
 NSaved= 2 IEnMin= 1 EnMin= -303.578202798727     IErMin= 1 ErrMin= 2.37D-05
 ErrMax= 5.49D-05  0.00D+00 EMaxC= 1.00D-01 BMatC= 1.62D-06 BMatP= 4.63D-07
 IDIUse=1 WtCom= 1.00D+00 WtEn= 0.00D+00
 Coeff-Com:  0.664D+00 0.336D+00
 Coeff:      0.664D+00 0.336D+00
 Gap=     0.176 Goal=   None    Shift=    0.000
 Gap=     0.127 Goal=   None    Shift=    0.000
 RMSDP=4.40D-06 MaxDP=6.77D-05 DE= 1.11D-07 OVMax= 4.29D-04

 Cycle  10  Pass 1  IDiag  1:
 E= -303.578203013378     Delta-E=       -0.000000325969 Rises=F Damp=F
 DIIS: error= 1.60D-05 at cycle   3 NSaved=   3.
 NSaved= 3 IEnMin= 3 EnMin= -303.578203013378     IErMin= 3 ErrMin= 1.60D-05
 ErrMax= 1.60D-05  0.00D+00 EMaxC= 1.00D-01 BMatC= 6.69D-08 BMatP= 4.63D-07
 IDIUse=1 WtCom= 1.00D+00 WtEn= 0.00D+00
 Coeff-Com:  0.998D-01 0.160D+00 0.740D+00
 Coeff:      0.998D-01 0.160D+00 0.740D+00
 Gap=     0.176 Goal=   None    Shift=    0.000
 Gap=     0.127 Goal=   None    Shift=    0.000
 RMSDP=2.27D-06 MaxDP=2.96D-05 DE=-3.26D-07 OVMax= 2.72D-04

 Cycle  11  Pass 1  IDiag  1:
 E= -303.578203049219     Delta-E=       -0.000000035841 Rises=F Damp=F
 DIIS: error= 7.49D-06 at cycle   4 NSaved=   4.
 NSaved= 4 IEnMin= 4 EnMin= -303.578203049219     IErMin= 4 ErrMin= 7.49D-06
 ErrMax= 7.49D-06  0.00D+00 EMaxC= 1.00D-01 BMatC= 4.16D-08 BMatP= 6.69D-08
 IDIUse=1 WtCom= 1.00D+00 WtEn= 0.00D+00
 Coeff-Com: -0.249D+00 0.168D-02 0.612D+00 0.635D+00
 Coeff:     -0.249D+00 0.168D-02 0.612D+00 0.635D+00
 Gap=     0.176 Goal=   None    Shift=    0.000
 Gap=     0.127 Goal=   None    Shift=    0.000
 RMSDP=2.13D-06 MaxDP=3.47D-05 DE=-3.58D-08 OVMax= 2.89D-04

 Cycle  12  Pass 1  IDiag  1:
 E= -303.578203075015     Delta-E=       -0.000000025796 Rises=F Damp=F
 DIIS: error= 3.90D-06 at cycle   5 NSaved=   5.
 NSaved= 5 IEnMin= 5 EnMin= -303.578203075015     IErMin= 5 ErrMin= 3.90D-06
 ErrMax= 3.90D-06  0.00D+00 EMaxC= 1.00D-01 BMatC= 7.55D-09 BMatP= 4.16D-08
 IDIUse=1 WtCom= 1.00D+00 WtEn= 0.00D+00
 Coeff-Com: -0.156D+00-0.231D-01 0.790D-01 0.300D+00 0.801D+00
 Coeff:     -0.156D+00-0.231D-01 0.790D-01 0.300D+00 0.801D+00
 Gap=     0.176 Goal=   None    Shift=    0.000
 Gap=     0.127 Goal=   None    Shift=    0.000
 RMSDP=1.42D-06 MaxDP=2.03D-05 DE=-2.58D-08 OVMax= 1.98D-04

 Cycle  13  Pass 1  IDiag  1:
 E= -303.578203082223     Delta-E=       -0.000000007208 Rises=F Damp=F
 DIIS: error= 2.65D-06 at cycle   6 NSaved=   6.
 NSaved= 6 IEnMin= 6 EnMin= -303.578203082223     IErMin= 6 ErrMin= 2.65D-06
 ErrMax= 2.65D-06  0.00D+00 EMaxC= 1.00D-01 BMatC= 5.42D-09 BMatP= 7.55D-09
 IDIUse=1 WtCom= 1.00D+00 WtEn= 0.00D+00
 Coeff-Com: -0.679D-02-0.630D-02-0.228D+00-0.916D-01 0.662D+00 0.670D+00
 Coeff:     -0.679D-02-0.630D-02-0.228D+00-0.916D-01 0.662D+00 0.670D+00
 Gap=     0.176 Goal=   None    Shift=    0.000
 Gap=     0.127 Goal=   None    Shift=    0.000
 RMSDP=9.89D-07 MaxDP=1.72D-05 DE=-7.21D-09 OVMax= 1.34D-04

 Cycle  14  Pass 1  IDiag  1:
 E= -303.578203084777     Delta-E=       -0.000000002554 Rises=F Damp=F
 DIIS: error= 1.28D-06 at cycle   7 NSaved=   7.
 NSaved= 7 IEnMin= 7 EnMin= -303.578203084777     IErMin= 7 ErrMin= 1.28D-06
 ErrMax= 1.28D-06  0.00D+00 EMaxC= 1.00D-01 BMatC= 1.04D-09 BMatP= 5.42D-09
 IDIUse=1 WtCom= 1.00D+00 WtEn= 0.00D+00
 Coeff-Com:  0.174D-01-0.882D-03-0.186D+00-0.117D+00 0.384D+00 0.476D+00
 Coeff-Com:  0.427D+00
 Coeff:      0.174D-01-0.882D-03-0.186D+00-0.117D+00 0.384D+00 0.476D+00
 Coeff:      0.427D+00
 Gap=     0.176 Goal=   None    Shift=    0.000
 Gap=     0.127 Goal=   None    Shift=    0.000
 RMSDP=2.26D-07 MaxDP=3.85D-06 DE=-2.55D-09 OVMax= 2.44D-05

 Cycle  15  Pass 1  IDiag  1:
 E= -303.578203085069     Delta-E=       -0.000000000292 Rises=F Damp=F
 DIIS: error= 2.22D-07 at cycle   8 NSaved=   8.
 NSaved= 8 IEnMin= 8 EnMin= -303.578203085069     IErMin= 8 ErrMin= 2.22D-07
 ErrMax= 2.22D-07  0.00D+00 EMaxC= 1.00D-01 BMatC= 2.49D-11 BMatP= 1.04D-09
 IDIUse=1 WtCom= 1.00D+00 WtEn= 0.00D+00
 Coeff-Com:  0.252D-02 0.111D-02 0.402D-03-0.939D-02-0.673D-02-0.204D-01
 Coeff-Com:  0.948D-01 0.938D+00
 Coeff:      0.252D-02 0.111D-02 0.402D-03-0.939D-02-0.673D-02-0.204D-01
 Coeff:      0.948D-01 0.938D+00
 Gap=     0.176 Goal=   None    Shift=    0.000
 Gap=     0.127 Goal=   None    Shift=    0.000
 RMSDP=4.45D-08 MaxDP=7.65D-07 DE=-2.92D-10 OVMax= 4.65D-06

 Cycle  16  Pass 1  IDiag  1:
 E= -303.578203085085     Delta-E=       -0.000000000015 Rises=F Damp=F
 DIIS: error= 7.09D-08 at cycle   9 NSaved=   9.
 NSaved= 9 IEnMin= 9 EnMin= -303.578203085085     IErMin= 9 ErrMin= 7.09D-08
 ErrMax= 7.09D-08  0.00D+00 EMaxC= 1.00D-01 BMatC= 2.68D-12 BMatP= 2.49D-11
 IDIUse=1 WtCom= 1.00D+00 WtEn= 0.00D+00
 Coeff-Com: -0.221D-02 0.591D-03 0.296D-01 0.166D-01-0.598D-01-0.827D-01
 Coeff-Com: -0.600D-01 0.145D+00 0.101D+01
 Coeff:     -0.221D-02 0.591D-03 0.296D-01 0.166D-01-0.598D-01-0.827D-01
 Coeff:     -0.600D-01 0.145D+00 0.101D+01
 Gap=     0.176 Goal=   None    Shift=    0.000
 Gap=     0.127 Goal=   None    Shift=    0.000
 RMSDP=1.92D-08 MaxDP=2.08D-07 DE=-1.51D-11 OVMax= 1.29D-06

 Cycle  17  Pass 1  IDiag  1:
 E= -303.578203085083     Delta-E=        0.000000000001 Rises=F Damp=F
 DIIS: error= 3.00D-08 at cycle  10 NSaved=  10.
 NSaved=10 IEnMin= 9 EnMin= -303.578203085085     IErMin=10 ErrMin= 3.00D-08
 ErrMax= 3.00D-08  0.00D+00 EMaxC= 1.00D-01 BMatC= 4.23D-13 BMatP= 2.68D-12
 IDIUse=1 WtCom= 1.00D+00 WtEn= 0.00D+00
 Coeff-Com: -0.738D-03 0.829D-05 0.695D-02 0.418D-02-0.123D-01-0.180D-01
 Coeff-Com: -0.286D-01-0.816D-01 0.234D+00 0.896D+00
 Coeff:     -0.738D-03 0.829D-05 0.695D-02 0.418D-02-0.123D-01-0.180D-01
 Coeff:     -0.286D-01-0.816D-01 0.234D+00 0.896D+00
 Gap=     0.176 Goal=   None    Shift=    0.000
 Gap=     0.127 Goal=   None    Shift=    0.000
 RMSDP=7.10D-09 MaxDP=1.12D-07 DE= 1.42D-12 OVMax= 4.49D-07

 SCF Done:  E(UB3LYP) =  -303.578203085     A.U. after   17 cycles
            NFock= 17  Conv=0.71D-08     -V/T= 2.0026
 <Sx>= 0.0000 <Sy>= 0.0000 <Sz>= 0.5000 <S**2>= 0.7568 S= 0.5034
 <L.S>=  0.00000000000    
 KE= 3.027759312184D+02 PE=-1.052949341467D+03 EE= 2.773820461947D+02
 Annihilation of the first spin contaminant:
 S**2 before annihilation     0.7568,   after     0.7500
 Leave Link  502 at Sun Jun 12 00:15:40 2022, MaxMem=   939524096 cpu:        38.2
 (Enter /Local/ce_dana/g09/l508.exe)
 QCSCF skips out because SCF is already converged.
 Leave Link  508 at Sun Jun 12 00:15:40 2022, MaxMem=   939524096 cpu:         0.0
 (Enter /Local/ce_dana/g09/l801.exe)
 DoSCS=F DFT=T ScalE2(SS,OS)=  1.000000  1.000000
 Range of M.O.s used for correlation:     1   108
 NBasis=   108 NAE=    20 NBE=    19 NFC=     0 NFV=     0
 NROrb=    108 NOA=    20 NOB=    19 NVA=    88 NVB=    89
 Leave Link  801 at Sun Jun 12 00:15:40 2022, MaxMem=   939524096 cpu:         0.0
 (Enter /Local/ce_dana/g09/l1101.exe)
 Using compressed storage, NAtomX=     8.
 Will process      9 centers per pass.
 Leave Link 1101 at Sun Jun 12 00:15:41 2022, MaxMem=   939524096 cpu:         1.4
 (Enter /Local/ce_dana/g09/l1102.exe)
 Symmetrizing basis deriv contribution to polar:
 IMax=3 JMax=2 DiffMx= 0.00D+00
 Leave Link 1102 at Sun Jun 12 00:15:41 2022, MaxMem=   939524096 cpu:         0.1
 (Enter /Local/ce_dana/g09/l1110.exe)
 Forming Gx(P) for the SCF density, NAtomX=     8.
 Integral derivatives from FoFJK, PRISM(SPDF).
 Do as many integral derivatives as possible in FoFJK.
 G2DrvN: MDV=     939523928.
 G2DrvN: will do     9 centers at a time, making    1 passes.
 Calling FoFCou, ICntrl=  3107 FMM=F I1Cent=   0 AccDes= 0.00D+00.
 FoFJK:  IHMeth= 1 ICntrl=    3107 DoSepK=F KAlg= 0 I1Cent=   0 FoldK=F
 IRaf=         0 NMat=   1 IRICut=       1 DoRegI=T DoRafI=F ISym2E= 0.
 FoFCou: FMM=F IPFlag=           0 FMFlag=      100000 FMFlg1=           0
         NFxFlg=           0 DoJE=F BraDBF=F KetDBF=F FulRan=T
         wScrn=  0.000000 ICntrl=    3107 IOpCl=  1 I1Cent=           0 NGrid=           0
         NMat0=    1 NMatS0=      1 NMatT0=    0 NMatD0=    1 NMtDS0=    0 NMtDT0=    0
 Symmetry not used in FoFCou.
 End of G2Drv F.D. properties file   721 does not exist.
 End of G2Drv F.D. properties file   722 does not exist.
 End of G2Drv F.D. properties file   788 does not exist.
 Leave Link 1110 at Sun Jun 12 00:15:46 2022, MaxMem=   939524096 cpu:        51.1
 (Enter /Local/ce_dana/g09/l1002.exe)
 Minotr:  UHF open shell wavefunction.
          IDoAtm=11111111
          Direct CPHF calculation.
          Differentiating once with respect to nuclear coordinates.
          Requested convergence is 1.0D-08 RMS, and 1.0D-07 maximum.
          Secondary convergence is 1.0D-12 RMS, and 1.0D-12 maximum.
          NewPWx=T KeepS1=F KeepF1=F KeepIn=T MapXYZ=F SortEE=F KeepMc=T.
          MDV=     939523796 using IRadAn=       2.
 Generate precomputed XC quadrature information.
 Keep R1 and R2 ints in memory in canonical form, NReq=35587770.
 FoFCou: FMM=F IPFlag=           0 FMFlag=           0 FMFlg1=           0
         NFxFlg=           0 DoJE=F BraDBF=F KetDBF=F FulRan=T
         wScrn=  0.000000 ICntrl=     600 IOpCl=  0 I1Cent=           0 NGrid=           0
         NMat0=    1 NMatS0=   5886 NMatT0=    0 NMatD0=    1 NMtDS0=    0 NMtDT0=    0
 Symmetry not used in FoFCou.
          Solving linear equations simultaneously, MaxMat=       0.
          There are    27 degrees of freedom in the 1st order CPHF.  IDoFFX=6 NUNeed=     0.
     21 vectors produced by pass  0 Test12= 1.28D-14 3.70D-09 XBig12= 2.01D-01 1.48D-01.
 AX will form    21 AO Fock derivatives at one time.
     21 vectors produced by pass  1 Test12= 1.28D-14 3.70D-09 XBig12= 2.15D-02 3.20D-02.
     21 vectors produced by pass  2 Test12= 1.28D-14 3.70D-09 XBig12= 7.33D-04 6.47D-03.
     21 vectors produced by pass  3 Test12= 1.28D-14 3.70D-09 XBig12= 1.55D-05 7.65D-04.
     21 vectors produced by pass  4 Test12= 1.28D-14 3.70D-09 XBig12= 2.56D-07 8.48D-05.
     21 vectors produced by pass  5 Test12= 1.28D-14 3.70D-09 XBig12= 2.07D-09 6.50D-06.
     20 vectors produced by pass  6 Test12= 1.28D-14 3.70D-09 XBig12= 1.03D-11 5.52D-07.
     15 vectors produced by pass  7 Test12= 1.28D-14 3.70D-09 XBig12= 5.25D-14 2.78D-08.
 InvSVY:  IOpt=1 It=  1 EMax= 2.22D-15
 Solved reduced A of dimension   161 with    21 vectors.
 End of Minotr F.D. properties file   721 does not exist.
 End of Minotr F.D. properties file   722 does not exist.
 End of Minotr F.D. properties file   788 does not exist.
 Leave Link 1002 at Sun Jun 12 00:15:53 2022, MaxMem=   939524096 cpu:        70.8
 (Enter /Local/ce_dana/g09/l701.exe)
 Compute integral second derivatives.
 ... and contract with generalized density number  0.
 Leave Link  701 at Sun Jun 12 00:15:54 2022, MaxMem=   939524096 cpu:         1.6
 (Enter /Local/ce_dana/g09/l702.exe)
 L702 exits ... SP integral derivatives will be done elsewhere.
 Leave Link  702 at Sun Jun 12 00:15:54 2022, MaxMem=   939524096 cpu:         0.0
 (Enter /Local/ce_dana/g09/l703.exe)
 Compute integral second derivatives, UseDBF=F ICtDFT=           0.
 Integral derivatives from FoFJK, PRISM(SPDF).
 Calling FoFJK, ICntrl=    100127 FMM=F ISym2X=0 I1Cent= 0 IOpClX= 1 NMat=1 NMatS=1 NMatT=0.
 FoFJK:  IHMeth= 1 ICntrl=  100127 DoSepK=F KAlg= 0 I1Cent=   0 FoldK=F
 IRaf=         0 NMat=   1 IRICut=       1 DoRegI=T DoRafI=F ISym2E= 0.
 FoFCou: FMM=F IPFlag=           0 FMFlag=      100000 FMFlg1=         800
         NFxFlg=           0 DoJE=F BraDBF=F KetDBF=F FulRan=T
         wScrn=  0.000000 ICntrl=  100127 IOpCl=  1 I1Cent=           0 NGrid=           0
         NMat0=    1 NMatS0=      1 NMatT0=    0 NMatD0=    1 NMtDS0=    0 NMtDT0=    0
 Symmetry not used in FoFCou.
 Leave Link  703 at Sun Jun 12 00:16:00 2022, MaxMem=   939524096 cpu:        66.9
 (Enter /Local/ce_dana/g09/l716.exe)
 Dipole        = 2.02254864D-02-3.47984755D-01 8.14512356D-01
 Polarizability= 0.00000000D+00 0.00000000D+00 0.00000000D+00
                 0.00000000D+00 0.00000000D+00 0.00000000D+00
 -------------------------------------------------------------------
 Center     Atomic                   Forces (Hartrees/Bohr)
 Number     Number              X              Y              Z
 -------------------------------------------------------------------
      1        8          -0.000209347   -0.000038492   -0.000202951
      2        6           0.001393450    0.000057480   -0.003302128
      3        6          -0.000110571    0.000013940    0.001158000
      4        8           0.001391223    0.002796559   -0.001696938
      5        8           0.000658902   -0.006567356   -0.002570929
      6        1          -0.003171341    0.004070476    0.006817523
      7        1          -0.000035522   -0.000131554   -0.000112175
      8        1           0.000083207   -0.000201053   -0.000090403
 -------------------------------------------------------------------
 Cartesian Forces:  Max     0.006817523 RMS     0.002502417
 Z-matrix is all fixed cartesians, so copy forces.
 Force constants in Cartesian coordinates: 
                1             2             3             4             5 
      1  0.632183D-01
      2 -0.121496D+00  0.351392D+00
      3 -0.167872D+00  0.421029D+00  0.621699D+00
      4 -0.826081D-01  0.104617D+00  0.155085D+00  0.183173D+00
      5  0.106504D+00 -0.324235D+00 -0.384042D+00 -0.109429D+00  0.481336D+00
      6  0.151535D+00 -0.376603D+00 -0.606555D+00 -0.156569D+00  0.380211D+00
      7  0.876589D-02  0.133163D-01  0.777210D-02 -0.581762D-01  0.227490D-03
      8  0.997454D-02 -0.322765D-01 -0.277589D-01 -0.515767D-02 -0.639043D-01
      9  0.119357D-01 -0.336176D-01 -0.619757D-02 -0.101851D-01  0.202701D-01
     10  0.128801D-02 -0.122638D-03 -0.109394D-01  0.187842D-02  0.290314D-04
     11  0.575851D-02 -0.163987D-02 -0.821023D-02 -0.113742D-01 -0.464539D-01
     12 -0.209992D-02  0.111588D-02  0.148219D-01  0.762063D-02 -0.435323D-01
     13 -0.147681D-02 -0.492013D-03  0.118807D-01 -0.380071D-02  0.322859D-02
     14 -0.491699D-02  0.356868D-02  0.118216D-01  0.306493D-01  0.433226D-02
     15 -0.517583D-02  0.113589D-02 -0.996814D-02  0.383901D-01 -0.321657D-02
     16  0.105285D-01  0.529624D-02  0.422535D-02 -0.378127D-01 -0.110239D-01
     17  0.510354D-02  0.123575D-02 -0.114841D-01 -0.215568D-01 -0.269981D-01
     18  0.122778D-01 -0.129375D-01 -0.153861D-01 -0.328402D-01  0.256532D-01
     19  0.488821D-03  0.160569D-03  0.643592D-03 -0.656907D-02  0.537650D-02
     20 -0.221935D-02 -0.247491D-03 -0.498772D-03  0.274488D-01 -0.130214D-01
     21 -0.308814D-03 -0.468291D-03  0.925793D-03  0.191418D-02  0.353822D-02
     22 -0.204722D-03 -0.127929D-02 -0.795245D-03  0.391521D-02  0.508695D-02
     23  0.129194D-02  0.220241D-02 -0.856958D-03 -0.151978D-01 -0.110549D-01
     24 -0.291847D-03  0.345923D-03  0.660740D-03 -0.341538D-02  0.111760D-02
                6             7             8             9            10 
      6  0.738776D+00
      7 -0.189691D-02  0.554833D+00
      8  0.397673D-01  0.884116D-01  0.391856D+00
      9 -0.339862D-01 -0.222217D-01 -0.101836D+00  0.460454D+00
     10  0.304247D-01 -0.774967D-01 -0.237811D-01 -0.377707D-01  0.140951D+00
     11 -0.907772D-02 -0.310422D-01 -0.690655D-01 -0.283699D-01  0.113287D+00
     12 -0.697452D-01 -0.485218D-01 -0.374220D-01 -0.178931D+00  0.142614D-01
     13  0.150805D-01  0.667833D-03  0.507992D-03  0.249957D-01 -0.827002D-01
     14 -0.104401D+00 -0.729963D-02 -0.126492D-01  0.431931D-01 -0.743095D-01
     15 -0.573290D-01  0.285404D-01  0.311815D-01 -0.434425D-01  0.359904D-01
     16 -0.341375D-01  0.144918D-01  0.206867D-02  0.591569D-02  0.114753D-01
     17  0.557504D-01  0.712194D-03 -0.282384D-01  0.967078D-03 -0.112396D-01
     18  0.280201D-01  0.101711D-01  0.168074D-01 -0.279366D-01 -0.200438D-01
     19 -0.224048D-02 -0.278542D+00  0.326744D-01 -0.601077D-01  0.221406D-02
     20  0.258336D-02  0.452118D-01 -0.474171D-01  0.201121D-01 -0.117805D-01
     21 -0.297868D-03 -0.538275D-01  0.112267D-01 -0.581474D-01 -0.341072D-01
     22 -0.219614D-02 -0.164544D+00 -0.104699D+00  0.874382D-01  0.238967D-02
     23  0.117691D-01 -0.109538D+00 -0.138305D+00  0.792814D-01  0.791676D-02
     24  0.111788D-02  0.799843D-01  0.680342D-01 -0.111813D+00  0.221847D-01
               11            12            13            14            15 
     11  0.273137D+00
     12  0.198724D-01  0.351641D+00
     13 -0.772065D-01  0.480864D-01  0.991916D-01
     14 -0.119757D+00  0.569398D-01  0.835222D-01  0.983277D-01
     15  0.336922D-01 -0.882143D-01 -0.924102D-01 -0.874504D-01  0.176875D+00
     16 -0.800156D-04 -0.895559D-02 -0.171365D-01 -0.295075D-01 -0.432208D-02
     17 -0.461204D-01  0.168090D-01 -0.948057D-02  0.295946D-01  0.249548D-01
     18 -0.361475D-01  0.221882D-01 -0.728462D-02  0.888327D-01  0.247481D-01
[...]
 CORRECTOR INTEGRATION CONVERGENCE:
   Recorrection delta-x convergence threshold:    0.010000
   Delta-x Convergence Met
 Point Number:  50          Path Number:   1
                    CURRENT STRUCTURE
                Cartesian Coordinates (Ang):                
 ---------------------------------------------------------------------
 Center     Atomic                     Coordinates (Angstroms)
 Number     Number                        X           Y           Z
 ---------------------------------------------------------------------
      1          8                   -0.437836    1.294374    1.698600
      2          6                   -0.278756    0.776040    0.630823
      3          6                    0.058661   -0.703954    0.459306
      4          8                   -0.059393   -1.061494   -0.934569
      5          8                    0.656854   -0.229581   -1.674431
      6          1                   -0.356075    1.328049   -0.325620
      7          1                    1.082436   -0.897136    0.790602
      8          1                   -0.639113   -1.341588    1.003734
 ---------------------------------------------------------------------
   CHANGE IN THE REACTION COORDINATE =    0.07235
   NET REACTION COORDINATE UP TO THIS POINT =    3.61655
  # OF POINTS ALONG THE PATH =  50
  # OF STEPS =   1

 Maximum number of steps reached.
 Calculation of REVERSE path complete.
 Reaction path calculation complete.
 
 Energies reported relative to the TS energy of        -303.577880
 --------------------------------------------------------------------------
    Summary of reaction path following
 --------------------------------------------------------------------------
                        Energy    RxCoord
   1                   -0.03600  -3.61655
   2                   -0.03587  -3.54421
   3                   -0.03572  -3.47186
   4                   -0.03556  -3.39952
   5                   -0.03539  -3.32717
   6                   -0.03520  -3.25482
   7                   -0.03500  -3.18247
   8                   -0.03478  -3.11013
   9                   -0.03455  -3.03778
  10                   -0.03431  -2.96543
  11                   -0.03405  -2.89308
  12                   -0.03377  -2.82073
  13                   -0.03348  -2.74838
  14                   -0.03317  -2.67604
  15                   -0.03285  -2.60369
  16                   -0.03250  -2.53134
  17                   -0.03214  -2.45899
  18                   -0.03176  -2.38664
  19                   -0.03136  -2.31430
  20                   -0.03095  -2.24195
  21                   -0.03051  -2.16960
  22                   -0.03006  -2.09725
  23                   -0.02958  -2.02491
  24                   -0.02908  -1.95256
  25                   -0.02856  -1.88021
  26                   -0.02802  -1.80787
  27                   -0.02746  -1.73552
  28                   -0.02688  -1.66318
  29                   -0.02627  -1.59083
  30                   -0.02563  -1.51849
  31                   -0.02497  -1.44615
  32                   -0.02427  -1.37382
  33                   -0.02355  -1.30149
  34                   -0.02278  -1.22917
  35                   -0.02198  -1.15685
  36                   -0.02112  -1.08456
  37                   -0.02020  -1.01227
  38                   -0.01919  -0.94000
  39                   -0.01809  -0.86773
  40                   -0.01686  -0.79546
  41                   -0.01549  -0.72318
  42                   -0.01397  -0.65089
  43                   -0.01228  -0.57861
  44                   -0.01042  -0.50632
  45                   -0.00845  -0.43402
  46                   -0.00642  -0.36170
  47                   -0.00444  -0.28937
  48                   -0.00267  -0.21703
  49                   -0.00125  -0.14469
  50                   -0.00032  -0.07236
  51                    0.00000   0.00000
 --------------------------------------------------------------------------
 
 Total number of points:                   50
 Total number of gradient calculations:    51
 Total number of Hessian calculations:     51
 IRC-IRC-IRC-IRC-IRC-IRC-IRC-IRC-IRC-IRC-IRC-IRC-IRC-IRC-IRC-IRC-IRC-IRC
 Leave Link  123 at Sun Jun 12 00:36:55 2022, MaxMem=   939524096 cpu:         0.1
 (Enter /Local/ce_dana/g09/l202.exe)
                          Input orientation:                          
 ---------------------------------------------------------------------
 Center     Atomic      Atomic             Coordinates (Angstroms)
 Number     Number       Type             X           Y           Z
 ---------------------------------------------------------------------
      1          8           0       -0.437836    1.294375    1.698605
      2          6           0       -0.278756    0.776039    0.630818
      3          6           0        0.058661   -0.703953    0.459307
      4          8           0       -0.059393   -1.061495   -0.934568
      5          8           0        0.656855   -0.229580   -1.674432
      6          1           0       -0.356074    1.328051   -0.325642
      7          1           0        1.082439   -0.897136    0.790603
      8          1           0       -0.639113   -1.341590    1.003736
 ---------------------------------------------------------------------
                    Distance matrix (angstroms):
                    1          2          3          4          5
     1  O    0.000000
     2  C    1.197559   0.000000
     3  C    2.403265   1.527626   0.000000
     4  O    3.553441   2.423858   1.443835   0.000000
     5  O    3.859814   2.683434   2.266210   1.323818   0.000000
     6  H    2.026178   1.107029   2.217474   2.483695   2.295969
     7  H    2.817521   2.162845   1.093251   2.075334   2.589045
     8  H    2.733435   2.180201   1.090813   2.042437   3.176269
                    6          7          8
     6  H    0.000000
     7  H    2.875201   0.000000
     8  H    2.995720   1.790728   0.000000
 Symmetry turned off by external request.
 Stoichiometry    C2H3O3(2)
 Framework group  C1[X(C2H3O3)]
 Deg. of freedom    18
 Full point group                 C1      NOp   1
 Rotational constants (GHZ):     15.8952064      3.1081241      2.7233999
 Leave Link  202 at Sun Jun 12 00:36:55 2022, MaxMem=   939524096 cpu:         0.0
 (Enter /Local/ce_dana/g09/l601.exe)
 Copying SCF densities to generalized density rwf, IOpCl= 1 IROHF=0.

 **********************************************************************

            Population analysis using the SCF density.

 **********************************************************************

 Alpha  occ. eigenvalues --  -19.26092 -19.20664 -19.14971 -10.28988 -10.26542
 Alpha  occ. eigenvalues --   -1.21825  -1.08708  -0.90837  -0.74703  -0.62205
 Alpha  occ. eigenvalues --   -0.55304  -0.54184  -0.51702  -0.47526  -0.45604
 Alpha  occ. eigenvalues --   -0.45148  -0.40007  -0.32539  -0.30530  -0.27561
 Alpha virt. eigenvalues --   -0.05787   0.04007   0.05000   0.08315   0.09476
 Alpha virt. eigenvalues --    0.12412   0.20970   0.22908   0.34429   0.36294
 Alpha virt. eigenvalues --    0.40197   0.41289   0.43717   0.46367   0.54569
 Alpha virt. eigenvalues --    0.55544   0.58766   0.61659   0.67227   0.71709
 Alpha virt. eigenvalues --    0.74636   0.76254   0.78260   0.80318   0.83292
 Alpha virt. eigenvalues --    0.88651   0.90031   0.93492   1.11903   1.16917
 Alpha virt. eigenvalues --    1.20481   1.27678   1.36194   1.39901   1.42471
 Alpha virt. eigenvalues --    1.45280   1.46823   1.50747   1.58302   1.60634
 Alpha virt. eigenvalues --    1.63059   1.74870   1.76245   1.95251   1.96219
 Alpha virt. eigenvalues --    2.03046   2.20924   2.30497   2.31137   2.34795
 Alpha virt. eigenvalues --    2.41384   2.45774   2.50010   2.58646   2.62243
 Alpha virt. eigenvalues --    2.65286   2.68898   2.73527   2.77505   2.81190
 Alpha virt. eigenvalues --    2.85365   2.87169   2.98954   3.05238   3.25502
 Alpha virt. eigenvalues --    3.29289   3.35014   3.40205   3.47674   3.65403
 Alpha virt. eigenvalues --    3.74553   3.77911   3.85595   4.01514   4.63866
 Alpha virt. eigenvalues --    4.64612   4.77733   4.82623   4.85786   4.96357
 Alpha virt. eigenvalues --    5.21053   5.53267   5.87223  23.73619  23.80212
 Alpha virt. eigenvalues --   49.65909  49.70996  49.91801
  Beta  occ. eigenvalues --  -19.25137 -19.18738 -19.14922 -10.28962 -10.26574
  Beta  occ. eigenvalues --   -1.19247  -1.08617  -0.87813  -0.73507  -0.61611
  Beta  occ. eigenvalues --   -0.54107  -0.52728  -0.50011  -0.46954  -0.44537
  Beta  occ. eigenvalues --   -0.41439  -0.38800  -0.30230  -0.27710
  Beta virt. eigenvalues --   -0.13508  -0.05687   0.04269   0.05570   0.08551
  Beta virt. eigenvalues --    0.09844   0.13699   0.21349   0.23063   0.34658
  Beta virt. eigenvalues --    0.36429   0.40246   0.41578   0.43883   0.46575
  Beta virt. eigenvalues --    0.54701   0.55706   0.58884   0.61778   0.67658
  Beta virt. eigenvalues --    0.72474   0.75807   0.77095   0.79014   0.81321
  Beta virt. eigenvalues --    0.85488   0.89506   0.91197   0.94425   1.12416
  Beta virt. eigenvalues --    1.17491   1.20737   1.28388   1.36302   1.40502
  Beta virt. eigenvalues --    1.42619   1.45610   1.47038   1.50918   1.58440
  Beta virt. eigenvalues --    1.60835   1.63272   1.74983   1.76294   1.95440
  Beta virt. eigenvalues --    1.96394   2.03243   2.21194   2.30799   2.32435
  Beta virt. eigenvalues --    2.35094   2.43327   2.46016   2.50567   2.60137
  Beta virt. eigenvalues --    2.63213   2.66369   2.69255   2.75648   2.80525
  Beta virt. eigenvalues --    2.85568   2.86332   2.88945   2.99703   3.06902
  Beta virt. eigenvalues --    3.28498   3.30992   3.35540   3.40509   3.47803
  Beta virt. eigenvalues --    3.66627   3.74694   3.78607   3.86377   4.01744
  Beta virt. eigenvalues --    4.65574   4.69930   4.79362   4.84009   4.90518
  Beta virt. eigenvalues --    4.96674   5.21929   5.53368   5.88560  23.73588
  Beta virt. eigenvalues --   23.80235  49.67790  49.71964  49.91878
          Condensed to atoms (all electrons):
               1          2          3          4          5          6
     1  O    7.765650   0.605645  -0.077781   0.001546   0.000060  -0.041994
     2  C    0.605645   4.662473   0.249514  -0.010310  -0.002589   0.404962
     3  C   -0.077781   0.249514   5.153318   0.162696  -0.072855  -0.123598
     4  O    0.001546  -0.010310   0.162696   7.952328   0.053606  -0.001620
     5  O    0.000060  -0.002589  -0.072855   0.053606   8.152768   0.018821
     6  H   -0.041994   0.404962  -0.123598  -0.001620   0.018821   0.618488
     7  H    0.002207  -0.029383   0.378177  -0.023814   0.003543   0.005748
     8  H    0.004160  -0.020931   0.364253  -0.011340   0.005904   0.006014
               7          8
     1  O    0.002207   0.004160
     2  C   -0.029383  -0.020931
     3  C    0.378177   0.364253
     4  O   -0.023814  -0.011340
     5  O    0.003543   0.005904
     6  H    0.005748   0.006014
     7  H    0.512069  -0.013730
     8  H   -0.013730   0.509088
          Atomic-Atomic Spin Densities.
               1          2          3          4          5          6
     1  O    0.025508  -0.011382   0.002611   0.000021  -0.000012  -0.000227
     2  C   -0.011382   0.028953   0.008690  -0.006367   0.000016   0.002232
     3  C    0.002611   0.008690  -0.044755   0.009054  -0.002242   0.006800
     4  O    0.000021  -0.006367   0.009054   0.416314  -0.126617  -0.001201
     5  O   -0.000012   0.000016  -0.002242  -0.126617   0.815185  -0.002349
     6  H   -0.000227   0.002232   0.006800  -0.001201  -0.002349  -0.007694
     7  H    0.001766  -0.011481  -0.001127  -0.007608   0.004004   0.000044
     8  H    0.000124  -0.000196   0.002178  -0.000207  -0.000295  -0.000097
               7          8
     1  O    0.001766   0.000124
     2  C   -0.011481  -0.000196
     3  C   -0.001127   0.002178
     4  O   -0.007608  -0.000207
     5  O    0.004004  -0.000295
     6  H    0.000044  -0.000097
     7  H    0.036538   0.000482
     8  H    0.000482  -0.003278
 Mulliken charges and spin densities:
               1          2
     1  O   -0.259493   0.018408
     2  C    0.140620   0.010466
     3  C   -0.033723  -0.018789
     4  O   -0.123092   0.283389
     5  O   -0.159258   0.687689
     6  H    0.113180  -0.002492
     7  H    0.165183   0.022619
     8  H    0.156583  -0.001290
 Sum of Mulliken charges =  -0.00000   1.00000
 Mulliken charges and spin densities with hydrogens summed into heavy atoms:
               1          2
     1  O   -0.259493   0.018408
     2  C    0.253800   0.007974
     3  C    0.288043   0.002540
     4  O   -0.123092   0.283389
     5  O   -0.159258   0.687689
 APT charges:
               1
     1  O    0.254855
     2  C   -0.567872
     3  C   -0.491020
     4  O   -0.020099
     5  O   -0.178449
     6  H    0.240555
     7  H    0.360116
     8  H    0.401914
 Sum of APT charges =  -0.00000
 APT charges with hydrogens summed into heavy atoms:
               1
     1  O    0.254855
     2  C   -0.327317
     3  C    0.271009
     4  O   -0.020099
     5  O   -0.178449
 Electronic spatial extent (au):  <R**2>=            421.1547
 Charge=             -0.0000 electrons
 Dipole moment (field-independent basis, Debye):
    X=              0.0040    Y=             -1.2770    Z=              0.6614  Tot=              1.4381
 Quadrupole moment (field-independent basis, Debye-Ang):
   XX=            -27.2182   YY=            -29.1928   ZZ=            -35.0548
   XY=              0.3209   XZ=              1.9945   YZ=             -5.3554
 Traceless Quadrupole moment (field-independent basis, Debye-Ang):
   XX=              3.2704   YY=              1.2958   ZZ=             -4.5662
   XY=              0.3209   XZ=              1.9945   YZ=             -5.3554
 Octapole moment (field-independent basis, Debye-Ang**2):
  XXX=              0.9218  YYY=             -2.5380  ZZZ=             -7.6286  XYY=              1.4254
  XXY=             -1.1990  XXZ=             -0.4499  XZZ=              0.7279  YZZ=             -5.2082
  YYZ=             -4.6836  XYZ=              2.3262
 Hexadecapole moment (field-independent basis, Debye-Ang**3):
 XXXX=            -50.7859 YYYY=           -171.6756 ZZZZ=           -286.1730 XXXY=             14.7229
 XXXZ=             30.1786 YYYX=             18.0685 YYYZ=            -64.3002 ZZZX=             36.6866
 ZZZY=            -68.5346 XXYY=            -35.3942 XXZZ=            -51.7954 YYZZ=            -78.9516
 XXYZ=            -19.3547 YYXZ=             11.2796 ZZXY=              8.7677
 N-N= 1.663490219847D+02 E-N=-1.047299452430D+03  KE= 3.028307098200D+02
  Exact polarizability:   0.000   0.000   0.000   0.000   0.000   0.000
 Approx polarizability:  34.687   1.725  46.148 -10.812   3.183  66.772
                          Isotropic Fermi Contact Couplings
        Atom                 a.u.       MegaHertz       Gauss      10(-4) cm-1
     1  O(17)              0.00089      -0.54004      -0.19270      -0.18014
     2  C(13)             -0.00252      -2.83208      -1.01056      -0.94468
     3  C(13)             -0.01000     -11.23852      -4.01018      -3.74877
     4  O(17)              0.03990     -24.18985      -8.63154      -8.06886
     5  O(17)              0.04852     -29.41446     -10.49581      -9.81161
     6  H(1)               0.00232      10.37788       3.70309       3.46169
     7  H(1)               0.00749      33.49753      11.95275      11.17357
     8  H(1)              -0.00050      -2.23417      -0.79721      -0.74524
 --------------------------------------------------------
       Center         ----  Spin Dipole Couplings  ----
                      3XX-RR        3YY-RR        3ZZ-RR
 --------------------------------------------------------
     1   Atom       -0.036788      0.058539     -0.021752
     2   Atom       -0.018944      0.022732     -0.003788
     3   Atom       -0.013009     -0.004551      0.017560
     4   Atom        0.640374      0.098265     -0.738639
     5   Atom        1.255891      0.245672     -1.501563
     6   Atom       -0.008525      0.005780      0.002745
     7   Atom       -0.005893     -0.007916      0.013809
     8   Atom       -0.005428     -0.005421      0.010849
 --------------------------------------------------------
                        XY            XZ            YZ
 --------------------------------------------------------
     1   Atom       -0.036304      0.014034     -0.041794
     2   Atom       -0.012670     -0.001781     -0.003199
     3   Atom       -0.002195     -0.004649      0.004159
     4   Atom       -1.160035      0.138130     -0.097457
     5   Atom       -2.207732      0.226220     -0.164809
     6   Atom       -0.007063     -0.006930      0.011038
     7   Atom        0.000249      0.006586     -0.002368
     8   Atom        0.001217     -0.006144     -0.004140
 --------------------------------------------------------


 ---------------------------------------------------------------------------------
              Anisotropic Spin Dipole Couplings in Principal Axis System
 ---------------------------------------------------------------------------------

       Atom             a.u.   MegaHertz   Gauss  10(-4) cm-1        Axes

              Baa    -0.0490     3.548     1.266     1.184  0.9468  0.3218  0.0060
     1 O(17)  Bbb    -0.0394     2.850     1.017     0.951 -0.1248  0.3500  0.9284
              Bcc     0.0884    -6.399    -2.283    -2.134 -0.2967  0.8798 -0.3715
 
              Baa    -0.0228    -3.066    -1.094    -1.023  0.9522  0.2742  0.1350
     2 C(13)  Bbb    -0.0037    -0.491    -0.175    -0.164 -0.1532  0.0461  0.9871
              Bcc     0.0265     3.557     1.269     1.186 -0.2644  0.9606 -0.0859
 
              Baa    -0.0140    -1.875    -0.669    -0.626  0.9772  0.1742  0.1211
     3 C(13)  Bbb    -0.0051    -0.686    -0.245    -0.229 -0.1467  0.9672 -0.2075
              Bcc     0.0191     2.561     0.914     0.854 -0.1533  0.1850  0.9707
 
              Baa    -0.8232    59.566    21.255    19.869  0.6234  0.7711 -0.1296
     4 O(17)  Bbb    -0.7497    54.249    19.358    18.096  0.0242  0.1467  0.9889
              Bcc     1.5729  -113.816   -40.612   -37.965  0.7815 -0.6196  0.0728
 
              Baa    -1.5287   110.618    39.471    36.898 -0.4326 -0.4665  0.7715
     5 O(17)  Bbb    -1.5041   108.833    38.834    36.303  0.4512  0.6289  0.6332
              Bcc     3.0328  -219.451   -78.306   -73.201  0.7806 -0.6220  0.0616
 
              Baa    -0.0121    -6.473    -2.310    -2.159  0.9362  0.1851  0.2988
     6 H(1)   Bbb    -0.0068    -3.641    -1.299    -1.214 -0.0949 -0.6854  0.7219
              Bcc     0.0190    10.114     3.609     3.374 -0.3384  0.7042  0.6241
 
              Baa    -0.0089    -4.767    -1.701    -1.590 -0.6151  0.7458  0.2558
     7 H(1)   Bbb    -0.0071    -3.775    -1.347    -1.259  0.7348  0.6598 -0.1569
              Bcc     0.0160     8.542     3.048     2.849  0.2858 -0.0914  0.9539
 
              Baa    -0.0075    -4.007    -1.430    -1.336  0.9299  0.1359  0.3418
     8 H(1)   Bbb    -0.0064    -3.395    -1.211    -1.132 -0.2004  0.9664  0.1609
              Bcc     0.0139     7.401     2.641     2.469 -0.3085 -0.2181  0.9259
 

 ---------------------------------------------------------------------------------

 No NMR shielding tensors so no spin-rotation constants.
 Leave Link  601 at Sun Jun 12 00:36:55 2022, MaxMem=   939524096 cpu:         2.4
 (Enter /Local/ce_dana/g09/l9999.exe)

 This type of calculation cannot be archived.


 THERE ONCE WAS A GIRL NAMED IRENE,
 WHO LIVED ON DISTILLED KEROSENE,
      BUT SHE STARTED ABSORBIN'
      A NEW HYDROCARBON,
 AND SINCE THEN HAS NEVER BENZENE.
 Job cpu time:       0 days  3 hours 18 minutes 38.8 seconds.
 File lengths (MBytes):  RWF=     26 Int=      0 D2E=      0 Chk=      5 Scr=      1
 Normal termination of Gaussian 09 at Sun Jun 12 00:36:55 2022.
