 Entering Gaussian System, Link 0=/Local/ce_dana/g09/g09
 Initial command:
 /Local/ce_dana/g09/l1.exe "/storage/ce_dana/alongd/scratch/g09/Gau-18759.inp" -scrdir="/storage/ce_dana/alongd/scratch/g09/"
 Entering Link 1 = /Local/ce_dana/g09/l1.exe PID=     18760.
  
 Copyright (c) 1988,1990,1992,1993,1995,1998,2003,2009,2013,
            Gaussian, Inc.  All Rights Reserved.
  
 This is part of the Gaussian(R) 09 program.  It is based on
 the Gaussian(R) 03 system (copyright 2003, Gaussian, Inc.),
 the Gaussian(R) 98 system (copyright 1998, Gaussian, Inc.),
 the Gaussian(R) 94 system (copyright 1995, Gaussian, Inc.),
 the Gaussian 92(TM) system (copyright 1992, Gaussian, Inc.),
 the Gaussian 90(TM) system (copyright 1990, Gaussian, Inc.),
 the Gaussian 88(TM) system (copyright 1988, Gaussian, Inc.),
 the Gaussian 86(TM) system (copyright 1986, Carnegie Mellon
 University), and the Gaussian 82(TM) system (copyright 1983,
 Carnegie Mellon University). Gaussian is a federally registered
 trademark of Gaussian, Inc.
  
 This software contains proprietary and confidential information,
 including trade secrets, belonging to Gaussian, Inc.
  
 This software is provided under written license and may be
 used, copied, transmitted, or stored only in accord with that
 written license.
  
 The following legend is applicable only to US Government
 contracts under FAR:
  
                    RESTRICTED RIGHTS LEGEND
  
 Use, reproduction and disclosure by the US Government is
 subject to restrictions as set forth in subparagraphs (a)
 and (c) of the Commercial Computer Software - Restricted
 Rights clause in FAR 52.227-19.
  
 Gaussian, Inc.
 340 Quinnipiac St., Bldg. 40, Wallingford CT 06492
  
  
 ---------------------------------------------------------------
 Warning -- This program may not be used in any manner that
 competes with the business of Gaussian, Inc. or will provide
 assistance to any competitor of Gaussian, Inc.  The licensee
 of this program is prohibited from giving any competitor of
 Gaussian, Inc. access to this program.  By using this program,
 the user acknowledges that Gaussian, Inc. is engaged in the
 business of creating and licensing software in the field of
 computational chemistry and represents and warrants to the
 licensee that it is not a competitor of Gaussian, Inc. and that
 it will not use this program in any manner prohibited above.
 ---------------------------------------------------------------
  

 Cite this work as:
 Gaussian 09, Revision D.01,
 M. J. Frisch, G. W. Trucks, H. B. Schlegel, G. E. Scuseria, 
 M. A. Robb, J. R. Cheeseman, G. Scalmani, V. Barone, B. Mennucci, 
 G. A. Petersson, H. Nakatsuji, M. Caricato, X. Li, H. P. Hratchian, 
 A. F. Izmaylov, J. Bloino, G. Zheng, J. L. Sonnenberg, M. Hada, 
 M. Ehara, K. Toyota, R. Fukuda, J. Hasegawa, M. Ishida, T. Nakajima, 
 Y. Honda, O. Kitao, H. Nakai, T. Vreven, J. A. Montgomery, Jr., 
 J. E. Peralta, F. Ogliaro, M. Bearpark, J. J. Heyd, E. Brothers, 
 K. N. Kudin, V. N. Staroverov, T. Keith, R. Kobayashi, J. Normand, 
 K. Raghavachari, A. Rendell, J. C. Burant, S. S. Iyengar, J. Tomasi, 
 M. Cossi, N. Rega, J. M. Millam, M. Klene, J. E. Knox, J. B. Cross, 
 V. Bakken, C. Adamo, J. Jaramillo, R. Gomperts, R. E. Stratmann, 
 O. Yazyev, A. J. Austin, R. Cammi, C. Pomelli, J. W. Ochterski, 
 R. L. Martin, K. Morokuma, V. G. Zakrzewski, G. A. Voth, 
 P. Salvador, J. J. Dannenberg, S. Dapprich, A. D. Daniels, 
 O. Farkas, J. B. Foresman, J. V. Ortiz, J. Cioslowski, 
 and D. J. Fox, Gaussian, Inc., Wallingford CT, 2013.
 
 ******************************************
 Gaussian 09:  ES64L-G09RevD.01 24-Apr-2013
                12-Jun-2022 
 ******************************************
 %chk=check.chk
 %mem=7168mb
 %NProcShared=10
 Will use up to   10 processors via shared memory.
 ----------------------------------------------------------------------
 #P irc=(CalcAll, forward, maxpoints=50, stepsize=7) guess=read ub3lyp/
 cbsb7 IOp(2/9=2000) scf=xqc
 ----------------------------------------------------------------------
 1/10=4,14=-1,18=10,22=1,26=3,38=1,39=7,42=50,44=3,71=1/1,23;
 2/9=2000,12=2,17=6,18=5,29=1,40=1/2;
 3/5=4,6=6,7=700,11=2,16=1,25=1,30=1,71=2,74=-5,116=2,140=1/1,2,3;
 4/5=1/1;
 5/5=2,8=3,13=1,38=6/2,8;
 8/6=4,10=90,11=11/1;
 11/6=1,8=1,9=11,15=111,16=1/1,2,10;
 10/6=1,13=1/2;
 6/7=2,8=2,9=2,10=2,18=1,28=1/1;
 7/10=1,25=1/1,2,3,16;
 1/10=4,14=-1,18=10,22=1,26=3,39=7,42=50,44=3,71=1/23(2);
 2/9=2000,29=1/2;
 99/5=20/99;
 2/9=2000,29=1/2;
 3/5=4,6=6,7=700,11=2,16=1,25=1,30=1,71=2,74=-5,116=2,140=1/1,2,3;
 4/5=5,16=3,69=1/1;
 5/5=2,8=3,13=1,38=5/2,8;
 8/6=4,10=90,11=11/1;
 11/6=1,8=1,9=11,15=111,16=1/1,2,10;
 10/6=1,13=1/2;
 7/10=1,25=1/1,2,3,16;
 1/10=4,14=-1,18=10,22=1,26=3,39=7,42=50,44=3,71=1/23(-8);
 2/9=2000,29=1/2;
 6/7=2,8=2,9=2,10=2,18=1,19=2,28=1/1;
 99/5=20/99;
 Leave Link    1 at Sun Jun 12 00:15:07 2022, MaxMem=   939524096 cpu:         0.1
 (Enter /Local/ce_dana/g09/l101.exe)
 ---
 TS1
 ---
 Symbolic Z-matrix:
 Charge =  0 Multiplicity = 2
 O                    -0.97512   1.69354   1.01983 
 C                    -0.71802   1.02817   0.0855 
 C                    -0.45859  -0.50618  -0.03441 
 O                    -0.62575  -0.73178  -1.41019 
 O                     0.05667   0.32948  -2.03957 
 H                    -0.37414   1.19221  -1.20334 
 H                     0.57698  -0.65773   0.29594 
 H                    -1.15875  -1.12976   0.52336 
 
 NAtoms=      8 NQM=        8 NQMF=       0 NMMI=      0 NMMIF=      0
                NMic=       0 NMicF=      0.
                    Isotopes and Nuclear Properties:
 (Nuclear quadrupole moments (NQMom) in fm**2, nuclear magnetic moments (NMagM)
  in nuclear magnetons)

  Atom         1           2           3           4           5           6           7           8
 IAtWgt=          16          12          12          16          16           1           1           1
 AtmWgt=  15.9949146  12.0000000  12.0000000  15.9949146  15.9949146   1.0078250   1.0078250   1.0078250
 NucSpn=           0           0           0           0           0           1           1           1
 AtZEff=   0.0000000   0.0000000   0.0000000   0.0000000   0.0000000   0.0000000   0.0000000   0.0000000
 NQMom=    0.0000000   0.0000000   0.0000000   0.0000000   0.0000000   0.0000000   0.0000000   0.0000000
 NMagM=    0.0000000   0.0000000   0.0000000   0.0000000   0.0000000   2.7928460   2.7928460   2.7928460
 AtZNuc=   8.0000000   6.0000000   6.0000000   8.0000000   8.0000000   1.0000000   1.0000000   1.0000000
 Leave Link  101 at Sun Jun 12 00:15:07 2022, MaxMem=   939524096 cpu:         0.2
 (Enter /Local/ce_dana/g09/l123.exe)
 IRC-IRC-IRC-IRC-IRC-IRC-IRC-IRC-IRC-IRC-IRC-IRC-IRC-IRC-IRC-IRC-IRC-IRC
 ------------------------------------------------------------------------
 INPUT DATA FOR L123
 ------------------------------------------------------------------------
 GENERAL PARAMETERS:
 Rxn path following direction = Forward
 Maximum points per path      =  50
 Step size                    =   0.070 bohr
 Integration scheme           = HPC                                 
    Redo corrector integration= Yes                                 
    DWI Weight Power          =  2
    DWI will use Hessian update vectors when possible.
    Max correction cycles     =  20
 Initial Hessian              = CalcFC
 Hessian evaluation           = Analytic at all predictor steps
                              = Update at all corrector steps
 Hessian updating method      = Bofill                              
 ------------------------------------------------------------------------
 IRC-IRC-IRC-IRC-IRC-IRC-IRC-IRC-IRC-IRC-IRC-IRC-IRC-IRC-IRC-IRC-IRC-IRC
 Leave Link  123 at Sun Jun 12 00:15:07 2022, MaxMem=   939524096 cpu:         0.0
 (Enter /Local/ce_dana/g09/l202.exe)
                          Input orientation:                          
 ---------------------------------------------------------------------
 Center     Atomic      Atomic             Coordinates (Angstroms)
 Number     Number       Type             X           Y           Z
 ---------------------------------------------------------------------
      1          8           0       -0.975117    1.693544    1.019828
      2          6           0       -0.718021    1.028168    0.085502
      3          6           0       -0.458586   -0.506183   -0.034413
      4          8           0       -0.625751   -0.731784   -1.410192
      5          8           0        0.056671    0.329477   -2.039574
      6          1           0       -0.374140    1.192211   -1.203343
      7          1           0        0.576975   -0.657727    0.295940
      8          1           0       -1.158748   -1.129757    0.523356
 ---------------------------------------------------------------------
                    Distance matrix (angstroms):
                    1          2          3          4          5
     1  O    0.000000
     2  C    1.175495   0.000000
     3  C    2.493397   1.560743   0.000000
     4  O    3.450981   2.311503   1.404140   0.000000
     5  O    3.505026   2.367333   2.232597   1.409999   0.000000
     6  H    2.356904   1.343981   2.063509   1.951372   1.276397
     7  H    2.908862   2.136245   1.097490   2.088761   2.588419
     8  H    2.872496   2.245573   1.090953   2.044768   3.189862
                    6          7          8
     6  H    0.000000
     7  H    2.564126   0.000000
     8  H    2.998105   1.813082   0.000000
 Symmetry turned off by external request.
 Stoichiometry    C2H3O3(2)
 Framework group  C1[X(C2H3O3)]
 Deg. of freedom    18
 Full point group                 C1      NOp   1
 Rotational constants (GHZ):     13.1722198      3.6157949      2.9814481
 Leave Link  202 at Sun Jun 12 00:15:07 2022, MaxMem=   939524096 cpu:         0.0
 (Enter /Local/ce_dana/g09/l301.exe)
 Standard basis: 6-311G(2d,d,p) (5D, 7F)
 Ernie: Thresh=  0.10000D-02 Tol=  0.10000D-05 Strict=F.
   108 basis functions,   184 primitive gaussians,   113 cartesian basis functions
    20 alpha electrons       19 beta electrons
       nuclear repulsion energy       169.2330354507 Hartrees.
 IExCor=  402 DFT=T Ex+Corr=B3LYP ExCW=0 ScaHFX=  0.200000
 ScaDFX=  0.800000  0.720000  1.000000  0.810000 ScalE2=  1.000000  1.000000
 IRadAn=      0 IRanWt=     -1 IRanGd=            0 ICorTp=0 IEmpDi=  4
 NAtoms=    8 NActive=    8 NUniq=    8 SFac= 1.00D+00 NAtFMM=   60 NAOKFM=F Big=F
 Integral buffers will be    131072 words long.
 Raffenetti 2 integral format.
 Two-electron integral symmetry is turned off.
 Leave Link  301 at Sun Jun 12 00:15:08 2022, MaxMem=   939524096 cpu:         0.1
 (Enter /Local/ce_dana/g09/l302.exe)
 NPDir=0 NMtPBC=     1 NCelOv=     1 NCel=       1 NClECP=     1 NCelD=      1
         NCelK=      1 NCelE2=     1 NClLst=     1 CellRange=     0.0.
 One-electron integrals computed using PRISM.
 NBasis=   108 RedAO= T EigKep=  3.28D-03  NBF=   108
 NBsUse=   108 1.00D-06 EigRej= -1.00D+00 NBFU=   108
 Precomputing XC quadrature grid using
 IXCGrd= 4 IRadAn=           0 IRanWt=          -1 IRanGd=           0 AccXCQ= 0.00D+00.
 Generated NRdTot=       0 NPtTot=           0 NUsed=           0 NTot=          32
 NSgBfM=   113   113   113   113   113 MxSgAt=     8 MxSgA2=     8.
 Leave Link  302 at Sun Jun 12 00:15:08 2022, MaxMem=   939524096 cpu:         1.2
 (Enter /Local/ce_dana/g09/l303.exe)
 DipDrv:  MaxL=1.
 Leave Link  303 at Sun Jun 12 00:15:08 2022, MaxMem=   939524096 cpu:         0.1
 (Enter /Local/ce_dana/g09/l401.exe)
 Initial guess from the checkpoint file:  "check.chk"
 B after Tr=    -0.986976    0.623442   -0.945688
         Rot=   -0.237967    0.582624    0.169735    0.758361 Ang= 207.53 deg.
 Guess basis will be translated and rotated to current coordinates.
 JPrj=2 DoOrth=T DoCkMO=T.
 Initial guess <Sx>= 0.0000 <Sy>= 0.0000 <Sz>= 0.5000 <S**2>= 0.8140 S= 0.5315
 Leave Link  401 at Sun Jun 12 00:15:08 2022, MaxMem=   939524096 cpu:         0.5
 (Enter /Local/ce_dana/g09/l502.exe)
 UHF open shell SCF:
 Using DIIS extrapolation, IDIIS=  1040.
 Two-electron integral symmetry not used.
 Keep R1 and R2 ints in memory in canonical form, NReq=35632381.
 IVT=       46073 IEndB=       46073 NGot=   939524096 MDV=   904827142
 LenX=   904827142 LenY=   904813932
 Requested convergence on RMS density matrix=1.00D-08 within  64 cycles.
 Requested convergence on MAX density matrix=1.00D-06.
 Requested convergence on             energy=1.00D-06.
 No special actions if energy rises.
 FoFCou: FMM=F IPFlag=           0 FMFlag=           0 FMFlg1=           0
         NFxFlg=           0 DoJE=F BraDBF=F KetDBF=F FulRan=T
         wScrn=  0.000000 ICntrl=     600 IOpCl=  0 I1Cent=           0 NGrid=           0
         NMat0=    1 NMatS0=   5886 NMatT0=    0 NMatD0=    1 NMtDS0=    0 NMtDT0=    0
 Symmetry not used in FoFCou.

 Cycle   1  Pass 1  IDiag  1:
 E= -303.523521232946    
 DIIS: error= 1.86D-02 at cycle   1 NSaved=   1.
 NSaved= 1 IEnMin= 1 EnMin= -303.523521232946     IErMin= 1 ErrMin= 1.86D-02
 ErrMax= 1.86D-02  0.00D+00 EMaxC= 1.00D-01 BMatC= 4.40D-01 BMatP= 4.40D-01
 IDIUse=3 WtCom= 8.14D-01 WtEn= 1.86D-01
 Coeff-Com:  0.100D+01
 Coeff-En:   0.100D+01
 Coeff:      0.100D+01
 Gap=     6.436 Goal=   None    Shift=    0.000
 Gap=     1.897 Goal=   None    Shift=    0.000
 GapD=    1.897 DampG=2.000 DampE=0.500 DampFc=1.0000 IDamp=-1.
 RMSDP=2.19D-03 MaxDP=3.93D-02              OVMax= 1.00D-01

 Cycle   2  Pass 1  IDiag  1:
 E= -303.567656898542     Delta-E=       -0.044135665595 Rises=F Damp=F
 DIIS: error= 1.04D-02 at cycle   2 NSaved=   2.
 NSaved= 2 IEnMin= 2 EnMin= -303.567656898542     IErMin= 2 ErrMin= 1.04D-02
 ErrMax= 1.04D-02  0.00D+00 EMaxC= 1.00D-01 BMatC= 4.30D-02 BMatP= 4.40D-01
 IDIUse=3 WtCom= 8.96D-01 WtEn= 1.04D-01
 Coeff-Com:  0.127D+00 0.873D+00
 Coeff-En:   0.000D+00 0.100D+01
 Coeff:      0.114D+00 0.886D+00
 Gap=     0.174 Goal=   None    Shift=    0.000
 Gap=     0.130 Goal=   None    Shift=    0.000
 RMSDP=1.41D-03 MaxDP=3.62D-02 DE=-4.41D-02 OVMax= 7.33D-02

 Cycle   3  Pass 1  IDiag  1:
 E= -303.555248513302     Delta-E=        0.012408385240 Rises=F Damp=F
 DIIS: error= 1.93D-02 at cycle   3 NSaved=   3.
 NSaved= 3 IEnMin= 2 EnMin= -303.567656898542     IErMin= 2 ErrMin= 1.04D-02
 ErrMax= 1.93D-02  0.00D+00 EMaxC= 1.00D-01 BMatC= 1.15D-01 BMatP= 4.30D-02
 IDIUse=2 WtCom= 0.00D+00 WtEn= 1.00D+00
 Coeff-En:   0.000D+00 0.673D+00 0.327D+00
 Coeff:      0.000D+00 0.673D+00 0.327D+00
 Gap=     0.176 Goal=   None    Shift=    0.000
 Gap=     0.135 Goal=   None    Shift=    0.000
 RMSDP=8.01D-04 MaxDP=1.31D-02 DE= 1.24D-02 OVMax= 5.51D-02

 Cycle   4  Pass 1  IDiag  1:
 E= -303.576963702490     Delta-E=       -0.021715189188 Rises=F Damp=F
 DIIS: error= 2.99D-03 at cycle   4 NSaved=   4.
 NSaved= 4 IEnMin= 4 EnMin= -303.576963702490     IErMin= 4 ErrMin= 2.99D-03
 ErrMax= 2.99D-03  0.00D+00 EMaxC= 1.00D-01 BMatC= 2.49D-03 BMatP= 4.30D-02
 IDIUse=3 WtCom= 9.70D-01 WtEn= 2.99D-02
 Coeff-Com: -0.366D-02 0.250D+00 0.123D+00 0.631D+00
 Coeff-En:   0.000D+00 0.000D+00 0.000D+00 0.100D+01
 Coeff:     -0.355D-02 0.242D+00 0.120D+00 0.642D+00
 Gap=     0.172 Goal=   None    Shift=    0.000
 Gap=     0.130 Goal=   None    Shift=    0.000
 RMSDP=2.73D-04 MaxDP=7.07D-03 DE=-2.17D-02 OVMax= 1.88D-02

 Cycle   5  Pass 1  IDiag  1:
 E= -303.577607976863     Delta-E=       -0.000644274373 Rises=F Damp=F
 DIIS: error= 7.59D-04 at cycle   5 NSaved=   5.
 NSaved= 5 IEnMin= 5 EnMin= -303.577607976863     IErMin= 5 ErrMin= 7.59D-04
 ErrMax= 7.59D-04  0.00D+00 EMaxC= 1.00D-01 BMatC= 4.15D-04 BMatP= 2.49D-03
 IDIUse=3 WtCom= 9.92D-01 WtEn= 7.59D-03
 Coeff-Com: -0.599D-02 0.190D-01 0.127D-01 0.254D+00 0.720D+00
 Coeff-En:   0.000D+00 0.000D+00 0.000D+00 0.000D+00 0.100D+01
 Coeff:     -0.594D-02 0.189D-01 0.126D-01 0.253D+00 0.722D+00
 Gap=     0.174 Goal=   None    Shift=    0.000
 Gap=     0.131 Goal=   None    Shift=    0.000
 RMSDP=1.35D-04 MaxDP=2.52D-03 DE=-6.44D-04 OVMax= 1.40D-02

 Cycle   6  Pass 1  IDiag  1:
 E= -303.577746203705     Delta-E=       -0.000138226842 Rises=F Damp=F
 DIIS: error= 7.98D-04 at cycle   6 NSaved=   6.
 NSaved= 6 IEnMin= 6 EnMin= -303.577746203705     IErMin= 5 ErrMin= 7.59D-04
 ErrMax= 7.98D-04  0.00D+00 EMaxC= 1.00D-01 BMatC= 3.45D-04 BMatP= 4.15D-04
 IDIUse=3 WtCom= 9.92D-01 WtEn= 7.59D-03
 Coeff-Com: -0.167D-02-0.910D-01-0.346D-01-0.497D-01 0.570D+00 0.607D+00
 Coeff-En:   0.000D+00 0.000D+00 0.000D+00 0.000D+00 0.000D+00 0.100D+01
 Coeff:     -0.166D-02-0.903D-01-0.344D-01-0.493D-01 0.566D+00 0.610D+00
 Gap=     0.173 Goal=   None    Shift=    0.000
 Gap=     0.129 Goal=   None    Shift=    0.000
 RMSDP=1.21D-04 MaxDP=2.41D-03 DE=-1.38D-04 OVMax= 1.17D-02

 Cycle   7  Pass 1  IDiag  1:
 E= -303.577855560889     Delta-E=       -0.000109357184 Rises=F Damp=F
 DIIS: error= 3.90D-04 at cycle   7 NSaved=   7.
 NSaved= 7 IEnMin= 7 EnMin= -303.577855560889     IErMin= 7 ErrMin= 3.90D-04
 ErrMax= 3.90D-04  0.00D+00 EMaxC= 1.00D-01 BMatC= 3.75D-05 BMatP= 3.45D-04
 IDIUse=3 WtCom= 9.96D-01 WtEn= 3.90D-03
 Coeff-Com:  0.634D-03-0.428D-01-0.120D-01-0.960D-01 0.868D-01 0.299D+00
 Coeff-Com:  0.765D+00
 Coeff-En:   0.000D+00 0.000D+00 0.000D+00 0.000D+00 0.000D+00 0.000D+00
 Coeff-En:   0.100D+01
 Coeff:      0.631D-03-0.426D-01-0.119D-01-0.957D-01 0.864D-01 0.298D+00
 Coeff:      0.765D+00
 Gap=     0.172 Goal=   None    Shift=    0.000
 Gap=     0.128 Goal=   None    Shift=    0.000
 RMSDP=5.71D-05 MaxDP=1.14D-03 DE=-1.09D-04 OVMax= 6.77D-03

 Cycle   8  Pass 1  IDiag  1:
 E= -303.577872487639     Delta-E=       -0.000016926750 Rises=F Damp=F
 DIIS: error= 1.62D-04 at cycle   8 NSaved=   8.
 NSaved= 8 IEnMin= 8 EnMin= -303.577872487639     IErMin= 8 ErrMin= 1.62D-04
 ErrMax= 1.62D-04  0.00D+00 EMaxC= 1.00D-01 BMatC= 1.88D-05 BMatP= 3.75D-05
 IDIUse=3 WtCom= 9.98D-01 WtEn= 1.62D-03
 Coeff-Com:  0.640D-03-0.166D-01-0.315D-02-0.652D-01-0.378D-01 0.121D+00
 Coeff-Com:  0.556D+00 0.445D+00
 Coeff-En:   0.000D+00 0.000D+00 0.000D+00 0.000D+00 0.000D+00 0.000D+00
 Coeff-En:   0.000D+00 0.100D+01
 Coeff:      0.639D-03-0.166D-01-0.315D-02-0.651D-01-0.378D-01 0.121D+00
 Coeff:      0.555D+00 0.446D+00
 Gap=     0.173 Goal=   None    Shift=    0.000
 Gap=     0.129 Goal=   None    Shift=    0.000
 RMSDP=2.05D-05 MaxDP=3.42D-04 DE=-1.69D-05 OVMax= 1.61D-03

 Cycle   9  Pass 1  IDiag  1:
 E= -303.577877810395     Delta-E=       -0.000005322756 Rises=F Damp=F
 DIIS: error= 4.84D-05 at cycle   9 NSaved=   9.
 NSaved= 9 IEnMin= 9 EnMin= -303.577877810395     IErMin= 9 ErrMin= 4.84D-05
 ErrMax= 4.84D-05  0.00D+00 EMaxC= 1.00D-01 BMatC= 1.16D-06 BMatP= 1.88D-05
 IDIUse=1 WtCom= 1.00D+00 WtEn= 0.00D+00
 Coeff-Com:  0.243D-04 0.862D-02 0.209D-02 0.118D-01-0.434D-01-0.498D-01
 Coeff-Com: -0.827D-01 0.113D+00 0.104D+01
 Coeff:      0.243D-04 0.862D-02 0.209D-02 0.118D-01-0.434D-01-0.498D-01
 Coeff:     -0.827D-01 0.113D+00 0.104D+01
 Gap=     0.173 Goal=   None    Shift=    0.000
 Gap=     0.128 Goal=   None    Shift=    0.000
 RMSDP=2.02D-05 MaxDP=2.65D-04 DE=-5.32D-06 OVMax= 2.74D-03

 Cycle  10  Pass 1  IDiag  1:
 E= -303.577879369256     Delta-E=       -0.000001558861 Rises=F Damp=F
 DIIS: error= 3.11D-05 at cycle  10 NSaved=  10.
 NSaved=10 IEnMin=10 EnMin= -303.577879369256     IErMin=10 ErrMin= 3.11D-05
 ErrMax= 3.11D-05  0.00D+00 EMaxC= 1.00D-01 BMatC= 3.48D-07 BMatP= 1.16D-06
 IDIUse=1 WtCom= 1.00D+00 WtEn= 0.00D+00
 Coeff-Com: -0.980D-04 0.495D-02 0.684D-03 0.155D-01-0.108D-01-0.286D-01
 Coeff-Com: -0.110D+00-0.693D-01 0.294D+00 0.904D+00
 Coeff:     -0.980D-04 0.495D-02 0.684D-03 0.155D-01-0.108D-01-0.286D-01
 Coeff:     -0.110D+00-0.693D-01 0.294D+00 0.904D+00
 Gap=     0.173 Goal=   None    Shift=    0.000
 Gap=     0.128 Goal=   None    Shift=    0.000
 RMSDP=8.54D-06 MaxDP=1.09D-04 DE=-1.56D-06 OVMax= 1.03D-03

 Cycle  11  Pass 1  IDiag  1:
 E= -303.577879656719     Delta-E=       -0.000000287463 Rises=F Damp=F
 DIIS: error= 1.56D-05 at cycle  11 NSaved=  11.
 NSaved=11 IEnMin=11 EnMin= -303.577879656719     IErMin=11 ErrMin= 1.56D-05
 ErrMax= 1.56D-05  0.00D+00 EMaxC= 1.00D-01 BMatC= 9.47D-08 BMatP= 3.48D-07
 IDIUse=1 WtCom= 1.00D+00 WtEn= 0.00D+00
 Coeff-Com: -0.407D-04 0.390D-03-0.164D-03 0.525D-02 0.293D-02 0.150D-02
 Coeff-Com: -0.315D-01-0.669D-01-0.105D+00 0.443D+00 0.751D+00
 Coeff:     -0.407D-04 0.390D-03-0.164D-03 0.525D-02 0.293D-02 0.150D-02
 Coeff:     -0.315D-01-0.669D-01-0.105D+00 0.443D+00 0.751D+00
 Gap=     0.173 Goal=   None    Shift=    0.000
 Gap=     0.128 Goal=   None    Shift=    0.000
 RMSDP=3.67D-06 MaxDP=5.22D-05 DE=-2.87D-07 OVMax= 5.04D-04

 Cycle  12  Pass 1  IDiag  1:
 E= -303.577879713469     Delta-E=       -0.000000056750 Rises=F Damp=F
 DIIS: error= 3.46D-06 at cycle  12 NSaved=  12.
 NSaved=12 IEnMin=12 EnMin= -303.577879713469     IErMin=12 ErrMin= 3.46D-06
 ErrMax= 3.46D-06  0.00D+00 EMaxC= 1.00D-01 BMatC= 1.15D-08 BMatP= 9.47D-08
 IDIUse=1 WtCom= 1.00D+00 WtEn= 0.00D+00
 Coeff-Com:  0.578D-05-0.734D-03-0.170D-03-0.145D-02 0.988D-03 0.718D-02
 Coeff-Com:  0.109D-01-0.971D-02-0.490D-01-0.738D-01 0.138D+00 0.978D+00
 Coeff:      0.578D-05-0.734D-03-0.170D-03-0.145D-02 0.988D-03 0.718D-02
 Coeff:      0.109D-01-0.971D-02-0.490D-01-0.738D-01 0.138D+00 0.978D+00
 Gap=     0.173 Goal=   None    Shift=    0.000
 Gap=     0.128 Goal=   None    Shift=    0.000
 RMSDP=1.37D-06 MaxDP=1.64D-05 DE=-5.67D-08 OVMax= 1.67D-04

 Cycle  13  Pass 1  IDiag  1:
 E= -303.577879720518     Delta-E=       -0.000000007049 Rises=F Damp=F
 DIIS: error= 1.43D-06 at cycle  13 NSaved=  13.
 NSaved=13 IEnMin=13 EnMin= -303.577879720518     IErMin=13 ErrMin= 1.43D-06
 ErrMax= 1.43D-06  0.00D+00 EMaxC= 1.00D-01 BMatC= 1.21D-09 BMatP= 1.15D-08
 IDIUse=1 WtCom= 1.00D+00 WtEn= 0.00D+00
 Coeff-Com:  0.515D-05-0.419D-04-0.199D-04-0.597D-03-0.534D-03 0.522D-03
 Coeff-Com:  0.363D-02 0.432D-02 0.208D-01-0.616D-01-0.870D-01-0.201D-01
 Coeff-Com:  0.114D+01
 Coeff:      0.515D-05-0.419D-04-0.199D-04-0.597D-03-0.534D-03 0.522D-03
 Coeff:      0.363D-02 0.432D-02 0.208D-01-0.616D-01-0.870D-01-0.201D-01
 Coeff:      0.114D+01
 Gap=     0.173 Goal=   None    Shift=    0.000
 Gap=     0.128 Goal=   None    Shift=    0.000
 RMSDP=4.87D-07 MaxDP=5.70D-06 DE=-7.05D-09 OVMax= 5.57D-05

 Cycle  14  Pass 1  IDiag  1:
 E= -303.577879721360     Delta-E=       -0.000000000843 Rises=F Damp=F
 DIIS: error= 4.96D-07 at cycle  14 NSaved=  14.
 NSaved=14 IEnMin=14 EnMin= -303.577879721360     IErMin=14 ErrMin= 4.96D-07
 ErrMax= 4.96D-07  0.00D+00 EMaxC= 1.00D-01 BMatC= 6.21D-11 BMatP= 1.21D-09
 IDIUse=1 WtCom= 1.00D+00 WtEn= 0.00D+00
 Coeff-Com: -0.662D-06 0.695D-04 0.700D-05 0.193D-03-0.916D-04-0.766D-03
 Coeff-Com: -0.122D-02 0.330D-03 0.553D-02 0.817D-02-0.114D-01-0.102D+00
 Coeff-Com: -0.419D-01 0.114D+01
 Coeff:     -0.662D-06 0.695D-04 0.700D-05 0.193D-03-0.916D-04-0.766D-03
 Coeff:     -0.122D-02 0.330D-03 0.553D-02 0.817D-02-0.114D-01-0.102D+00
 Coeff:     -0.419D-01 0.114D+01
 Gap=     0.173 Goal=   None    Shift=    0.000
 Gap=     0.128 Goal=   None    Shift=    0.000
 RMSDP=1.56D-07 MaxDP=2.11D-06 DE=-8.43D-10 OVMax= 1.86D-05

 Cycle  15  Pass 1  IDiag  1:
 E= -303.577879721440     Delta-E=       -0.000000000080 Rises=F Damp=F
 DIIS: error= 1.46D-07 at cycle  15 NSaved=  15.
 NSaved=15 IEnMin=15 EnMin= -303.577879721440     IErMin=15 ErrMin= 1.46D-07
 ErrMax= 1.46D-07  0.00D+00 EMaxC= 1.00D-01 BMatC= 6.81D-12 BMatP= 6.21D-11
 IDIUse=1 WtCom= 1.00D+00 WtEn= 0.00D+00
 Coeff-Com: -0.678D-06 0.145D-04 0.472D-05 0.982D-04 0.443D-04-0.163D-03
 Coeff-Com: -0.573D-03-0.530D-03-0.155D-02 0.795D-02 0.847D-02-0.122D-01
 Coeff-Com: -0.135D+00 0.168D+00 0.966D+00
 Coeff:     -0.678D-06 0.145D-04 0.472D-05 0.982D-04 0.443D-04-0.163D-03
 Coeff:     -0.573D-03-0.530D-03-0.155D-02 0.795D-02 0.847D-02-0.122D-01
 Coeff:     -0.135D+00 0.168D+00 0.966D+00
 Gap=     0.173 Goal=   None    Shift=    0.000
 Gap=     0.128 Goal=   None    Shift=    0.000
 RMSDP=4.01D-08 MaxDP=5.99D-07 DE=-7.98D-11 OVMax= 4.74D-06

 Cycle  16  Pass 1  IDiag  1:
 E= -303.577879721445     Delta-E=       -0.000000000004 Rises=F Damp=F
 DIIS: error= 6.60D-08 at cycle  16 NSaved=  16.
 NSaved=16 IEnMin=16 EnMin= -303.577879721445     IErMin=16 ErrMin= 6.60D-08
 ErrMax= 6.60D-08  0.00D+00 EMaxC= 1.00D-01 BMatC= 7.73D-13 BMatP= 6.81D-12
 IDIUse=1 WtCom= 1.00D+00 WtEn= 0.00D+00
 Coeff-Com:  0.608D-07-0.825D-05 0.385D-06-0.243D-04 0.108D-04 0.926D-04
 Coeff-Com:  0.148D-03-0.552D-04-0.701D-03-0.858D-03 0.192D-02 0.121D-01
 Coeff-Com:  0.511D-03-0.142D+00 0.302D-01 0.110D+01
 Coeff:      0.608D-07-0.825D-05 0.385D-06-0.243D-04 0.108D-04 0.926D-04
 Coeff:      0.148D-03-0.552D-04-0.701D-03-0.858D-03 0.192D-02 0.121D-01
 Coeff:      0.511D-03-0.142D+00 0.302D-01 0.110D+01
 Gap=     0.173 Goal=   None    Shift=    0.000
 Gap=     0.128 Goal=   None    Shift=    0.000
 RMSDP=1.27D-08 MaxDP=2.01D-07 DE=-4.43D-12 OVMax= 1.32D-06

 Cycle  17  Pass 1  IDiag  1:
 E= -303.577879721445     Delta-E=       -0.000000000001 Rises=F Damp=F
 DIIS: error= 1.90D-08 at cycle  17 NSaved=  17.
 NSaved=17 IEnMin=17 EnMin= -303.577879721445     IErMin=17 ErrMin= 1.90D-08
 ErrMax= 1.90D-08  0.00D+00 EMaxC= 1.00D-01 BMatC= 7.08D-14 BMatP= 7.73D-13
 IDIUse=1 WtCom= 1.00D+00 WtEn= 0.00D+00
 Coeff-Com:  0.583D-07-0.173D-05-0.552D-06-0.983D-05-0.223D-05 0.137D-04
 Coeff-Com:  0.545D-04 0.462D-04 0.164D-03-0.733D-03-0.832D-03 0.897D-03
 Coeff-Com:  0.124D-01-0.139D-01-0.891D-01 0.134D-02 0.109D+01
 Coeff:      0.583D-07-0.173D-05-0.552D-06-0.983D-05-0.223D-05 0.137D-04
 Coeff:      0.545D-04 0.462D-04 0.164D-03-0.733D-03-0.832D-03 0.897D-03
 Coeff:      0.124D-01-0.139D-01-0.891D-01 0.134D-02 0.109D+01
 Gap=     0.173 Goal=   None    Shift=    0.000
 Gap=     0.128 Goal=   None    Shift=    0.000
 RMSDP=3.72D-09 MaxDP=6.66D-08 DE=-7.96D-13 OVMax= 3.23D-07

 SCF Done:  E(UB3LYP) =  -303.577879721     A.U. after   17 cycles
            NFock= 17  Conv=0.37D-08     -V/T= 2.0026
 <Sx>= 0.0000 <Sy>= 0.0000 <Sz>= 0.5000 <S**2>= 0.7567 S= 0.5033
 <L.S>=  0.00000000000    
 KE= 3.027782265968D+02 PE=-1.052990773678D+03 EE= 2.774016319089D+02
 Annihilation of the first spin contaminant:
 S**2 before annihilation     0.7567,   after     0.7500
 Leave Link  502 at Sun Jun 12 00:15:13 2022, MaxMem=   939524096 cpu:        40.0
 (Enter /Local/ce_dana/g09/l508.exe)
 QCSCF skips out because SCF is already converged.
 Leave Link  508 at Sun Jun 12 00:15:13 2022, MaxMem=   939524096 cpu:         0.0
 (Enter /Local/ce_dana/g09/l801.exe)
 DoSCS=F DFT=T ScalE2(SS,OS)=  1.000000  1.000000
 Range of M.O.s used for correlation:     1   108
 NBasis=   108 NAE=    20 NBE=    19 NFC=     0 NFV=     0
 NROrb=    108 NOA=    20 NOB=    19 NVA=    88 NVB=    89
 Leave Link  801 at Sun Jun 12 00:15:13 2022, MaxMem=   939524096 cpu:         0.1
 (Enter /Local/ce_dana/g09/l1101.exe)
 Using compressed storage, NAtomX=     8.
 Will process      9 centers per pass.
 Leave Link 1101 at Sun Jun 12 00:15:14 2022, MaxMem=   939524096 cpu:         1.3
 (Enter /Local/ce_dana/g09/l1102.exe)
 Symmetrizing basis deriv contribution to polar:
 IMax=3 JMax=2 DiffMx= 0.00D+00
 Leave Link 1102 at Sun Jun 12 00:15:14 2022, MaxMem=   939524096 cpu:         0.1
 (Enter /Local/ce_dana/g09/l1110.exe)
 Forming Gx(P) for the SCF density, NAtomX=     8.
 Integral derivatives from FoFJK, PRISM(SPDF).
 Do as many integral derivatives as possible in FoFJK.
 G2DrvN: MDV=     939523928.
 G2DrvN: will do     9 centers at a time, making    1 passes.
 Calling FoFCou, ICntrl=  3107 FMM=F I1Cent=   0 AccDes= 0.00D+00.
 FoFJK:  IHMeth= 1 ICntrl=    3107 DoSepK=F KAlg= 0 I1Cent=   0 FoldK=F
 IRaf=         0 NMat=   1 IRICut=       1 DoRegI=T DoRafI=F ISym2E= 0.
 FoFCou: FMM=F IPFlag=           0 FMFlag=      100000 FMFlg1=           0
         NFxFlg=           0 DoJE=F BraDBF=F KetDBF=F FulRan=T
         wScrn=  0.000000 ICntrl=    3107 IOpCl=  1 I1Cent=           0 NGrid=           0
         NMat0=    1 NMatS0=      1 NMatT0=    0 NMatD0=    1 NMtDS0=    0 NMtDT0=    0
 Symmetry not used in FoFCou.
 End of G2Drv F.D. properties file   721 does not exist.
 End of G2Drv F.D. properties file   722 does not exist.
 End of G2Drv F.D. properties file   788 does not exist.
 Leave Link 1110 at Sun Jun 12 00:15:17 2022, MaxMem=   939524096 cpu:        33.1
 (Enter /Local/ce_dana/g09/l1002.exe)
 Minotr:  UHF open shell wavefunction.
          IDoAtm=11111111
          Direct CPHF calculation.
          Differentiating once with respect to nuclear coordinates.
          Requested convergence is 1.0D-08 RMS, and 1.0D-07 maximum.
          Secondary convergence is 1.0D-12 RMS, and 1.0D-12 maximum.
          NewPWx=T KeepS1=F KeepF1=F KeepIn=T MapXYZ=F SortEE=F KeepMc=T.
          MDV=     939523796 using IRadAn=       2.
 Generate precomputed XC quadrature information.
 Keep R1 and R2 ints in memory in canonical form, NReq=35587770.
 FoFCou: FMM=F IPFlag=           0 FMFlag=           0 FMFlg1=           0
         NFxFlg=           0 DoJE=F BraDBF=F KetDBF=F FulRan=T
         wScrn=  0.000000 ICntrl=     600 IOpCl=  0 I1Cent=           0 NGrid=           0
         NMat0=    1 NMatS0=   5886 NMatT0=    0 NMatD0=    1 NMtDS0=    0 NMtDT0=    0
 Symmetry not used in FoFCou.
          Solving linear equations simultaneously, MaxMat=       0.
          There are    27 degrees of freedom in the 1st order CPHF.  IDoFFX=6 NUNeed=     0.
     21 vectors produced by pass  0 Test12= 1.28D-14 3.70D-09 XBig12= 2.00D-01 1.45D-01.
 AX will form    21 AO Fock derivatives at one time.
     21 vectors produced by pass  1 Test12= 1.28D-14 3.70D-09 XBig12= 2.10D-02 3.29D-02.
     21 vectors produced by pass  2 Test12= 1.28D-14 3.70D-09 XBig12= 7.85D-04 6.79D-03.
     21 vectors produced by pass  3 Test12= 1.28D-14 3.70D-09 XBig12= 1.69D-05 7.95D-04.
     21 vectors produced by pass  4 Test12= 1.28D-14 3.70D-09 XBig12= 2.79D-07 9.29D-05.
     21 vectors produced by pass  5 Test12= 1.28D-14 3.70D-09 XBig12= 2.24D-09 6.72D-06.
     20 vectors produced by pass  6 Test12= 1.28D-14 3.70D-09 XBig12= 1.12D-11 5.52D-07.
     15 vectors produced by pass  7 Test12= 1.28D-14 3.70D-09 XBig12= 5.61D-14 2.80D-08.
 InvSVY:  IOpt=1 It=  1 EMax= 1.67D-15
 Solved reduced A of dimension   161 with    21 vectors.
 End of Minotr F.D. properties file   721 does not exist.
 End of Minotr F.D. properties file   722 does not exist.
 End of Minotr F.D. properties file   788 does not exist.
 Leave Link 1002 at Sun Jun 12 00:15:22 2022, MaxMem=   939524096 cpu:        48.3
 (Enter /Local/ce_dana/g09/l601.exe)
 Copying SCF densities to generalized density rwf, IOpCl= 1 IROHF=0.

 **********************************************************************

            Population analysis using the SCF density.

 **********************************************************************

 Alpha  occ. eigenvalues --  -19.21494 -19.20211 -19.18112 -10.30692 -10.27602
 Alpha  occ. eigenvalues --   -1.16440  -1.13499  -0.90442  -0.76093  -0.60878
 Alpha  occ. eigenvalues --   -0.55850  -0.53162  -0.52109  -0.47205  -0.45861
 Alpha  occ. eigenvalues --   -0.42239  -0.40549  -0.36688  -0.28213  -0.24091
 Alpha virt. eigenvalues --   -0.06813   0.02037   0.04342   0.07719   0.11813
 Alpha virt. eigenvalues --    0.12692   0.19083   0.21144   0.33571   0.36067
 Alpha virt. eigenvalues --    0.37244   0.39984   0.43565   0.44719   0.53356
 Alpha virt. eigenvalues --    0.55076   0.58285   0.62437   0.66738   0.71272
 Alpha virt. eigenvalues --    0.75067   0.76227   0.79744   0.85278   0.86606
 Alpha virt. eigenvalues --    0.89901   0.90568   0.98810   1.13553   1.14330
 Alpha virt. eigenvalues --    1.15215   1.33970   1.35663   1.38283   1.42480
 Alpha virt. eigenvalues --    1.45503   1.47453   1.48910   1.57483   1.58490
 Alpha virt. eigenvalues --    1.63938   1.65136   1.73907   1.88997   1.93754
 Alpha virt. eigenvalues --    2.01290   2.07951   2.25986   2.31733   2.33396
 Alpha virt. eigenvalues --    2.45141   2.48530   2.53836   2.57117   2.60708
 Alpha virt. eigenvalues --    2.64417   2.69730   2.79483   2.81504   2.84007
 Alpha virt. eigenvalues --    2.90081   2.95003   3.09657   3.15635   3.25702
 Alpha virt. eigenvalues --    3.30371   3.32235   3.44375   3.49282   3.59635
 Alpha virt. eigenvalues --    3.68473   3.74844   3.88536   3.95843   4.65633
 Alpha virt. eigenvalues --    4.73558   4.82466   4.84768   4.92782   4.97862
 Alpha virt. eigenvalues --    5.26857   5.49775   5.69105  23.71553  23.75171
 Alpha virt. eigenvalues --   49.73196  49.77909  49.88944
  Beta  occ. eigenvalues --  -19.21167 -19.19523 -19.17005 -10.30286 -10.27385
  Beta  occ. eigenvalues --   -1.15296  -1.12295  -0.88571  -0.74756  -0.59254
  Beta  occ. eigenvalues --   -0.54346  -0.52671  -0.50679  -0.45625  -0.44687
  Beta  occ. eigenvalues --   -0.41330  -0.37333  -0.33889  -0.26560
  Beta virt. eigenvalues --   -0.13712  -0.06003   0.02837   0.04577   0.07927
  Beta virt. eigenvalues --    0.12384   0.13458   0.19943   0.22401   0.34328
  Beta virt. eigenvalues --    0.36457   0.37637   0.40228   0.44158   0.45363
  Beta virt. eigenvalues --    0.53794   0.55331   0.58999   0.63309   0.67440
  Beta virt. eigenvalues --    0.71623   0.75482   0.77233   0.80228   0.85920
  Beta virt. eigenvalues --    0.88368   0.90360   0.91306   0.99892   1.14059
  Beta virt. eigenvalues --    1.15192   1.15985   1.34413   1.36684   1.38950
  Beta virt. eigenvalues --    1.43173   1.45939   1.47987   1.49467   1.57799
  Beta virt. eigenvalues --    1.58827   1.64161   1.65560   1.74565   1.89963
  Beta virt. eigenvalues --    1.94446   2.01429   2.09331   2.26555   2.32335
  Beta virt. eigenvalues --    2.33635   2.45519   2.49084   2.54611   2.57601
  Beta virt. eigenvalues --    2.61461   2.64956   2.70761   2.81175   2.83090
  Beta virt. eigenvalues --    2.85268   2.92434   2.95946   3.10800   3.17048
  Beta virt. eigenvalues --    3.26319   3.32031   3.32692   3.46382   3.50385
  Beta virt. eigenvalues --    3.60611   3.69493   3.76019   3.88862   3.96506
  Beta virt. eigenvalues --    4.66182   4.74768   4.83159   4.85968   4.95556
  Beta virt. eigenvalues --    5.01542   5.27362   5.50478   5.69756  23.71819
  Beta virt. eigenvalues --   23.75587  49.74069  49.78460  49.89621
          Condensed to atoms (all electrons):
               1          2          3          4          5          6
     1  O    7.667743   0.571856  -0.048336   0.001677   0.001178  -0.018778
     2  C    0.571856   5.002392   0.215321  -0.019724  -0.093924   0.275553
     3  C   -0.048336   0.215321   5.028747   0.220649  -0.049982  -0.090328
     4  O    0.001677  -0.019724   0.220649   7.990928   0.078240  -0.042321
     5  O    0.001178  -0.093924  -0.049982   0.078240   8.166366   0.137009
     6  H   -0.018778   0.275553  -0.090328  -0.042321   0.137009   0.521273
     7  H    0.001230  -0.035016   0.363908  -0.031819   0.007972   0.000144
     8  H    0.002438  -0.019523   0.375020  -0.018811   0.004532   0.003231
               7          8
     1  O    0.001230   0.002438
     2  C   -0.035016  -0.019523
     3  C    0.363908   0.375020
     4  O   -0.031819  -0.018811
     5  O    0.007972   0.004532
     6  H    0.000144   0.003231
     7  H    0.560792  -0.019048
     8  H   -0.019048   0.517059
          Atomic-Atomic Spin Densities.
               1          2          3          4          5          6
     1  O    0.325869  -0.096000  -0.007663  -0.000204   0.000977  -0.002926
     2  C   -0.096000   0.324692  -0.021119   0.014885  -0.049187   0.055154
     3  C   -0.007663  -0.021119   0.144223  -0.020134   0.019383   0.003844
     4  O   -0.000204   0.014885  -0.020134   0.147580  -0.046930   0.006322
     5  O    0.000977  -0.049187   0.019383  -0.046930   0.467846  -0.031566
     6  H   -0.002926   0.055154   0.003844   0.006322  -0.031566  -0.056739
     7  H    0.002304   0.008028  -0.025183  -0.005298  -0.001853   0.004221
     8  H    0.001437  -0.000081  -0.006716  -0.000140  -0.000645   0.000205
               7          8
     1  O    0.002304   0.001437
     2  C    0.008028  -0.000081
     3  C   -0.025183  -0.006716
     4  O   -0.005298  -0.000140
     5  O   -0.001853  -0.000645
     6  H    0.004221   0.000205
     7  H    0.033026   0.006056
     8  H    0.006056  -0.000837
 Mulliken charges and spin densities:
               1          2
     1  O   -0.179008   0.223795
     2  C    0.103064   0.236372
     3  C   -0.014998   0.086634
     4  O   -0.178819   0.096081
     5  O   -0.251392   0.358026
     6  H    0.214216  -0.021486
     7  H    0.151835   0.021299
     8  H    0.155101  -0.000721
 Sum of Mulliken charges =  -0.00000   1.00000
 Mulliken charges and spin densities with hydrogens summed into heavy atoms:
               1          2
     1  O   -0.179008   0.223795
     2  C    0.103064   0.236372
     3  C    0.291939   0.107212
     4  O   -0.178819   0.096081
     5  O   -0.037176   0.336540
 APT charges:
               1
     1  O    0.371084
     2  C   -0.486133
     3  C   -0.416421
     4  O   -0.033014
     5  O   -0.248700
     6  H    0.182953
     7  H    0.235219
     8  H    0.395012
 Sum of APT charges =  -0.00000
 APT charges with hydrogens summed into heavy atoms:
               1
     1  O    0.371084
     2  C   -0.486133
     3  C    0.213810
     4  O   -0.033014
     5  O   -0.065747
 Electronic spatial extent (au):  <R**2>=            481.4725
 Charge=             -0.0000 electrons
 Dipole moment (field-independent basis, Debye):
    X=              0.0302    Y=             -0.8157    Z=              2.1485  Tot=              2.2983
 Quadrupole moment (field-independent basis, Debye-Ang):
   XX=            -27.9162   YY=            -29.6438   ZZ=            -35.6881
   XY=              1.1001   XZ=              0.4046   YZ=             -3.4412
 Traceless Quadrupole moment (field-independent basis, Debye-Ang):
   XX=              3.1665   YY=              1.4389   ZZ=             -4.6054
   XY=              1.1001   XZ=              0.4046   YZ=             -3.4412
 Octapole moment (field-independent basis, Debye-Ang**2):
  XXX=             43.3564  YYY=            -31.3331  ZZZ=             52.1417  XYY=             17.1054
  XXY=            -10.7650  XXZ=             14.0821  XZZ=             17.0857  YZZ=            -10.5809
  YYZ=              9.9501  XYZ=              3.6617
 Hexadecapole moment (field-independent basis, Debye-Ang**3):
 XXXX=            -93.6065 YYYY=           -197.1862 ZZZZ=           -294.6131 XXXY=             26.2727
 XXXZ=              3.2692 YYYX=             32.0719 YYYZ=            -39.0342 ZZZX=              2.8891
 ZZZY=            -30.5275 XXYY=            -48.5883 XXZZ=            -62.7445 YYZZ=            -78.7911
 XXYZ=            -13.1445 YYXZ=              3.5427 ZZXY=              9.6570
 N-N= 1.692330354507D+02 E-N=-1.052990773696D+03  KE= 3.027782265968D+02
  Exact polarizability:   0.000   0.000   0.000   0.000   0.000   0.000
 Approx polarizability:  37.597  -3.784  63.612 -17.712  19.358  86.065
                          Isotropic Fermi Contact Couplings
        Atom                 a.u.       MegaHertz       Gauss      10(-4) cm-1
     1  O(17)              0.02431     -14.73557      -5.25802      -4.91526
     2  C(13)              0.06342      71.29514      25.43988      23.78150
     3  C(13)              0.02605      29.28817      10.45075       9.76948
     4  O(17)              0.05012     -30.38286     -10.84136     -10.13463
     5  O(17)              0.02834     -17.17925      -6.12998      -5.73038
     6  H(1)              -0.01581     -70.64655     -25.20844     -23.56515
     7  H(1)               0.00507      22.66976       8.08913       7.56182
     8  H(1)              -0.00111      -4.96287      -1.77087      -1.65543
 --------------------------------------------------------
       Center         ----  Spin Dipole Couplings  ----
                      3XX-RR        3YY-RR        3ZZ-RR
 --------------------------------------------------------
     1   Atom       -0.558247      0.316845      0.241403
     2   Atom       -0.190770     -0.007421      0.198190
     3   Atom       -0.090436      0.147563     -0.057126
     4   Atom        0.148688      0.113675     -0.262363
     5   Atom       -0.197743      0.577010     -0.379268
     6   Atom       -0.051914     -0.027029      0.078943
     7   Atom        0.006707     -0.001815     -0.004891
     8   Atom       -0.004783      0.008774     -0.003992
 --------------------------------------------------------
                        XY            XZ            YZ
 --------------------------------------------------------
     1   Atom       -0.021944      0.014310     -0.839389
     2   Atom        0.009944     -0.026570     -0.242903
     3   Atom       -0.059203     -0.027298      0.084564
     4   Atom       -0.439076     -0.078584      0.089367
     5   Atom       -0.998872     -0.575516      0.831361
     6   Atom       -0.023363     -0.059262      0.059342
     7   Atom       -0.006031      0.007758     -0.001331
     8   Atom        0.008652     -0.009476     -0.006282
 --------------------------------------------------------


 ---------------------------------------------------------------------------------
              Anisotropic Spin Dipole Couplings in Principal Axis System
 ---------------------------------------------------------------------------------

       Atom             a.u.   MegaHertz   Gauss  10(-4) cm-1        Axes

              Baa    -0.5649    40.872    14.584    13.634  0.6131  0.5527  0.5645
     1 O(17)  Bbb    -0.5549    40.152    14.327    13.393  0.7899 -0.4149 -0.4516
              Bcc     1.1198   -81.025   -28.912   -27.027 -0.0153  0.7228 -0.6909
 
              Baa    -0.1938   -26.001    -9.278    -8.673  0.9686  0.1765  0.1750
     2 C(13)  Bbb    -0.1668   -22.380    -7.986    -7.465 -0.2434  0.8155  0.5250
              Bcc     0.3605    48.380    17.263    16.138 -0.0501 -0.5512  0.8329
 
              Baa    -0.1069   -14.344    -5.118    -4.785  0.9377  0.1085  0.3300
     3 C(13)  Bbb    -0.0860   -11.538    -4.117    -3.849 -0.2659 -0.3871  0.8829
              Bcc     0.1929    25.882     9.235     8.633 -0.2235  0.9156  0.3341
 
              Baa    -0.3113    22.523     8.037     7.513  0.6345  0.7165 -0.2898
     4 O(17)  Bbb    -0.2759    19.963     7.123     6.659  0.2983  0.1189  0.9470
              Bcc     0.5872   -42.487   -15.160   -14.172  0.7131 -0.6873 -0.1383
 
              Baa    -0.8827    63.873    22.792    21.306  0.8573  0.4786  0.1896
     5 O(17)  Bbb    -0.8601    62.233    22.206    20.759  0.0648 -0.4656  0.8826
              Bcc     1.7428  -126.106   -44.998   -42.064 -0.5107  0.7444  0.4301
 
              Baa    -0.0748   -39.894   -14.235   -13.307  0.9352  0.0183  0.3535
     6 H(1)   Bbb    -0.0533   -28.413   -10.138    -9.477  0.1187  0.9246 -0.3618
              Bcc     0.1280    68.307    24.374    22.785 -0.3335  0.3804  0.8626
 
              Baa    -0.0092    -4.903    -1.749    -1.635 -0.5017 -0.2615  0.8246
     7 H(1)   Bbb    -0.0038    -2.048    -0.731    -0.683  0.2080  0.8888  0.4084
              Bcc     0.0130     6.950     2.480     2.318  0.8397 -0.3763  0.3915
 
              Baa    -0.0141    -7.513    -2.681    -2.506  0.7578 -0.1101  0.6431
     8 H(1)   Bbb    -0.0036    -1.922    -0.686    -0.641 -0.4455  0.6328  0.6333
              Bcc     0.0177     9.436     3.367     3.147  0.4767  0.7664 -0.4305
 

 ---------------------------------------------------------------------------------

 No NMR shielding tensors so no spin-rotation constants.
 Leave Link  601 at Sun Jun 12 00:15:23 2022, MaxMem=   939524096 cpu:         1.8
 (Enter /Local/ce_dana/g09/l701.exe)
 Compute integral second derivatives.
 ... and contract with generalized density number  0.
 Leave Link  701 at Sun Jun 12 00:15:23 2022, MaxMem=   939524096 cpu:         1.7
 (Enter /Local/ce_dana/g09/l702.exe)
 L702 exits ... SP integral derivatives will be done elsewhere.
 Leave Link  702 at Sun Jun 12 00:15:23 2022, MaxMem=   939524096 cpu:         0.1
 (Enter /Local/ce_dana/g09/l703.exe)
 Compute integral second derivatives, UseDBF=F ICtDFT=           0.
 Integral derivatives from FoFJK, PRISM(SPDF).
 Calling FoFJK, ICntrl=    100127 FMM=F ISym2X=0 I1Cent= 0 IOpClX= 1 NMat=1 NMatS=1 NMatT=0.
 FoFJK:  IHMeth= 1 ICntrl=  100127 DoSepK=F KAlg= 0 I1Cent=   0 FoldK=F
 IRaf=         0 NMat=   1 IRICut=       1 DoRegI=T DoRafI=F ISym2E= 0.
 FoFCou: FMM=F IPFlag=           0 FMFlag=      100000 FMFlg1=         800
         NFxFlg=           0 DoJE=F BraDBF=F KetDBF=F FulRan=T
         wScrn=  0.000000 ICntrl=  100127 IOpCl=  1 I1Cent=           0 NGrid=           0
         NMat0=    1 NMatS0=      1 NMatT0=    0 NMatD0=    1 NMtDS0=    0 NMtDT0=    0
 Symmetry not used in FoFCou.
 Leave Link  703 at Sun Jun 12 00:15:27 2022, MaxMem=   939524096 cpu:        36.6
 (Enter /Local/ce_dana/g09/l716.exe)
 Dipole        = 1.18761590D-02-3.20919506D-01 8.45291237D-01
 Polarizability= 0.00000000D+00 0.00000000D+00 0.00000000D+00
                 0.00000000D+00 0.00000000D+00 0.00000000D+00
 -------------------------------------------------------------------
 Center     Atomic                   Forces (Hartrees/Bohr)
 Number     Number              X              Y              Z
 -------------------------------------------------------------------
      1        8          -0.000010359    0.000006989    0.000018675
      2        6           0.000020766   -0.000020071   -0.000006520
      3        6           0.000020250    0.000014428    0.000012174
      4        8          -0.000009731    0.000000496   -0.000012866
      5        8           0.000011023   -0.000008187    0.000016327
      6        1          -0.000025279    0.000000681   -0.000020849
      7        1          -0.000002607    0.000002425   -0.000003916
      8        1          -0.000004062    0.000003239   -0.000003025
 -------------------------------------------------------------------
 Cartesian Forces:  Max     0.000025279 RMS     0.000012913
 Z-matrix is all fixed cartesians, so copy forces.
 Force constants in Cartesian coordinates: 
                1             2             3             4             5 
      1  0.620274D-01
      2 -0.122329D+00  0.352426D+00
      3 -0.168410D+00  0.424706D+00  0.623218D+00
      4 -0.795593D-01  0.105765D+00  0.156656D+00  0.171927D+00
      5  0.107844D+00 -0.323484D+00 -0.389395D+00 -0.111572D+00  0.471957D+00
      6  0.153218D+00 -0.381544D+00 -0.610849D+00 -0.157255D+00  0.389118D+00
      7  0.774706D-02  0.132421D-01  0.750878D-02 -0.546058D-01 -0.110095D-03
      8  0.947502D-02 -0.325964D-01 -0.262717D-01 -0.420391D-02 -0.603238D-01
      9  0.114458D-01 -0.328260D-01 -0.417403D-02 -0.989627D-02  0.212461D-01
     10  0.110454D-02  0.181443D-03 -0.966281D-02  0.163258D-02  0.152520D-03
     11  0.538952D-02 -0.125007D-02 -0.713062D-02 -0.109610D-01 -0.466109D-01
     12 -0.161696D-02  0.537623D-03  0.126819D-01  0.716700D-02 -0.442854D-01
     13 -0.156762D-02 -0.598832D-03  0.116696D-01 -0.354766D-02  0.300919D-02
     14 -0.428621D-02  0.254281D-02  0.896970D-02  0.309180D-01  0.537361D-02
     15 -0.508892D-02  0.686194D-03 -0.115810D-01  0.394795D-01 -0.256226D-02
     16  0.998784D-02  0.487482D-02  0.245463D-02 -0.331102D-01 -0.100265D-01
     17  0.468560D-02  0.450060D-03 -0.912821D-02 -0.219637D-01 -0.220137D-01
     18  0.110050D-01 -0.113222D-01 -0.105590D-01 -0.346459D-01  0.212856D-01
     19  0.425186D-03  0.112707D-03  0.593230D-03 -0.646912D-02  0.556539D-02
     20 -0.187230D-02 -0.247040D-03 -0.880017D-03  0.265427D-01 -0.135944D-01
     21 -0.230167D-03 -0.467126D-03  0.727667D-03  0.176364D-02  0.342733D-02
     22 -0.165035D-03 -0.124818D-02 -0.810085D-03  0.373293D-02  0.513726D-02
     23  0.109355D-02  0.215831D-02 -0.870270D-03 -0.145255D-01 -0.113037D-01
     24 -0.323073D-03  0.230227D-03  0.535019D-03 -0.326903D-02  0.116542D-02
                6             7             8             9            10 
      6  0.731596D+00
      7 -0.138186D-02  0.553000D+00
      8  0.356354D-01  0.888959D-01  0.387956D+00
      9 -0.361488D-01 -0.224261D-01 -0.100027D+00  0.461708D+00
     10  0.287978D-01 -0.770067D-01 -0.227848D-01 -0.355356D-01  0.140973D+00
     11 -0.940070D-02 -0.317345D-01 -0.681248D-01 -0.260929D-01  0.116250D+00
     12 -0.661539D-01 -0.488401D-01 -0.387172D-01 -0.182034D+00  0.115668D-01
     13  0.169294D-01 -0.194941D-03  0.379230D-03  0.240861D-01 -0.820959D-01
     14 -0.104293D+00 -0.723465D-02 -0.162496D-01  0.386350D-01 -0.779827D-01
     15 -0.581420D-01  0.286543D-01  0.299932D-01 -0.448208D-01  0.357414D-01
     16 -0.360450D-01  0.134920D-01  0.273633D-03  0.478594D-02  0.109570D-01
     17  0.556380D-01  0.120904D-02 -0.251307D-01  0.191279D-03 -0.113907D-01
     18  0.384421D-01  0.100833D-01  0.204557D-01 -0.241376D-01 -0.184805D-01
     19 -0.221513D-02 -0.277867D+00  0.323252D-01 -0.599316D-01  0.200587D-02
     20  0.331249D-02  0.451352D-01 -0.476678D-01  0.197002D-01 -0.121776D-01
     21 -0.269177D-04 -0.536856D-01  0.111597D-01 -0.583202D-01 -0.344416D-01
     22 -0.204797D-02 -0.164565D+00 -0.104360D+00  0.874717D-01  0.242933D-02
     23  0.115339D-01 -0.109403D+00 -0.137863D+00  0.791736D-01  0.775194D-02
     24  0.128208D-02  0.800872D-01  0.677722D-01 -0.112072D+00  0.220144D-01
               11            12            13            14            15 
     11  0.278432D+00
     12  0.173812D-01  0.355280D+00
     13 -0.776355D-01  0.500002D-01  0.102553D+00
     14 -0.122100D+00  0.631240D-01  0.854750D-01  0.106284D+00
     15  0.317190D-01 -0.868313D-01 -0.940431D-01 -0.865078D-01  0.181629D+00
     16 -0.168330D-02 -0.788954D-02 -0.205408D-01 -0.290783D-01 -0.366952D-02
     17 -0.502627D-01  0.150127D-01 -0.107024D-01  0.266943D-01  0.266972D-01
     18 -0.341821D-01  0.183997D-01 -0.851543D-02  0.883119D-01  0.221052D-01
     19 -0.293677D-02 -0.108170D-01  0.175630D-02 -0.125095D-02  0.537541D-03
     20  0.425524D-02 -0.963414D-02  0.136347D-02 -0.520683D-03  0.273414D-02
     21  0.327836D-02 -0.316971D-01 -0.192600D-03 -0.574308D-02  0.553801D-02
     22  0.331166D-02  0.429663D-03  0.363712D-02  0.343980D-02 -0.161114D-02
     23  0.566056D-02 -0.341877D-02 -0.129014D-02 -0.202484D-02 -0.275965D-02
     24  0.244278D-01 -0.196454D-01  0.658987D-04 -0.249717D-02 -0.789771D-02
               16            17            18            19            20 
     16  0.197954D-01
     17  0.377225D-01  0.695300D-01
     18  0.417171D-01 -0.892460D-01 -0.478712D-01
     19 -0.523757D-03  0.107826D-02  0.177559D-02  0.295066D+00
     20 -0.275630D-02  0.100284D-02 -0.185228D-03 -0.388985D-01  0.516102D-01
     21 -0.149349D-02  0.101516D-02  0.173618D-02  0.748767D-01 -0.987290D-02
     22 -0.575146D-04 -0.638521D-03 -0.293923D-02 -0.143929D-01 -0.173366D-01
     23  0.673478D-03 -0.270122D-03  0.488232D-02  0.400471D-02  0.516165D-02
     24  0.139930D-03 -0.180180D-03  0.188464D-02 -0.481936D-02 -0.517453D-02
               21            22            23            24 
     21  0.756177D-01
     22  0.134030D-01  0.169381D+00
     23 -0.279740D-02  0.111695D+00  0.138481D+00
     24  0.642468D-02 -0.938959D-01 -0.857437D-01  0.129489D+00
 Leave Link  716 at Sun Jun 12 00:15:27 2022, MaxMem=   939524096 cpu:         0.1
 (Enter /Local/ce_dana/g09/l123.exe)
 IRC-IRC-IRC-IRC-IRC-IRC-IRC-IRC-IRC-IRC-IRC-IRC-IRC-IRC-IRC-IRC-IRC-IRC
          ******** Start new reaction path calculation ********
 Current Structure is TS -> form Hessian eigenvectors.
                            Diagonalizing Hessian.
 Supplied step size of   0.0700 bohr.
    Integration on MW PES will use step size of   0.0724 sqrt(amu)*bohr.
 Point Number:   0          Path Number:   1
 Calculating another point on the path.
 Point Number  1 in FORWARD path direction.
 Using LQA Reaction Path Following.
 IRC-IRC-IRC-IRC-IRC-IRC-IRC-IRC-IRC-IRC-IRC-IRC-IRC-IRC-IRC-IRC-IRC-IRC
 Leave Link  123 at Sun Jun 12 00:15:27 2022, MaxMem=   939524096 cpu:         0.0
 (Enter /Local/ce_dana/g09/l202.exe)
                          Input orientation:                          
 ---------------------------------------------------------------------
 Center     Atomic      Atomic             Coordinates (Angstroms)
 Number     Number       Type             X           Y           Z
 ---------------------------------------------------------------------
      1          8           0       -0.444707    1.342712    1.535093
      2          6           0       -0.188172    0.677261    0.601906
      3          6           0        0.071834   -0.856973    0.480384
      4          8           0       -0.095733   -1.083365   -0.894645
      5          8           0        0.586868   -0.019694   -1.523767
      6          1           0        0.169651    0.824260   -0.718063
      7          1           0        1.107465   -1.008211    0.811490
      8          1           0       -0.628762   -1.479731    1.038827
 ---------------------------------------------------------------------
                    Distance matrix (angstroms):
                    1          2          3          4          5
     1  O    0.000000
     2  C    1.174510   0.000000
     3  C    2.493560   1.560847   0.000000
     4  O    3.451270   2.312577   1.403580   0.000000
     5  O    3.503844   2.367471   2.232245   1.411785   0.000000
     6  H    2.392267   1.375486   2.066975   1.934074   1.239148
     7  H    2.908553   2.136215   1.097740   2.089073   2.588747
     8  H    2.871645   2.244467   1.091110   2.044392   3.190040
                    6          7          8
     6  H    0.000000
     7  H    2.564561   0.000000
     8  H    3.005411   1.813421   0.000000
 Symmetry turned off by external request.
 Stoichiometry    C2H3O3(2)
 Framework group  C1[X(C2H3O3)]
 Deg. of freedom    18
 Full point group                 C1      NOp   1
 Rotational constants (GHZ):     13.1584967      3.6163967      2.9811942
 Leave Link  202 at Sun Jun 12 00:15:27 2022, MaxMem=   939524096 cpu:         0.0
 (Enter /Local/ce_dana/g09/l301.exe)
 Standard basis: 6-311G(2d,d,p) (5D, 7F)
 Ernie: Thresh=  0.10000D-02 Tol=  0.10000D-05 Strict=F.
   108 basis functions,   184 primitive gaussians,   113 cartesian basis functions
    20 alpha electrons       19 beta electrons
       nuclear repulsion energy       169.2603619691 Hartrees.
 IExCor=  402 DFT=T Ex+Corr=B3LYP ExCW=0 ScaHFX=  0.200000
 ScaDFX=  0.800000  0.720000  1.000000  0.810000 ScalE2=  1.000000  1.000000
 IRadAn=      0 IRanWt=     -1 IRanGd=            0 ICorTp=0 IEmpDi=  4
 NAtoms=    8 NActive=    8 NUniq=    8 SFac= 1.00D+00 NAtFMM=   60 NAOKFM=F Big=F
 Integral buffers will be    131072 words long.
 Raffenetti 2 integral format.
 Two-electron integral symmetry is turned off.
 Leave Link  301 at Sun Jun 12 00:15:27 2022, MaxMem=   939524096 cpu:         0.1
 (Enter /Local/ce_dana/g09/l302.exe)
 NPDir=0 NMtPBC=     1 NCelOv=     1 NCel=       1 NClECP=     1 NCelD=      1
         NCelK=      1 NCelE2=     1 NClLst=     1 CellRange=     0.0.
 One-electron integrals computed using PRISM.
 NBasis=   108 RedAO= T EigKep=  3.28D-03  NBF=   108
 NBsUse=   108 1.00D-06 EigRej= -1.00D+00 NBFU=   108
 Precomputing XC quadrature grid using
 IXCGrd= 4 IRadAn=           0 IRanWt=          -1 IRanGd=           0 AccXCQ= 0.00D+00.
 Generated NRdTot=       0 NPtTot=           0 NUsed=           0 NTot=          32
 NSgBfM=   113   113   113   113   113 MxSgAt=     8 MxSgA2=     8.
 Leave Link  302 at Sun Jun 12 00:15:27 2022, MaxMem=   939524096 cpu:         1.3
 (Enter /Local/ce_dana/g09/l303.exe)
 DipDrv:  MaxL=1.
 Leave Link  303 at Sun Jun 12 00:15:27 2022, MaxMem=   939524096 cpu:         0.1
 (Enter /Local/ce_dana/g09/l401.exe)
 Initial guess from the checkpoint file:  "check.chk"
 B after Tr=     1.002375   -0.663373    0.973015
         Rot=    1.000000    0.000102    0.000047    0.000083 Ang=   0.02 deg.
 Guess basis will be translated and rotated to current coordinates.
 JPrj=2 DoOrth=T DoCkMO=T.
 Initial guess <Sx>= 0.0000 <Sy>= 0.0000 <Sz>= 0.5000 <S**2>= 0.7567 S= 0.5033
 Generating alternative initial guess.
 ExpMin= 1.03D-01 ExpMax= 8.59D+03 ExpMxC= 1.30D+03 IAcc=1 IRadAn=         1 AccDes= 0.00D+00
 Harris functional with IExCor=  402 and IRadAn=       1 diagonalized for initial guess.
 HarFok:  IExCor=  402 AccDes= 0.00D+00 IRadAn=         1 IDoV= 1 UseB2=F ITyADJ=14
 ICtDFT=  3500011 ScaDFX=  1.000000  1.000000  1.000000  1.000000
 FoFCou: FMM=F IPFlag=           0 FMFlag=      100000 FMFlg1=           0
         NFxFlg=           0 DoJE=T BraDBF=F KetDBF=T FulRan=T
         wScrn=  0.000000 ICntrl=     500 IOpCl=  0 I1Cent=   200000004 NGrid=           0
         NMat0=    1 NMatS0=      1 NMatT0=    0 NMatD0=    1 NMtDS0=    0 NMtDT0=    0
 Symmetry not used in FoFCou.
 Harris En= -303.576015856069    
 Leave Link  401 at Sun Jun 12 00:15:27 2022, MaxMem=   939524096 cpu:         1.9
 (Enter /Local/ce_dana/g09/l502.exe)
 UHF open shell SCF:
 Using DIIS extrapolation, IDIIS=  1040.
 Two-electron integral symmetry not used.
 Keep R1 and R2 ints in memory in canonical form, NReq=35632381.
 IVT=       46073 IEndB=       46073 NGot=   939524096 MDV=   904827142
 LenX=   904827142 LenY=   904813932
 Requested convergence on RMS density matrix=1.00D-08 within  64 cycles.
 Requested convergence on MAX density matrix=1.00D-06.
 Requested convergence on             energy=1.00D-06.
 No special actions if energy rises.
 FoFCou: FMM=F IPFlag=           0 FMFlag=           0 FMFlg1=           0
         NFxFlg=           0 DoJE=F BraDBF=F KetDBF=F FulRan=T
         wScrn=  0.000000 ICntrl=     600 IOpCl=  0 I1Cent=           0 NGrid=           0
         NMat0=    1 NMatS0=   5886 NMatT0=    0 NMatD0=    1 NMtDS0=    0 NMtDT0=    0
 Symmetry not used in FoFCou.
 Integral accuracy reduced to 1.0D-05 until final iterations.

 Cycle   1  Pass 0  IDiag  1:
 E= -303.577389913347    
 DIIS: error= 2.01D-03 at cycle   1 NSaved=   1.
 NSaved= 1 IEnMin= 1 EnMin= -303.577389913347     IErMin= 1 ErrMin= 2.01D-03
 ErrMax= 2.01D-03  0.00D+00 EMaxC= 1.00D-01 BMatC= 1.59D-03 BMatP= 1.59D-03
 IDIUse=3 WtCom= 9.80D-01 WtEn= 2.01D-02
 Coeff-Com:  0.100D+01
 Coeff-En:   0.100D+01
 Coeff:      0.100D+01
 Gap=     0.824 Goal=   None    Shift=    0.000
 Gap=     0.818 Goal=   None    Shift=    0.000
 GapD=    0.818 DampG=2.000 DampE=1.000 DampFc=2.0000 IDamp=-1.
 RMSDP=3.40D-04 MaxDP=1.08D-02              OVMax= 2.36D-02

 Cycle   2  Pass 0  IDiag  1:
 E= -303.577991477222     Delta-E=       -0.000601563875 Rises=F Damp=F
 DIIS: error= 1.55D-03 at cycle   2 NSaved=   2.
 NSaved= 2 IEnMin= 2 EnMin= -303.577991477222     IErMin= 2 ErrMin= 1.55D-03
 ErrMax= 1.55D-03  0.00D+00 EMaxC= 1.00D-01 BMatC= 8.95D-04 BMatP= 1.59D-03
 IDIUse=3 WtCom= 9.85D-01 WtEn= 1.55D-02
 Coeff-Com:  0.371D+00 0.629D+00
 Coeff-En:   0.000D+00 0.100D+01
 Coeff:      0.365D+00 0.635D+00
 Gap=     0.169 Goal=   None    Shift=    0.000
 Gap=     0.129 Goal=   None    Shift=    0.000
 RMSDP=1.88D-04 MaxDP=3.58D-03 DE=-6.02D-04 OVMax= 8.77D-03

 Cycle   3  Pass 0  IDiag  1:
 E= -303.578019985125     Delta-E=       -0.000028507903 Rises=F Damp=F
 DIIS: error= 1.17D-03 at cycle   3 NSaved=   3.
 NSaved= 3 IEnMin= 3 EnMin= -303.578019985125     IErMin= 3 ErrMin= 1.17D-03
 ErrMax= 1.17D-03  0.00D+00 EMaxC= 1.00D-01 BMatC= 8.30D-04 BMatP= 8.95D-04
 IDIUse=3 WtCom= 9.88D-01 WtEn= 1.17D-02
 Coeff-Com: -0.497D-01 0.508D+00 0.542D+00
 Coeff-En:   0.000D+00 0.468D+00 0.532D+00
 Coeff:     -0.491D-01 0.508D+00 0.541D+00
 Gap=     0.170 Goal=   None    Shift=    0.000
 Gap=     0.131 Goal=   None    Shift=    0.000
 RMSDP=1.16D-04 MaxDP=2.04D-03 DE=-2.85D-05 OVMax= 9.11D-03

 Cycle   4  Pass 0  IDiag  1:
 E= -303.578203805692     Delta-E=       -0.000183820567 Rises=F Damp=F
 DIIS: error= 2.52D-04 at cycle   4 NSaved=   4.
 NSaved= 4 IEnMin= 4 EnMin= -303.578203805692     IErMin= 4 ErrMin= 2.52D-04
 ErrMax= 2.52D-04  0.00D+00 EMaxC= 1.00D-01 BMatC= 5.22D-05 BMatP= 8.30D-04
 IDIUse=3 WtCom= 9.97D-01 WtEn= 2.52D-03
 Coeff-Com: -0.373D-01 0.239D+00 0.320D+00 0.478D+00
 Coeff-En:   0.000D+00 0.000D+00 0.000D+00 0.100D+01
 Coeff:     -0.372D-01 0.239D+00 0.320D+00 0.479D+00
 Gap=     0.170 Goal=   None    Shift=    0.000
 Gap=     0.131 Goal=   None    Shift=    0.000
 RMSDP=3.05D-05 MaxDP=5.49D-04 DE=-1.84D-04 OVMax= 2.79D-03

 Cycle   5  Pass 0  IDiag  1:
 E= -303.578214590035     Delta-E=       -0.000010784343 Rises=F Damp=F
 DIIS: error= 1.69D-04 at cycle   5 NSaved=   5.
 NSaved= 5 IEnMin= 5 EnMin= -303.578214590035     IErMin= 5 ErrMin= 1.69D-04
 ErrMax= 1.69D-04  0.00D+00 EMaxC= 1.00D-01 BMatC= 1.53D-05 BMatP= 5.22D-05
 IDIUse=3 WtCom= 9.98D-01 WtEn= 1.69D-03
 Coeff-Com:  0.320D-03-0.127D+00-0.399D-01 0.350D+00 0.817D+00
 Coeff-En:   0.000D+00 0.000D+00 0.000D+00 0.000D+00 0.100D+01
 Coeff:      0.320D-03-0.126D+00-0.398D-01 0.349D+00 0.817D+00
 Gap=     0.170 Goal=   None    Shift=    0.000
 Gap=     0.131 Goal=   None    Shift=    0.000
 RMSDP=3.17D-05 MaxDP=3.43D-04 DE=-1.08D-05 OVMax= 3.33D-03

 Cycle   6  Pass 0  IDiag  1:
 E= -303.578220375374     Delta-E=       -0.000005785339 Rises=F Damp=F
 DIIS: error= 8.79D-05 at cycle   6 NSaved=   6.
 NSaved= 6 IEnMin= 6 EnMin= -303.578220375374     IErMin= 6 ErrMin= 8.79D-05
 ErrMax= 8.79D-05  0.00D+00 EMaxC= 1.00D-01 BMatC= 2.73D-06 BMatP= 1.53D-05
 IDIUse=1 WtCom= 1.00D+00 WtEn= 0.00D+00
 Coeff-Com:  0.755D-02-0.131D+00-0.835D-01 0.133D+00 0.465D+00 0.609D+00
 Coeff:      0.755D-02-0.131D+00-0.835D-01 0.133D+00 0.465D+00 0.609D+00
 Gap=     0.170 Goal=   None    Shift=    0.000
 Gap=     0.130 Goal=   None    Shift=    0.000
 RMSDP=1.47D-05 MaxDP=2.33D-04 DE=-5.79D-06 OVMax= 1.22D-03

 Cycle   7  Pass 0  IDiag  1:
 E= -303.578221401818     Delta-E=       -0.000001026444 Rises=F Damp=F
 DIIS: error= 5.19D-05 at cycle   7 NSaved=   7.
 NSaved= 7 IEnMin= 7 EnMin= -303.578221401818     IErMin= 7 ErrMin= 5.19D-05
 ErrMax= 5.19D-05  0.00D+00 EMaxC= 1.00D-01 BMatC= 7.59D-07 BMatP= 2.73D-06
 IDIUse=1 WtCom= 1.00D+00 WtEn= 0.00D+00
 Coeff-Com:  0.501D-02-0.537D-01-0.377D-01 0.279D-01 0.116D+00 0.377D+00
 Coeff-Com:  0.565D+00
 Coeff:      0.501D-02-0.537D-01-0.377D-01 0.279D-01 0.116D+00 0.377D+00
 Coeff:      0.565D+00
 Gap=     0.170 Goal=   None    Shift=    0.000
 Gap=     0.130 Goal=   None    Shift=    0.000
 RMSDP=5.86D-06 MaxDP=9.11D-05 DE=-1.03D-06 OVMax= 7.80D-04

 Initial convergence to 1.0D-05 achieved.  Increase integral accuracy.
 Cycle   8  Pass 1  IDiag  1:
 E= -303.578211195579     Delta-E=        0.000010206239 Rises=F Damp=F
 DIIS: error= 2.32D-05 at cycle   1 NSaved=   1.
 NSaved= 1 IEnMin= 1 EnMin= -303.578211195579     IErMin= 1 ErrMin= 2.32D-05
 ErrMax= 2.32D-05  0.00D+00 EMaxC= 1.00D-01 BMatC= 3.32D-07 BMatP= 3.32D-07
 IDIUse=1 WtCom= 1.00D+00 WtEn= 0.00D+00
 Coeff-Com:  0.100D+01
 Coeff:      0.100D+01
 Gap=     0.170 Goal=   None    Shift=    0.000
 Gap=     0.130 Goal=   None    Shift=    0.000
 RMSDP=5.86D-06 MaxDP=9.11D-05 DE= 1.02D-05 OVMax= 3.79D-04

 Cycle   9  Pass 1  IDiag  1:
 E= -303.578211104446     Delta-E=        0.000000091133 Rises=F Damp=F
 DIIS: error= 5.28D-05 at cycle   2 NSaved=   2.
 NSaved= 2 IEnMin= 1 EnMin= -303.578211195579     IErMin= 1 ErrMin= 2.32D-05
 ErrMax= 5.28D-05  0.00D+00 EMaxC= 1.00D-01 BMatC= 1.10D-06 BMatP= 3.32D-07
 IDIUse=1 WtCom= 1.00D+00 WtEn= 0.00D+00
 Coeff-Com:  0.657D+00 0.343D+00
 Coeff:      0.657D+00 0.343D+00
 Gap=     0.170 Goal=   None    Shift=    0.000
 Gap=     0.130 Goal=   None    Shift=    0.000
 RMSDP=3.42D-06 MaxDP=5.17D-05 DE= 9.11D-08 OVMax= 2.87D-04

 Cycle  10  Pass 1  IDiag  1:
 E= -303.578211314338     Delta-E=       -0.000000209893 Rises=F Damp=F
 DIIS: error= 1.45D-05 at cycle   3 NSaved=   3.
 NSaved= 3 IEnMin= 3 EnMin= -303.578211314338     IErMin= 3 ErrMin= 1.45D-05
 ErrMax= 1.45D-05  0.00D+00 EMaxC= 1.00D-01 BMatC= 4.45D-08 BMatP= 3.32D-07
 IDIUse=1 WtCom= 1.00D+00 WtEn= 0.00D+00
 Coeff-Com:  0.123D+00 0.171D+00 0.706D+00
 Coeff:      0.123D+00 0.171D+00 0.706D+00
 Gap=     0.170 Goal=   None    Shift=    0.000
 Gap=     0.130 Goal=   None    Shift=    0.000
 RMSDP=1.45D-06 MaxDP=1.81D-05 DE=-2.10D-07 OVMax= 1.59D-04

 Cycle  11  Pass 1  IDiag  1:
 E= -303.578211329759     Delta-E=       -0.000000015421 Rises=F Damp=F
 DIIS: error= 5.00D-06 at cycle   4 NSaved=   4.
 NSaved= 4 IEnMin= 4 EnMin= -303.578211329759     IErMin= 4 ErrMin= 5.00D-06
 ErrMax= 5.00D-06  0.00D+00 EMaxC= 1.00D-01 BMatC= 2.20D-08 BMatP= 4.45D-08
 IDIUse=1 WtCom= 1.00D+00 WtEn= 0.00D+00
 Coeff-Com: -0.147D+00 0.292D-01 0.531D+00 0.587D+00
 Coeff:     -0.147D+00 0.292D-01 0.531D+00 0.587D+00
 Gap=     0.170 Goal=   None    Shift=    0.000
 Gap=     0.130 Goal=   None    Shift=    0.000
 RMSDP=1.08D-06 MaxDP=1.49D-05 DE=-1.54D-08 OVMax= 1.37D-04

 Cycle  12  Pass 1  IDiag  1:
 E= -303.578211338984     Delta-E=       -0.000000009225 Rises=F Damp=F
 DIIS: error= 2.60D-06 at cycle   5 NSaved=   5.
 NSaved= 5 IEnMin= 5 EnMin= -303.578211338984     IErMin= 5 ErrMin= 2.60D-06
 ErrMax= 2.60D-06  0.00D+00 EMaxC= 1.00D-01 BMatC= 3.11D-09 BMatP= 2.20D-08
 IDIUse=1 WtCom= 1.00D+00 WtEn= 0.00D+00
 Coeff-Com: -0.987D-01-0.114D-01 0.800D-01 0.265D+00 0.765D+00
 Coeff:     -0.987D-01-0.114D-01 0.800D-01 0.265D+00 0.765D+00
 Gap=     0.170 Goal=   None    Shift=    0.000
 Gap=     0.130 Goal=   None    Shift=    0.000
 RMSDP=7.52D-07 MaxDP=9.35D-06 DE=-9.22D-09 OVMax= 1.03D-04

 Cycle  13  Pass 1  IDiag  1:
 E= -303.578211341387     Delta-E=       -0.000000002403 Rises=F Damp=F
 DIIS: error= 1.60D-06 at cycle   6 NSaved=   6.
 NSaved= 6 IEnMin= 6 EnMin= -303.578211341387     IErMin= 6 ErrMin= 1.60D-06
 ErrMax= 1.60D-06  0.00D+00 EMaxC= 1.00D-01 BMatC= 2.07D-09 BMatP= 3.11D-09
 IDIUse=1 WtCom= 1.00D+00 WtEn= 0.00D+00
 Coeff-Com:  0.583D-02-0.144D-01-0.229D+00-0.139D+00 0.611D+00 0.766D+00
 Coeff:      0.583D-02-0.144D-01-0.229D+00-0.139D+00 0.611D+00 0.766D+00
 Gap=     0.170 Goal=   None    Shift=    0.000
 Gap=     0.130 Goal=   None    Shift=    0.000
 RMSDP=6.43D-07 MaxDP=9.45D-06 DE=-2.40D-09 OVMax= 8.32D-05

 Cycle  14  Pass 1  IDiag  1:
 E= -303.578211342428     Delta-E=       -0.000000001041 Rises=F Damp=F
 DIIS: error= 8.88D-07 at cycle   7 NSaved=   7.
 NSaved= 7 IEnMin= 7 EnMin= -303.578211342428     IErMin= 7 ErrMin= 8.88D-07
 ErrMax= 8.88D-07  0.00D+00 EMaxC= 1.00D-01 BMatC= 4.25D-10 BMatP= 2.07D-09
 IDIUse=1 WtCom= 1.00D+00 WtEn= 0.00D+00
 Coeff-Com:  0.121D-01-0.991D-02-0.176D+00-0.128D+00 0.370D+00 0.548D+00
 Coeff-Com:  0.384D+00
 Coeff:      0.121D-01-0.991D-02-0.176D+00-0.128D+00 0.370D+00 0.548D+00
 Coeff:      0.384D+00
 Gap=     0.170 Goal=   None    Shift=    0.000
 Gap=     0.130 Goal=   None    Shift=    0.000
 RMSDP=1.09D-07 MaxDP=1.79D-06 DE=-1.04D-09 OVMax= 1.01D-05

 Cycle  15  Pass 1  IDiag  1:
 E= -303.578211342534     Delta-E=       -0.000000000106 Rises=F Damp=F
 DIIS: error= 8.81D-08 at cycle   8 NSaved=   8.
 NSaved= 8 IEnMin= 8 EnMin= -303.578211342534     IErMin= 8 ErrMin= 8.81D-08
 ErrMax= 8.81D-08  0.00D+00 EMaxC= 1.00D-01 BMatC= 5.79D-12 BMatP= 4.25D-10
 IDIUse=1 WtCom= 1.00D+00 WtEn= 0.00D+00
 Coeff-Com:  0.279D-02-0.412D-03-0.155D-01-0.172D-01 0.207D-01 0.442D-01
 Coeff-Com:  0.804D-01 0.885D+00
 Coeff:      0.279D-02-0.412D-03-0.155D-01-0.172D-01 0.207D-01 0.442D-01
 Coeff:      0.804D-01 0.885D+00
 Gap=     0.170 Goal=   None    Shift=    0.000
 Gap=     0.130 Goal=   None    Shift=    0.000
 RMSDP=2.53D-08 MaxDP=3.99D-07 DE=-1.06D-10 OVMax= 2.86D-06

 Cycle  16  Pass 1  IDiag  1:
 E= -303.578211342536     Delta-E=       -0.000000000002 Rises=F Damp=F
 DIIS: error= 4.23D-08 at cycle   9 NSaved=   9.
 NSaved= 9 IEnMin= 9 EnMin= -303.578211342536     IErMin= 9 ErrMin= 4.23D-08
 ErrMax= 4.23D-08  0.00D+00 EMaxC= 1.00D-01 BMatC= 1.06D-12 BMatP= 5.79D-12
 IDIUse=1 WtCom= 1.00D+00 WtEn= 0.00D+00
 Coeff-Com: -0.135D-02 0.146D-02 0.233D-01 0.151D-01-0.474D-01-0.771D-01
 Coeff-Com: -0.467D-01 0.119D+00 0.101D+01
 Coeff:     -0.135D-02 0.146D-02 0.233D-01 0.151D-01-0.474D-01-0.771D-01
 Coeff:     -0.467D-01 0.119D+00 0.101D+01
 Gap=     0.170 Goal=   None    Shift=    0.000
 Gap=     0.130 Goal=   None    Shift=    0.000
 RMSDP=1.15D-08 MaxDP=1.27D-07 DE=-1.93D-12 OVMax= 9.19D-07

 Cycle  17  Pass 1  IDiag  1:
 E= -303.578211342538     Delta-E=       -0.000000000002 Rises=F Damp=F
 DIIS: error= 2.01D-08 at cycle  10 NSaved=  10.
 NSaved=10 IEnMin=10 EnMin= -303.578211342538     IErMin=10 ErrMin= 2.01D-08
 ErrMax= 2.01D-08  0.00D+00 EMaxC= 1.00D-01 BMatC= 1.65D-13 BMatP= 1.06D-12
 IDIUse=1 WtCom= 1.00D+00 WtEn= 0.00D+00
 Coeff-Com: -0.556D-03 0.393D-03 0.686D-02 0.478D-02-0.121D-01-0.239D-01
 Coeff-Com: -0.150D-01-0.748D-01 0.206D+00 0.908D+00
 Coeff:     -0.556D-03 0.393D-03 0.686D-02 0.478D-02-0.121D-01-0.239D-01
 Coeff:     -0.150D-01-0.748D-01 0.206D+00 0.908D+00
 Gap=     0.170 Goal=   None    Shift=    0.000
 Gap=     0.130 Goal=   None    Shift=    0.000
 RMSDP=4.15D-09 MaxDP=6.16D-08 DE=-1.71D-12 OVMax= 2.68D-07

 SCF Done:  E(UB3LYP) =  -303.578211343     A.U. after   17 cycles
            NFock= 17  Conv=0.42D-08     -V/T= 2.0026
 <Sx>= 0.0000 <Sy>= 0.0000 <Sz>= 0.5000 <S**2>= 0.7564 S= 0.5032
 <L.S>=  0.00000000000    
 KE= 3.027858571069D+02 PE=-1.053051625686D+03 EE= 2.774271952675D+02
 Annihilation of the first spin contaminant:
 S**2 before annihilation     0.7564,   after     0.7500
 Leave Link  502 at Sun Jun 12 00:15:32 2022, MaxMem=   939524096 cpu:        30.9
 (Enter /Local/ce_dana/g09/l508.exe)
 QCSCF skips out because SCF is already converged.
 Leave Link  508 at Sun Jun 12 00:15:32 2022, MaxMem=   939524096 cpu:         0.0
 (Enter /Local/ce_dana/g09/l801.exe)
 DoSCS=F DFT=T ScalE2(SS,OS)=  1.000000  1.000000
 Range of M.O.s used for correlation:     1   108
 NBasis=   108 NAE=    20 NBE=    19 NFC=     0 NFV=     0
 NROrb=    108 NOA=    20 NOB=    19 NVA=    88 NVB=    89
 Leave Link  801 at Sun Jun 12 00:15:32 2022, MaxMem=   939524096 cpu:         0.1
 (Enter /Local/ce_dana/g09/l1101.exe)
 Using compressed storage, NAtomX=     8.
 Will process      9 centers per pass.
 Leave Link 1101 at Sun Jun 12 00:15:32 2022, MaxMem=   939524096 cpu:         1.3
 (Enter /Local/ce_dana/g09/l1102.exe)
 Symmetrizing basis deriv contribution to polar:
 IMax=3 JMax=2 DiffMx= 0.00D+00
 Leave Link 1102 at Sun Jun 12 00:15:32 2022, MaxMem=   939524096 cpu:         0.1
 (Enter /Local/ce_dana/g09/l1110.exe)
 Forming Gx(P) for the SCF density, NAtomX=     8.
 Integral derivatives from FoFJK, PRISM(SPDF).
 Do as many integral derivatives as possible in FoFJK.
 G2DrvN: MDV=     939523928.
 G2DrvN: will do     9 centers at a time, making    1 passes.
 Calling FoFCou, ICntrl=  3107 FMM=F I1Cent=   0 AccDes= 0.00D+00.
 FoFJK:  IHMeth= 1 ICntrl=    3107 DoSepK=F KAlg= 0 I1Cent=   0 FoldK=F
 IRaf=         0 NMat=   1 IRICut=       1 DoRegI=T DoRafI=F ISym2E= 0.
 FoFCou: FMM=F IPFlag=           0 FMFlag=      100000 FMFlg1=           0
         NFxFlg=           0 DoJE=F BraDBF=F KetDBF=F FulRan=T
         wScrn=  0.000000 ICntrl=    3107 IOpCl=  1 I1Cent=           0 NGrid=           0
         NMat0=    1 NMatS0=      1 NMatT0=    0 NMatD0=    1 NMtDS0=    0 NMtDT0=    0
 Symmetry not used in FoFCou.
 End of G2Drv F.D. properties file   721 does not exist.
 End of G2Drv F.D. properties file   722 does not exist.
 End of G2Drv F.D. properties file   788 does not exist.
 Leave Link 1110 at Sun Jun 12 00:15:35 2022, MaxMem=   939524096 cpu:        31.7
 (Enter /Local/ce_dana/g09/l1002.exe)
 Minotr:  UHF open shell wavefunction.
          IDoAtm=11111111
          Direct CPHF calculation.
          Differentiating once with respect to nuclear coordinates.
          Requested convergence is 1.0D-08 RMS, and 1.0D-07 maximum.
          Secondary convergence is 1.0D-12 RMS, and 1.0D-12 maximum.
          NewPWx=T KeepS1=F KeepF1=F KeepIn=T MapXYZ=F SortEE=F KeepMc=T.
          MDV=     939523796 using IRadAn=       2.
 Generate precomputed XC quadrature information.
 Keep R1 and R2 ints in memory in canonical form, NReq=35587770.
 FoFCou: FMM=F IPFlag=           0 FMFlag=           0 FMFlg1=           0
         NFxFlg=           0 DoJE=F BraDBF=F KetDBF=F FulRan=T
         wScrn=  0.000000 ICntrl=     600 IOpCl=  0 I1Cent=           0 NGrid=           0
         NMat0=    1 NMatS0=   5886 NMatT0=    0 NMatD0=    1 NMtDS0=    0 NMtDT0=    0
 Symmetry not used in FoFCou.
          Solving linear equations simultaneously, MaxMat=       0.
          There are    27 degrees of freedom in the 1st order CPHF.  IDoFFX=6 NUNeed=     0.
     21 vectors produced by pass  0 Test12= 1.28D-14 3.70D-09 XBig12= 1.99D-01 1.40D-01.
 AX will form    21 AO Fock derivatives at one time.
     21 vectors produced by pass  1 Test12= 1.28D-14 3.70D-09 XBig12= 2.05D-02 3.52D-02.
     21 vectors produced by pass  2 Test12= 1.28D-14 3.70D-09 XBig12= 8.31D-04 7.00D-03.
     21 vectors produced by pass  3 Test12= 1.28D-14 3.70D-09 XBig12= 1.82D-05 8.26D-04.
     21 vectors produced by pass  4 Test12= 1.28D-14 3.70D-09 XBig12= 3.00D-07 1.01D-04.
     21 vectors produced by pass  5 Test12= 1.28D-14 3.70D-09 XBig12= 2.40D-09 6.39D-06.
     20 vectors produced by pass  6 Test12= 1.28D-14 3.70D-09 XBig12= 1.19D-11 5.29D-07.
     13 vectors produced by pass  7 Test12= 1.28D-14 3.70D-09 XBig12= 5.94D-14 2.90D-08.
 InvSVY:  IOpt=1 It=  1 EMax= 1.78D-15
 Solved reduced A of dimension   159 with    21 vectors.
 End of Minotr F.D. properties file   721 does not exist.
 End of Minotr F.D. properties file   722 does not exist.
 End of Minotr F.D. properties file   788 does not exist.
 Leave Link 1002 at Sun Jun 12 00:15:40 2022, MaxMem=   939524096 cpu:        45.7
 (Enter /Local/ce_dana/g09/l701.exe)
 Compute integral second derivatives.
 ... and contract with generalized density number  0.
 Leave Link  701 at Sun Jun 12 00:15:41 2022, MaxMem=   939524096 cpu:         1.6
 (Enter /Local/ce_dana/g09/l702.exe)
 L702 exits ... SP integral derivatives will be done elsewhere.
 Leave Link  702 at Sun Jun 12 00:15:41 2022, MaxMem=   939524096 cpu:         0.1
 (Enter /Local/ce_dana/g09/l703.exe)
 Compute integral second derivatives, UseDBF=F ICtDFT=           0.
 Integral derivatives from FoFJK, PRISM(SPDF).
 Calling FoFJK, ICntrl=    100127 FMM=F ISym2X=0 I1Cent= 0 IOpClX= 1 NMat=1 NMatS=1 NMatT=0.
 FoFJK:  IHMeth= 1 ICntrl=  100127 DoSepK=F KAlg= 0 I1Cent=   0 FoldK=F
 IRaf=         0 NMat=   1 IRICut=       1 DoRegI=T DoRafI=F ISym2E= 0.
 FoFCou: FMM=F IPFlag=           0 FMFlag=      100000 FMFlg1=         800
         NFxFlg=           0 DoJE=F BraDBF=F KetDBF=F FulRan=T
         wScrn=  0.000000 ICntrl=  100127 IOpCl=  1 I1Cent=           0 NGrid=           0
         NMat0=    1 NMatS0=      1 NMatT0=    0 NMatD0=    1 NMtDS0=    0 NMtDT0=    0
 Symmetry not used in FoFCou.
 Leave Link  703 at Sun Jun 12 00:15:44 2022, MaxMem=   939524096 cpu:        37.6
 (Enter /Local/ce_dana/g09/l716.exe)
 Dipole        = 5.25834701D-03-2.96331332D-01 8.68864534D-01
 Polarizability= 0.00000000D+00 0.00000000D+00 0.00000000D+00
                 0.00000000D+00 0.00000000D+00 0.00000000D+00
 -------------------------------------------------------------------
 Center     Atomic                   Forces (Hartrees/Bohr)
 Number     Number              X              Y              Z
 -------------------------------------------------------------------
      1        8           0.000106890    0.000158985    0.000657220
      2        6          -0.001534197   -0.000228738    0.003728352
      3        6           0.000187141    0.000389447   -0.000847202
      4        8          -0.001266372   -0.002691144    0.001298485
      5        8          -0.000585251    0.006114581    0.002301298
      6        1           0.003168952   -0.004007746   -0.007275026
      7        1           0.000020198    0.000046725    0.000077169
      8        1          -0.000097361    0.000217889    0.000059703
 -------------------------------------------------------------------
 Cartesian Forces:  Max     0.007275026 RMS     0.002502813
 Z-matrix is all fixed cartesians, so copy forces.
 Force constants in Cartesian coordinates: 
                1             2             3             4             5 
      1  0.605885D-01
      2 -0.123217D+00  0.353389D+00
      3 -0.169086D+00  0.428501D+00  0.625308D+00
      4 -0.762116D-01  0.107069D+00  0.158305D+00  0.160359D+00
      5  0.109221D+00 -0.322690D+00 -0.394519D+00 -0.113843D+00  0.462761D+00
      6  0.155149D+00 -0.386727D+00 -0.615800D+00 -0.159250D+00  0.397280D+00
      7  0.662473D-02  0.131543D-01  0.729044D-02 -0.509635D-01 -0.370352D-03
      8  0.901552D-02 -0.329366D-01 -0.251185D-01 -0.320582D-02 -0.570048D-01
      9  0.109143D-01 -0.321161D-01 -0.204090D-02 -0.939474D-02  0.222841D-01
     10  0.937297D-03  0.454049D-03 -0.839417D-02  0.142606D-02  0.322144D-03
     11  0.497064D-02 -0.996463D-03 -0.584117D-02 -0.103773D-01 -0.462297D-01
     12 -0.113307D-02 -0.558234D-04  0.105773D-01  0.660377D-02 -0.448354D-01
     13 -0.168024D-02 -0.665678D-03  0.113901D-01 -0.309620D-02  0.277109D-02
     14 -0.356027D-02  0.148500D-02  0.602646D-02  0.304647D-01  0.623472D-02
     15 -0.494996D-02  0.220407D-03 -0.130399D-01  0.399610D-01 -0.194252D-02
     16  0.950988D-02  0.435163D-02  0.762136D-03 -0.287236D-01 -0.902356D-02
     17  0.418795D-02 -0.122487D-03 -0.687327D-02 -0.218365D-01 -0.173833D-01
     18  0.960914D-02 -0.948425D-02 -0.590523D-02 -0.346921D-01  0.172531D-01
     19  0.360694D-03  0.695543D-04  0.531778D-03 -0.636620D-02  0.573172D-02
     20 -0.151014D-02 -0.238664D-03 -0.122988D-02  0.255876D-01 -0.141211D-01
     21 -0.154105D-03 -0.455111D-03  0.521497D-03  0.161150D-02  0.328865D-02
     22 -0.129251D-03 -0.121527D-02 -0.799029D-03  0.357609D-02  0.519082D-02
     23  0.892680D-03  0.211066D-02 -0.945320D-03 -0.138586D-01 -0.115665D-01
     24 -0.349262D-03  0.116690D-03  0.378781D-03 -0.314459D-02  0.119072D-02
                6             7             8             9            10 
      6  0.729314D+00
      7 -0.845528D-03  0.551113D+00
      8  0.318939D-01  0.893521D-01  0.384009D+00
      9 -0.391534D-01 -0.225683D-01 -0.981403D-01  0.463449D+00
     10  0.268014D-01 -0.763183D-01 -0.220024D-01 -0.332814D-01  0.140799D+00
     11 -0.107414D-01 -0.323038D-01 -0.675013D-01 -0.237947D-01  0.119325D+00
     12 -0.620676D-01 -0.492701D-01 -0.400509D-01 -0.185520D+00  0.898959D-02
     13  0.183237D-01 -0.113921D-02  0.289175D-03  0.231675D-01 -0.813225D-01
     14 -0.101713D+00 -0.731750D-02 -0.194905D-01  0.335351D-01 -0.819249D-01
     15 -0.576269D-01  0.288313D-01  0.290409D-01 -0.463122D-01  0.352715D-01
     16 -0.360559D-01  0.124747D-01 -0.143344D-02  0.339026D-02  0.102025D-01
     17  0.544725D-01  0.170933D-02 -0.217429D-01 -0.568784D-04 -0.111899D-01
     18  0.434736D-01  0.990824D-02  0.237347D-01 -0.195474D-01 -0.164509D-01
     19 -0.212984D-02 -0.277217D+00  0.320025D-01 -0.597810D-01  0.179135D-02
     20  0.406192D-02  0.450857D-01 -0.479145D-01  0.192655D-01 -0.125261D-01
     21  0.305401D-03 -0.535319D-01  0.111178D-01 -0.585095D-01 -0.347639D-01
     22 -0.199319D-02 -0.164575D+00 -0.104018D+00  0.875534D-01  0.248478D-02
     23  0.114726D-01 -0.109310D+00 -0.137419D+00  0.790233D-01  0.754254D-02
     24  0.155482D-02  0.801858D-01  0.675225D-01 -0.112365D+00  0.218279D-01
               11            12            13            14            15 
     11  0.284050D+00
     12  0.148540D-01  0.359233D+00
     13 -0.778439D-01  0.517934D-01  0.106496D+00
     14 -0.125541D+00  0.697716D-01  0.858939D-01  0.119211D+00
     15  0.291977D-01 -0.853807D-01 -0.968974D-01 -0.824138D-01  0.188859D+00
     16 -0.384679D-02 -0.660898D-02 -0.247820D-01 -0.260877D-01 -0.108798D-02
     17 -0.536701D-01  0.125697D-01 -0.106688D-01  0.196354D-01  0.256280D-01
     18 -0.307940D-01  0.140532D-01 -0.784729D-02  0.821711D-01  0.155319D-01
[...]
   New End-Old End Dist.      =     0.000231
 CORRECTOR INTEGRATION CONVERGENCE:
   Recorrection delta-x convergence threshold:    0.010000
   Delta-x Convergence Met
 Point Number:  50          Path Number:   1
                    CURRENT STRUCTURE
                Cartesian Coordinates (Ang):                
 ---------------------------------------------------------------------
 Center     Atomic                     Coordinates (Angstroms)
 Number     Number                        X           Y           Z
 ---------------------------------------------------------------------
      1          8                   -0.412782    1.324510    1.693406
      2          6                   -0.360122    0.718161    0.687118
      3          6                    0.071682   -0.733733    0.454986
      4          8                   -0.098821   -1.079085   -0.898884
      5          8                    0.690576   -0.129983   -1.654960
      6          1                    0.055922    0.599363   -1.747962
      7          1                    1.114670   -0.839846    0.778951
      8          1                   -0.576628   -1.406264    1.025934
 ---------------------------------------------------------------------
   CHANGE IN THE REACTION COORDINATE =    0.07235
   NET REACTION COORDINATE UP TO THIS POINT =    3.61571
  # OF POINTS ALONG THE PATH =  50
  # OF STEPS =   1

 Maximum number of steps reached.
 Calculation of FORWARD path complete.
 Reaction path calculation complete.
 
 Energies reported relative to the TS energy of        -303.577880
 --------------------------------------------------------------------------
    Summary of reaction path following
 --------------------------------------------------------------------------
                        Energy    RxCoord
   1                    0.00000   0.00000
   2                   -0.00033   0.07236
   3                   -0.00130   0.14470
   4                   -0.00282   0.21703
   5                   -0.00473   0.28937
   6                   -0.00679   0.36170
   7                   -0.00874   0.43398
   8                   -0.01034   0.50606
   9                   -0.01153   0.57777
  10                   -0.01250   0.64978
  11                   -0.01335   0.72201
  12                   -0.01412   0.79430
  13                   -0.01485   0.86662
  14                   -0.01554   0.93895
  15                   -0.01618   1.01129
  16                   -0.01679   1.08362
  17                   -0.01737   1.15596
  18                   -0.01793   1.22830
  19                   -0.01845   1.30064
  20                   -0.01895   1.37299
  21                   -0.01943   1.44533
  22                   -0.01989   1.51767
  23                   -0.02034   1.59001
  24                   -0.02076   1.66235
  25                   -0.02117   1.73470
  26                   -0.02156   1.80704
  27                   -0.02193   1.87938
  28                   -0.02230   1.95173
  29                   -0.02264   2.02407
  30                   -0.02298   2.09642
  31                   -0.02331   2.16876
  32                   -0.02362   2.24111
  33                   -0.02392   2.31346
  34                   -0.02422   2.38580
  35                   -0.02450   2.45815
  36                   -0.02477   2.53050
  37                   -0.02503   2.60285
  38                   -0.02528   2.67519
  39                   -0.02552   2.74754
  40                   -0.02576   2.81989
  41                   -0.02598   2.89224
  42                   -0.02619   2.96458
  43                   -0.02640   3.03693
  44                   -0.02660   3.10928
  45                   -0.02678   3.18163
  46                   -0.02696   3.25397
  47                   -0.02713   3.32632
  48                   -0.02730   3.39867
  49                   -0.02745   3.47102
  50                   -0.02759   3.54336
  51                   -0.02773   3.61571
 --------------------------------------------------------------------------
 
 Total number of points:                   50
 Total number of gradient calculations:    51
 Total number of Hessian calculations:     51
 IRC-IRC-IRC-IRC-IRC-IRC-IRC-IRC-IRC-IRC-IRC-IRC-IRC-IRC-IRC-IRC-IRC-IRC
 Leave Link  123 at Sun Jun 12 00:30:12 2022, MaxMem=   939524096 cpu:         0.1
 (Enter /Local/ce_dana/g09/l202.exe)
                          Input orientation:                          
 ---------------------------------------------------------------------
 Center     Atomic      Atomic             Coordinates (Angstroms)
 Number     Number       Type             X           Y           Z
 ---------------------------------------------------------------------
      1          8           0       -0.412781    1.324512    1.693413
      2          6           0       -0.360124    0.718159    0.687110
      3          6           0        0.071683   -0.733732    0.454986
      4          8           0       -0.098821   -1.079085   -0.898884
      5          8           0        0.690580   -0.129988   -1.654960
      6          1           0        0.055860    0.599456   -1.747962
      7          1           0        1.114676   -0.839848    0.778952
      8          1           0       -0.576630   -1.406269    1.025934
 ---------------------------------------------------------------------
                    Distance matrix (angstroms):
                    1          2          3          4          5
     1  O    0.000000
     2  C    1.176045   0.000000
     3  C    2.450464   1.532425   0.000000
     4  O    3.549064   2.411171   1.407588   0.000000
     5  O    3.813736   2.703447   2.280223   1.447616   0.000000
     6  H    3.548013   2.473198   2.575000   1.887422   0.971395
     7  H    2.802466   2.147289   1.097292   2.084453   2.570543
     8  H    2.815944   2.162145   1.094805   2.010044   3.228299
                    6          7          8
     6  H    0.000000
     7  H    3.094832   0.000000
     8  H    3.481017   1.800653   0.000000
 Symmetry turned off by external request.
 Stoichiometry    C2H3O3(2)
 Framework group  C1[X(C2H3O3)]
 Deg. of freedom    18
 Full point group                 C1      NOp   1
 Rotational constants (GHZ):     14.1512399      3.1330179      2.7060345
 Leave Link  202 at Sun Jun 12 00:30:12 2022, MaxMem=   939524096 cpu:         0.0
 (Enter /Local/ce_dana/g09/l601.exe)
 Copying SCF densities to generalized density rwf, IOpCl= 1 IROHF=0.

 **********************************************************************

            Population analysis using the SCF density.

 **********************************************************************

 Alpha  occ. eigenvalues --  -19.20060 -19.18864 -19.18846 -10.28250 -10.27034
 Alpha  occ. eigenvalues --   -1.14973  -1.12122  -0.94059  -0.74774  -0.58479
 Alpha  occ. eigenvalues --   -0.56126  -0.51455  -0.50974  -0.46804  -0.45020
 Alpha  occ. eigenvalues --   -0.43011  -0.40595  -0.32263  -0.30941  -0.21852
 Alpha virt. eigenvalues --   -0.04994  -0.00364   0.05224   0.06435   0.09159
 Alpha virt. eigenvalues --    0.12650   0.21249   0.24686   0.35372   0.37005
 Alpha virt. eigenvalues --    0.39213   0.41727   0.42821   0.44469   0.49289
 Alpha virt. eigenvalues --    0.56092   0.58228   0.63656   0.68052   0.72426
 Alpha virt. eigenvalues --    0.75339   0.77561   0.82947   0.83165   0.85834
 Alpha virt. eigenvalues --    0.87276   0.89770   0.92694   1.13883   1.16922
 Alpha virt. eigenvalues --    1.22525   1.27325   1.35593   1.35899   1.37987
 Alpha virt. eigenvalues --    1.40687   1.44580   1.52047   1.52917   1.58293
 Alpha virt. eigenvalues --    1.62515   1.67573   1.76735   1.90641   1.92888
 Alpha virt. eigenvalues --    1.95321   2.02579   2.17748   2.32356   2.33677
 Alpha virt. eigenvalues --    2.42798   2.45586   2.53386   2.57643   2.63801
 Alpha virt. eigenvalues --    2.68635   2.72352   2.77242   2.81560   2.82482
 Alpha virt. eigenvalues --    2.87963   3.01649   3.06869   3.14091   3.23705
 Alpha virt. eigenvalues --    3.26222   3.32224   3.37582   3.55551   3.57975
 Alpha virt. eigenvalues --    3.71378   3.79226   3.86779   3.97669   4.64331
 Alpha virt. eigenvalues --    4.78246   4.82349   4.84524   4.89467   5.20575
 Alpha virt. eigenvalues --    5.34173   5.49712   5.65107  23.73211  23.74555
 Alpha virt. eigenvalues --   49.74360  49.78310  49.87515
  Beta  occ. eigenvalues --  -19.20052 -19.18787 -19.17966 -10.27353 -10.26679
  Beta  occ. eigenvalues --   -1.14869  -1.10493  -0.93873  -0.73477  -0.57223
  Beta  occ. eigenvalues --   -0.55267  -0.50965  -0.49434  -0.46319  -0.42890
  Beta  occ. eigenvalues --   -0.40940  -0.39055  -0.31968  -0.30639
  Beta virt. eigenvalues --   -0.09142  -0.03469  -0.00290   0.05692   0.07028
  Beta virt. eigenvalues --    0.09459   0.13137   0.22363   0.25532   0.36059
  Beta virt. eigenvalues --    0.37966   0.39558   0.42345   0.43479   0.46666
  Beta virt. eigenvalues --    0.50176   0.56314   0.59197   0.64953   0.68446
  Beta virt. eigenvalues --    0.72879   0.75681   0.77963   0.83341   0.84402
  Beta virt. eigenvalues --    0.86510   0.87682   0.90178   0.93380   1.15093
  Beta virt. eigenvalues --    1.17750   1.23283   1.28041   1.35733   1.36829
  Beta virt. eigenvalues --    1.39737   1.41996   1.45466   1.52685   1.53954
  Beta virt. eigenvalues --    1.58842   1.63005   1.67791   1.77874   1.91689
  Beta virt. eigenvalues --    1.93285   1.96033   2.03397   2.19229   2.32613
  Beta virt. eigenvalues --    2.34055   2.42875   2.45784   2.54109   2.58969
  Beta virt. eigenvalues --    2.64634   2.68896   2.73878   2.78228   2.83913
  Beta virt. eigenvalues --    2.84162   2.89108   3.02856   3.07090   3.14422
  Beta virt. eigenvalues --    3.24008   3.26561   3.32787   3.39708   3.55686
  Beta virt. eigenvalues --    3.59274   3.71628   3.79541   3.87004   3.98337
  Beta virt. eigenvalues --    4.64398   4.78492   4.82631   4.84977   4.92931
  Beta virt. eigenvalues --    5.20654   5.34401   5.50420   5.65281  23.73619
  Beta virt. eigenvalues --   23.75536  49.74410  49.78388  49.88346
          Condensed to atoms (all electrons):
               1          2          3          4          5          6
     1  O    7.702789   0.516323  -0.038281   0.001775  -0.000012  -0.001404
     2  C    0.516323   5.317491   0.148084  -0.040860   0.001243   0.033476
     3  C   -0.038281   0.148084   4.999401   0.230905  -0.069749  -0.017962
     4  O    0.001775  -0.040860   0.230905   8.022378   0.087594  -0.032606
     5  O   -0.000012   0.001243  -0.069749   0.087594   7.940728   0.282613
     6  H   -0.001404   0.033476  -0.017962  -0.032606   0.282613   0.466365
     7  H    0.003230  -0.037848   0.367457  -0.034478   0.006727   0.000409
     8  H    0.001449  -0.007885   0.354883  -0.017716   0.005999  -0.000000
               7          8
     1  O    0.003230   0.001449
     2  C   -0.037848  -0.007885
     3  C    0.367457   0.354883
     4  O   -0.034478  -0.017716
     5  O    0.006727   0.005999
     6  H    0.000409  -0.000000
     7  H    0.560763  -0.010695
     8  H   -0.010695   0.524740
          Atomic-Atomic Spin Densities.
               1          2          3          4          5          6
     1  O    0.435291  -0.158173  -0.008774  -0.000158   0.000074  -0.000831
     2  C   -0.158173   0.850089  -0.160296   0.004326  -0.007848   0.018497
     3  C   -0.008774  -0.160296   0.332280   0.002957   0.003680  -0.008731
     4  O   -0.000158   0.004326   0.002957   0.003290  -0.004683   0.000359
     5  O    0.000074  -0.007848   0.003680  -0.004683   0.024585  -0.000843
     6  H   -0.000831   0.018497  -0.008731   0.000359  -0.000843  -0.001236
     7  H    0.003711   0.014157  -0.037389  -0.004047   0.000276   0.001698
     8  H    0.002980   0.011155  -0.026769  -0.001465   0.000116   0.000782
               7          8
     1  O    0.003711   0.002980
     2  C    0.014157   0.011155
     3  C   -0.037389  -0.026769
     4  O   -0.004047  -0.001465
     5  O    0.000276   0.000116
     6  H    0.001698   0.000782
     7  H    0.031759   0.010105
     8  H    0.010105   0.014210
 Mulliken charges and spin densities:
               1          2
     1  O   -0.185870   0.274120
     2  C    0.069976   0.571908
     3  C    0.025261   0.096958
     4  O   -0.216992   0.000579
     5  O   -0.255142   0.015357
     6  H    0.269108   0.009694
     7  H    0.144434   0.020270
     8  H    0.149224   0.011114
 Sum of Mulliken charges =  -0.00000   1.00000
 Mulliken charges and spin densities with hydrogens summed into heavy atoms:
               1          2
     1  O   -0.185870   0.274120
     2  C    0.069976   0.571908
     3  C    0.318919   0.128341
     4  O   -0.216992   0.000579
     5  O    0.013966   0.025051
 APT charges:
               1
     1  O    0.403420
     2  C   -0.501090
     3  C   -0.533672
     4  O   -0.087039
     5  O   -0.362155
     6  H    0.354934
     7  H    0.322361
     8  H    0.403241
 Sum of APT charges =  -0.00000
 APT charges with hydrogens summed into heavy atoms:
               1
     1  O    0.403420
     2  C   -0.501090
     3  C    0.191930
     4  O   -0.087039
     5  O   -0.007221
 Electronic spatial extent (au):  <R**2>=            425.8041
 Charge=             -0.0000 electrons
 Dipole moment (field-independent basis, Debye):
    X=             -0.3465    Y=             -0.3148    Z=              0.6183  Tot=              0.7755
 Quadrupole moment (field-independent basis, Debye-Ang):
   XX=            -28.5146   YY=            -30.0838   ZZ=            -30.9132
   XY=              0.8768   XZ=              2.1040   YZ=             -6.7107
 Traceless Quadrupole moment (field-independent basis, Debye-Ang):
   XX=              1.3226   YY=             -0.2466   ZZ=             -1.0760
   XY=              0.8768   XZ=              2.1040   YZ=             -6.7107
 Octapole moment (field-independent basis, Debye-Ang**2):
  XXX=             -0.1151  YYY=             -0.3342  ZZZ=             -8.6384  XYY=              1.1966
  XXY=             -0.2882  XXZ=              1.6113  XZZ=             -2.0277  YZZ=              0.9160
  YYZ=             -3.1302  XYZ=              1.4132
 Hexadecapole moment (field-independent basis, Debye-Ang**3):
 XXXX=            -56.0063 YYYY=           -169.1652 ZZZZ=           -276.9369 XXXY=             13.3917
 XXXZ=             32.2264 YYYX=             17.1989 YYYZ=            -60.5980 ZZZX=             38.6502
 ZZZY=            -69.5439 XXYY=            -35.9311 XXZZ=            -55.6090 YYZZ=            -75.9812
 XXYZ=            -18.3221 YYXZ=             10.4026 ZZXY=              7.8651
 N-N= 1.651065901722D+02 E-N=-1.045020515888D+03  KE= 3.028276330173D+02
  Exact polarizability:   0.000   0.000   0.000   0.000   0.000   0.000
 Approx polarizability:  36.499   0.288  50.149  -5.507   3.617  56.739
                          Isotropic Fermi Contact Couplings
        Atom                 a.u.       MegaHertz       Gauss      10(-4) cm-1
     1  O(17)              0.04850     -29.40189     -10.49132      -9.80741
     2  C(13)              0.26160     294.08491     104.93680      98.09617
     3  C(13)              0.10160     114.21280      40.75397      38.09729
     4  O(17)              0.03328     -20.17569      -7.19919      -6.72988
     5  O(17)              0.00121      -0.73578      -0.26254      -0.24543
     6  H(1)              -0.00098      -4.37073      -1.55958      -1.45792
     7  H(1)               0.00260      11.63462       4.15152       3.88089
     8  H(1)               0.00040       1.80149       0.64281       0.60091
 --------------------------------------------------------
       Center         ----  Spin Dipole Couplings  ----
                      3XX-RR        3YY-RR        3ZZ-RR
 --------------------------------------------------------
     1   Atom       -0.566283      0.301466      0.264817
     2   Atom       -0.240044     -0.092758      0.332802
     3   Atom       -0.100645      0.203286     -0.102641
     4   Atom        0.032442     -0.012452     -0.019990
     5   Atom       -0.043043      0.091933     -0.048890
     6   Atom       -0.004285     -0.008469      0.012753
     7   Atom        0.014164      0.001858     -0.016022
     8   Atom       -0.006861      0.018849     -0.011988
 --------------------------------------------------------
                        XY            XZ            YZ
 --------------------------------------------------------
     1   Atom       -0.497067      0.474258     -0.999665
     2   Atom       -0.127891      0.219966     -0.388803
     3   Atom       -0.103113     -0.027804      0.086165
     4   Atom       -0.018543      0.005789     -0.006429
     5   Atom       -0.027840     -0.006838      0.029452
     6   Atom       -0.007880     -0.007108      0.003744
     7   Atom       -0.012433      0.006119      0.001035
     8   Atom        0.008250     -0.008661     -0.008063
 --------------------------------------------------------


 ---------------------------------------------------------------------------------
              Anisotropic Spin Dipole Couplings in Principal Axis System
 ---------------------------------------------------------------------------------

       Atom             a.u.   MegaHertz   Gauss  10(-4) cm-1        Axes

              Baa    -0.7947    57.501    20.518    19.180  0.9427  0.3057 -0.1335
     1 O(17)  Bbb    -0.7156    51.779    18.476    17.272 -0.1125  0.6680  0.7356
              Bcc     1.5102  -109.279   -38.994   -36.452 -0.3141  0.6784 -0.6642
 
              Baa    -0.3236   -43.428   -15.496   -14.486 -0.1972  0.8131  0.5477
     2 C(13)  Bbb    -0.3134   -42.058   -15.007   -14.029  0.9399  0.3156 -0.1301
              Bcc     0.6370    85.486    30.504    28.515  0.2786 -0.4891  0.8265
 
              Baa    -0.1325   -17.785    -6.346    -5.933  0.9539  0.2506  0.1650
     3 C(13)  Bbb    -0.1252   -16.797    -5.994    -5.603 -0.0919 -0.2796  0.9557
              Bcc     0.2577    34.582    12.340    11.535 -0.2856  0.9269  0.2437
 
              Baa    -0.0242     1.751     0.625     0.584  0.1235  0.6192  0.7755
     4 O(17)  Bbb    -0.0159     1.149     0.410     0.383  0.3450  0.7059 -0.6186
              Bcc     0.0401    -2.900    -1.035    -0.967  0.9305 -0.3439  0.1265
 
              Baa    -0.0550     3.982     1.421     1.328  0.1820 -0.1600  0.9702
     5 O(17)  Bbb    -0.0484     3.503     1.250     1.169  0.9644  0.2216 -0.1443
              Bcc     0.1034    -7.485    -2.671    -2.497 -0.1919  0.9619  0.1946
 
              Baa    -0.0146    -7.795    -2.781    -2.600  0.6306  0.7740  0.0579
     6 H(1)   Bbb    -0.0023    -1.246    -0.445    -0.416  0.6711 -0.5812  0.4603
              Bcc     0.0169     9.041     3.226     3.016 -0.3899  0.2514  0.8859
 
              Baa    -0.0180    -9.582    -3.419    -3.196 -0.2619 -0.2135  0.9412
     7 H(1)   Bbb    -0.0045    -2.398    -0.856    -0.800  0.4525  0.8342  0.3151
              Bcc     0.0225    11.981     4.275     3.996  0.8524 -0.5084  0.1219
 
              Baa    -0.0185    -9.889    -3.529    -3.299  0.5719  0.0504  0.8188
     8 H(1)   Bbb    -0.0057    -3.032    -1.082    -1.011  0.7561 -0.4194 -0.5023
              Bcc     0.0242    12.921     4.610     4.310  0.3181  0.9064 -0.2779
 

 ---------------------------------------------------------------------------------

 No NMR shielding tensors so no spin-rotation constants.
 Leave Link  601 at Sun Jun 12 00:30:12 2022, MaxMem=   939524096 cpu:         2.2
 (Enter /Local/ce_dana/g09/l9999.exe)

 This type of calculation cannot be archived.


 CONFIDENCE: THAT QUIET ASSURED FEELING YOU HAVE
 JUST BEFORE YOU FALL FLAT ON YOUR FACE.
 Job cpu time:       0 days  2 hours 11 minutes 36.7 seconds.
 File lengths (MBytes):  RWF=     26 Int=      0 D2E=      0 Chk=      5 Scr=      1
 Normal termination of Gaussian 09 at Sun Jun 12 00:30:12 2022.
