 Entering Gaussian System
 *********************************************
 Gaussian 98:
 frequency output generated by the xtb code
 *********************************************
                         Standard orientation:
 --------------------------------------------------------------------
  Center     Atomic     Atomic              Coordinates (Angstroms)
  Number     Number      Type              X           Y           Z
 --------------------------------------------------------------------
    1          8             0       -0.155538    0.452366   -0.000000
    2          8             0        0.994230   -0.187861   -0.000003
    3          1             0       -0.838692   -0.264505    0.000003
 --------------------------------------------------------------------
     1 basis functions        1 primitive gaussians
     1 alpha electrons        1 beta electrons

 Harmonic frequencies (cm**-1), IR intensities (km*mol⁻¹),
 Raman scattering activities (A**4/amu), Raman depolarization ratios,
 reduced masses (AMU), force constants (mDyne/A) and normal coordinates:
                      1                      2                      3
                        a                      a                      a 
 Frequencies --  1224.9751              1355.2709              3158.7630
 Red. masses --    14.3365                 4.2989                 1.8842
 Frc consts  --     0.0000                 0.0000                 0.0000
 IR Inten    --    31.5368                56.5554                34.7268
 Raman Activ --     0.0000                 0.0000                 0.0000
 Depolar     --     0.0000                 0.0000                 0.0000
 Atom AN      X      Y      Z        X      Y      Z        X      Y      Z
   1   8     0.57  -0.41  -0.00    -0.22  -0.11   0.00     0.15   0.19  -0.00
   2   8    -0.51   0.36   0.00     0.39  -0.03  -0.00     0.02  -0.01  -0.00
   3   1    -0.25   0.22   0.00    -0.68   0.57   0.00    -0.66  -0.71   0.00
