      -----------------------------------------------------------      
     |                   =====================                   |     
     |                           x T B                           |     
     |                   =====================                   |     
     |                         S. Grimme                         |     
     |          Mulliken Center for Theoretical Chemistry        |     
     |                    University of Bonn                     |     
      -----------------------------------------------------------      

   * xtb version 6.5.1 (b24c23e) compiled by 'conda@728c89f4b128' on 2022-07-12

   xtb is free software: you can redistribute it and/or modify it under
   the terms of the GNU Lesser General Public License as published by
   the Free Software Foundation, either version 3 of the License, or
   (at your option) any later version.
   
   xtb is distributed in the hope that it will be useful,
   but WITHOUT ANY WARRANTY; without even the implied warranty of
   MERCHANTABILITY or FITNESS FOR A PARTICULAR PURPOSE.  See the
   GNU Lesser General Public License for more details.
   
   Cite this work as:
   * C. Bannwarth, E. Caldeweyher, S. Ehlert, A. Hansen, P. Pracht,
     J. Seibert, S. Spicher, S. Grimme, WIREs Comput. Mol. Sci., 2020, 11,
     e01493. DOI: 10.1002/wcms.1493
   
   for GFN2-xTB:
   * C. Bannwarth, S. Ehlert and S. Grimme., J. Chem. Theory Comput., 2019,
     15, 1652-1671. DOI: 10.1021/acs.jctc.8b01176
   for GFN1-xTB:
   * S. Grimme, C. Bannwarth, P. Shushkov, J. Chem. Theory Comput., 2017,
     13, 1989-2009. DOI: 10.1021/acs.jctc.7b00118
   for GFN0-xTB:
   * P. Pracht, E. Caldeweyher, S. Ehlert, S. Grimme, ChemRxiv, 2019, preprint.
     DOI: 10.26434/chemrxiv.8326202.v1
   for GFN-FF:
   * S. Spicher and S. Grimme, Angew. Chem. Int. Ed., 2020, 59, 15665-15673.
     DOI: 10.1002/anie.202004239
   
   for ALPB and GBSA implicit solvation:
   * S. Ehlert, M. Stahn, S. Spicher, S. Grimme, J. Chem. Theory Comput.,
     2021, 17, 4250-4261. DOI: 10.1021/acs.jctc.1c00471
   
   for DFT-D4:
   * E. Caldeweyher, C. Bannwarth and S. Grimme, J. Chem. Phys., 2017,
     147, 034112. DOI: 10.1063/1.4993215
   * E. Caldeweyher, S. Ehlert, A. Hansen, H. Neugebauer, S. Spicher,
     C. Bannwarth and S. Grimme, J. Chem. Phys., 2019, 150, 154122.
     DOI: 10.1063/1.5090222
   * E. Caldeweyher, J.-M. Mewes, S. Ehlert and S. Grimme, Phys. Chem. Chem. Phys.
     2020, 22, 8499-8512. DOI: 10.1039/D0CP00502A
   
   for sTDA-xTB:
   * S. Grimme and C. Bannwarth, J. Chem. Phys., 2016, 145, 054103.
     DOI: 10.1063/1.4959605
   
   in the mass-spec context:
   * V. Asgeirsson, C. Bauer and S. Grimme, Chem. Sci., 2017, 8, 4879.
     DOI: 10.1039/c7sc00601b
   * J. Koopman and S. Grimme, ACS Omega 2019, 4, 12, 15120-15133.
     DOI: 10.1021/acsomega.9b02011
   
   for metadynamics refer to:
   * S. Grimme, J. Chem. Theory Comput., 2019, 155, 2847-2862
     DOI: 10.1021/acs.jctc.9b00143
   
   for SPH calculations refer to:
   * S. Spicher and S. Grimme, J. Chem. Theory Comput., 2021, 17, 1701-1714
     DOI: 10.1021/acs.jctc.0c01306
   
   with help from (in alphabetical order)
   P. Atkinson, C. Bannwarth, F. Bohle, G. Brandenburg, E. Caldeweyher
   M. Checinski, S. Dohm, S. Ehlert, S. Ehrlich, I. Gerasimov, C. Hölzer
   A. Katbashev, J. Koopman, C. Lavigne, S. Lehtola, F. März, M. Müller,
   F. Musil, H. Neugebauer, J. Pisarek, C. Plett, P. Pracht, F. Pultar,
   J. Seibert, P. Shushkov, S. Spicher, M. Stahn, M. Steiner, T. Strunk,
   J. Stückrath, T. Rose, and J. Unsleber
   
 * started run on 2022/07/25 at 05:59:21.082     

           -------------------------------------------------
          |                Calculation Setup                |
           -------------------------------------------------

          program call               : xtb input.in --hess
          coordinate file            : input.in
          omp threads                :                    24

   ID    Z sym.   atoms
    1    8 o      1, 2
    2    1 h      3

           -------------------------------------------------
          |                 G F N 2 - x T B                 |
           -------------------------------------------------

        Reference                      10.1021/acs.jctc.8b01176
      * Hamiltonian:
        H0-scaling (s, p, d)           1.850000    2.230000    2.230000
        zeta-weighting                 0.500000
      * Dispersion:
        s8                             2.700000
        a1                             0.520000
        a2                             5.000000
        s9                             5.000000
      * Repulsion:
        kExp                           1.500000    1.000000
        rExp                           1.000000
      * Coulomb:
        alpha                          2.000000
        third order                    shell-resolved
        anisotropic                    true
        a3                             3.000000
        a5                             4.000000
        cn-shift                       1.200000
        cn-exp                         4.000000
        max-rad                        5.000000


          ...................................................
          :                      SETUP                      :
          :.................................................:
          :  # basis functions                   9          :
          :  # atomic orbitals                   9          :
          :  # shells                            5          :
          :  # electrons                        13          :
          :  max. iterations                   250          :
          :  Hamiltonian                  GFN2-xTB          :
          :  restarted?                      false          :
          :  GBSA solvation                  false          :
          :  PC potential                    false          :
          :  electronic temp.          300.0000000     K    :
          :  accuracy                    1.0000000          :
          :  -> integral cutoff          0.2500000E+02      :
          :  -> integral neglect         0.1000000E-07      :
          :  -> SCF convergence          0.1000000E-05 Eh   :
          :  -> wf. convergence          0.1000000E-03 e    :
          :  Broyden damping             0.4000000          :
          ...................................................

 iter      E             dE          RMSdq      gap      omega  full diag
   1     -8.4633870 -0.846339E+01  0.510E+00   10.43       0.0  T
   2     -8.4737890 -0.104019E-01  0.320E+00   10.28       1.0  T
   3     -8.4742167 -0.427683E-03  0.137E+00   10.31       1.0  T
   4     -8.4743629 -0.146232E-03  0.154E-01   10.30       1.0  T
   5     -8.4743748 -0.118781E-04  0.550E-02   10.30       1.1  T
   6     -8.4743769 -0.212224E-05  0.369E-02   10.31       1.6  T
   7     -8.4743786 -0.169428E-05  0.684E-03   10.31       8.4  T
   8     -8.4743786 -0.610412E-08  0.352E-03   10.31      16.4  T
   9     -8.4743786 -0.180443E-07  0.421E-04   10.31     137.3  T
  10     -8.4743786 -0.147329E-09  0.434E-05   10.31    1329.7  T

   *** convergence criteria satisfied after 10 iterations ***

         #    Occupation            Energy/Eh            Energy/eV
      -------------------------------------------------------------
         1        2.0000           -0.7780604             -21.1721
         2        2.0000           -0.7166626             -19.5014
         3        2.0000           -0.6556683             -17.8416
         4        2.0000           -0.6049081             -16.4604
         5        2.0000           -0.6028244             -16.4037
         6        2.0000           -0.4645728             -12.6417
         7        1.0000           -0.4318613             -11.7515 (HOMO)
         8                         -0.0530886              -1.4446 (LUMO)
         9                          0.0578291               1.5736
      -------------------------------------------------------------
                  HL-Gap            0.3787727 Eh           10.3069 eV
             Fermi-level           -0.3453460 Eh           -9.3973 eV

 SCC (total)                   0 d,  0 h,  0 min,  0.349 sec
 SCC setup                      ...        0 min,  0.000 sec (  0.021%)
 Dispersion                     ...        0 min,  0.000 sec (  0.015%)
 classical contributions        ...        0 min,  0.000 sec (  0.098%)
 integral evaluation            ...        0 min,  0.000 sec (  0.036%)
 iterations                     ...        0 min,  0.277 sec ( 79.475%)
 molecular gradient             ...        0 min,  0.071 sec ( 20.318%)
 printout                       ...        0 min,  0.000 sec (  0.025%)

         :::::::::::::::::::::::::::::::::::::::::::::::::::::
         ::                     SUMMARY                     ::
         :::::::::::::::::::::::::::::::::::::::::::::::::::::
         :: total energy              -8.459050226180 Eh    ::
         :: gradient norm              0.022904255070 Eh/a0 ::
         :: HOMO-LUMO gap             10.306929459628 eV    ::
         ::.................................................::
         :: SCC energy                -8.474378608601 Eh    ::
         :: -> isotropic ES            0.018639991509 Eh    ::
         :: -> anisotropic ES          0.000670488119 Eh    ::
         :: -> anisotropic XC         -0.008035552961 Eh    ::
         :: -> dispersion             -0.000316545252 Eh    ::
         :: repulsion energy           0.015328382258 Eh    ::
         :: add. restraining           0.000000000000 Eh    ::
         :: total charge              -0.000000000000 e     ::
         :::::::::::::::::::::::::::::::::::::::::::::::::::::

           ------------------------------------------------- 
          |                Numerical Hessian                |
           ------------------------------------------------- 
step length          :   0.00500
SCC accuracy         :   0.30000
Hessian scale factor :   1.00000
frozen atoms in %    :   0.00000    0
RMS gradient         :   0.02290 !! INCOMPLETELY OPTIMIZED GEOMETRY !!
estimated CPU  time      0.00 min
estimated wall time      0.00 min

writing file <hessian>.

 projected vibrational frequencies (cm⁻¹)
eigval :       -0.00    -0.00    -0.00     0.00     0.00     0.00
eigval :     1224.98  1355.27  3158.76
           -------------------------------------------------
          |                Property Printout                |
           -------------------------------------------------

    * Orbital Energies and Occupations

         #    Occupation            Energy/Eh            Energy/eV
      -------------------------------------------------------------
         1        2.0000           -0.7780606             -21.1721
         2        2.0000           -0.7166628             -19.5014
         3        2.0000           -0.6556685             -17.8416
         4        2.0000           -0.6049081             -16.4604
         5        2.0000           -0.6028247             -16.4037
         6        2.0000           -0.4645727             -12.6417
         7        1.0000           -0.4318613             -11.7515 (HOMO)
         8                         -0.0530887              -1.4446 (LUMO)
         9                          0.0578290               1.5736
      -------------------------------------------------------------
                  HL-Gap            0.3787726 Eh           10.3069 eV
             Fermi-level           -0.3453460 Eh           -9.3973 eV

     #   Z          covCN         q      C6AA      α(0)
     1   8 o        1.771    -0.125    16.186     5.433
     2   8 o        0.970    -0.218    18.325     5.742
     3   1 h        0.801     0.344     0.604     1.221

 Mol. C6AA /au·bohr⁶  :         82.218085
 Mol. C8AA /au·bohr⁸  :       1596.566584
 Mol. α(0) /au        :         12.395417


Wiberg/Mayer (AO) data.
largest (>0.10) Wiberg bond orders for each atom

 ---------------------------------------------------------------------------
     #   Z sym  total        # sym  WBO       # sym  WBO       # sym  WBO
 ---------------------------------------------------------------------------
     1   8 o    2.086 --     2 o    1.219     3 h    0.868
     2   8 o    1.233 --     1 o    1.219
Molecule has the following symmetry elements: (sigma) 
It seems to be the Cs point group
     3   1 h    0.882 --     1 o    0.868
 ---------------------------------------------------------------------------

Topologies differ in total number of bonds
Writing topology from bond orders to xtbtopo.mol

molecular dipole:
                 x           y           z       tot (Debye)
 q only:       -0.918      -0.201       0.000
   full:       -1.115      -0.328       0.000       2.953
molecular quadrupole (traceless):
                xx          xy          yy          xz          yz          zz
 q only:        0.098       0.674      -0.074      -0.000      -0.000      -0.024
  q+dip:       -0.686       1.706       0.053       0.000      -0.000       0.634
   full:       -0.429       1.295      -0.322       0.000      -0.000       0.751

           -------------------------------------------------
          |               Frequency Printout                |
           -------------------------------------------------
 projected vibrational frequencies (cm⁻¹)
eigval :       -0.00    -0.00    -0.00     0.00     0.00     0.00
eigval :     1224.98  1355.27  3158.76
 reduced masses (amu)
   1:  1.01   2: 14.26   3: 15.56   4: 16.00   5: 15.79   6: 15.89   7: 14.34   8:  4.30
   9:  1.88
 IR intensities (km·mol⁻¹)
   1:202.25   2: 10.67   3: 12.02   4:  2.72   5:  2.20   6:  2.81   7: 31.54   8: 56.56
   9: 34.73
 Raman intensities (amu)
   1:  0.00   2:  0.00   3:  0.00   4:  0.00   5:  0.00   6:  0.00   7:  0.00   8:  0.00
   9:  0.00
 output can be read by thermo (or use thermo option).
 writing <g98.out> molden fake output.
 recommended (thermochemical) frequency scaling factor: 1.0
           -------------------------------------------------
          |             Thermodynamic Functions             |
           -------------------------------------------------

cs  symmetry found (for desy threshold:  0.10E+00) used in thermo

          ...................................................
          :                      SETUP                      :
          :.................................................:
          :  # frequencies                           3      :
          :  # imaginary freq.                       0      :
          :  linear?                             false      :
          :  only rotor calc.                    false      :
          :  symmetry                               cs      :
          :  rotational number                       1      :
          :  scaling factor                  1.0000000      :
          :  rotor cutoff                   50.0000000 cm⁻¹ :
          :  imag. cutoff                  -20.0000000 cm⁻¹ :
          :.................................................:

    mode    ω/cm⁻¹     T·S(HO)/kcal·mol⁻¹    T·S(FR)/kcal·mol⁻¹   T·S(vib)
   ------------------------------------------------------------------------
   ------------------------------------------------------------------------

   temp. (K)  partition function   enthalpy   heat capacity  entropy
                                   cal/mol     cal/K/mol   cal/K/mol   J/K/mol
 298.15  VIB   1.00                   15.119      0.312      0.059
         ROT  0.106E+04              888.752      2.981     16.829
         INT  0.107E+04              903.872      3.293     16.888
         TR   0.183E+27             1481.254      4.968     36.397
         TOT                        2385.1257     8.2614    53.2857   222.9472

       T/K    H(0)-H(T)+PV         H(T)/Eh          T*S/Eh         G(T)/Eh
   ------------------------------------------------------------------------
    298.15    0.380094E-02    0.168754E-01    0.253177E-01   -0.844237E-02
   ------------------------------------------------------------------------

         :::::::::::::::::::::::::::::::::::::::::::::::::::::
         ::                  THERMODYNAMIC                  ::
         :::::::::::::::::::::::::::::::::::::::::::::::::::::
         :: total free energy          -8.467492595889 Eh   ::
         ::.................................................::
         :: total energy               -8.459050226183 Eh   ::
         :: zero point energy           0.013074424541 Eh   ::
         :: G(RRHO) w/o ZPVE           -0.021516794247 Eh   ::
         :: G(RRHO) contrib.           -0.008442369706 Eh   ::
         :::::::::::::::::::::::::::::::::::::::::::::::::::::

           -------------------------------------------------
          | TOTAL ENERGY               -8.459050226183 Eh   |
          | TOTAL ENTHALPY             -8.442174861859 Eh   |
          | TOTAL FREE ENERGY          -8.467492595889 Eh   |
          | GRADIENT NORM               0.022904100500 Eh/α |
          | HOMO-LUMO GAP              10.306927677235 eV   |
           -------------------------------------------------
########################################################################
[WARNING] Runtime exception occurred
-1- hessian_numhess: Hessian on incompletely optimized geometry!
########################################################################

------------------------------------------------------------------------
 * finished run on 2022/07/25 at 05:59:21.689     
------------------------------------------------------------------------
 total:
 * wall-time:     0 d,  0 h,  0 min,  0.607 sec
 *  cpu-time:     0 d,  0 h,  0 min, 13.849 sec
 * ratio c/w:    22.804 speedup
 SCF:
 * wall-time:     0 d,  0 h,  0 min,  0.349 sec
 *  cpu-time:     0 d,  0 h,  0 min,  8.160 sec
 * ratio c/w:    23.389 speedup
 analytical hessian:
 * wall-time:     0 d,  0 h,  0 min,  0.172 sec
 *  cpu-time:     0 d,  0 h,  0 min,  3.776 sec
 * ratio c/w:    21.993 speedup

