 Entering Gaussian System, Link 0=g16
 Input=/media/sf_work/Pfizer/imipramine/hydroperoxide to alcohol/6membered/ts1011.gjf
 Output=/media/sf_work/Pfizer/imipramine/hydroperoxide to alcohol/6membered/ts1011.log
 Initial command:
 /home/dranasinghe/Software/G16_avx2/g16/l1.exe "/home/dranasinghe/Scratch/Gau-19444.inp" -scrdir="/home/dranasinghe/Scratch/"
 Entering Link 1 = /home/dranasinghe/Software/G16_avx2/g16/l1.exe PID=     19447.
  
 Copyright (c) 1988-2017, Gaussian, Inc.  All Rights Reserved.
  
 This is part of the Gaussian(R) 16 program.  It is based on
 the Gaussian(R) 09 system (copyright 2009, Gaussian, Inc.),
 the Gaussian(R) 03 system (copyright 2003, Gaussian, Inc.),
 the Gaussian(R) 98 system (copyright 1998, Gaussian, Inc.),
 the Gaussian(R) 94 system (copyright 1995, Gaussian, Inc.),
 the Gaussian 92(TM) system (copyright 1992, Gaussian, Inc.),
 the Gaussian 90(TM) system (copyright 1990, Gaussian, Inc.),
 the Gaussian 88(TM) system (copyright 1988, Gaussian, Inc.),
 the Gaussian 86(TM) system (copyright 1986, Carnegie Mellon
 University), and the Gaussian 82(TM) system (copyright 1983,
 Carnegie Mellon University). Gaussian is a federally registered
 trademark of Gaussian, Inc.
  
 This software contains proprietary and confidential information,
 including trade secrets, belonging to Gaussian, Inc.
  
 This software is provided under written license and may be
 used, copied, transmitted, or stored only in accord with that
 written license.
  
 The following legend is applicable only to US Government
 contracts under FAR:
  
                    RESTRICTED RIGHTS LEGEND
  
 Use, reproduction and disclosure by the US Government is
 subject to restrictions as set forth in subparagraphs (a)
 and (c) of the Commercial Computer Software - Restricted
 Rights clause in FAR 52.227-19.
  
 Gaussian, Inc.
 340 Quinnipiac St., Bldg. 40, Wallingford CT 06492
  
  
 ---------------------------------------------------------------
 Warning -- This program may not be used in any manner that
 competes with the business of Gaussian, Inc. or will provide
 assistance to any competitor of Gaussian, Inc.  The licensee
 of this program is prohibited from giving any competitor of
 Gaussian, Inc. access to this program.  By using this program,
 the user acknowledges that Gaussian, Inc. is engaged in the
 business of creating and licensing software in the field of
 computational chemistry and represents and warrants to the
 licensee that it is not a competitor of Gaussian, Inc. and that
 it will not use this program in any manner prohibited above.
 ---------------------------------------------------------------
  

 Cite this work as:
 Gaussian 16, Revision B.01,
 M. J. Frisch, G. W. Trucks, H. B. Schlegel, G. E. Scuseria, 
 M. A. Robb, J. R. Cheeseman, G. Scalmani, V. Barone, 
 G. A. Petersson, H. Nakatsuji, X. Li, M. Caricato, A. V. Marenich, 
 J. Bloino, B. G. Janesko, R. Gomperts, B. Mennucci, H. P. Hratchian, 
 J. V. Ortiz, A. F. Izmaylov, J. L. Sonnenberg, D. Williams-Young, 
 F. Ding, F. Lipparini, F. Egidi, J. Goings, B. Peng, A. Petrone, 
 T. Henderson, D. Ranasinghe, V. G. Zakrzewski, J. Gao, N. Rega, 
 G. Zheng, W. Liang, M. Hada, M. Ehara, K. Toyota, R. Fukuda, 
 J. Hasegawa, M. Ishida, T. Nakajima, Y. Honda, O. Kitao, H. Nakai, 
 T. Vreven, K. Throssell, J. A. Montgomery, Jr., J. E. Peralta, 
 F. Ogliaro, M. J. Bearpark, J. J. Heyd, E. N. Brothers, K. N. Kudin, 
 V. N. Staroverov, T. A. Keith, R. Kobayashi, J. Normand, 
 K. Raghavachari, A. P. Rendell, J. C. Burant, S. S. Iyengar, 
 J. Tomasi, M. Cossi, J. M. Millam, M. Klene, C. Adamo, R. Cammi, 
 J. W. Ochterski, R. L. Martin, K. Morokuma, O. Farkas, 
 J. B. Foresman, and D. J. Fox, Gaussian, Inc., Wallingford CT, 2016.
 
 ******************************************
 Gaussian 16:  ES64L-G16RevB.01 20-Dec-2017
                30-Mar-2020 
 ******************************************
 %chk=check.chk
 %mem=1000MB
 %nprocshared=4
 Will use up to    4 processors via shared memory.
 ----------------------------------------------------------------------
 #p opt=(calcall,ts,noeigentest,maxcycles=128) freq pm6 guess=mix scf=x
 qc
 ----------------------------------------------------------------------
 1/5=1,6=128,10=4,11=1,18=20,26=1,38=1/1,3;
 2/9=110,12=2,17=6,18=5,40=1/2;
 3/5=2,25=1,41=3900000,71=2,140=1/1,2,3;
 4/13=-1,35=1/1;
 5/5=2,8=3,13=1,35=1,38=5/2,8;
 8/6=4,10=90,11=11/1;
 11/6=1,8=1,9=11,15=111,16=1/1,2,10;
 10/6=1/2;
 6/7=2,8=2,9=2,10=2,18=1,28=1/1;
 7/10=1,25=1/1,2,3,16;
 1/5=1,6=128,10=4,11=1,18=20,26=1/3(3);
 2/9=110/2;
 7/8=1,9=1,25=1,44=-1/16;
 99//99;
 2/9=110/2;
 3/5=2,25=1,41=3900000,71=2,135=20,140=1/1,2,3;
 4/5=5,16=3,35=1/1;
 5/5=2,8=3,13=1,35=1,38=5/2,8;
 8/6=4,10=90,11=11/1;
 11/6=1,8=1,9=11,15=111,16=1/1,2,10;
 10/6=1/2;
 7/10=1,25=1/1,2,3,16;
 1/5=1,6=128,10=4,11=1,18=20,26=1/3(-8);
 2/9=110/2;
 6/7=2,8=2,9=2,10=2,18=1,19=2,28=1/1;
 7/8=1,9=1,25=1,44=-1/16;
 99//99;
 Leave Link    1 at Mon Mar 30 12:23:05 2020, MaxMem=   131072000 cpu:               0.2 elap:               0.1
 (Enter /home/dranasinghe/Software/G16_avx2/g16/l101.exe)
 ----
 name
 ----
 Symbolic Z-matrix:
 Charge =  0 Multiplicity = 1
 N                     0.9744    0.17199   0.4339 
 C                    -0.33041   0.83694   0.72709 
 C                     2.0378    1.06618   0.03394 
 C                    -1.02561   0.11      1.89071 
 H                    -0.13799   1.89521   1.01382 
 H                    -1.00535   0.86927  -0.16908 
 C                     0.95253  -1.13884  -0.15984 
 C                     1.81065   2.19422  -0.77044 
 C                     3.33098   0.80422   0.54394 
 C                    -2.47689   0.58503   2.06244 
 H                    -0.99656  -0.98845   1.7345 
 H                    -0.46055   0.28268   2.8276 
 C                    -0.24098  -1.60516  -0.75643 
 C                     2.07327  -2.00574  -0.09299 
 C                     2.86408   3.07081  -1.04562 
 H                     0.82719   2.38657  -1.19271 
 C                     3.54661  -0.43836   1.35451 
 C                     4.372     1.69055   0.25336 
 N                    -3.3218    0.08198   0.93313 
 H                    -2.50649   1.69742   2.07311 
 H                    -2.85595   0.25554   3.05482 
 C                    -0.34228  -2.90014  -1.25709 
 H                    -1.10839  -0.94371  -0.84087 
 C                     3.43815  -1.67447   0.45415 
 C                     1.94093  -3.30785  -0.60874 
 C                     4.13959   2.8244   -0.5328 
 H                     2.68681   3.9462   -1.66853 
 H                     4.53433  -0.42717   1.85476 
 H                     2.79384  -0.49386   2.17181 
 H                     5.37086   1.49961   0.64254 
 C                    -4.49401   0.97223   0.63742 
 C                    -3.73884  -1.3344    1.13871 
 C                     0.7535   -3.76233  -1.18115 
 H                    -1.27248  -3.23391  -1.71415 
 H                     3.82     -2.55011   1.02344 
 H                     4.13196  -1.55176  -0.40896 
 H                     2.79335  -3.98704  -0.56097 
 H                     4.95594   3.51068  -0.748 
 H                    -5.44148   0.65448   1.12107 
 H                    -4.26634   2.02414   0.89661 
 H                    -4.38174  -1.65087   0.3002 
 H                    -4.2882   -1.51709   2.07451 
 H                    -2.84363  -1.97888   1.13341 
 H                     0.68502  -4.77555  -1.56874 
 H                    -4.50644   2.36182  -1.94385 
 O                    -4.74116   0.88213  -0.75077 
 O                    -4.72082   2.38958  -0.96047 
 O                    -6.79021   2.27618  -0.79644 
 H                    -5.93746   1.35247  -0.81089 
 H                    -6.91131   2.4058   -1.74903 
 O                    -4.94372   3.9222   -0.60596 
 H                    -4.62995   3.89643   0.32004 
 H                    -6.09575   3.23214  -0.54308 
 
 Add virtual bond connecting atoms H53        and O48        Dist= 2.28D+00.
 Add virtual bond connecting atoms H49        and O48        Dist= 2.38D+00.
 Add virtual bond connecting atoms H49        and O46        Dist= 2.43D+00.
 Add virtual bond connecting atoms H53        and O51        Dist= 2.54D+00.
 ITRead=  0  0  0  0  0  0  0  0  0  0  0  0  0  0  0  0  0  0  0  0
 ITRead=  0  0  0  0  0  0  0  0  0  0  0  0  0  0  0  0  0  0  0  0
 ITRead=  0  0  0  0  0  0  0  0  0  0  0  0  0
 MicOpt= -1 -1 -1 -1 -1 -1 -1 -1 -1 -1 -1 -1 -1 -1 -1 -1 -1 -1 -1 -1
 MicOpt= -1 -1 -1 -1 -1 -1 -1 -1 -1 -1 -1 -1 -1 -1 -1 -1 -1 -1 -1 -1
 MicOpt= -1 -1 -1 -1 -1 -1 -1 -1 -1 -1 -1 -1 -1
 NAtoms=     53 NQM=       53 NQMF=       0 NMMI=      0 NMMIF=      0
                NMic=       0 NMicF=      0.
                    Isotopes and Nuclear Properties:
 (Nuclear quadrupole moments (NQMom) in fm**2, nuclear magnetic moments (NMagM)
  in nuclear magnetons)

  Atom         1           2           3           4           5           6           7           8           9          10
 IAtWgt=          14          12          12          12           1           1          12          12          12          12
 AtmWgt=  14.0030740  12.0000000  12.0000000  12.0000000   1.0078250   1.0078250  12.0000000  12.0000000  12.0000000  12.0000000
 NucSpn=           2           0           0           0           1           1           0           0           0           0
 AtZEff=  -0.0000000  -0.0000000  -0.0000000  -0.0000000  -0.0000000  -0.0000000  -0.0000000  -0.0000000  -0.0000000  -0.0000000
 NQMom=    2.0440000   0.0000000   0.0000000   0.0000000   0.0000000   0.0000000   0.0000000   0.0000000   0.0000000   0.0000000
 NMagM=    0.4037610   0.0000000   0.0000000   0.0000000   2.7928460   2.7928460   0.0000000   0.0000000   0.0000000   0.0000000
 AtZNuc=   7.0000000   6.0000000   6.0000000   6.0000000   1.0000000   1.0000000   6.0000000   6.0000000   6.0000000   6.0000000

  Atom        11          12          13          14          15          16          17          18          19          20
 IAtWgt=           1           1          12          12          12           1          12          12          14           1
 AtmWgt=   1.0078250   1.0078250  12.0000000  12.0000000  12.0000000   1.0078250  12.0000000  12.0000000  14.0030740   1.0078250
 NucSpn=           1           1           0           0           0           1           0           0           2           1
 AtZEff=  -0.0000000  -0.0000000  -0.0000000  -0.0000000  -0.0000000  -0.0000000  -0.0000000  -0.0000000  -0.0000000  -0.0000000
 NQMom=    0.0000000   0.0000000   0.0000000   0.0000000   0.0000000   0.0000000   0.0000000   0.0000000   2.0440000   0.0000000
 NMagM=    2.7928460   2.7928460   0.0000000   0.0000000   0.0000000   2.7928460   0.0000000   0.0000000   0.4037610   2.7928460
 AtZNuc=   1.0000000   1.0000000   6.0000000   6.0000000   6.0000000   1.0000000   6.0000000   6.0000000   7.0000000   1.0000000

  Atom        21          22          23          24          25          26          27          28          29          30
 IAtWgt=           1          12           1          12          12          12           1           1           1           1
 AtmWgt=   1.0078250  12.0000000   1.0078250  12.0000000  12.0000000  12.0000000   1.0078250   1.0078250   1.0078250   1.0078250
 NucSpn=           1           0           1           0           0           0           1           1           1           1
 AtZEff=  -0.0000000  -0.0000000  -0.0000000  -0.0000000  -0.0000000  -0.0000000  -0.0000000  -0.0000000  -0.0000000  -0.0000000
 NQMom=    0.0000000   0.0000000   0.0000000   0.0000000   0.0000000   0.0000000   0.0000000   0.0000000   0.0000000   0.0000000
 NMagM=    2.7928460   0.0000000   2.7928460   0.0000000   0.0000000   0.0000000   2.7928460   2.7928460   2.7928460   2.7928460
 AtZNuc=   1.0000000   6.0000000   1.0000000   6.0000000   6.0000000   6.0000000   1.0000000   1.0000000   1.0000000   1.0000000

  Atom        31          32          33          34          35          36          37          38          39          40
 IAtWgt=          12          12          12           1           1           1           1           1           1           1
 AtmWgt=  12.0000000  12.0000000  12.0000000   1.0078250   1.0078250   1.0078250   1.0078250   1.0078250   1.0078250   1.0078250
 NucSpn=           0           0           0           1           1           1           1           1           1           1
 AtZEff=  -0.0000000  -0.0000000  -0.0000000  -0.0000000  -0.0000000  -0.0000000  -0.0000000  -0.0000000  -0.0000000  -0.0000000
 NQMom=    0.0000000   0.0000000   0.0000000   0.0000000   0.0000000   0.0000000   0.0000000   0.0000000   0.0000000   0.0000000
 NMagM=    0.0000000   0.0000000   0.0000000   2.7928460   2.7928460   2.7928460   2.7928460   2.7928460   2.7928460   2.7928460
 AtZNuc=   6.0000000   6.0000000   6.0000000   1.0000000   1.0000000   1.0000000   1.0000000   1.0000000   1.0000000   1.0000000

  Atom        41          42          43          44          45          46          47          48          49          50
 IAtWgt=           1           1           1           1           1          16          16          16           1           1
 AtmWgt=   1.0078250   1.0078250   1.0078250   1.0078250   1.0078250  15.9949146  15.9949146  15.9949146   1.0078250   1.0078250
 NucSpn=           1           1           1           1           1           0           0           0           1           1
 AtZEff=  -0.0000000  -0.0000000  -0.0000000  -0.0000000  -0.0000000  -0.0000000  -0.0000000  -0.0000000  -0.0000000  -0.0000000
 NQMom=    0.0000000   0.0000000   0.0000000   0.0000000   0.0000000   0.0000000   0.0000000   0.0000000   0.0000000   0.0000000
 NMagM=    2.7928460   2.7928460   2.7928460   2.7928460   2.7928460   0.0000000   0.0000000   0.0000000   2.7928460   2.7928460
 AtZNuc=   1.0000000   1.0000000   1.0000000   1.0000000   1.0000000   8.0000000   8.0000000   8.0000000   1.0000000   1.0000000

  Atom        51          52          53
 IAtWgt=          16           1           1
 AtmWgt=  15.9949146   1.0078250   1.0078250
 NucSpn=           0           1           1
 AtZEff=  -0.0000000  -0.0000000  -0.0000000
 NQMom=    0.0000000   0.0000000   0.0000000
 NMagM=    0.0000000   2.7928460   2.7928460
 AtZNuc=   8.0000000   1.0000000   1.0000000
 Leave Link  101 at Mon Mar 30 12:23:06 2020, MaxMem=   131072000 cpu:               0.8 elap:               0.2
 (Enter /home/dranasinghe/Software/G16_avx2/g16/l103.exe)

 GradGradGradGradGradGradGradGradGradGradGradGradGradGradGradGradGradGrad
 Berny optimization.
 Initialization pass.
                           ----------------------------
                           !    Initial Parameters    !
                           ! (Angstroms and Degrees)  !
 --------------------------                            --------------------------
 ! Name  Definition              Value          Derivative Info.                !
 --------------------------------------------------------------------------------
 ! R1    R(1,2)                  1.4935         calculate D2E/DX2 analytically  !
 ! R2    R(1,3)                  1.4458         calculate D2E/DX2 analytically  !
 ! R3    R(1,7)                  1.4392         calculate D2E/DX2 analytically  !
 ! R4    R(2,4)                  1.5381         calculate D2E/DX2 analytically  !
 ! R5    R(2,5)                  1.1132         calculate D2E/DX2 analytically  !
 ! R6    R(2,6)                  1.1224         calculate D2E/DX2 analytically  !
 ! R7    R(3,8)                  1.404          calculate D2E/DX2 analytically  !
 ! R8    R(3,9)                  1.4146         calculate D2E/DX2 analytically  !
 ! R9    R(4,10)                 1.5367         calculate D2E/DX2 analytically  !
 ! R10   R(4,11)                 1.1099         calculate D2E/DX2 analytically  !
 ! R11   R(4,12)                 1.1076         calculate D2E/DX2 analytically  !
 ! R12   R(7,13)                 1.4134         calculate D2E/DX2 analytically  !
 ! R13   R(7,14)                 1.4185         calculate D2E/DX2 analytically  !
 ! R14   R(8,15)                 1.3978         calculate D2E/DX2 analytically  !
 ! R15   R(8,16)                 1.0874         calculate D2E/DX2 analytically  !
 ! R16   R(9,17)                 1.4992         calculate D2E/DX2 analytically  !
 ! R17   R(9,18)                 1.3978         calculate D2E/DX2 analytically  !
 ! R18   R(10,19)                1.4974         calculate D2E/DX2 analytically  !
 ! R19   R(10,20)                1.1128         calculate D2E/DX2 analytically  !
 ! R20   R(10,21)                1.1122         calculate D2E/DX2 analytically  !
 ! R21   R(13,22)                1.3921         calculate D2E/DX2 analytically  !
 ! R22   R(13,23)                1.0941         calculate D2E/DX2 analytically  !
 ! R23   R(14,24)                1.5073         calculate D2E/DX2 analytically  !
 ! R24   R(14,25)                1.4068         calculate D2E/DX2 analytically  !
 ! R25   R(15,26)                1.3967         calculate D2E/DX2 analytically  !
 ! R26   R(15,27)                1.0889         calculate D2E/DX2 analytically  !
 ! R27   R(17,24)                1.5331         calculate D2E/DX2 analytically  !
 ! R28   R(17,28)                1.1072         calculate D2E/DX2 analytically  !
 ! R29   R(17,29)                1.1125         calculate D2E/DX2 analytically  !
 ! R30   R(18,26)                1.3992         calculate D2E/DX2 analytically  !
 ! R31   R(18,30)                1.0889         calculate D2E/DX2 analytically  !
 ! R32   R(19,31)                1.5014         calculate D2E/DX2 analytically  !
 ! R33   R(19,32)                1.4907         calculate D2E/DX2 analytically  !
 ! R34   R(22,33)                1.3964         calculate D2E/DX2 analytically  !
 ! R35   R(22,34)                1.0888         calculate D2E/DX2 analytically  !
 ! R36   R(24,35)                1.112          calculate D2E/DX2 analytically  !
 ! R37   R(24,36)                1.1142         calculate D2E/DX2 analytically  !
 ! R38   R(25,33)                1.3943         calculate D2E/DX2 analytically  !
 ! R39   R(25,37)                1.091          calculate D2E/DX2 analytically  !
 ! R40   R(26,38)                1.088          calculate D2E/DX2 analytically  !
 ! R41   R(31,39)                1.1102         calculate D2E/DX2 analytically  !
 ! R42   R(31,40)                1.107          calculate D2E/DX2 analytically  !
 ! R43   R(31,46)                1.4129         calculate D2E/DX2 analytically  !
 ! R44   R(32,41)                1.103          calculate D2E/DX2 analytically  !
 ! R45   R(32,42)                1.1004         calculate D2E/DX2 analytically  !
 ! R46   R(32,43)                1.1031         calculate D2E/DX2 analytically  !
 ! R47   R(33,44)                1.087          calculate D2E/DX2 analytically  !
 ! R48   R(45,47)                1.0069         calculate D2E/DX2 analytically  !
 ! R49   R(46,47)                1.5221         calculate D2E/DX2 analytically  !
 ! R50   R(46,49)                1.2868         calculate D2E/DX2 analytically  !
 ! R51   R(47,51)                1.5888         calculate D2E/DX2 analytically  !
 ! R52   R(48,49)                1.2572         calculate D2E/DX2 analytically  !
 ! R53   R(48,50)                0.969          calculate D2E/DX2 analytically  !
 ! R54   R(48,53)                1.2084         calculate D2E/DX2 analytically  !
 ! R55   R(51,52)                0.9781         calculate D2E/DX2 analytically  !
 ! R56   R(51,53)                1.3444         calculate D2E/DX2 analytically  !
 ! A1    A(2,1,3)              114.9304         calculate D2E/DX2 analytically  !
 ! A2    A(2,1,7)              118.243          calculate D2E/DX2 analytically  !
 ! A3    A(3,1,7)              117.4103         calculate D2E/DX2 analytically  !
 ! A4    A(1,2,4)              109.449          calculate D2E/DX2 analytically  !
 ! A5    A(1,2,5)              108.8323         calculate D2E/DX2 analytically  !
 ! A6    A(1,2,6)              112.4233         calculate D2E/DX2 analytically  !
 ! A7    A(4,2,5)              109.4253         calculate D2E/DX2 analytically  !
 ! A8    A(4,2,6)              110.2352         calculate D2E/DX2 analytically  !
 ! A9    A(5,2,6)              106.393          calculate D2E/DX2 analytically  !
 ! A10   A(1,3,8)              122.44           calculate D2E/DX2 analytically  !
 ! A11   A(1,3,9)              117.2654         calculate D2E/DX2 analytically  !
 ! A12   A(8,3,9)              120.2163         calculate D2E/DX2 analytically  !
 ! A13   A(2,4,10)             111.4274         calculate D2E/DX2 analytically  !
 ! A14   A(2,4,11)             110.4533         calculate D2E/DX2 analytically  !
 ! A15   A(2,4,12)             109.6116         calculate D2E/DX2 analytically  !
 ! A16   A(10,4,11)            110.2668         calculate D2E/DX2 analytically  !
 ! A17   A(10,4,12)            109.8209         calculate D2E/DX2 analytically  !
 ! A18   A(11,4,12)            105.069          calculate D2E/DX2 analytically  !
 ! A19   A(1,7,13)             119.1737         calculate D2E/DX2 analytically  !
 ! A20   A(1,7,14)             121.6809         calculate D2E/DX2 analytically  !
 ! A21   A(13,7,14)            119.0403         calculate D2E/DX2 analytically  !
 ! A22   A(3,8,15)             119.6519         calculate D2E/DX2 analytically  !
 ! A23   A(3,8,16)             120.7263         calculate D2E/DX2 analytically  !
 ! A24   A(15,8,16)            119.6168         calculate D2E/DX2 analytically  !
 ! A25   A(3,9,17)             118.6796         calculate D2E/DX2 analytically  !
 ! A26   A(3,9,18)             119.2405         calculate D2E/DX2 analytically  !
 ! A27   A(17,9,18)            122.0633         calculate D2E/DX2 analytically  !
 ! A28   A(4,10,19)            110.1667         calculate D2E/DX2 analytically  !
 ! A29   A(4,10,20)            109.584          calculate D2E/DX2 analytically  !
 ! A30   A(4,10,21)            109.2693         calculate D2E/DX2 analytically  !
 ! A31   A(19,10,20)           109.1494         calculate D2E/DX2 analytically  !
 ! A32   A(19,10,21)           112.4011         calculate D2E/DX2 analytically  !
 ! A33   A(20,10,21)           106.171          calculate D2E/DX2 analytically  !
 ! A34   A(7,13,22)            121.3427         calculate D2E/DX2 analytically  !
 ! A35   A(7,13,23)            120.1696         calculate D2E/DX2 analytically  !
 ! A36   A(22,13,23)           118.4857         calculate D2E/DX2 analytically  !
 ! A37   A(7,14,24)            126.7439         calculate D2E/DX2 analytically  !
 ! A38   A(7,14,25)            118.2992         calculate D2E/DX2 analytically  !
 ! A39   A(24,14,25)           114.9412         calculate D2E/DX2 analytically  !
 ! A40   A(8,15,26)            120.3537         calculate D2E/DX2 analytically  !
 ! A41   A(8,15,27)            119.6089         calculate D2E/DX2 analytically  !
 ! A42   A(26,15,27)           120.0363         calculate D2E/DX2 analytically  !
 ! A43   A(9,17,24)            109.912          calculate D2E/DX2 analytically  !
 ! A44   A(9,17,28)            111.3595         calculate D2E/DX2 analytically  !
 ! A45   A(9,17,29)            109.9519         calculate D2E/DX2 analytically  !
 ! A46   A(24,17,28)           109.6692         calculate D2E/DX2 analytically  !
 ! A47   A(24,17,29)           110.0807         calculate D2E/DX2 analytically  !
 ! A48   A(28,17,29)           105.7941         calculate D2E/DX2 analytically  !
 ! A49   A(9,18,26)            120.462          calculate D2E/DX2 analytically  !
 ! A50   A(9,18,30)            119.8486         calculate D2E/DX2 analytically  !
 ! A51   A(26,18,30)           119.6892         calculate D2E/DX2 analytically  !
 ! A52   A(10,19,31)           112.9469         calculate D2E/DX2 analytically  !
 ! A53   A(10,19,32)           111.9028         calculate D2E/DX2 analytically  !
 ! A54   A(31,19,32)           111.8467         calculate D2E/DX2 analytically  !
 ! A55   A(13,22,33)           119.8485         calculate D2E/DX2 analytically  !
 ! A56   A(13,22,34)           119.8873         calculate D2E/DX2 analytically  !
 ! A57   A(33,22,34)           120.262          calculate D2E/DX2 analytically  !
 ! A58   A(14,24,17)           117.0288         calculate D2E/DX2 analytically  !
 ! A59   A(14,24,35)           108.8871         calculate D2E/DX2 analytically  !
 ! A60   A(14,24,36)           107.8716         calculate D2E/DX2 analytically  !
 ! A61   A(17,24,35)           108.0553         calculate D2E/DX2 analytically  !
 ! A62   A(17,24,36)           108.7892         calculate D2E/DX2 analytically  !
 ! A63   A(35,24,36)           105.6327         calculate D2E/DX2 analytically  !
 ! A64   A(14,25,33)           122.1621         calculate D2E/DX2 analytically  !
 ! A65   A(14,25,37)           119.1229         calculate D2E/DX2 analytically  !
 ! A66   A(33,25,37)           118.7149         calculate D2E/DX2 analytically  !
 ! A67   A(15,26,18)           120.0647         calculate D2E/DX2 analytically  !
 ! A68   A(15,26,38)           120.0879         calculate D2E/DX2 analytically  !
 ! A69   A(18,26,38)           119.8466         calculate D2E/DX2 analytically  !
 ! A70   A(19,31,39)           114.2549         calculate D2E/DX2 analytically  !
 ! A71   A(19,31,40)           110.901          calculate D2E/DX2 analytically  !
 ! A72   A(19,31,46)           106.9943         calculate D2E/DX2 analytically  !
 ! A73   A(39,31,40)           110.2108         calculate D2E/DX2 analytically  !
 ! A74   A(39,31,46)           105.0988         calculate D2E/DX2 analytically  !
 ! A75   A(40,31,46)           109.0628         calculate D2E/DX2 analytically  !
 ! A76   A(19,32,41)           109.3194         calculate D2E/DX2 analytically  !
 ! A77   A(19,32,42)           114.4988         calculate D2E/DX2 analytically  !
 ! A78   A(19,32,43)           109.1116         calculate D2E/DX2 analytically  !
 ! A79   A(41,32,42)           107.9315         calculate D2E/DX2 analytically  !
 ! A80   A(41,32,43)           107.5625         calculate D2E/DX2 analytically  !
 ! A81   A(42,32,43)           108.1946         calculate D2E/DX2 analytically  !
 ! A82   A(22,33,25)           119.2982         calculate D2E/DX2 analytically  !
 ! A83   A(22,33,44)           120.445          calculate D2E/DX2 analytically  !
 ! A84   A(25,33,44)           120.2559         calculate D2E/DX2 analytically  !
 ! A85   A(31,46,47)            94.0067         calculate D2E/DX2 analytically  !
 ! A86   A(31,46,49)           100.6735         calculate D2E/DX2 analytically  !
 ! A87   A(47,46,49)            69.1456         calculate D2E/DX2 analytically  !
 ! A88   A(45,47,46)            96.3212         calculate D2E/DX2 analytically  !
 ! A89   A(45,47,51)           105.9261         calculate D2E/DX2 analytically  !
 ! A90   A(46,47,51)           157.3296         calculate D2E/DX2 analytically  !
 ! A91   A(49,48,50)            99.8896         calculate D2E/DX2 analytically  !
 ! A92   A(49,48,53)           101.1768         calculate D2E/DX2 analytically  !
 ! A93   A(50,48,53)            99.9103         calculate D2E/DX2 analytically  !
 ! A94   A(46,49,48)           153.9681         calculate D2E/DX2 analytically  !
 ! A95   A(47,51,52)            98.0963         calculate D2E/DX2 analytically  !
 ! A96   A(47,51,53)            68.6238         calculate D2E/DX2 analytically  !
 ! A97   A(52,51,53)           102.5393         calculate D2E/DX2 analytically  !
 ! A98   A(48,53,51)           152.7115         calculate D2E/DX2 analytically  !
 ! D1    D(3,1,2,4)           -144.2173         calculate D2E/DX2 analytically  !
 ! D2    D(3,1,2,5)            -24.6738         calculate D2E/DX2 analytically  !
 ! D3    D(3,1,2,6)             92.9273         calculate D2E/DX2 analytically  !
 ! D4    D(7,1,2,4)             70.0968         calculate D2E/DX2 analytically  !
 ! D5    D(7,1,2,5)           -170.3596         calculate D2E/DX2 analytically  !
 ! D6    D(7,1,2,6)            -52.7585         calculate D2E/DX2 analytically  !
 ! D7    D(2,1,3,8)            -36.8132         calculate D2E/DX2 analytically  !
 ! D8    D(2,1,3,9)            139.9727         calculate D2E/DX2 analytically  !
 ! D9    D(7,1,3,8)            109.1709         calculate D2E/DX2 analytically  !
 ! D10   D(7,1,3,9)            -74.0432         calculate D2E/DX2 analytically  !
 ! D11   D(2,1,7,13)            16.2073         calculate D2E/DX2 analytically  !
 ! D12   D(2,1,7,14)          -160.0274         calculate D2E/DX2 analytically  !
 ! D13   D(3,1,7,13)          -128.6334         calculate D2E/DX2 analytically  !
 ! D14   D(3,1,7,14)            55.1319         calculate D2E/DX2 analytically  !
 ! D15   D(1,2,4,10)          -169.4837         calculate D2E/DX2 analytically  !
 ! D16   D(1,2,4,11)           -46.5605         calculate D2E/DX2 analytically  !
 ! D17   D(1,2,4,12)            68.7454         calculate D2E/DX2 analytically  !
 ! D18   D(5,2,4,10)            71.3383         calculate D2E/DX2 analytically  !
 ! D19   D(5,2,4,11)          -165.7385         calculate D2E/DX2 analytically  !
 ! D20   D(5,2,4,12)           -50.4326         calculate D2E/DX2 analytically  !
 ! D21   D(6,2,4,10)           -45.3374         calculate D2E/DX2 analytically  !
 ! D22   D(6,2,4,11)            77.5858         calculate D2E/DX2 analytically  !
 ! D23   D(6,2,4,12)          -167.1083         calculate D2E/DX2 analytically  !
 ! D24   D(1,3,8,15)           175.5615         calculate D2E/DX2 analytically  !
 ! D25   D(1,3,8,16)            -5.2532         calculate D2E/DX2 analytically  !
 ! D26   D(9,3,8,15)            -1.1322         calculate D2E/DX2 analytically  !
 ! D27   D(9,3,8,16)           178.0531         calculate D2E/DX2 analytically  !
 ! D28   D(1,3,9,17)             5.501          calculate D2E/DX2 analytically  !
 ! D29   D(1,3,9,18)          -175.953          calculate D2E/DX2 analytically  !
 ! D30   D(8,3,9,17)          -177.638          calculate D2E/DX2 analytically  !
 ! D31   D(8,3,9,18)             0.9081         calculate D2E/DX2 analytically  !
 ! D32   D(2,4,10,19)           71.1241         calculate D2E/DX2 analytically  !
 ! D33   D(2,4,10,20)          -48.9802         calculate D2E/DX2 analytically  !
 ! D34   D(2,4,10,21)         -164.9262         calculate D2E/DX2 analytically  !
 ! D35   D(11,4,10,19)         -51.9058         calculate D2E/DX2 analytically  !
 ! D36   D(11,4,10,20)        -172.0101         calculate D2E/DX2 analytically  !
 ! D37   D(11,4,10,21)          72.0439         calculate D2E/DX2 analytically  !
 ! D38   D(12,4,10,19)        -167.2264         calculate D2E/DX2 analytically  !
 ! D39   D(12,4,10,20)          72.6693         calculate D2E/DX2 analytically  !
 ! D40   D(12,4,10,21)         -43.2767         calculate D2E/DX2 analytically  !
 ! D41   D(1,7,13,22)         -175.28           calculate D2E/DX2 analytically  !
 ! D42   D(1,7,13,23)            5.2314         calculate D2E/DX2 analytically  !
 ! D43   D(14,7,13,22)           1.0552         calculate D2E/DX2 analytically  !
 ! D44   D(14,7,13,23)        -178.4334         calculate D2E/DX2 analytically  !
 ! D45   D(1,7,14,24)           -6.2362         calculate D2E/DX2 analytically  !
 ! D46   D(1,7,14,25)          175.2867         calculate D2E/DX2 analytically  !
 ! D47   D(13,7,14,24)         177.5242         calculate D2E/DX2 analytically  !
 ! D48   D(13,7,14,25)          -0.9529         calculate D2E/DX2 analytically  !
 ! D49   D(3,8,15,26)            0.4501         calculate D2E/DX2 analytically  !
 ! D50   D(3,8,15,27)         -179.921          calculate D2E/DX2 analytically  !
 ! D51   D(16,8,15,26)        -178.7443         calculate D2E/DX2 analytically  !
 ! D52   D(16,8,15,27)           0.8846         calculate D2E/DX2 analytically  !
 ! D53   D(3,9,17,24)           69.3764         calculate D2E/DX2 analytically  !
 ! D54   D(3,9,17,28)         -168.8842         calculate D2E/DX2 analytically  !
 ! D55   D(3,9,17,29)          -51.9551         calculate D2E/DX2 analytically  !
 ! D56   D(18,9,17,24)        -109.1265         calculate D2E/DX2 analytically  !
 ! D57   D(18,9,17,28)          12.6129         calculate D2E/DX2 analytically  !
 ! D58   D(18,9,17,29)         129.5419         calculate D2E/DX2 analytically  !
 ! D59   D(3,9,18,26)           -0.0017         calculate D2E/DX2 analytically  !
 ! D60   D(3,9,18,30)          179.8733         calculate D2E/DX2 analytically  !
 ! D61   D(17,9,18,26)         178.4931         calculate D2E/DX2 analytically  !
 ! D62   D(17,9,18,30)          -1.6319         calculate D2E/DX2 analytically  !
 ! D63   D(4,10,19,31)        -152.1456         calculate D2E/DX2 analytically  !
 ! D64   D(4,10,19,32)          80.5706         calculate D2E/DX2 analytically  !
 ! D65   D(20,10,19,31)        -31.7792         calculate D2E/DX2 analytically  !
 ! D66   D(20,10,19,32)       -159.0629         calculate D2E/DX2 analytically  !
 ! D67   D(21,10,19,31)         85.7379         calculate D2E/DX2 analytically  !
 ! D68   D(21,10,19,32)        -41.5458         calculate D2E/DX2 analytically  !
 ! D69   D(7,13,22,33)          -0.3896         calculate D2E/DX2 analytically  !
 ! D70   D(7,13,22,34)        -179.8524         calculate D2E/DX2 analytically  !
 ! D71   D(23,13,22,33)        179.1074         calculate D2E/DX2 analytically  !
 ! D72   D(23,13,22,34)         -0.3555         calculate D2E/DX2 analytically  !
 ! D73   D(7,14,24,17)          17.4229         calculate D2E/DX2 analytically  !
 ! D74   D(7,14,24,35)         140.2615         calculate D2E/DX2 analytically  !
 ! D75   D(7,14,24,36)        -105.5613         calculate D2E/DX2 analytically  !
 ! D76   D(25,14,24,17)       -164.0559         calculate D2E/DX2 analytically  !
 ! D77   D(25,14,24,35)        -41.2174         calculate D2E/DX2 analytically  !
 ! D78   D(25,14,24,36)         72.9598         calculate D2E/DX2 analytically  !
 ! D79   D(7,14,25,33)           0.2224         calculate D2E/DX2 analytically  !
 ! D80   D(7,14,25,37)        -179.7795         calculate D2E/DX2 analytically  !
 ! D81   D(24,14,25,33)       -178.4318         calculate D2E/DX2 analytically  !
 ! D82   D(24,14,25,37)          1.5663         calculate D2E/DX2 analytically  !
 ! D83   D(8,15,26,18)           0.4537         calculate D2E/DX2 analytically  !
 ! D84   D(8,15,26,38)        -179.8728         calculate D2E/DX2 analytically  !
 ! D85   D(27,15,26,18)       -179.1736         calculate D2E/DX2 analytically  !
 ! D86   D(27,15,26,38)          0.4999         calculate D2E/DX2 analytically  !
 ! D87   D(9,17,24,14)         -69.0754         calculate D2E/DX2 analytically  !
 ! D88   D(9,17,24,35)         167.659          calculate D2E/DX2 analytically  !
 ! D89   D(9,17,24,36)          53.4362         calculate D2E/DX2 analytically  !
 ! D90   D(28,17,24,14)        168.1824         calculate D2E/DX2 analytically  !
 ! D91   D(28,17,24,35)         44.9168         calculate D2E/DX2 analytically  !
 ! D92   D(28,17,24,36)        -69.306          calculate D2E/DX2 analytically  !
 ! D93   D(29,17,24,14)         52.179          calculate D2E/DX2 analytically  !
 ! D94   D(29,17,24,35)        -71.0866         calculate D2E/DX2 analytically  !
 ! D95   D(29,17,24,36)        174.6906         calculate D2E/DX2 analytically  !
 ! D96   D(9,18,26,15)          -0.6784         calculate D2E/DX2 analytically  !
 ! D97   D(9,18,26,38)         179.6473         calculate D2E/DX2 analytically  !
 ! D98   D(30,18,26,15)        179.4464         calculate D2E/DX2 analytically  !
 ! D99   D(30,18,26,38)         -0.2279         calculate D2E/DX2 analytically  !
 ! D100  D(10,19,31,39)        -96.0835         calculate D2E/DX2 analytically  !
 ! D101  D(10,19,31,40)         29.204          calculate D2E/DX2 analytically  !
 ! D102  D(10,19,31,46)        148.0387         calculate D2E/DX2 analytically  !
 ! D103  D(32,19,31,39)         31.2299         calculate D2E/DX2 analytically  !
 ! D104  D(32,19,31,40)        156.5174         calculate D2E/DX2 analytically  !
 ! D105  D(32,19,31,46)        -84.6479         calculate D2E/DX2 analytically  !
 ! D106  D(10,19,32,41)        178.3182         calculate D2E/DX2 analytically  !
 ! D107  D(10,19,32,42)         57.1008         calculate D2E/DX2 analytically  !
 ! D108  D(10,19,32,43)        -64.3024         calculate D2E/DX2 analytically  !
 ! D109  D(31,19,32,41)         50.4452         calculate D2E/DX2 analytically  !
 ! D110  D(31,19,32,42)        -70.7722         calculate D2E/DX2 analytically  !
 ! D111  D(31,19,32,43)        167.8246         calculate D2E/DX2 analytically  !
 ! D112  D(13,22,33,25)         -0.3617         calculate D2E/DX2 analytically  !
 ! D113  D(13,22,33,44)        179.9806         calculate D2E/DX2 analytically  !
 ! D114  D(34,22,33,25)        179.0991         calculate D2E/DX2 analytically  !
 ! D115  D(34,22,33,44)         -0.5586         calculate D2E/DX2 analytically  !
 ! D116  D(14,25,33,22)          0.4442         calculate D2E/DX2 analytically  !
 ! D117  D(14,25,33,44)       -179.8974         calculate D2E/DX2 analytically  !
 ! D118  D(37,25,33,22)       -179.5539         calculate D2E/DX2 analytically  !
 ! D119  D(37,25,33,44)          0.1045         calculate D2E/DX2 analytically  !
 ! D120  D(19,31,46,47)       -127.7112         calculate D2E/DX2 analytically  !
 ! D121  D(19,31,46,49)        162.7729         calculate D2E/DX2 analytically  !
 ! D122  D(39,31,46,47)        110.461          calculate D2E/DX2 analytically  !
 ! D123  D(39,31,46,49)         40.9451         calculate D2E/DX2 analytically  !
 ! D124  D(40,31,46,47)         -7.6915         calculate D2E/DX2 analytically  !
 ! D125  D(40,31,46,49)        -77.2074         calculate D2E/DX2 analytically  !
 ! D126  D(31,46,47,45)        157.561          calculate D2E/DX2 analytically  !
 ! D127  D(31,46,47,51)        -33.4832         calculate D2E/DX2 analytically  !
 ! D128  D(49,46,47,45)       -102.5349         calculate D2E/DX2 analytically  !
 ! D129  D(49,46,47,51)         66.4209         calculate D2E/DX2 analytically  !
 ! D130  D(31,46,49,48)         75.7821         calculate D2E/DX2 analytically  !
 ! D131  D(47,46,49,48)        -14.4636         calculate D2E/DX2 analytically  !
 ! D132  D(45,47,51,52)       -149.1134         calculate D2E/DX2 analytically  !
 ! D133  D(45,47,51,53)        110.5278         calculate D2E/DX2 analytically  !
 ! D134  D(46,47,51,52)         42.3067         calculate D2E/DX2 analytically  !
 ! D135  D(46,47,51,53)        -58.0521         calculate D2E/DX2 analytically  !
 ! D136  D(50,48,49,46)         97.5332         calculate D2E/DX2 analytically  !
 ! D137  D(53,48,49,46)         -4.7372         calculate D2E/DX2 analytically  !
 ! D138  D(49,48,53,51)         33.0707         calculate D2E/DX2 analytically  !
 ! D139  D(50,48,53,51)        -69.1831         calculate D2E/DX2 analytically  !
 ! D140  D(47,51,53,48)        -18.3037         calculate D2E/DX2 analytically  !
 ! D141  D(52,51,53,48)       -112.196          calculate D2E/DX2 analytically  !
 --------------------------------------------------------------------------------
 Trust Radius=3.00D-01 FncErr=1.00D-07 GrdErr=1.00D-07 EigMax=2.50D+02 EigMin=1.00D-04
 Number of steps in this run=    128 maximum allowed number of steps=    318.
 Search for a saddle point of order  1.
 GradGradGradGradGradGradGradGradGradGradGradGradGradGradGradGradGradGrad

 Leave Link  103 at Mon Mar 30 12:23:06 2020, MaxMem=   131072000 cpu:               0.1 elap:               0.0
 (Enter /home/dranasinghe/Software/G16_avx2/g16/l202.exe)
 Stoichiometry    C19H28N2O4
 Framework group  C1[X(C19H28N2O4)]
 Deg. of freedom   153
 Full point group                 C1      NOp   1
 Largest Abelian subgroup         C1      NOp   1
 Largest concise Abelian subgroup C1      NOp   1
                         Standard orientation:                         
 ---------------------------------------------------------------------
 Center     Atomic      Atomic             Coordinates (Angstroms)
 Number     Number       Type             X           Y           Z
 ---------------------------------------------------------------------
      1          7           0        1.516992    0.177437    0.362189
      2          6           0        0.101445    0.514651    0.698592
      3          6           0        2.340942    1.306326   -0.008051
      4          6           0       -0.386480   -0.399328    1.835390
      5          1           0        0.054100    1.576079    1.030741
      6          1           0       -0.581295    0.429478   -0.188162
      7          6           0        1.781531   -1.078028   -0.289812
      8          6           0        1.847002    2.385298   -0.758344
      9          6           0        3.669932    1.325100    0.476167
     10          6           0       -1.903937   -0.275207    2.043424
     11          1           0       -0.111715   -1.454765    1.629507
     12          1           0        0.143518   -0.141467    2.773200
     13          6           0        0.713350   -1.778949   -0.894403
     14          6           0        3.071101   -1.668626   -0.273753
     15          6           0        2.667791    3.489611   -1.004626
     16          1           0        0.837169    2.365773   -1.161280
     17          6           0        4.178810    0.131822    1.227589
     18          6           0        4.476106    2.436698    0.215068
     19          7           0       -2.635221   -0.910249    0.901402
     20          1           0       -2.185366    0.799717    2.104553
     21          1           0       -2.177883   -0.723369    3.023812
     22          6           0        0.898852   -3.040968   -1.451884
     23          1           0       -0.283232   -1.329730   -0.939923
     24          6           0        4.335820   -1.057964    0.273571
     25          6           0        3.227696   -2.944035   -0.846303
     26          6           0        3.976108    3.519370   -0.516697
     27          1           0        2.283543    4.326646   -1.585544
     28          1           0        5.148117    0.347077    1.717562
     29          1           0        3.475175   -0.127735    2.049325
     30          1           0        5.499943    2.462490    0.584855
     31          6           0       -3.984872   -0.299158    0.658324
     32          6           0       -2.715146   -2.391685    1.047208
     33          6           0        2.163239   -3.633048   -1.426274
     34          1           0        0.059751   -3.558716   -1.913851
     35          1           0        4.918222   -1.846375    0.798803
     36          1           0        4.965848   -0.744565   -0.590277
     37          1           0        4.212970   -3.412405   -0.838059
     38          1           0        4.610547    4.382016   -0.709191
     39          1           0       -4.825262   -0.844349    1.136951
     40          1           0       -3.997015    0.765249    0.962313
     41          1           0       -3.286236   -2.811257    0.201994
     42          1           0       -3.189421   -2.733518    1.979469
     43          1           0       -1.697184   -2.814326    1.003559
     44          1           0        2.318957   -4.618201   -1.858432
     45          1           0       -4.365403    1.157031   -1.857381
     46          8           0       -4.233304   -0.385465   -0.729879
     47          8           0       -4.560403    1.094303   -0.871587
     48          8           0       -6.546075    0.505430   -0.691368
     49          1           0       -5.506168   -0.198147   -0.756314
     50          1           0       -6.712846    0.643500   -1.635837
     51          8           0       -5.118540    2.519666   -0.446020
     52          1           0       -4.788328    2.527652    0.474571
     53          1           0       -6.082056    1.583154   -0.402379
 ---------------------------------------------------------------------
 Rotational constants (GHZ):           0.3078924           0.1128601           0.0927372
 Leave Link  202 at Mon Mar 30 12:23:06 2020, MaxMem=   131072000 cpu:               0.0 elap:               0.0
 (Enter /home/dranasinghe/Software/G16_avx2/g16/l301.exe)
 Standard basis: VSTO-6G (5D, 7F)
 Ernie: Thresh=  0.10000D-02 Tol=  0.10000D-05 Strict=F.
  NNHCO=     0 NNPyr=     2 NCTC=     0               EPep=        -0.000167677
    EC=      1119.292415070  ECS=        10.531876497   EG=         0.989169439
   EHC=         0.002167882  EAt=      -147.076549034  AtH=         8.238922617
 EPDDG=         0.000000000  ECC=      1130.815461212 EAtT=       155.315471651
 There are   128 symmetry adapted cartesian basis functions of A   symmetry.
 There are   128 symmetry adapted basis functions of A   symmetry.
   128 basis functions,   768 primitive gaussians,   128 cartesian basis functions
    69 alpha electrons       69 beta electrons
       nuclear repulsion energy      1286.1309328635 Hartrees.
 IExCor=    0 DFT=F Ex=HF Corr=None ExCW=0 ScaHFX=  1.000000
 ScaDFX=  1.000000  1.000000  1.000000  1.000000 ScalE2=  1.000000  1.000000
 IRadAn=      5 IRanWt=     -1 IRanGd=            0 ICorTp=0 IEmpDi=  4
 Integral buffers will be    131072 words long.
 Regular integral format.
 Two-electron integral symmetry is turned off.
 Leave Link  301 at Mon Mar 30 12:23:06 2020, MaxMem=   131072000 cpu:               0.1 elap:               0.0
 (Enter /home/dranasinghe/Software/G16_avx2/g16/l302.exe)
 Do NDO integrals.
 NPDir=0 NMtPBC=     1 NCelOv=     1 NCel=       1 NClECP=     1 NCelD=      1
         NCelK=      1 NCelE2=     1 NClLst=     1 CellRange=     0.0.
 One-electron integrals computed using PRISM.
 NBasis=   128 RedAO= F EigKep=  0.00D+00  NBF=   128
 NBsUse=   128 1.00D-04 EigRej=  0.00D+00 NBFU=   128
 Leave Link  302 at Mon Mar 30 12:23:06 2020, MaxMem=   131072000 cpu:               0.4 elap:               0.1
 (Enter /home/dranasinghe/Software/G16_avx2/g16/l303.exe)
 DipDrv:  MaxL=1.
 Leave Link  303 at Mon Mar 30 12:23:06 2020, MaxMem=   131072000 cpu:               0.1 elap:               0.0
 (Enter /home/dranasinghe/Software/G16_avx2/g16/l401.exe)
 Simple Huckel Guess.
 JPrj=0 DoOrth=F DoCkMO=T.
 Mixing orbitals, IMix= 1 IMixAn=  0 NRI=1 NE=   69 Coef=  7.07106781D-01  7.07106781D-01
 Leave Link  401 at Mon Mar 30 12:23:06 2020, MaxMem=   131072000 cpu:               0.1 elap:               0.0
 (Enter /home/dranasinghe/Software/G16_avx2/g16/l502.exe)
 Keep J ints in memory in canonical form, NReq=899421.
 FoFCou: FMM=F IPFlag=           0 FMFlag=           0 FMFlg1=           0
         NFxFlg=           0 DoJE=F BraDBF=F KetDBF=F FulRan=T
         wScrn=  0.000000 ICntrl=       600 IOpCl=  2 I1Cent=           0 NGrid=           0
         NMat0=    1 NMatS0=    278 NMatT0=    0 NMatD0=    1 NMtDS0=    0 NMtDT0=    0
 Symmetry not used in FoFCou.
 Two-electron integral symmetry not used.
 Closed shell SCF:
 Using DIIS extrapolation, IDIIS=  1040.
 Overlap will be assumed to be unity.
 NGot=   131072000 LenX=   130938358 LenY=   130921533
 Requested convergence on RMS density matrix=1.00D-08 within  32 cycles.
 Requested convergence on MAX density matrix=1.00D-06.
 Requested convergence on             energy=1.00D-06.
 No special actions if energy rises.

 Cycle   1  Pass 1  IDiag  1:
 E=  1.32587526488783    
 DIIS: error= 8.07D-02 at cycle   1 NSaved=   1.
 NSaved= 1 IEnMin= 1 EnMin=  1.32587526488783     IErMin= 1 ErrMin= 8.07D-02
 ErrMax= 8.07D-02  0.00D+00 EMaxC= 1.00D-01 BMatC= 3.60D-01 BMatP= 3.60D-01
 IDIUse=3 WtCom= 1.93D-01 WtEn= 8.07D-01
 Coeff-Com:  0.100D+01
 Coeff-En:   0.100D+01
 Coeff:      0.100D+01
 GapD=    2.000 DampG=2.000 DampE=0.500 DampFc=1.0000 IDamp=-1.
 RMSDP=1.47D-02 MaxDP=4.84D-01              OVMax= 0.00D+00

 Cycle   2  Pass 1  IDiag  1:
 E=  1.05684190664010     Delta-E=       -0.269033358248 Rises=F Damp=F
 DIIS: error= 2.56D-02 at cycle   2 NSaved=   2.
 NSaved= 2 IEnMin= 2 EnMin=  1.05684190664010     IErMin= 2 ErrMin= 2.56D-02
 ErrMax= 2.56D-02  0.00D+00 EMaxC= 1.00D-01 BMatC= 9.11D-02 BMatP= 3.60D-01
 IDIUse=3 WtCom= 7.44D-01 WtEn= 2.56D-01
 Coeff-Com:  0.129D+00 0.871D+00
 Coeff-En:   0.361D+00 0.639D+00
 Coeff:      0.188D+00 0.812D+00
 RMSDP=1.95D-02 MaxDP=7.70D-01 DE=-2.69D-01 OVMax= 0.00D+00

 Cycle   3  Pass 1  IDiag  1:
 E=  4.23791614905917     Delta-E=        3.181074242419 Rises=F Damp=F
 DIIS: error= 6.12D-02 at cycle   3 NSaved=   3.
 NSaved= 3 IEnMin= 2 EnMin=  1.05684190664010     IErMin= 2 ErrMin= 2.56D-02
 ErrMax= 6.12D-02  0.00D+00 EMaxC= 1.00D-01 BMatC= 3.57D-01 BMatP= 9.11D-02
 IDIUse=2 WtCom= 0.00D+00 WtEn= 1.00D+00
 Coeff-En:   0.000D+00 0.764D+00 0.236D+00
 Coeff:      0.000D+00 0.764D+00 0.236D+00
 RMSDP=1.57D-02 MaxDP=7.25D-01 DE= 3.18D+00 OVMax= 0.00D+00

 Cycle   4  Pass 1  IDiag  1:
 E=-0.256333532140616E-01 Delta-E=       -4.263549502273 Rises=F Damp=F
 DIIS: error= 1.05D-02 at cycle   4 NSaved=   4.
 NSaved= 4 IEnMin= 4 EnMin=-0.256333532140616E-01 IErMin= 4 ErrMin= 1.05D-02
 ErrMax= 1.05D-02  0.00D+00 EMaxC= 1.00D-01 BMatC= 7.36D-03 BMatP= 9.11D-02
 IDIUse=3 WtCom= 8.95D-01 WtEn= 1.05D-01
 Coeff-Com: -0.711D-01 0.155D+00 0.189D-01 0.897D+00
 Coeff-En:   0.000D+00 0.000D+00 0.000D+00 0.100D+01
 Coeff:     -0.636D-01 0.139D+00 0.169D-01 0.908D+00
 RMSDP=1.38D-03 MaxDP=2.98D-02 DE=-4.26D+00 OVMax= 0.00D+00

 Cycle   5  Pass 1  IDiag  3:
 E=-0.494340022735287E-01 Delta-E=       -0.023800649059 Rises=F Damp=F
 DIIS: error= 3.86D-03 at cycle   5 NSaved=   5.
 NSaved= 5 IEnMin= 5 EnMin=-0.494340022735287E-01 IErMin= 5 ErrMin= 3.86D-03
 ErrMax= 3.86D-03  0.00D+00 EMaxC= 1.00D-01 BMatC= 1.07D-03 BMatP= 7.36D-03
 IDIUse=3 WtCom= 9.61D-01 WtEn= 3.86D-02
 Coeff-Com: -0.101D-01 0.259D-01-0.134D-01-0.115D+00 0.111D+01
 Coeff-En:   0.000D+00 0.000D+00 0.000D+00 0.000D+00 0.100D+01
 Coeff:     -0.973D-02 0.249D-01-0.128D-01-0.111D+00 0.111D+01
 Gap=     0.309 Goal=   None    Shift=    0.000
 RMSDP=5.47D-04 MaxDP=9.38D-03 DE=-2.38D-02 OVMax= 1.74D-02

 Cycle   6  Pass 1  IDiag  3:
 E=-0.535528660725504E-01 Delta-E=       -0.004118863799 Rises=F Damp=F
 DIIS: error= 1.90D-03 at cycle   6 NSaved=   6.
 NSaved= 6 IEnMin= 6 EnMin=-0.535528660725504E-01 IErMin= 6 ErrMin= 1.90D-03
 ErrMax= 1.90D-03  0.00D+00 EMaxC= 1.00D-01 BMatC= 2.92D-04 BMatP= 1.07D-03
 IDIUse=3 WtCom= 9.81D-01 WtEn= 1.90D-02
 Coeff-Com:  0.556D-02 0.134D-01-0.662D-02-0.800D-01-0.410D+00 0.148D+01
 Coeff-En:   0.000D+00 0.000D+00 0.000D+00 0.000D+00 0.000D+00 0.100D+01
 Coeff:      0.545D-02 0.131D-01-0.649D-02-0.784D-01-0.402D+00 0.147D+01
 Gap=     0.310 Goal=   None    Shift=    0.000
 RMSDP=3.90D-04 MaxDP=7.48D-03 DE=-4.12D-03 OVMax= 1.43D-02

 Cycle   7  Pass 1  IDiag  3:
 E=-0.549587335344768E-01 Delta-E=       -0.001405867462 Rises=F Damp=F
 DIIS: error= 8.70D-04 at cycle   7 NSaved=   7.
 NSaved= 7 IEnMin= 7 EnMin=-0.549587335344768E-01 IErMin= 7 ErrMin= 8.70D-04
 ErrMax= 8.70D-04  0.00D+00 EMaxC= 1.00D-01 BMatC= 3.98D-05 BMatP= 2.92D-04
 IDIUse=3 WtCom= 9.91D-01 WtEn= 8.70D-03
 Coeff-Com: -0.292D-02 0.673D-02-0.105D-03 0.297D-01 0.456D-01-0.561D+00
 Coeff-Com:  0.148D+01
 Coeff-En:   0.000D+00 0.000D+00 0.000D+00 0.000D+00 0.000D+00 0.000D+00
 Coeff-En:   0.100D+01
 Coeff:     -0.290D-02 0.667D-02-0.104D-03 0.294D-01 0.452D-01-0.556D+00
 Coeff:      0.148D+01
 Gap=     0.312 Goal=   None    Shift=    0.000
 RMSDP=1.63D-04 MaxDP=4.05D-03 DE=-1.41D-03 OVMax= 6.33D-03

 Cycle   8  Pass 1  IDiag  3:
 E=-0.551752873921032E-01 Delta-E=       -0.000216553858 Rises=F Damp=F
 DIIS: error= 3.26D-04 at cycle   8 NSaved=   8.
 NSaved= 8 IEnMin= 8 EnMin=-0.551752873921032E-01 IErMin= 8 ErrMin= 3.26D-04
 ErrMax= 3.26D-04  0.00D+00 EMaxC= 1.00D-01 BMatC= 5.85D-06 BMatP= 3.98D-05
 IDIUse=3 WtCom= 9.97D-01 WtEn= 3.26D-03
 Coeff-Com: -0.342D-03 0.214D-02 0.266D-04-0.452D-02 0.279D-01 0.405D-02
 Coeff-Com: -0.489D+00 0.146D+01
 Coeff-En:   0.000D+00 0.000D+00 0.000D+00 0.000D+00 0.000D+00 0.000D+00
 Coeff-En:   0.000D+00 0.100D+01
 Coeff:     -0.341D-03 0.213D-02 0.265D-04-0.450D-02 0.278D-01 0.403D-02
 Coeff:     -0.487D+00 0.146D+01
 Gap=     0.313 Goal=   None    Shift=    0.000
 RMSDP=7.15D-05 MaxDP=1.86D-03 DE=-2.17D-04 OVMax= 2.33D-03

 Cycle   9  Pass 1  IDiag  3:
 E=-0.552116056210252E-01 Delta-E=       -0.000036318229 Rises=F Damp=F
 DIIS: error= 9.00D-05 at cycle   9 NSaved=   9.
 NSaved= 9 IEnMin= 9 EnMin=-0.552116056210252E-01 IErMin= 9 ErrMin= 9.00D-05
 ErrMax= 9.00D-05  0.00D+00 EMaxC= 1.00D-01 BMatC= 7.16D-07 BMatP= 5.85D-06
 IDIUse=1 WtCom= 1.00D+00 WtEn= 0.00D+00
 Coeff-Com:  0.122D-03 0.338D-03 0.578D-04-0.244D-02-0.112D-01 0.393D-01
 Coeff-Com:  0.146D-01-0.516D+00 0.148D+01
 Coeff:      0.122D-03 0.338D-03 0.578D-04-0.244D-02-0.112D-01 0.393D-01
 Coeff:      0.146D-01-0.516D+00 0.148D+01
 Gap=     0.313 Goal=   None    Shift=    0.000
 RMSDP=3.19D-05 MaxDP=7.36D-04 DE=-3.63D-05 OVMax= 8.87D-04

 Cycle  10  Pass 1  IDiag  3:
 E=-0.552174353995269E-01 Delta-E=       -0.000005829779 Rises=F Damp=F
 DIIS: error= 2.42D-05 at cycle  10 NSaved=  10.
 NSaved=10 IEnMin=10 EnMin=-0.552174353995269E-01 IErMin=10 ErrMin= 2.42D-05
 ErrMax= 2.42D-05  0.00D+00 EMaxC= 1.00D-01 BMatC= 1.14D-07 BMatP= 7.16D-07
 IDIUse=1 WtCom= 1.00D+00 WtEn= 0.00D+00
 Coeff-Com: -0.210D-04-0.199D-03 0.486D-04 0.996D-03 0.185D-02-0.129D-01
 Coeff-Com:  0.182D-01 0.119D+00-0.723D+00 0.160D+01
 Coeff:     -0.210D-04-0.199D-03 0.486D-04 0.996D-03 0.185D-02-0.129D-01
 Coeff:      0.182D-01 0.119D+00-0.723D+00 0.160D+01
 Gap=     0.313 Goal=   None    Shift=    0.000
 RMSDP=1.60D-05 MaxDP=4.37D-04 DE=-5.83D-06 OVMax= 4.79D-04

 Cycle  11  Pass 1  IDiag  3:
 E=-0.552187983198564E-01 Delta-E=       -0.000001362920 Rises=F Damp=F
 DIIS: error= 1.78D-05 at cycle  11 NSaved=  11.
 NSaved=11 IEnMin=11 EnMin=-0.552187983198564E-01 IErMin=11 ErrMin= 1.78D-05
 ErrMax= 1.78D-05  0.00D+00 EMaxC= 1.00D-01 BMatC= 4.28D-08 BMatP= 1.14D-07
 IDIUse=1 WtCom= 1.00D+00 WtEn= 0.00D+00
 Coeff-Com:  0.131D-04-0.113D-03 0.264D-04-0.173D-04-0.981D-03 0.684D-02
 Coeff-Com: -0.175D-01 0.261D-02 0.257D+00-0.132D+01 0.207D+01
 Coeff:      0.131D-04-0.113D-03 0.264D-04-0.173D-04-0.981D-03 0.684D-02
 Coeff:     -0.175D-01 0.261D-02 0.257D+00-0.132D+01 0.207D+01
 Gap=     0.313 Goal=   None    Shift=    0.000
 RMSDP=1.36D-05 MaxDP=3.80D-04 DE=-1.36D-06 OVMax= 4.78D-04

 Cycle  12  Pass 1  IDiag  3:
 E=-0.552194394504113E-01 Delta-E=       -0.000000641131 Rises=F Damp=F
 DIIS: error= 8.17D-06 at cycle  12 NSaved=  12.
 NSaved=12 IEnMin=12 EnMin=-0.552194394504113E-01 IErMin=12 ErrMin= 8.17D-06
 ErrMax= 8.17D-06  0.00D+00 EMaxC= 1.00D-01 BMatC= 1.11D-08 BMatP= 4.28D-08
 IDIUse=1 WtCom= 1.00D+00 WtEn= 0.00D+00
 Coeff-Com:  0.335D-05-0.387D-04 0.588D-05 0.429D-04 0.233D-03-0.113D-02
 Coeff-Com:  0.240D-02-0.990D-02 0.245D-01 0.120D+00-0.796D+00 0.166D+01
 Coeff:      0.335D-05-0.387D-04 0.588D-05 0.429D-04 0.233D-03-0.113D-02
 Coeff:      0.240D-02-0.990D-02 0.245D-01 0.120D+00-0.796D+00 0.166D+01
 Gap=     0.313 Goal=   None    Shift=    0.000
 RMSDP=7.44D-06 MaxDP=2.19D-04 DE=-6.41D-07 OVMax= 2.73D-04

 Cycle  13  Pass 1  IDiag  3:
 E=-0.552195899351773E-01 Delta-E=       -0.000000150485 Rises=F Damp=F
 DIIS: error= 2.57D-06 at cycle  13 NSaved=  13.
 NSaved=13 IEnMin=13 EnMin=-0.552195899351773E-01 IErMin=13 ErrMin= 2.57D-06
 ErrMax= 2.57D-06  0.00D+00 EMaxC= 1.00D-01 BMatC= 1.75D-09 BMatP= 1.11D-08
 IDIUse=1 WtCom= 1.00D+00 WtEn= 0.00D+00
 Coeff-Com: -0.562D-06-0.294D-05 0.752D-06 0.348D-05-0.145D-05 0.143D-03
 Coeff-Com: -0.101D-02 0.274D-02-0.116D-01 0.507D-01-0.417D-01-0.363D+00
 Coeff-Com:  0.136D+01
 Coeff:     -0.562D-06-0.294D-05 0.752D-06 0.348D-05-0.145D-05 0.143D-03
 Coeff:     -0.101D-02 0.274D-02-0.116D-01 0.507D-01-0.417D-01-0.363D+00
 Coeff:      0.136D+01
 Gap=     0.313 Goal=   None    Shift=    0.000
 RMSDP=2.49D-06 MaxDP=7.53D-05 DE=-1.50D-07 OVMax= 9.71D-05

 Cycle  14  Pass 1  IDiag  3:
 E=-0.552196078481302E-01 Delta-E=       -0.000000017913 Rises=F Damp=F
 DIIS: error= 7.89D-07 at cycle  14 NSaved=  14.
 NSaved=14 IEnMin=14 EnMin=-0.552196078481302E-01 IErMin=14 ErrMin= 7.89D-07
 ErrMax= 7.89D-07  0.00D+00 EMaxC= 1.00D-01 BMatC= 2.31D-10 BMatP= 1.75D-09
 IDIUse=1 WtCom= 1.00D+00 WtEn= 0.00D+00
 Coeff-Com: -0.410D-06 0.370D-05 0.212D-06-0.482D-05-0.452D-05 0.701D-05
 Coeff-Com: -0.187D-04-0.622D-04-0.919D-03 0.104D-02 0.248D-01-0.471D-01
 Coeff-Com: -0.280D+00 0.130D+01
 Coeff:     -0.410D-06 0.370D-05 0.212D-06-0.482D-05-0.452D-05 0.701D-05
 Coeff:     -0.187D-04-0.622D-04-0.919D-03 0.104D-02 0.248D-01-0.471D-01
 Coeff:     -0.280D+00 0.130D+01
 Gap=     0.313 Goal=   None    Shift=    0.000
 RMSDP=7.26D-07 MaxDP=2.18D-05 DE=-1.79D-08 OVMax= 2.90D-05

 Cycle  15  Pass 1  IDiag  3:
 E=-0.552196099533830E-01 Delta-E=       -0.000000002105 Rises=F Damp=F
 DIIS: error= 5.45D-07 at cycle  15 NSaved=  15.
 NSaved=15 IEnMin=15 EnMin=-0.552196099533830E-01 IErMin=15 ErrMin= 5.45D-07
 ErrMax= 5.45D-07  0.00D+00 EMaxC= 1.00D-01 BMatC= 4.21D-11 BMatP= 2.31D-10
 IDIUse=1 WtCom= 1.00D+00 WtEn= 0.00D+00
 Coeff-Com: -0.162D-06 0.212D-05-0.716D-07-0.397D-05 0.555D-05-0.256D-04
 Coeff-Com:  0.687D-04-0.382D-04-0.344D-03 0.957D-04 0.828D-03 0.115D-01
 Coeff-Com: -0.103D-02-0.409D+00 0.140D+01
 Coeff:     -0.162D-06 0.212D-05-0.716D-07-0.397D-05 0.555D-05-0.256D-04
 Coeff:      0.687D-04-0.382D-04-0.344D-03 0.957D-04 0.828D-03 0.115D-01
 Coeff:     -0.103D-02-0.409D+00 0.140D+01
 Gap=     0.313 Goal=   None    Shift=    0.000
 RMSDP=2.84D-07 MaxDP=6.90D-06 DE=-2.11D-09 OVMax= 9.91D-06

 Cycle  16  Pass 1  IDiag  3:
 E=-0.552196103944880E-01 Delta-E=       -0.000000000441 Rises=F Damp=F
 DIIS: error= 3.39D-07 at cycle  16 NSaved=  16.
 NSaved=16 IEnMin=16 EnMin=-0.552196103944880E-01 IErMin=16 ErrMin= 3.39D-07
 ErrMax= 3.39D-07  0.00D+00 EMaxC= 1.00D-01 BMatC= 1.11D-11 BMatP= 4.21D-11
 IDIUse=1 WtCom= 1.00D+00 WtEn= 0.00D+00
 Coeff-Com:  0.640D-07 0.483D-06-0.239D-06-0.172D-05 0.457D-05-0.518D-05
 Coeff-Com: -0.215D-04 0.184D-03-0.331D-03-0.618D-04 0.476D-03-0.275D-02
 Coeff-Com:  0.119D-01 0.569D-01-0.709D+00 0.164D+01
 Coeff:      0.640D-07 0.483D-06-0.239D-06-0.172D-05 0.457D-05-0.518D-05
 Coeff:     -0.215D-04 0.184D-03-0.331D-03-0.618D-04 0.476D-03-0.275D-02
 Coeff:      0.119D-01 0.569D-01-0.709D+00 0.164D+01
 Gap=     0.313 Goal=   None    Shift=    0.000
 RMSDP=1.88D-07 MaxDP=3.70D-06 DE=-4.41D-10 OVMax= 7.49D-06

 Cycle  17  Pass 1  IDiag  3:
 E=-0.552196105481926E-01 Delta-E=       -0.000000000154 Rises=F Damp=F
 DIIS: error= 1.79D-07 at cycle  17 NSaved=  17.
 NSaved=17 IEnMin=17 EnMin=-0.552196105481926E-01 IErMin=17 ErrMin= 1.79D-07
 ErrMax= 1.79D-07  0.00D+00 EMaxC= 1.00D-01 BMatC= 3.20D-12 BMatP= 1.11D-11
 IDIUse=1 WtCom= 1.00D+00 WtEn= 0.00D+00
 Coeff-Com: -0.169D-07 0.120D-06-0.163D-06-0.763D-06 0.388D-05 0.574D-07
 Coeff-Com: -0.134D-04 0.127D-04 0.429D-04-0.111D-03 0.292D-03-0.865D-03
 Coeff-Com: -0.212D-02 0.151D-01 0.897D-01-0.768D+00 0.167D+01
 Coeff:     -0.169D-07 0.120D-06-0.163D-06-0.763D-06 0.388D-05 0.574D-07
 Coeff:     -0.134D-04 0.127D-04 0.429D-04-0.111D-03 0.292D-03-0.865D-03
 Coeff:     -0.212D-02 0.151D-01 0.897D-01-0.768D+00 0.167D+01
 Gap=     0.313 Goal=   None    Shift=    0.000
 RMSDP=1.18D-07 MaxDP=2.49D-06 DE=-1.54D-10 OVMax= 4.58D-06

 Cycle  18  Pass 1  IDiag  3:
 E=-0.552196106013980E-01 Delta-E=       -0.000000000053 Rises=F Damp=F
 DIIS: error= 7.19D-08 at cycle  18 NSaved=  18.
 NSaved=18 IEnMin=18 EnMin=-0.552196106013980E-01 IErMin=18 ErrMin= 7.19D-08
 ErrMax= 7.19D-08  0.00D+00 EMaxC= 1.00D-01 BMatC= 8.12D-13 BMatP= 3.20D-12
 IDIUse=1 WtCom= 1.00D+00 WtEn= 0.00D+00
 Coeff-Com: -0.738D-08 0.123D-07-0.729D-07-0.883D-07 0.851D-06-0.143D-05
 Coeff-Com:  0.385D-05 0.185D-05-0.267D-04-0.254D-04 0.147D-03-0.119D-03
 Coeff-Com: -0.394D-03 0.172D-02 0.386D-01-0.577D-01-0.483D+00 0.150D+01
 Coeff:     -0.738D-08 0.123D-07-0.729D-07-0.883D-07 0.851D-06-0.143D-05
 Coeff:      0.385D-05 0.185D-05-0.267D-04-0.254D-04 0.147D-03-0.119D-03
 Coeff:     -0.394D-03 0.172D-02 0.386D-01-0.577D-01-0.483D+00 0.150D+01
 Gap=     0.313 Goal=   None    Shift=    0.000
 RMSDP=6.16D-08 MaxDP=1.27D-06 DE=-5.32D-11 OVMax= 2.10D-06

 Cycle  19  Pass 1  IDiag  3:
 E=-0.552196106073097E-01 Delta-E=       -0.000000000006 Rises=F Damp=F
 DIIS: error= 2.67D-08 at cycle  19 NSaved=  19.
 NSaved=19 IEnMin=19 EnMin=-0.552196106073097E-01 IErMin=19 ErrMin= 2.67D-08
 ErrMax= 2.67D-08  0.00D+00 EMaxC= 1.00D-01 BMatC= 1.56D-13 BMatP= 8.12D-13
 IDIUse=1 WtCom= 1.00D+00 WtEn= 0.00D+00
 Coeff-Com:  0.508D-08-0.105D-07-0.335D-07 0.815D-07-0.342D-06-0.864D-06
 Coeff-Com:  0.776D-05-0.151D-04 0.355D-05 0.277D-04-0.185D-04 0.233D-04
 Coeff-Com: -0.167D-03-0.701D-03 0.371D-02 0.288D-01-0.730D-01-0.327D+00
 Coeff-Com:  0.137D+01
 Coeff:      0.508D-08-0.105D-07-0.335D-07 0.815D-07-0.342D-06-0.864D-06
 Coeff:      0.776D-05-0.151D-04 0.355D-05 0.277D-04-0.185D-04 0.233D-04
 Coeff:     -0.167D-03-0.701D-03 0.371D-02 0.288D-01-0.730D-01-0.327D+00
 Coeff:      0.137D+01
 Gap=     0.313 Goal=   None    Shift=    0.000
 RMSDP=2.50D-08 MaxDP=4.97D-07 DE=-5.91D-12 OVMax= 1.01D-06

 Cycle  20  Pass 1  IDiag  3:
 E=-0.552196106070824E-01 Delta-E=        0.000000000000 Rises=F Damp=F
 DIIS: error= 1.52D-08 at cycle  20 NSaved=  20.
 NSaved=20 IEnMin=19 EnMin=-0.552196106073097E-01 IErMin=20 ErrMin= 1.52D-08
 ErrMax= 1.52D-08  0.00D+00 EMaxC= 1.00D-01 BMatC= 3.57D-14 BMatP= 1.56D-13
 IDIUse=1 WtCom= 1.00D+00 WtEn= 0.00D+00
 Coeff-Com:  0.258D-08 0.424D-09-0.118D-07 0.304D-07-0.984D-07 0.285D-06
 Coeff-Com:  0.238D-07 0.279D-05-0.973D-05 0.570D-05 0.313D-04-0.995D-04
 Coeff-Com:  0.179D-03-0.654D-03-0.203D-02 0.903D-02 0.176D-01-0.428D-01
 Coeff-Com: -0.362D+00 0.138D+01
 Coeff:      0.258D-08 0.424D-09-0.118D-07 0.304D-07-0.984D-07 0.285D-06
 Coeff:      0.238D-07 0.279D-05-0.973D-05 0.570D-05 0.313D-04-0.995D-04
 Coeff:      0.179D-03-0.654D-03-0.203D-02 0.903D-02 0.176D-01-0.428D-01
 Coeff:     -0.362D+00 0.138D+01
 Gap=     0.313 Goal=   None    Shift=    0.000
 RMSDP=9.80D-09 MaxDP=2.56D-07 DE= 2.27D-13 OVMax= 4.82D-07

 Cycle  21  Pass 2  IDiag  1:
 SCF Done:  E(RPM6) = -0.552196106071E-01 A.U. after   21 cycles
            NFock= 20  Conv=0.98D-08     -V/T= 0.9998
 KE=-2.518597703679D+02 PE=-2.231287004365D+03 EE= 1.196960622259D+03
 Leave Link  502 at Mon Mar 30 12:23:06 2020, MaxMem=   131072000 cpu:               0.4 elap:               0.2
 (Enter /home/dranasinghe/Software/G16_avx2/g16/l508.exe)
 QCSCF skips out because SCF is already converged.
 Leave Link  508 at Mon Mar 30 12:23:06 2020, MaxMem=   131072000 cpu:               0.0 elap:               0.0
 (Enter /home/dranasinghe/Software/G16_avx2/g16/l801.exe)
 Range of M.O.s used for correlation:     1   128
 NBasis=   128 NAE=    69 NBE=    69 NFC=     0 NFV=     0
 NROrb=    128 NOA=    69 NOB=    69 NVA=    59 NVB=    59
 Leave Link  801 at Mon Mar 30 12:23:06 2020, MaxMem=   131072000 cpu:               0.1 elap:               0.0
 (Enter /home/dranasinghe/Software/G16_avx2/g16/l1101.exe)
 Using compressed storage, NAtomX=    53.
 Will process     54 centers per pass.
 Leave Link 1101 at Mon Mar 30 12:23:06 2020, MaxMem=   131072000 cpu:               0.4 elap:               0.1
 (Enter /home/dranasinghe/Software/G16_avx2/g16/l1102.exe)
 Symmetrizing basis deriv contribution to polar:
 IMax=3 JMax=2 DiffMx= 0.00D+00
 Leave Link 1102 at Mon Mar 30 12:23:06 2020, MaxMem=   131072000 cpu:               0.1 elap:               0.0
 (Enter /home/dranasinghe/Software/G16_avx2/g16/l1110.exe)
 Forming Gx(P) for the SCF density, NAtomX=    53.
 Integral derivatives from FoFJK, PRISM(SPDF).
 Do as many integral derivatives as possible in FoFJK.
 G2DrvN: MDV=     131008748.
 G2DrvN: will do    54 centers at a time, making    1 passes.
 Calling FoFCou, ICntrl=  3107 FMM=F I1Cent=   0 AccDes= 0.00D+00.
 FoFJK:  IHMeth=40 ICntrl=    3107 DoSepK=F KAlg= 0 I1Cent=           0 FoldK=F
 IRaf=         0 NMat=       1 IRICut=       1 DoRegI=T DoRafI=F ISym2E= 0 IDoP0=3 IntGTp=3.
 FoFCou: FMM=F IPFlag=           0 FMFlag=      100000 FMFlg1=           0
         NFxFlg=           0 DoJE=F BraDBF=F KetDBF=F FulRan=T
         wScrn=  0.000000 ICntrl=      3107 IOpCl=  0 I1Cent=           0 NGrid=           0
         NMat0=    1 NMatS0=      1 NMatT0=    0 NMatD0=    1 NMtDS0=    0 NMtDT0=    0
 Symmetry not used in FoFCou.
 End of G2Drv F.D. properties file   721 does not exist.
 End of G2Drv F.D. properties file   722 does not exist.
 End of G2Drv F.D. properties file   788 does not exist.
 Leave Link 1110 at Mon Mar 30 12:23:06 2020, MaxMem=   131072000 cpu:               0.3 elap:               0.1
 (Enter /home/dranasinghe/Software/G16_avx2/g16/l1002.exe)
 Minotr:  Closed shell wavefunction.
          IDoAtm=11111111111111111111111111111111111111111111111111
          IDoAtm=111
          Direct CPHF calculation.
          Differentiating once with respect to electric field.
                with respect to dipole field.
          Differentiating once with respect to nuclear coordinates.
          Electric field/nuclear overlap derivatives assumed to be zero.
          Requested convergence is 1.0D-08 RMS, and 1.0D-07 maximum.
          NewPWx=T KeepS1=F KeepF1=F KeepIn=T MapXYZ=F SortEE=F KeepMc=T.
 Keep J ints in memory in canonical form, NReq=904495.
 FoFCou: FMM=F IPFlag=           0 FMFlag=           0 FMFlg1=           0
         NFxFlg=           0 DoJE=F BraDBF=F KetDBF=F FulRan=T
         wScrn=  0.000000 ICntrl=       600 IOpCl=  2 I1Cent=           0 NGrid=           0
         NMat0=    1 NMatS0=    278 NMatT0=    0 NMatD0=    1 NMtDS0=    0 NMtDT0=    0
 Symmetry not used in FoFCou.
 Two-electron integral symmetry not used.
          MDV=     131072000 using IRadAn=       1.
          Solving linear equations separately, MaxMat=       0.
          There are   162 degrees of freedom in the 1st order CPHF.  IDoFFX=5 NUNeed=   162.
 LinEq1:  Iter=  0 NonCon=   162 RMS=1.65D-01 Max=3.91D+00 NDo=   162
 AX will form   162 AO Fock derivatives at one time.
 LinEq1:  Iter=  1 NonCon=   162 RMS=3.50D-02 Max=5.28D-01 NDo=   162
 LinEq1:  Iter=  2 NonCon=   162 RMS=6.26D-03 Max=1.28D-01 NDo=   162
 LinEq1:  Iter=  3 NonCon=   162 RMS=1.55D-03 Max=2.99D-02 NDo=   162
 LinEq1:  Iter=  4 NonCon=   162 RMS=4.28D-04 Max=1.20D-02 NDo=   162
 LinEq1:  Iter=  5 NonCon=   162 RMS=1.18D-04 Max=2.69D-03 NDo=   162
 LinEq1:  Iter=  6 NonCon=   162 RMS=3.15D-05 Max=5.73D-04 NDo=   162
 LinEq1:  Iter=  7 NonCon=   158 RMS=8.38D-06 Max=1.52D-04 NDo=   162
 LinEq1:  Iter=  8 NonCon=    95 RMS=2.06D-06 Max=4.56D-05 NDo=   162
 LinEq1:  Iter=  9 NonCon=    26 RMS=4.11D-07 Max=1.08D-05 NDo=    95
 LinEq1:  Iter= 10 NonCon=     3 RMS=1.04D-07 Max=1.89D-06 NDo=    26
 LinEq1:  Iter= 11 NonCon=     3 RMS=2.01D-08 Max=3.65D-07 NDo=     3
 LinEq1:  Iter= 12 NonCon=     1 RMS=4.01D-09 Max=1.01D-07 NDo=     3
 LinEq1:  Iter= 13 NonCon=     0 RMS=9.02D-10 Max=1.46D-08 NDo=     1
 Linear equations converged to 1.000D-08 1.000D-07 after    13 iterations.
 FullF1:  Do perturbations      1 to       3.
 Isotropic polarizability for W=    0.000000      198.72 Bohr**3.
 End of Minotr F.D. properties file   721 does not exist.
 End of Minotr F.D. properties file   722 does not exist.
 End of Minotr F.D. properties file   788 does not exist.
 Leave Link 1002 at Mon Mar 30 12:23:07 2020, MaxMem=   131072000 cpu:               3.2 elap:               0.8
 (Enter /home/dranasinghe/Software/G16_avx2/g16/l601.exe)
 Copying SCF densities to generalized density rwf, IOpCl= 0 IROHF=0.

 **********************************************************************

            Population analysis using the SCF Density.

 **********************************************************************

 Orbital symmetries:
       Occupied  (A) (A) (A) (A) (A) (A) (A) (A) (A) (A) (A) (A)
                 (A) (A) (A) (A) (A) (A) (A) (A) (A) (A) (A) (A)
                 (A) (A) (A) (A) (A) (A) (A) (A) (A) (A) (A) (A)
                 (A) (A) (A) (A) (A) (A) (A) (A) (A) (A) (A) (A)
                 (A) (A) (A) (A) (A) (A) (A) (A) (A) (A) (A) (A)
                 (A) (A) (A) (A) (A) (A) (A) (A) (A)
       Virtual   (A) (A) (A) (A) (A) (A) (A) (A) (A) (A) (A) (A)
                 (A) (A) (A) (A) (A) (A) (A) (A) (A) (A) (A) (A)
                 (A) (A) (A) (A) (A) (A) (A) (A) (A) (A) (A) (A)
                 (A) (A) (A) (A) (A) (A) (A) (A) (A) (A) (A) (A)
                 (A) (A) (A) (A) (A) (A) (A) (A) (A) (A) (A)
 The electronic state is 1-A.
 Alpha  occ. eigenvalues --   -1.16475  -1.15715  -1.13898  -1.08827  -1.08139
 Alpha  occ. eigenvalues --   -1.07556  -1.06286  -1.03501  -1.03203  -0.99305
 Alpha  occ. eigenvalues --   -0.95827  -0.94664  -0.91654  -0.91463  -0.89681
 Alpha  occ. eigenvalues --   -0.86015  -0.82768  -0.81336  -0.77429  -0.76377
 Alpha  occ. eigenvalues --   -0.74281  -0.73187  -0.72155  -0.71208  -0.70480
 Alpha  occ. eigenvalues --   -0.66876  -0.63723  -0.63242  -0.63049  -0.60730
 Alpha  occ. eigenvalues --   -0.59493  -0.59152  -0.58773  -0.58502  -0.57400
 Alpha  occ. eigenvalues --   -0.56747  -0.55996  -0.55130  -0.54033  -0.53614
 Alpha  occ. eigenvalues --   -0.53261  -0.52578  -0.52015  -0.51227  -0.50538
 Alpha  occ. eigenvalues --   -0.49628  -0.48734  -0.48278  -0.47761  -0.47338
 Alpha  occ. eigenvalues --   -0.46724  -0.46226  -0.45329  -0.45108  -0.43743
 Alpha  occ. eigenvalues --   -0.43337  -0.42812  -0.42446  -0.42391  -0.42054
 Alpha  occ. eigenvalues --   -0.41656  -0.39330  -0.38147  -0.37863  -0.34878
 Alpha  occ. eigenvalues --   -0.34170  -0.33396  -0.33246  -0.29174
 Alpha virt. eigenvalues --    0.01413   0.01492   0.01752   0.02169   0.02513
 Alpha virt. eigenvalues --    0.07527   0.07639   0.09000   0.09980   0.10597
 Alpha virt. eigenvalues --    0.12066   0.13966   0.14423   0.14730   0.15135
 Alpha virt. eigenvalues --    0.15325   0.15819   0.16381   0.16462   0.17216
 Alpha virt. eigenvalues --    0.17359   0.17775   0.17851   0.18042   0.18191
 Alpha virt. eigenvalues --    0.18562   0.18656   0.18772   0.18923   0.19059
 Alpha virt. eigenvalues --    0.19161   0.19463   0.19564   0.19727   0.20076
 Alpha virt. eigenvalues --    0.20291   0.20475   0.20724   0.20890   0.21047
 Alpha virt. eigenvalues --    0.21120   0.21191   0.21622   0.21705   0.21859
 Alpha virt. eigenvalues --    0.22052   0.22135   0.22723   0.22867   0.23005
 Alpha virt. eigenvalues --    0.23071   0.23399   0.23489   0.23586   0.23687
 Alpha virt. eigenvalues --    0.24127   0.24187   0.24192   0.24763
          Condensed to atoms (all electrons):
 Mulliken charges:
               1
     1  N   -0.358063
     2  C   -0.091921
     3  C    0.163878
     4  C   -0.284559
     5  H    0.134390
     6  H    0.145457
     7  C    0.200923
     8  C   -0.245815
     9  C   -0.012509
    10  C   -0.129566
    11  H    0.160441
    12  H    0.142147
    13  C   -0.273594
    14  C   -0.051703
    15  C   -0.112534
    16  H    0.160201
    17  C   -0.262593
    18  C   -0.158653
    19  N   -0.330110
    20  H    0.129286
    21  H    0.113855
    22  C   -0.097521
    23  H    0.179698
    24  C   -0.251511
    25  C   -0.146545
    26  C   -0.172134
    27  H    0.142541
    28  H    0.135025
    29  H    0.164171
    30  H    0.147787
    31  C    0.085926
    32  C   -0.326682
    33  C   -0.198746
    34  H    0.139357
    35  H    0.139346
    36  H    0.149386
    37  H    0.142159
    38  H    0.146244
    39  H    0.101648
    40  H    0.132845
    41  H    0.156658
    42  H    0.121562
    43  H    0.161925
    44  H    0.145885
    45  H    0.280878
    46  O   -0.405477
    47  O   -0.266111
    48  O   -0.664043
    49  H    0.408419
    50  H    0.310564
    51  O   -0.606744
    52  H    0.297188
    53  H    0.407344
 Sum of Mulliken charges =  -0.00000
 Mulliken charges with hydrogens summed into heavy atoms:
               1
     1  N   -0.358063
     2  C    0.187926
     3  C    0.163878
     4  C    0.018028
     7  C    0.200923
     8  C   -0.085614
     9  C   -0.012509
    10  C    0.113576
    13  C   -0.093896
    14  C   -0.051703
    15  C    0.030007
    17  C    0.036603
    18  C   -0.010866
    19  N   -0.330110
    22  C    0.041836
    24  C    0.037221
    25  C   -0.004386
    26  C   -0.025890
    31  C    0.320418
    32  C    0.113463
    33  C   -0.052862
    46  O   -0.405477
    47  O    0.014766
    48  O    0.462284
    51  O   -0.309556
 APT charges:
               1
     1  N   -0.857944
     2  C    0.076312
     3  C    0.416308
     4  C   -0.317152
     5  H    0.105399
     6  H    0.100753
     7  C    0.516299
     8  C   -0.296214
     9  C   -0.069308
    10  C   -0.032989
    11  H    0.152495
    12  H    0.128541
    13  C   -0.355763
    14  C   -0.115632
    15  C   -0.133485
    16  H    0.179092
    17  C   -0.279094
    18  C   -0.089358
    19  N   -0.394316
    20  H    0.101051
    21  H    0.063705
    22  C   -0.052837
    23  H    0.213392
    24  C   -0.267847
    25  C   -0.030392
    26  C   -0.278942
    27  H    0.172970
    28  H    0.134181
    29  H    0.160106
    30  H    0.171787
    31  C    0.445207
    32  C   -0.383968
    33  C   -0.371241
    34  H    0.167888
    35  H    0.134762
    36  H    0.134755
    37  H    0.162615
    38  H    0.193295
    39  H    0.018988
    40  H    0.055611
    41  H    0.172840
    42  H    0.108606
    43  H    0.173422
    44  H    0.195230
    45  H    0.298723
    46  O   -1.181142
    47  O    0.575385
    48  O   -1.053624
    49  H    0.885809
    50  H    0.307362
    51  O   -1.185083
    52  H    0.249316
    53  H    0.774222
 Sum of APT charges =   0.00010
 APT charges with hydrogens summed into heavy atoms:
               1
     1  N   -0.857944
     2  C    0.282464
     3  C    0.416308
     4  C   -0.036116
     7  C    0.516299
     8  C   -0.117122
     9  C   -0.069308
    10  C    0.131768
    13  C   -0.142371
    14  C   -0.115632
    15  C    0.039485
    17  C    0.015192
    18  C    0.082429
    19  N   -0.394316
    22  C    0.115051
    24  C    0.001670
    25  C    0.132224
    26  C   -0.085647
    31  C    0.519806
    32  C    0.070900
    33  C   -0.176011
    46  O   -1.181142
    47  O    0.874107
    48  O    0.913769
    51  O   -0.935767
 Charge=              0.0000 electrons
 Dipole moment (field-independent basis, Debye):
    X=             -1.1354    Y=             -1.0442    Z=              1.8579  Tot=              2.4148
 N-N= 1.286130932863D+03 E-N=-2.231287004239D+03  KE=-2.518597703679D+02
  Exact polarizability: 223.275   0.937 253.980  27.241   5.790 118.894
 Approx polarizability: 173.509  -4.545 197.996  26.352   6.845  93.430
 Leave Link  601 at Mon Mar 30 12:23:07 2020, MaxMem=   131072000 cpu:               0.2 elap:               0.0
 (Enter /home/dranasinghe/Software/G16_avx2/g16/l701.exe)
 ... and contract with generalized density number  0.
 Compute integral second derivatives.
 Leave Link  701 at Mon Mar 30 12:23:07 2020, MaxMem=   131072000 cpu:               0.4 elap:               0.1
 (Enter /home/dranasinghe/Software/G16_avx2/g16/l702.exe)
 L702 exits ... SP integral derivatives will be done elsewhere.
 Leave Link  702 at Mon Mar 30 12:23:07 2020, MaxMem=   131072000 cpu:               0.1 elap:               0.0
 (Enter /home/dranasinghe/Software/G16_avx2/g16/l703.exe)
 Integral derivatives from FoFJK, PRISM(SPDF).
 Compute integral second derivatives, UseDBF=F ICtDFT=           0.
 Calling FoFJK, ICntrl=    100127 FMM=F ISym2X=0 I1Cent= 0 IOpClX= 0 NMat=1 NMatS=1 NMatT=0.
 FoFJK:  IHMeth=40 ICntrl=  100127 DoSepK=F KAlg= 0 I1Cent=           0 FoldK=F
 IRaf=         0 NMat=       1 IRICut=       1 DoRegI=T DoRafI=F ISym2E= 0 IDoP0=3 IntGTp=3.
 FoFCou: FMM=F IPFlag=           0 FMFlag=      100000 FMFlg1=         800
         NFxFlg=           0 DoJE=F BraDBF=F KetDBF=F FulRan=T
         wScrn=  0.000000 ICntrl=    100127 IOpCl=  0 I1Cent=           0 NGrid=           0
         NMat0=    1 NMatS0=      1 NMatT0=    0 NMatD0=    1 NMtDS0=    0 NMtDT0=    0
 Symmetry not used in FoFCou.
 Leave Link  703 at Mon Mar 30 12:23:07 2020, MaxMem=   131072000 cpu:               0.3 elap:               0.1
 (Enter /home/dranasinghe/Software/G16_avx2/g16/l716.exe)
 Dipole        =-4.46715240D-01-4.10834578D-01 7.30953641D-01
 Polarizability= 2.23274836D+02 9.37092903D-01 2.53979615D+02
                 2.72414405D+01 5.79048010D+00 1.18894314D+02
 HyperPolar    =-1.45710988D+02 1.71850368D+02 3.58030811D+02
                -2.19967883D+02-7.17990636D+01 1.53753401D+01
                -4.50182960D+02 7.53527216D+00-1.13601714D+02
                -3.61411248D+01
 ***** Axes restored to original set *****
 -------------------------------------------------------------------
 Center     Atomic                   Forces (Hartrees/Bohr)
 Number     Number              X              Y              Z
 -------------------------------------------------------------------
      1        7           0.001740504   -0.000341792    0.000435305
      2        6          -0.003578389    0.001225621   -0.003617332
      3        6          -0.001194095   -0.000978421    0.000158231
      4        6           0.000352188   -0.000132232    0.000331950
      5        1           0.000084871   -0.000512977    0.000055716
      6        1           0.001382992   -0.001198763    0.002389952
      7        6           0.000122080    0.000332052   -0.000063305
      8        6           0.000358482    0.000317473   -0.000097416
      9        6           0.000480471    0.000170996   -0.000058479
     10        6          -0.001773316    0.001851393    0.000059494
     11        1          -0.000099527    0.000132218   -0.000449493
     12        1          -0.000307887    0.000041835    0.000038845
     13        6          -0.000748453   -0.000043798   -0.000566020
     14        6          -0.000085531   -0.000014485   -0.000029297
     15        6           0.000081256    0.000051475    0.000000589
     16        1          -0.000269355   -0.000128372    0.000124741
     17        6           0.000183287    0.000038476    0.000119995
     18        6           0.000043322   -0.000185308    0.000131452
     19        7          -0.005872559    0.002485663   -0.005348362
     20        1           0.000595681   -0.000074264   -0.000067181
     21        1          -0.000006603   -0.000219908    0.000144847
     22        6          -0.000014450    0.000478461    0.000185277
     23        1          -0.000070372    0.000536835    0.000654729
     24        6           0.000209324   -0.000172473   -0.000054926
     25        6           0.000089726   -0.000360694   -0.000076661
     26        6           0.000107841    0.000220549   -0.000116967
     27        1           0.000010956   -0.000090720    0.000089936
     28        1          -0.000067067    0.000017810   -0.000057166
     29        1          -0.000069140    0.000011847   -0.000108914
     30        1          -0.000122790    0.000024581   -0.000044628
     31        6           0.017985345   -0.028230622    0.054770600
     32        6          -0.002322347    0.002205971    0.000014074
     33        6           0.000466958   -0.000481101   -0.000030273
     34        1           0.000142386    0.000168737    0.000193234
     35        1          -0.000061087    0.000063228   -0.000042759
     36        1          -0.000080267    0.000023902    0.000079121
     37        1          -0.000178117    0.000151268   -0.000004615
     38        1          -0.000129647   -0.000110575    0.000043131
     39        1          -0.000026023   -0.001030164    0.004785553
     40        1           0.003905116    0.002144424    0.007619599
     41        1           0.001216241   -0.000051870   -0.000751075
[...]
 00135,0.00007353,0.00002758,-0.00002482,-0.00006880,0.00000527,-0.0002
 1385,0.00007744,0.00005473,0.00008348,0.00001475,0.00001531,0.00000725
 ,-0.00000233,0.00000285,0.00001907,0.00000430,0.00000967,0.00000553,0.
 00021528,0.00023973,0.00007971,0.00335833,-0.00537060,0.00300423,0.000
 13295,0.00091309,-0.00190438,-0.06882359,-0.08313794,-0.06015221,0.000
 55139,0.01571047,0.00170937,0.07453288,0.08009608,0.00006046,-0.000030
 60,-0.00008213,-0.00006282,0.00000957,0.00005999,-0.00003394,-0.000053
 98,0.00001288,0.00008406,-0.00001544,0.00004886,-0.00001552,-0.0000038
 1,-0.00000454,-0.00003104,0.00000966,-0.00000236,0.00002169,0.00007351
 ,0.00005290,0.00002886,0.00000680,-0.00000963,0.00002396,0.00001030,-0
 .00000330,-0.00002937,-0.00010524,-0.00005045,-0.00002195,0.00002214,-
 0.00000205,-0.00000811,0.00000277,-0.00001695,0.00001704,-0.00004393,-
 0.00004090,0.00000638,-0.00002801,-0.00001547,0.00000216,0.00000006,-0
 .00000133,-0.00002701,0.00000312,0.00000477,0.00001629,0.00000119,-0.0
 0000125,0.00000800,-0.00000938,0.00000491,0.00027879,-0.00010026,0.000
 17564,-0.00002537,-0.00001294,-0.00001871,0.00001120,0.00001529,-0.000
 00326,-0.00000546,0.00001381,0.00000027,-0.00003664,0.00003065,0.00002
 444,0.00001217,-0.00000744,-0.00000743,0.00001217,-0.00000281,0.000000
 87,0.00001119,0.00000954,-0.00000560,-0.00000289,-0.00000517,0.0000067
 0,-0.00000600,0.00000144,-0.00000134,-0.00001034,0.00000212,0.00000050
 ,-0.00001012,0.00000270,-0.00000130,-0.00049939,-0.00006828,-0.0008122
 7,0.00013542,-0.00010508,-0.00000585,0.00000764,-0.00002235,-0.0000141
 3,0.00000984,0.00000619,0.00001585,-0.00000539,0.00000366,0.00000042,-
 0.00000526,0.00000183,0.00000594,-0.00000962,0.00000691,0.00000296,-0.
 00000979,-0.00000734,0.00000417,0.00004179,0.00003250,-0.00003300,-0.0
 0000433,-0.00005609,-0.00002061,-0.00001200,0.00007292,0.00005244,-0.0
 0001791,0.00002369,-0.00000783,-0.00003640,0.00001170,0.00002086,0.000
 00192,0.00001391,0.00001160,0.00008379,0.00015628,0.00026369,0.0026722
 4,-0.00121747,0.00019194,-0.00067508,-0.00131430,0.00073774,-0.0681213
 2,-0.05921985,-0.09714588,-0.01277686,-0.00161550,-0.01409634,0.076353
 73,0.05972095,0.10163705,-0.00002043,0.00031863,-0.00016707,-0.0000519
 7,0.00002095,-0.00003525,-0.00012850,-0.00007493,0.00003777,0.00002558
 ,0.00011155,-0.00002830,0.00006057,-0.00005025,0.00011783,0.00017834,-
 0.00017800,0.00022207,0.00000474,-0.00031389,0.00003174,-0.00030914,0.
 00002116,-0.00012598,0.00006686,-0.00003512,0.00001425,0.00010947,-0.0
 0009845,-0.00010956,-0.00002015,-0.00003730,0.00001935,0.00002957,-0.0
 0002397,0.00000498,0.00004125,0.00029467,-0.00013179,-0.00002239,0.000
 07038,0.00002772,0.00005712,0.00006914,-0.00003565,0.00035190,-0.00007
 587,0.00017434,-0.00002219,0.00002137,-0.00007124,-0.00008901,-0.00002
 797,-0.00001777,0.00076118,0.00031690,-0.00017026,-0.00009797,-0.00007
 713,0.00010315,0.00000224,0.00002422,0.00001373,0.00003342,-0.00003339
 ,-0.00004122,0.00003597,-0.00020987,0.00012345,-0.00004045,0.00007798,
 -0.00002988,-0.00003177,0.00002300,-0.00002123,-0.00011939,0.00004483,
 -0.00006778,0.00006343,-0.00001277,0.00004159,0.00001831,-0.00000909,0
 .00002752,-0.00001227,-0.00001485,0.00004502,0.00006436,-0.00000938,0.
 00003207,-0.00250392,-0.00138068,-0.00014187,0.00049071,-0.00017163,-0
 .00009483,-0.00001595,0.00010236,-0.00000271,-0.00005180,-0.00004755,0
 .00002139,0.00001384,-0.00002394,0.00002246,0.00002207,-0.00002771,0.0
 0000391,0.00003087,-0.00003836,0.00001049,0.00004125,0.00003541,0.0000
 0130,0.00018523,0.00020665,0.00027341,-0.00039152,-0.00008619,0.000167
 60,-0.00019350,0.00005796,-0.00000833,-0.00005490,0.00005212,-0.000009
 99,-0.00010549,-0.00004223,0.00006386,-0.00001451,-0.00006593,-0.00000
 718,0.00384824,0.00687684,-0.00697740,0.02273196,-0.00053591,0.0000871
 1,-0.03441821,-0.03351291,0.01584416,-0.05278001,-0.02777254,0.0449250
 6,-0.01461709,0.01823062,-0.01050321,0.00049989,0.00362115,0.00586197,
 0.17414187,0.00066685,0.00049653,-0.00054088,-0.00049366,0.00023812,0.
 00044128,-0.00072561,-0.00065371,0.00005853,0.00070330,0.00013382,0.00
 041322,-0.00004110,-0.00021240,0.00006199,-0.00016059,-0.00021168,0.00
 013110,0.00025953,-0.00027048,0.00022449,-0.00013848,0.00022630,-0.000
 13097,0.00037587,0.00003858,0.00000007,-0.00085675,-0.00049292,-0.0000
 2343,-0.00024513,0.00008412,-0.00006793,-0.00006623,-0.00004489,-0.000
 16328,0.00036569,-0.00006496,-0.00040223,-0.00011752,0.00005800,-0.000
 00867,0.00010358,0.00013979,-0.00003302,0.00020729,-0.00016356,0.00017
 965,0.00013406,0.00005748,-0.00005082,-0.00006328,-0.00013675,0.000050
 88,0.00206431,-0.00019488,-0.00064304,-0.00019937,-0.00037771,0.000004
 60,0.00017880,0.00008270,0.00005008,0.00000803,0.00019771,0.00002637,-
 0.00042299,0.00005368,0.00025411,0.00008011,0.00003179,-0.00009314,0.0
 0001650,-0.00012916,-0.00008276,-0.00006305,0.00021679,-0.00014009,0.0
 0008831,-0.00013280,0.00009984,-0.00003351,-0.00000201,0.00000639,-0.0
 0010622,-0.00001553,0.00002607,-0.00001093,0.00000177,0.00001093,-0.01
 247914,-0.00106191,-0.00510633,0.00203066,-0.00078676,0.00019393,0.000
 25338,-0.00006045,-0.00001945,-0.00012162,0.00000818,0.00007594,-0.000
 03631,0.00000643,0.00002064,-0.00002777,-0.00002455,0.00005077,-0.0000
 6359,0.00003176,0.00002519,-0.00004308,-0.00005269,0.00002312,0.002964
 11,0.00031491,0.00239317,-0.00025586,-0.00139384,-0.00041421,-0.000671
 21,0.00104237,-0.00003635,-0.00029052,0.00037132,-0.00019045,-0.000515
 41,0.00012275,0.00013910,-0.00001838,0.00002891,0.00005959,0.00576181,
 -0.01088213,0.00463289,-0.03377588,-0.00627476,0.04913236,0.02823654,-
 0.03233081,-0.00191884,0.01004465,0.02185313,-0.02169484,0.01752194,-0
 .02679288,0.01454450,0.00015615,-0.00208239,-0.00004845,0.07252637,0.1
 6850431,-0.00033440,-0.00013392,0.00048492,0.00034203,-0.00009286,-0.0
 0028396,0.00032798,0.00035763,-0.00008481,-0.00041598,-0.00001796,-0.0
 0021674,0.00004780,0.00006633,-0.00004260,0.00008893,0.00006959,-0.000
 12819,-0.00012966,-0.00005840,-0.00025662,0.00007083,-0.00006666,0.000
 14342,-0.00019356,-0.00002726,0.00000448,0.00035122,0.00038261,0.00013
 015,0.00013765,-0.00006815,0.00001831,0.00003548,0.00000553,0.00008267
 ,-0.00015380,0.00000051,0.00030873,0.00001065,0.00005522,0.00004397,-0
 .00005774,-0.00006208,0.00003397,-0.00010291,0.00004924,-0.00015943,-0
 .00006966,-0.00002664,0.00005047,0.00003063,0.00007413,-0.00001840,-0.
 00111961,0.00038316,-0.00016755,0.00012621,0.00012310,0.00003655,-0.00
 009246,-0.00005101,-0.00001937,-0.00000730,-0.00006734,0.00001882,0.00
 019179,-0.00000979,-0.00022278,-0.00003533,-0.00002339,0.00006107,-0.0
 0002958,0.00001627,0.00002138,0.00003439,-0.00009935,0.00008344,-0.000
 03995,0.00005258,-0.00007304,0.00001680,0.00000030,-0.00001090,0.00006
 134,0.00000321,-0.00002868,0.00000324,-0.00000491,-0.00001452,0.003610
 82,-0.00042786,0.00524752,-0.00107880,0.00053560,-0.00000193,-0.000061
 17,0.00002804,0.00005679,0.00002285,0.00001224,-0.00008391,0.00001768,
 -0.00000062,-0.00001732,0.00001098,0.00001394,-0.00003435,0.00002793,-
 0.00000689,-0.00002101,0.00002074,0.00001773,-0.00002159,-0.00088991,-
 0.00005938,-0.00025500,-0.00003203,0.00031725,0.00046985,0.00030121,-0
 .00051904,-0.00014362,0.00015509,-0.00017284,0.00009022,0.00028388,-0.
 00004896,-0.00012535,0.00000705,-0.00001281,-0.00004674,-0.00668166,0.
 00298163,0.00716890,0.02129318,0.01361678,-0.01647076,-0.02082839,0.03
 835171,-0.07825941,0.01809218,0.00218315,-0.00236786,-0.00428663,0.005
 91820,-0.00440469,0.00048476,-0.00070042,-0.00346532,0.03156381,0.0173
 2613,0.21006673,-0.00008627,-0.00023906,0.00008724,0.00006422,-0.00005
 873,-0.00002752,0.00016639,0.00011898,-0.00000999,-0.00009409,-0.00007
 491,-0.00004559,-0.00002938,0.00006930,-0.00006695,-0.00003519,0.00013
 114,-0.00009446,-0.00003637,0.00022833,-0.00000039,0.00017532,-0.00005
 938,0.00005140,-0.00007900,0.00001102,-0.00000649,0.00011248,0.0000873
 9,0.00002098,0.00003787,0.00000749,0.00000837,-0.00000533,0.00001794,0
 .00001917,-0.00008034,-0.00009806,0.00007673,0.00003797,-0.00006165,-0
 .00002243,-0.00003899,-0.00005189,0.00001485,-0.00021296,0.00007680,-0
 .00008530,-0.00000620,-0.00001706,0.00003096,0.00005034,0.00003091,-0.
 00000101,-0.00054650,-0.00001166,0.00003576,0.00006149,0.00008606,-0.0
 0004414,-0.00003500,-0.00001767,-0.00002109,-0.00001105,-0.00002200,0.
 00000379,0.00006011,0.00006412,-0.00005714,0.00000598,-0.00003453,0.00
 002017,0.00001762,0.00002306,0.00002616,0.00006436,-0.00005037,0.00004
 583,-0.00004316,0.00002240,-0.00002220,-0.00000369,0.00000393,-0.00001
 057,0.00001708,0.00000914,-0.00001881,-0.00002732,0.00000473,-0.000013
 40,0.00184365,0.00005734,0.00123067,-0.00041349,0.00014168,-0.00001649
 ,-0.00004513,-0.00003102,-0.00000983,0.00004168,0.00001085,-0.00000752
 ,-0.00000131,0.00000824,-0.00001001,-0.00000518,0.00001446,-0.00000508
 ,-0.00000355,0.00000876,-0.00000497,-0.00001334,-0.00000885,0.00000015
 ,-0.00036073,-0.00004958,-0.00025724,0.00009860,0.00015565,0.00006229,
 0.00012712,-0.00016372,0.00002179,0.00005215,-0.00006224,0.00002786,0.
 00010458,-0.00000058,-0.00002525,0.00000740,0.00002145,-0.00000036,0.0
 0122783,0.00018635,0.00063918,0.00253622,0.00180089,-0.00581627,-0.004
 08793,-0.01416757,0.01364577,-0.00004853,-0.00003516,0.00127800,-0.000
 88553,0.00036345,0.00010845,-0.00037441,-0.00004685,-0.00015903,-0.093
 18168,-0.06768374,-0.06634345,0.10331754,-0.00018746,-0.00009996,0.000
 04391,0.00007693,-0.00007239,-0.00011262,0.00019336,0.00015478,0.00000
 586,-0.00015058,-0.00001606,-0.00010178,0.00002722,0.00006350,0.000015
 49,0.00012974,0.00000409,0.00005756,-0.00006206,0.00006377,-0.00000671
 ,-0.00000643,-0.00007619,-0.00000249,-0.00009293,-0.00001200,0.0000002
 4,0.00016053,0.00009120,0.00002782,0.00004246,-0.00002157,0.00002150,0
 .00001913,0.00000991,0.00003041,-0.00009238,0.00008117,0.00003804,0.00
 003517,-0.00002276,-0.00000242,-0.00001922,-0.00003679,0.00000078,0.00
 000410,0.00005794,-0.00000920,-0.00003189,-0.00001312,-0.00000079,0.00
 000941,0.00003074,-0.00001649,-0.00028360,0.00022467,-0.00037519,0.000
 02202,0.00006847,0.00002972,-0.00003652,-0.00000695,-0.00001191,0.0000
 0367,-0.00005800,-0.00002040,0.00012316,-0.00008102,-0.00001174,-0.000
 02232,0.00000055,0.00001625,-0.00000210,0.00004367,0.00002112,0.000006
 05,-0.00005738,0.00002782,-0.00002537,0.00004720,-0.00002038,0.0000084
 4,0.00000035,0.00000242,0.00002064,0.00000353,0.00000239,0.00000715,-0
 .00000005,0.00000222,0.00050196,-0.00023077,0.00150784,-0.00022397,0.0
 0009244,-0.00012792,-0.00007480,0.00002688,-0.00000617,0.00002360,-0.0
 0001198,-0.00000418,0.00000886,-0.00000379,-0.00000111,0.00000866,0.00
 000366,-0.00000947,0.00001809,-0.00001235,-0.00000251,0.00001302,0.000
 01973,-0.00000335,-0.00011294,0.00000624,0.00001324,-0.00005482,0.0001
 3156,0.00013451,0.00003716,-0.00013663,0.00003348,0.00002777,-0.000032
 33,0.00002526,0.00007406,-0.00003209,0.00001210,0.00000195,-0.00001302
 ,-0.00001000,-0.00009866,-0.00255102,0.00078010,0.00432148,0.00293379,
 -0.00250423,-0.01719198,-0.03461280,0.00419701,0.00408398,0.00021315,-
 0.00184305,-0.00089540,0.00072650,-0.00020000,-0.00023372,-0.00013264,
 -0.00057998,-0.06961220,-0.09250285,-0.06272426,0.08752075,0.12389442,
 -0.00002689,-0.00012427,-0.00003893,-0.00000604,-0.00003666,0.00000718
 ,0.00005808,0.00002532,0.00002100,-0.00003810,-0.00007259,-0.00004394,
 -0.00003862,0.00006019,-0.00001959,-0.00002743,0.00008042,-0.00000919,
 -0.00000365,0.00013940,0.00003980,0.00005514,-0.00003780,-0.00002729,-
 0.00001973,0.00000860,-0.00000370,0.00007371,0.00000550,-0.00004460,0.
 00002016,0.00001232,0.00001005,-0.00000582,0.00002155,0.00001340,-0.00
 004202,-0.00002920,0.00001135,0.00002607,-0.00004706,-0.00002058,-0.00
 000805,-0.00001650,-0.00000545,-0.00006580,0.00003228,0.00001790,-0.00
 000197,-0.00000703,0.00000325,0.00001591,0.00000578,-0.00000229,-0.000
 38429,-0.00019213,0.00018224,0.00001942,0.00011369,-0.00005743,-0.0000
 2234,-0.00000629,-0.00001765,-0.00000200,-0.00001790,-0.00000242,0.000
 03195,0.00002143,-0.00000473,0.00000021,-0.00001015,0.00000301,0.00001
 238,0.00002198,0.00001556,0.00001822,-0.00001696,0.00000714,-0.0000115
 6,0.00000944,0.00000827,-0.00000115,0.00000205,-0.00000114,0.00000420,
 0.00000579,-0.00000206,-0.00000820,0.00000330,-0.00000106,0.00229645,0
 .00043697,0.00069323,-0.00029725,0.00004795,0.00000212,-0.00003430,-0.
 00001043,-0.00001271,0.00002253,0.00000133,0.00000102,0.00000004,0.000
 00243,-0.00000203,-0.00000094,0.00000410,0.00000076,0.00000031,0.00000
 050,-0.00000024,-0.00000437,0.00000025,0.00000459,-0.00044785,-0.00009
 755,-0.00045857,0.00017204,0.00040160,-0.00013876,0.00012605,-0.000135
 05,0.00004812,0.00004034,-0.00006078,0.00001814,0.00005320,-0.00000773
 ,-0.00000514,0.00000322,0.00000718,0.00000177,-0.00042055,-0.00052286,
 0.00073152,0.00222730,0.00050997,-0.00830484,0.00652216,0.00632180,0.0
 1775188,0.00283904,-0.00009687,-0.00186573,-0.00068344,0.00227387,-0.0
 0086849,0.00011472,-0.00010001,-0.00047653,-0.07373203,-0.06753670,-0.
 09104506,0.06444846,0.05676290,0.07684839,0.00020658,-0.00018641,0.000
 05875,-0.00005768,0.00004754,0.00014993,-0.00006178,-0.00009904,-0.000
 02042,0.00013788,-0.00009825,0.00012028,-0.00007986,0.00000313,-0.0001
 0258,-0.00026636,0.00011374,-0.00020134,0.00007373,0.00021316,0.000001
 43,0.00027863,0.00003581,0.00009044,0.00002720,0.00005051,-0.00001570,
 -0.00047455,0.00001709,0.00016917,-0.00003895,0.00006114,-0.00005035,-
 0.00005361,0.00002080,-0.00004910,0.00009090,-0.00035088,0.00004918,-0
 .00001930,-0.00004042,-0.00002324,-0.00003191,-0.00004014,0.00003051,-
 0.00029118,0.00004052,-0.00012283,0.00005879,-0.00000864,0.00007016,0.
 00007765,-0.00000809,0.00003382,-0.00065449,-0.00028545,-0.00025957,0.
 00006010,0.00000427,-0.00012310,0.00005619,-0.00000047,0.00000331,-0.0
 0003145,0.00010425,0.00006593,-0.00020963,0.00025541,-0.00008277,0.000
 06771,-0.00008040,0.00001069,0.00003442,-0.00007499,-0.00000526,0.0001
 0940,0.00000689,0.00003761,-0.00004687,-0.00000974,-0.00002312,-0.0000
 2915,0.00001033,-0.00003041,-0.00001323,0.00001257,-0.00004634,-0.0000
 7258,0.00001077,-0.00003302,-0.00204302,0.00051047,0.00192445,-0.00012
 974,0.00005491,0.00031215,0.00010862,-0.00013326,0.00001184,0.00000396
 ,0.00006358,-0.00001696,-0.00002509,0.00002946,-0.00002162,-0.00003213
 ,0.00002385,0.00000802,-0.00005247,0.00005402,-0.00000709,-0.00005563,
 -0.00004925,0.00000249,0.00107333,-0.00010459,0.00108019,0.00035133,-0
 .00023627,-0.00043895,0.00011833,0.00022897,-0.00013779,0.00001588,0.0
 0002907,-0.00003500,-0.00002195,0.00009835,-0.00008801,0.00001102,0.00
 008246,0.00001946,0.00070262,0.00516789,-0.00482063,-0.03157596,0.0055
 0934,0.01630317,0.00284269,0.05445649,-0.04662579,-0.03816352,0.022559
 90,-0.00611495,0.03639062,-0.04015305,0.02123255,-0.01803300,-0.013389
 79,-0.00310277,-0.00461648,-0.02502249,0.02521788,-0.00943700,-0.00801
 983,-0.00286705,0.06372278,-0.00010509,-0.00009339,0.00002418,0.000045
 40,-0.00004213,-0.00005475,0.00012098,0.00009227,0.00000255,-0.0000879
 3,-0.00002275,-0.00005962,0.00000761,0.00003590,0.00000023,0.00004484,
 0.00002574,0.00000959,-0.00004056,0.00008183,0.00000318,0.00000839,-0.
 00004296,0.00000421,-0.00005663,-0.00000467,-0.00000112,0.00009971,0.0
 0006078,0.00000863,0.00002782,-0.00000690,0.00001330,0.00000922,0.0000
 0887,0.00002093,-0.00006648,0.00002652,0.00002825,0.00002933,-0.000028
 15,-0.00000744,-0.00001350,-0.00002275,0.00000166,-0.00001563,0.000028
 42,-0.00001211,-0.00002003,-0.00000920,0.00000079,0.00000816,0.0000190
 6,-0.00000958,-0.00030744,0.00005414,-0.00014962,0.00002037,0.00005662
 ,0.00000407,-0.00002338,-0.00000841,-0.00000655,-0.00000278,-0.0000392
 0,-0.00001376,0.00007844,-0.00002526,-0.00000929,-0.00001386,-0.000002
 77,0.00001114,0.00000219,0.00003091,0.00001709,0.00000621,-0.00003567,
 0.00001798,-0.00001350,0.00002586,-0.00001216,0.00000515,0.00000052,0.
 00000098,0.00001344,0.00000327,0.00000060,0.00000322,0.00000059,0.0000
 0075,0.00081520,-0.00023603,0.00056205,-0.00019892,0.00005994,-0.00011
 106,-0.00005561,0.00000958,-0.00000840,0.00003111,-0.00000492,0.000001
 91,0.00000564,-0.00000158,-0.00000136,0.00000513,0.00000344,-0.0000062
 5,0.00001078,-0.00000680,-0.00000189,0.00000778,0.00001160,-0.00000201
 ,-0.00015920,-0.00005028,-0.00010958,-0.00000626,0.00016179,-0.0000475
 5,0.00006813,-0.00008830,0.00007359,0.00002295,-0.00002871,0.00002169,
 0.00005962,-0.00001897,0.00001296,0.00000385,-0.00000398,-0.00000465,-
 0.00021242,-0.00075023,0.00022484,-0.00131875,-0.00104259,0.00060077,0
 .01540661,-0.01255046,0.00357022,-0.01305983,-0.02109576,0.00960793,-0
 .00598030,-0.00123833,0.00666828,-0.01696464,-0.00522581,0.00440805,0.
 03147452,-0.01699268,-0.01745793,-0.00823651,0.00185246,0.00184340,-0.
 00148231,0.05706957,-0.00002284,0.00005113,-0.00014774,-0.00005480,-0.
 00001412,0.00000475,-0.00001849,-0.00002559,0.00003308,0.00002877,0.00
 001341,-0.00001454,0.00001182,0.00000306,0.00004801,0.00008455,-0.0000
 3685,0.00010214,-0.00000550,-0.00000901,0.00007297,-0.00010629,-0.0000
 1238,-0.00007095,0.00002135,-0.00001155,0.00000371,0.00017925,-0.00013
 338,-0.00015589,-0.00000454,-0.00000128,0.00002299,0.00001405,-0.00000
 140,0.00000662,-0.00002310,0.00012271,-0.00007930,0.00001844,-0.000017
 52,-0.00000958,0.00002123,0.00002236,-0.00002079,0.00011517,-0.0000163
 3,0.00008159,-0.00000886,0.00000607,-0.00003906,-0.00003054,-0.0000098
 5,-0.00001129,0.00047190,-0.00007706,0.00031270,-0.00006597,0.00001854
 ,0.00002404,-0.00001624,0.00001919,-0.00000714,0.00001112,-0.00003529,
 -0.00003240,0.00005659,-0.00008809,0.00007548,-0.00001913,0.00003261,-
 0.00001644,-0.00000164,0.00003604,0.00000408,-0.00004302,0.00001065,-0
 .00002993,0.00002194,-0.00000326,0.00002623,0.00000732,-0.00000329,0.0
 0001450,-0.00000684,-0.00000315,0.00002509,0.00002469,-0.00000173,0.00
 001627,0.00086866,0.00004667,-0.00131007,0.00016324,-0.00014917,-0.000
 14177,-0.00004610,0.00004072,-0.00002436,0.00000785,-0.00002590,0.0000
 2749,0.00000607,-0.00001057,0.00001189,0.00000985,-0.00001054,0.000004
 49,0.00001475,-0.00001949,0.00000765,0.00001577,0.00001604,0.00000564,
 -0.00051026,0.00005939,-0.00063018,-0.00017914,0.00029754,0.00001725,-
 0.00002400,-0.00006067,0.00012721,-0.00001349,-0.00000356,0.00000908,-
 0.00003114,-0.00004275,0.00006344,-0.00000378,-0.00002565,0.00000442,0
 .00015849,-0.00203567,0.00218983,0.01751419,-0.00287976,-0.01051662,-0
 .01437085,-0.01705542,0.02554174,0.03352034,-0.00498940,-0.04034520,-0
 .01167698,0.02379770,-0.01610229,-0.00849369,-0.00069490,0.01300835,-0
 .00735329,0.00868979,-0.02613231,-0.00870101,0.00489869,0.00703936,-0.
 00153697,-0.00967931,0.04690478\\0.,0.,-0.00000003,-0.00000002,0.,0.00
 000001,0.00000004,-0.00000002,0.00000002,0.,0.,0.,0.,0.,0.,0.,0.,0.,-0
 .00000024,0.00000004,-0.00000005,0.,0.00000003,0.,-0.00000002,0.,0.,0.
 ,0.,0.,0.,0.,0.,0.,0.,0.,0.00000013,0.00000019,0.00000013,0.00000011,-
 0.00000023,-0.00000008,-0.00000002,-0.00000002,0.,0.,0.,0.,0.,0.,0.,0.
 ,0.00000002,-0.00000002,0.,0.,0.,0.,0.,0.,0.,0.,0.,0.00000011,-0.00000
 022,-0.00000006,0.,0.,0.,0.,0.,0.,0.00000014,0.00000018,0.00000013,0.0
 0000003,-0.00000001,0.00000002,0.,0.,0.,0.,0.,0.,0.,0.,0.,0.,0.,0.,0.,
 0.,0.,0.,0.,0.,-0.00000025,0.00000004,-0.00000007,0.,0.,0.,0.,0.,0.,0.
 ,0.,0.,0.,0.,0.,0.,0.,0.,0.,0.,0.,0.,0.,0.,0.,0.,0.,0.,0.,0.,0.,0.,0.,
 0.,0.,0.,0.,0.,0.,0.,0.00000004,-0.00000002,-0.00000002,0.00000001,0.,
 0.00000004,0.00000001,-0.00000002,-0.00000002,-0.00000004,0.00000002,0
 .,0.,0.,0.,0.,0.00000002,0.,0.,0.,0.00000001,-0.00000002,0.\\\@


 Make no judgements where you have no compassion.
                               -- Anne McCaffrey
 Job cpu time:       0 days  0 hours  0 minutes 10.3 seconds.
 Elapsed time:       0 days  0 hours  0 minutes  2.8 seconds.
 File lengths (MBytes):  RWF=    367 Int=      0 D2E=      0 Chk=      7 Scr=      1
 Normal termination of Gaussian 16 at Mon Mar 30 12:23:29 2020.
