
Running Job 1 of 2 input.in
qchem input.in_3703.0 /scratch/alongd/qlscratch/qchem3703/ 1
/opt/qchem/bin/mpi/mpirun_qchem -machinefile /tmp/539606.1.long2/hostfile -np 1 /opt/qchem/exe/qcprog.exe input.in_3703.0 /scratch/alongd/qlscratch/qchem3703/

Process 0 of 1 is on node37.cluster - thread support 0
initial socket setup ...start
initial socket setup ...done 
now start server 0 ... 

cmd = /usr/bin/ssh node96 /opt/qchem/bin/get_hostid 467638827 > /scratch/alongd/qlscratch/qchem3703/lic.dat
                  Welcome to Q-Chem
     A Quantum Leap Into The Future Of Chemistry


 Q-Chem 4.4, Q-Chem, Inc., Pleasanton, CA (2016)

 Y. Shao,  Z. Gan,  E. Epifanovsky,  A. T. B. Gilbert,  M. Wormit,  
 J. Kussmann,  A. W. Lange,  A. Behn,  J. Deng,  X. Feng,  D. Ghosh,  
 M. Goldey,  P. R. Horn,  L. D. Jacobson,  I. Kaliman,  R. Z. Khaliullin,  
 T. Kus,  A. Landau,  J. Liu,  E. I. Proynov,  Y. M. Rhee,  R. M. Richard,  
 M. A. Rohrdanz,  R. P. Steele,  E. J. Sundstrom,  H. L. Woodcock III,  
 P. M. Zimmerman,  D. Zuev,  B. Albrecht,  E. Alguire,  B. Austin,  
 S. A. Baeppler,  G. J. O. Beran,  Y. A. Bernard,  E. Berquist,  
 K. Brandhorst,  K. B. Bravaya,  S. T. Brown,  D. Casanova,  C.-M. Chang,  
 Y. Chen,  S. H. Chien,  K. D. Closser,  M. P. Coons,  D. L. Crittenden,  
 S. Dasgupta,  M. Diedenhofen,  R. A. DiStasio Jr.,  H. Do,  A. D. Dutoi,  
 R. G. Edgar,  P.-T. Fang,  S. Fatehi,  Q. Feng,  L. Fusti-Molnar,  
 A. Ghysels,  A. Golubeva-Zadorozhnaya,  J. Gomes,  A. Gunina,  
 M. W. D. Hanson-Heine,  P. H. P. Harbach,  A. W. Hauser,  E. G. Hohenstein,  
 Z. C. Holden,  K. Hui,  T.-C. Jagau,  H. Ji,  B. Kaduk,  K. Khistyaev,  
 Jaehoon Kim,  Jihan Kim,  R. A. King,  P. Klunzinger,  D. Kosenkov,  
 T. Kowalczyk,  C. M. Krauter,  A. Kunitsa,  K. U. Lao,  A. Laurent,  
 K. V. Lawler,  D. Lefrancois,  S. Lehtola,  S. V. Levchenko,  C. Y. Lin,  
 Y.-S. Lin,  F. Liu,  E. Livshits,  R. C. Lochan,  A. Luenser,  P. Manohar,  
 S. F. Manzer,  S.-P. Mao,  Y. Mao,  N. Mardirossian,  A. V. Marenich,  
 L. A. Martinez-Martinez,  S. A. Maurer,  N. J. Mayhall,  J.-M. Mewes,  
 A. F. Morrison,  K. Nanda,  C. M. Oana,  R. Olivares-Amaya,  D. P. O'Neill,  
 J. A. Parkhill,  T. M. Perrine,  R. Peverati,  P. A. Pieniazek,  F. Plasser,  
 A. Prociuk,  D. R. Rehn,  E. Rosta,  N. J. Russ,  N. Sergueev,  
 S. M. Sharada,  S. Sharma,  D. W. Small,  A. Sodt,  T. Stauch,  T. Stein,  
 D. Stuck,  Y.-C. Su,  A. J. W. Thom,  T. Tsuchimochi,  L. Vogt,  O. Vydrov,  
 T. Wang,  M. A. Watson,  J. Wenzel,  A. White,  C. F. Williams,  
 V. Vanovschi,  S. Yeganeh,  S. R. Yost,  Z.-Q. You,  I. Y. Zhang,  X. Zhang,  
 Y. Zhao,  B. R. Brooks,  G. K. L. Chan,  D. M. Chipman,  C. J. Cramer,  
 W. A. Goddard III,  M. S. Gordon,  W. J. Hehre,  A. Klamt,  
 H. F. Schaefer III,  M. W. Schmidt,  C. D. Sherrill,  D. G. Truhlar,  
 A. Warshel,  X. Xu,  A. Aspuru-Guzik,  R. Baer,  A. T. Bell,  N. A. Besley,  
 J.-D. Chai,  A. Dreuw,  B. D. Dunietz,  T. R. Furlani,  S. R. Gwaltney,  
 C.-P. Hsu,  Y. Jung,  J. Kong,  D. S. Lambrecht,  W. Liang,  C. Ochsenfeld,  
 V. A. Rassolov,  L. V. Slipchenko,  J. E. Subotnik,  T. Van Voorhis,  
 J. M. Herbert,  A. I. Krylov,  P. M. W. Gill,  M. Head-Gordon

 Contributors to earlier versions of Q-Chem not listed above: 
 R. D. Adamson,  J. Baker,  E. F. C. Byrd,  A. K. Chakraborty,  C.-L. Cheng,  
 H. Dachsel,  R. J. Doerksen,  G. Hawkins,  A. Heyden,  S. Hirata,  
 G. Kedziora,  F. J. Keil,  C. Kelley,  P. P. Korambath,  W. Kurlancheek,  
 A. M. Lee,  M. S. Lee,  D. Liotard,  I. Lotan,  P. E. Maslen,  N. Nair,  
 D. Neuhauser,  R. Olson,  B. Peters,  J. Ritchie,  N. E. Schultz,  
 N. Shenvi,  A. C. Simmonett,  K. S. Thanthiriwatte,  Q. Wu,  W. Zhang

 Please cite Q-Chem as follows:
 Y. Shao et al., Mol. Phys. 113, 184-215 (2015)
 DOI: 10.1080/00268976.2014.952696

 Q-Chem 4.4.0 for Intel X86 Linux

 Parts of Q-Chem use Armadillo 5.200.1 (Boston Tea Smuggler).
 http://arma.sourceforge.net/

 Q-Chem begins on Tue Oct  2 11:29:24 2018  

Host: 
0

     Scratch files written to /scratch/alongd/qlscratch/qchem3703//
 Apr2716 1281_ 20995  20993 4150   
 Parallel job on  1  processors
Processing $rem in /opt/qchem/config/preferences.
 MEM_TOTAL  2000 

Checking the input file for inconsistencies... 	...done.

--------------------------------------------------------------
User input:
--------------------------------------------------------------
$molecule
0 1
N                 -0.69518720    0.84670230    0.00000000
H                 -0.76386542    1.84533561    0.16314551
H                 -3.12741068   -0.21909373    0.05475882
N                 -1.99742564    0.38106573    0.09139807
H                 -0.12905038    0.39758241    0.78910102
N                 -3.00046673    1.05595734    0.14169613
$end

!Optimize geometry
$rem
JOBTYPE       ts
METHOD        wB97x-D3
UNRESTRICTED  false
BASIS         6-311++G(3df,3pd)
GEOM_OPT_TOL_GRADIENT 15
GEOM_OPT_TOL_DISPLACEMENT 60
GEOM_OPT_TOL_ENERGY 5
$end

--------------------------------------------------------------
 ----------------------------------------------------------------
             Standard Nuclear Orientation (Angstroms)
    I     Atom           X                Y                Z
 ----------------------------------------------------------------
    1      N       1.1340676964     0.0708717839    -0.1161075504
    2      H       1.0917177931     1.0661683039     0.0741369403
    3      H      -1.3237784655    -0.9349036174    -0.0709539324
    4      N      -0.1788057953    -0.3643667433    -0.0270761168
    5      H       1.6942810345    -0.4132811436     0.6563281769
    6      N      -1.1641505243     0.3337830247     0.0489677837
 ----------------------------------------------------------------
 Molecular Point Group                 C1    NOp =  1
 Largest Abelian Subgroup              C1    NOp =  1
 Nuclear Repulsion Energy =    72.8338036700 hartrees
 There are       12 alpha and       12 beta electrons
 Requested basis set is 6-311++G(3df,3pd)
 There are 51 shells and 171 basis functions

 Total QAlloc Memory Limit   2000 MB
 Mega-Array Size        61 MB
 MEM_STATIC part        62 MB
 A cutoff of  1.0D-11 yielded   1306 shell pairs
 There are     14838 function pairs (     18769 Cartesian)
 
 -------------------------------------------------------
 OpenMP Integral Computing Module                       
 Release: version 1.0, May 2013, Q-Chem Inc. Pittsburgh 
 -------------------------------------------------------
 Integral Job Info:
 Integral job number is                      11
 Integral operator is                         1
 short-range coefficients              19572800
 long-range coefficients              100000000
 Omega coefficients                         250
 if combine SR and LR in K                    1
 Integral screening is                        0
 Integral computing path is                   2
 max size of driver memory is            800000
 size of driver memory is                776718
 size of scratch memory is              3095872
 max col of scratch BK array              10000
 max len of scratch array in speh3          662
 max len of scratch index in speh4           32
 max int batch size is                      520
 min int batch size is                       52
 fixed nKL is                                52
 max L of basis functions is                  3
 order of int derivative is                   0
 number of shells is                         51
 number of basis is                         192
 number of cartesian basis is               192
 number of contracted shell pairs          1306
 number of primitive shell pairs           2707
 maxK2 (contraction) of shell pair           36
 max number of K2 of shell pair               1
 max number of CS2 of shell pair            118
 max number of PS2 of shell pair            198
 mem total for path MDJ                   51772
 -------------------------------------------------------
 Smallest overlap matrix eigenvalue = 5.75E-05

 Scale SEOQF with 1.000000e-01/1.000000e-01/1.000000e-01

 Standard Electronic Orientation quadrupole field applied
 Nucleus-field energy     =     0.0000000011 hartrees
 Guess from superposition of atomic densities
 Warning:  Energy on first SCF cycle will be non-variational
 Long-range K will be added via erf
 Coulomb attenuation parameter = 0.25 bohr**(-1)
 A restricted hybrid HF-DFT SCF calculation will be
 performed using Pulay DIIS extrapolation
 Exchange:     0.1957 Hartree-Fock + 1.0000 wB97X-D3 + LR-HF
 Correlation:  1.0000 wB97X-D3
 Using SG-1 standard quadrature grid
 Dispersion:   Grimme D3
 SCF converges when DIIS error is below 1.0E-08
 using 8 threads for integral computing 
 using 8 threads for integral computing 
 K construction time:  CPU 0.72 s  wall 0.13 s
 -------------------------------------------------------
 OpenMP BLAS3 based DFT computing Module                
 Release: version 1.0, May 2013, Q-Chem Inc. Pittsburgh 
 -------------------------------------------------------
 ---------------------------------------
  Cycle       Energy         DIIS Error
 ---------------------------------------
    1    -166.4949085696      3.45E-02
 K construction time:  CPU 4.76 s  wall 0.62 s
    2    -165.8460672608      3.62E-03
 K construction time:  CPU 4.90 s  wall 0.62 s
    3    -165.8430217639      4.23E-03
 K construction time:  CPU 4.84 s  wall 0.61 s
    4    -165.8893998182      7.44E-04
 K construction time:  CPU 4.83 s  wall 0.61 s
    5    -165.8907147496      3.27E-04
 K construction time:  CPU 4.39 s  wall 0.62 s
    6    -165.8910425382      7.88E-05
 K construction time:  CPU 4.73 s  wall 0.60 s
    7    -165.8910738920      3.00E-05
 K construction time:  CPU 4.62 s  wall 0.59 s
    8    -165.8910788977      7.68E-06
 K construction time:  CPU 4.36 s  wall 0.58 s
    9    -165.8910797615      1.97E-06
 K construction time:  CPU 4.10 s  wall 0.57 s
   10    -165.8910798360      7.78E-07
 K construction time:  CPU 4.40 s  wall 0.55 s
   11    -165.8910798488      3.15E-07
 K construction time:  CPU 3.91 s  wall 0.55 s
   12    -165.8910798517      1.08E-07
 K construction time:  CPU 3.78 s  wall 0.53 s
   13    -165.8910798520      3.69E-08
 K construction time:  CPU 3.90 s  wall 0.51 s
   14    -165.8910798520      1.53E-08
 K construction time:  CPU 3.89 s  wall 0.49 s
   15    -165.8910798520      5.01E-09 Convergence criterion met
 ---------------------------------------
 SCF time:  CPU 89.93 s  wall 12.07 s
 SCF   energy in the final basis set = -165.8910798520
 Total energy in the final basis set = -165.8910798520
 
 --------------------------------------------------------------
 
                    Orbital Energies (a.u.)
 --------------------------------------------------------------
 
 Alpha MOs
 -- Occupied --
-14.527 -14.465 -14.462  -1.218  -1.029  -0.729  -0.665  -0.586
 -0.555  -0.511  -0.390  -0.310
 -- Virtual --
  0.039   0.051   0.059   0.075   0.128   0.153   0.165   0.174
  0.186   0.195   0.210   0.218   0.234   0.249   0.252   0.273
  0.288   0.310   0.335   0.371   0.428   0.456   0.470   0.494
  0.504   0.556   0.574   0.591   0.607   0.629   0.696   0.713
  0.727   0.758   0.770   0.784   0.798   0.822   0.849   0.853
  0.874   0.888   0.903   0.937   0.971   0.979   1.019   1.082
  1.091   1.121   1.165   1.200   1.238   1.290   1.309   1.412
  1.545   1.731   1.820   1.846   1.889   1.930   1.974   2.046
  2.070   2.095   2.128   2.178   2.187   2.275   2.301   2.392
  2.412   2.473   2.521   2.630   2.677   2.714   2.849   2.904
  2.922   3.036   3.069   3.108   3.130   3.135   3.194   3.219
  3.268   3.275   3.310   3.369   3.433   3.492   3.505   3.627
  3.668   3.767   3.787   3.832   3.887   3.900   3.960   3.972
  4.017   4.066   4.079   4.121   4.193   4.283   4.348   4.390
  4.493   4.537   4.592   4.681   4.709   4.891   5.062   5.164
  5.189   5.224   5.325   5.393   5.405   5.607   5.738   5.778
  6.058   6.290   6.467   7.203   8.393   8.419   8.521   8.532
  8.640   8.850   9.355   9.394   9.606  10.239  10.291  10.344
 10.358  10.502  10.703  10.807  10.842  10.982  11.117  11.217
 11.287  11.384  11.749  12.247  36.015  36.970  37.046
 --------------------------------------------------------------
 
          Ground-State Mulliken Net Atomic Charges

     Atom                 Charge (a.u.)
  ----------------------------------------
      1 N                    -0.783396
      2 H                     0.316470
      3 H                     0.420318
      4 N                     0.263582
      5 H                     0.309192
      6 N                    -0.526165
  ----------------------------------------
  Sum of atomic charges =     0.000000

 -----------------------------------------------------------------
                    Cartesian Multipole Moments
 -----------------------------------------------------------------
    Charge (ESU x 10^10)
                 0.0000
    Dipole Moment (Debye)
         X       1.2528      Y      -0.8751      Z       1.1620
       Tot       1.9198
    Quadrupole Moments (Debye-Ang)
        XX     -18.3514     XY       3.0198     YY     -17.9193
        XZ       2.8408     YZ      -0.4129     ZZ     -19.0059
    Octopole Moments (Debye-Ang^2)
       XXX       6.6241    XXY      -4.5542    XYY       1.3255
       YYY      -0.8496    XXZ       4.1975    XYZ      -0.9765
       YYZ       0.3376    XZZ       0.4949    YZZ      -0.5592
       ZZZ       1.2674
    Hexadecapole Moments (Debye-Ang^3)
      XXXX    -134.5392   XXXY       4.1440   XXYY     -24.6044
      XYYY       6.8076   YYYY     -37.2483   XXXZ       9.5597
      XXYZ      -1.3649   XYYZ       1.3102   YYYZ      -0.2963
      XXZZ     -25.7860   XYZZ      -0.2664   YYZZ     -10.0231
      XZZZ       2.8144   YZZZ      -0.6486   ZZZZ     -21.5386
 -----------------------------------------------------------------
 Calculating analytic gradient of the SCF energy
 K construction time:  CPU 32.85 s  wall 4.15 s
 Gradient of SCF Energy
            1           2           3           4           5           6
    1  -0.0130797  -0.0089619   0.0316335  -0.0783924   0.0224721   0.0463283
    2  -0.0094340  -0.0123229  -0.0659685   0.0793158  -0.0155296   0.0239391
    3  -0.0312952  -0.0008616  -0.0068035  -0.0020593   0.0323268   0.0086928
 Max gradient component =       7.932E-02
 RMS gradient           =       3.644E-02
 Gradient time:  CPU 37.02 s  wall 5.11 s
 Geometry Optimization Parameters
   NAtoms,    NIC,     NZ,  NCons,   NDum,   NFix, NCnnct, MaxDiis
        6      32       0       0       0       0       0       0


** GEOMETRY OPTIMIZATION IN DELOCALIZED INTERNAL COORDINATES **
   Searching for a Transition State

   Optimization Cycle:   1

                       Coordinates (Angstroms)
     ATOM                X               Y               Z
      1  N         1.1340676964    0.0708717839   -0.1161075504
      2  H         1.0917177931    1.0661683039    0.0741369403
      3  H        -1.3237784655   -0.9349036174   -0.0709539324
      4  N        -0.1788057953   -0.3643667433   -0.0270761168
      5  H         1.6942810345   -0.4132811436    0.6563281769
      6  N        -1.1641505243    0.3337830247    0.0489677837
   Point Group: c1    Number of degrees of freedom:    12


   Energy is   -165.891079852


 Attempting to Generate Delocalized Internal Coordinates

 12 Hessian modes will be used to form the next step
  Hessian Eigenvalues:
     0.008082    0.061942    0.123672    0.159594    0.159957    0.186499
     0.191101    0.214700    0.372288    0.452754    0.480169    0.801442
**WARNING** Hessian does not have the Desired Local Structure

 Transition State Search - Taking P-RFO Step
 Searching for Lamda that Maximizes Along the Lowest mode
 Value Taken    Lamda =   0.01095813
 Searching for Lamda that Minimizes Along All other modes
 Value Taken    Lamda =  -0.02743310
 Calculated Step too Large.  Step scaled by  0.151458
 Step Taken.  Stepsize is  0.300000

                             Maximum     Tolerance    Cnvgd?
         Gradient           0.046759      0.000015      NO
         Displacement       0.216406      0.000060      NO
         Energy change     *********      0.000000      NO


 New Cartesian Coordinates Obtained by Inverse Iteration

 Displacement from previous Coordinates is:  0.204418
 ----------------------------------------------------------------
             Standard Nuclear Orientation (Angstroms)
    I     Atom           X                Y                Z
 ----------------------------------------------------------------
    1      N       1.1415932523     0.0622135358    -0.1126940478
    2      H       1.1076194052     1.0674058241     0.0326377889
    3      H      -1.3343300381    -0.9232145000    -0.1132678312
    4      N      -0.1747377104    -0.3724410699    -0.0467104148
    5      H       1.6733177781    -0.3913025838     0.6862992048
    6      N      -1.1601309481     0.3156104019     0.1190306015
 ----------------------------------------------------------------
 Molecular Point Group                 C1    NOp =  1
 Largest Abelian Subgroup              C1    NOp =  1
 Nuclear Repulsion Energy =    72.7407700065 hartrees
 There are       12 alpha and       12 beta electrons
 Applying Cartesian multipole field
    Component          Value
    ---------          -----
     (2,0,0)        1.00000E-11
     (0,2,0)        2.00000E-11
     (0,0,2)       -3.00000E-11
 Nucleus-field energy     =     0.0000000011 hartrees
 Requested basis set is 6-311++G(3df,3pd)
 There are 51 shells and 171 basis functions
 A cutoff of  1.0D-11 yielded   1306 shell pairs
 There are     14838 function pairs (     18769 Cartesian)
 Smallest overlap matrix eigenvalue = 5.96E-05
 Guess MOs from SCF MO coefficient file
 Reading MOs from coefficient file
 Reading MOs from coefficient file
 Long-range K will be added via erf
 Coulomb attenuation parameter = 0.25 bohr**(-1)
 A restricted hybrid HF-DFT SCF calculation will be
 performed using Pulay DIIS extrapolation
 Exchange:     0.1957 Hartree-Fock + 1.0000 wB97X-D3 + LR-HF
 Correlation:  1.0000 wB97X-D3
 Using SG-1 standard quadrature grid
 Dispersion:   Grimme D3
 SCF converges when DIIS error is below 1.0E-08
 Geometry optimization detected.  Setting ReadMinima to 0
 Setting SaveMinima to 0
 using 8 threads for integral computing 
 using 8 threads for integral computing 
 K construction time:  CPU 4.95 s  wall 0.62 s
 -------------------------------------------------------
 OpenMP BLAS3 based DFT computing Module                
 Release: version 1.0, May 2013, Q-Chem Inc. Pittsburgh 
 -------------------------------------------------------
 ---------------------------------------
  Cycle       Energy         DIIS Error
 ---------------------------------------
    1    -165.8918985518      1.89E-03
 K construction time:  CPU 4.95 s  wall 0.62 s
    2    -165.8921237075      3.16E-04
 K construction time:  CPU 4.44 s  wall 0.61 s
    3    -165.8928333335      2.10E-04
 K construction time:  CPU 4.76 s  wall 0.60 s
    4    -165.8929862337      1.38E-04
 K construction time:  CPU 4.74 s  wall 0.60 s
    5    -165.8930749776      4.33E-05
 K construction time:  CPU 4.74 s  wall 0.60 s
    6    -165.8931219476      1.81E-05
 K construction time:  CPU 4.32 s  wall 0.59 s
    7    -165.8931326438      9.42E-06
 K construction time:  CPU 4.62 s  wall 0.58 s
    8    -165.8931350030      3.24E-06
 K construction time:  CPU 4.54 s  wall 0.57 s
    9    -165.8931351781      1.23E-06
 K construction time:  CPU 4.43 s  wall 0.56 s
   10    -165.8931352003      6.41E-07
 K construction time:  CPU 4.30 s  wall 0.54 s
   11    -165.8931352024      1.33E-07
 K construction time:  CPU 4.17 s  wall 0.52 s
   12    -165.8931352026      3.53E-08
 K construction time:  CPU 3.94 s  wall 0.50 s
   13    -165.8931352027      1.17E-08
 K construction time:  CPU 3.74 s  wall 0.47 s
   14    -165.8931352027      3.44E-09 Convergence criterion met
 ---------------------------------------
 SCF time:  CPU 89.85 s  wall 11.57 s
 SCF   energy in the final basis set = -165.8931352027
 Total energy in the final basis set = -165.8931352027
 
 --------------------------------------------------------------
 
                    Orbital Energies (a.u.)
 --------------------------------------------------------------
 
 Alpha MOs
 -- Occupied --
-14.526 -14.469 -14.460  -1.217  -1.028  -0.731  -0.662  -0.592
 -0.552  -0.509  -0.389  -0.312
 -- Virtual --
  0.039   0.049   0.059   0.075   0.129   0.153   0.165   0.175
  0.185   0.195   0.210   0.221   0.234   0.249   0.253   0.272
  0.289   0.309   0.337   0.369   0.429   0.457   0.464   0.494
  0.508   0.552   0.573   0.595   0.607   0.632   0.698   0.711
  0.730   0.755   0.769   0.786   0.797   0.817   0.846   0.860
  0.868   0.887   0.908   0.943   0.975   0.976   1.027   1.073
  1.087   1.127   1.165   1.199   1.223   1.292   1.308   1.402
  1.566   1.741   1.823   1.841   1.890   1.931   1.973   2.039
  2.073   2.102   2.137   2.185   2.189   2.277   2.299   2.382
  2.412   2.475   2.532   2.625   2.669   2.717   2.852   2.909
  2.929   3.028   3.068   3.106   3.128   3.134   3.196   3.229
  3.263   3.273   3.307   3.371   3.432   3.497   3.509   3.636
  3.663   3.767   3.781   3.845   3.884   3.907   3.940   3.972
  4.025   4.057   4.090   4.136   4.185   4.295   4.357   4.386
  4.497   4.550   4.599   4.685   4.718   4.878   5.069   5.152
  5.195   5.236   5.309   5.391   5.421   5.610   5.756   5.770
  6.046   6.283   6.471   7.197   8.393   8.417   8.523   8.537
  8.642   8.855   9.349   9.389   9.613  10.231  10.288  10.348
 10.363  10.505  10.696  10.813  10.844  10.978  11.107  11.222
 11.299  11.369  11.753  12.243  36.022  36.987  37.011
 --------------------------------------------------------------
 
          Ground-State Mulliken Net Atomic Charges

     Atom                 Charge (a.u.)
  ----------------------------------------
      1 N                    -0.789957
      2 H                     0.312532
      3 H                     0.421907
      4 N                     0.238398
      5 H                     0.313638
      6 N                    -0.496517
  ----------------------------------------
  Sum of atomic charges =     0.000000

 -----------------------------------------------------------------
                    Cartesian Multipole Moments
 -----------------------------------------------------------------
    Charge (ESU x 10^10)
                 0.0000
    Dipole Moment (Debye)
         X       1.1461      Y      -0.7480      Z       1.0174
       Tot       1.7053
    Quadrupole Moments (Debye-Ang)
        XX     -18.3779     XY       3.0600     YY     -17.9766
        XZ       3.0970     YZ      -0.6542     ZZ     -18.9286
    Octopole Moments (Debye-Ang^2)
       XXX       5.6672    XXY      -4.0033    XYY       1.2163
       YYY      -0.0882    XXZ       3.5774    XYZ      -1.0737
       YYZ      -0.1860    XZZ       0.5169    YZZ      -0.4237
       ZZZ       0.4993
    Hexadecapole Moments (Debye-Ang^3)
      XXXX    -135.0295   XXXY       4.2834   XXYY     -24.6323
      XYYY       6.3326   YYYY     -36.8259   XXXZ      11.3654
      XXYZ      -1.6546   XYYZ       1.8581   YYYZ      -1.2604
      XXZZ     -25.7011   XYZZ      -0.3396   YYZZ     -10.0765
      XZZZ       4.1680   YZZZ      -1.4363   ZZZZ     -21.9712
 -----------------------------------------------------------------
 Calculating analytic gradient of the SCF energy
 K construction time:  CPU 33.18 s  wall 4.16 s
 Gradient of SCF Energy
            1           2           3           4           5           6
    1  -0.0096484  -0.0076159   0.0344036  -0.0763776   0.0181273   0.0411109
    2  -0.0151437  -0.0100576  -0.0652142   0.0744616  -0.0117208   0.0276748
    3  -0.0280420  -0.0025188  -0.0138643   0.0013220   0.0297109   0.0133922
 Max gradient component =       7.638E-02
 RMS gradient           =       3.517E-02
 Gradient time:  CPU 38.10 s  wall 4.88 s
 Geometry Optimization Parameters
   NAtoms,    NIC,     NZ,  NCons,   NDum,   NFix, NCnnct, MaxDiis
        6      32       0       0       0       0       0       0

 Cartesian Hessian Update
 Hessian Updated using Powell/Murtagh-Sargent Update
  Mixing factors:     0.005468 Powell
                      0.994532 Murtagh-Sargent


** GEOMETRY OPTIMIZATION IN DELOCALIZED INTERNAL COORDINATES **
   Searching for a Transition State

   Optimization Cycle:   2

                       Coordinates (Angstroms)
     ATOM                X               Y               Z
      1  N         1.1415932523    0.0622135358   -0.1126940478
      2  H         1.1076194052    1.0674058241    0.0326377889
      3  H        -1.3343300381   -0.9232145000   -0.1132678312
      4  N        -0.1747377104   -0.3724410699   -0.0467104148
      5  H         1.6733177781   -0.3913025838    0.6862992048
      6  N        -1.1601309481    0.3156104019    0.1190306015
   Point Group: c1    Number of degrees of freedom:    12


   Energy is   -165.893135203

 Hessian Updated using Powell/Murtagh-Sargent Update
  Mixing factors:     0.987265 Powell
                      0.012735 Murtagh-Sargent

 12 Hessian modes will be used to form the next step
  Hessian Eigenvalues:
     0.005378    0.062336    0.124010    0.159603    0.160134    0.180208
     0.191006    0.214259    0.372217    0.452763    0.480086    0.801490
**WARNING** Hessian does not have the Desired Local Structure

 Transition State Search - Taking P-RFO Step
 Searching for Lamda that Maximizes Along the Lowest mode
 Value Taken    Lamda =   0.00834402
 Searching for Lamda that Minimizes Along All other modes
 Value Taken    Lamda =  -0.02763586
 Calculated Step too Large.  Step scaled by  0.175104
 Step Taken.  Stepsize is  0.300000

                             Maximum     Tolerance    Cnvgd?
         Gradient           0.045586      0.000015      NO
         Displacement       0.225972      0.000060      NO
         Energy change     -0.002055      0.000000      NO


 New Cartesian Coordinates Obtained by Inverse Iteration

 Displacement from previous Coordinates is:  0.201286
 ----------------------------------------------------------------
             Standard Nuclear Orientation (Angstroms)
    I     Atom           X                Y                Z
 ----------------------------------------------------------------
    1      N       1.1327045490     0.0747570396    -0.1053458966
    2      H       1.1197330780     1.0779991135     0.0685680250
    3      H      -1.3284630495    -0.9332174822    -0.0750899404
    4      N      -0.1796008713    -0.3713508844    -0.0202605728
    5      H       1.6862496975    -0.4115739272     0.6474761048
    6      N      -1.1772916647     0.3216577489     0.0499475812
 ----------------------------------------------------------------
 Molecular Point Group                 C1    NOp =  1
 Largest Abelian Subgroup              C1    NOp =  1
 Nuclear Repulsion Energy =    72.6526641179 hartrees
 There are       12 alpha and       12 beta electrons
 Applying Cartesian multipole field
    Component          Value
    ---------          -----
     (2,0,0)        1.00000E-11
     (0,2,0)        2.00000E-11
     (0,0,2)       -3.00000E-11
 Nucleus-field energy     =     0.0000000011 hartrees
 Requested basis set is 6-311++G(3df,3pd)
 There are 51 shells and 171 basis functions
 A cutoff of  1.0D-11 yielded   1306 shell pairs
 There are     14838 function pairs (     18769 Cartesian)
 Smallest overlap matrix eigenvalue = 6.00E-05
 Guess MOs from SCF MO coefficient file
 Reading MOs from coefficient file
 Reading MOs from coefficient file
 Long-range K will be added via erf
 Coulomb attenuation parameter = 0.25 bohr**(-1)
 A restricted hybrid HF-DFT SCF calculation will be
 performed using Pulay DIIS extrapolation
 Exchange:     0.1957 Hartree-Fock + 1.0000 wB97X-D3 + LR-HF
 Correlation:  1.0000 wB97X-D3
 Using SG-1 standard quadrature grid
 Dispersion:   Grimme D3
 SCF converges when DIIS error is below 1.0E-08
 Geometry optimization detected.  Setting ReadMinima to 0
 Setting SaveMinima to 0
 using 8 threads for integral computing 
 using 8 threads for integral computing 
 K construction time:  CPU 4.93 s  wall 0.62 s
 -------------------------------------------------------
 OpenMP BLAS3 based DFT computing Module                
 Release: version 1.0, May 2013, Q-Chem Inc. Pittsburgh 
 -------------------------------------------------------
 ---------------------------------------
  Cycle       Energy         DIIS Error
 ---------------------------------------
    1    -165.8828609293      1.91E-03
 K construction time:  CPU 4.93 s  wall 0.62 s
    2    -165.8949840718      3.51E-04
 K construction time:  CPU 4.70 s  wall 0.63 s
    3    -165.8957814076      2.37E-04
 K construction time:  CPU 4.76 s  wall 0.60 s
    4    -165.8959923695      1.22E-04
 K construction time:  CPU 4.74 s  wall 0.60 s
    5    -165.8960743941      5.56E-05
 K construction time:  CPU 4.72 s  wall 0.59 s
    6    -165.8961171575      3.50E-05
 K construction time:  CPU 4.53 s  wall 0.59 s
    7    -165.8961345059      1.36E-05
 K construction time:  CPU 4.26 s  wall 0.59 s
    8    -165.8961392607      7.27E-06
 K construction time:  CPU 4.61 s  wall 0.58 s
    9    -165.8961402250      1.73E-06
 K construction time:  CPU 4.48 s  wall 0.56 s
   10    -165.8961402874      5.04E-07
 K construction time:  CPU 4.35 s  wall 0.55 s
   11    -165.8961402913      1.07E-07
 K construction time:  CPU 4.32 s  wall 0.55 s
   12    -165.8961402914      2.93E-08
 K construction time:  CPU 3.92 s  wall 0.49 s
   13    -165.8961402915      9.25E-09 Convergence criterion met
 ---------------------------------------
 SCF time:  CPU 84.57 s  wall 10.89 s
 SCF   energy in the final basis set = -165.8961402915
 Total energy in the final basis set = -165.8961402915
 
 --------------------------------------------------------------
 
                    Orbital Energies (a.u.)
 --------------------------------------------------------------
 
 Alpha MOs
 -- Occupied --
-14.526 -14.467 -14.461  -1.215  -1.028  -0.732  -0.663  -0.587
 -0.554  -0.511  -0.388  -0.312
 -- Virtual --
  0.040   0.050   0.059   0.074   0.130   0.154   0.166   0.174
  0.188   0.196   0.211   0.218   0.234   0.249   0.253   0.273
  0.286   0.309   0.334   0.368   0.430   0.457   0.470   0.496
  0.504   0.554   0.572   0.591   0.608   0.632   0.697   0.712
  0.727   0.759   0.773   0.785   0.796   0.820   0.849   0.854
  0.873   0.888   0.905   0.937   0.969   0.973   1.018   1.084
  1.092   1.121   1.161   1.198   1.234   1.291   1.305   1.410
  1.539   1.726   1.826   1.848   1.889   1.927   1.976   2.050
  2.072   2.105   2.140   2.174   2.194   2.271   2.303   2.395
  2.415   2.477   2.527   2.625   2.673   2.723   2.857   2.910
  2.928   3.038   3.064   3.099   3.130   3.139   3.196   3.229
  3.267   3.279   3.317   3.378   3.418   3.489   3.495   3.633
  3.675   3.776   3.790   3.842   3.894   3.900   3.962   3.974
  4.024   4.060   4.079   4.131   4.179   4.285   4.357   4.389
  4.493   4.551   4.605   4.680   4.716   4.874   5.064   5.182
  5.194   5.222   5.319   5.389   5.404   5.610   5.757   5.780
  6.050   6.282   6.487   7.197   8.391   8.424   8.519   8.539
  8.644   8.864   9.348   9.387   9.621  10.236  10.288  10.344
 10.363  10.509  10.709  10.808  10.846  10.979  11.113  11.219
 11.302  11.341  11.760  12.240  36.025  36.973  37.001
 --------------------------------------------------------------
 
          Ground-State Mulliken Net Atomic Charges

     Atom                 Charge (a.u.)
  ----------------------------------------
      1 N                    -0.764700
      2 H                     0.311119
      3 H                     0.417336
      4 N                     0.250628
      5 H                     0.307611
      6 N                    -0.521994
  ----------------------------------------
  Sum of atomic charges =     0.000000

 -----------------------------------------------------------------
                    Cartesian Multipole Moments
 -----------------------------------------------------------------
    Charge (ESU x 10^10)
                 0.0000
    Dipole Moment (Debye)
         X       1.3005      Y      -0.7873      Z       1.1251
       Tot       1.8913
    Quadrupole Moments (Debye-Ang)
        XX     -18.2992     XY       3.0420     YY     -17.8362
        XZ       2.7855     YZ      -0.4016     ZZ     -19.0134
    Octopole Moments (Debye-Ang^2)
       XXX       7.0466    XXY      -4.2761    XYY       1.5372
       YYY      -0.3676    XXZ       4.0141    XYZ      -1.0087
       YYZ       0.2245    XZZ       0.5768    YZZ      -0.4697
       ZZZ       0.9801
    Hexadecapole Moments (Debye-Ang^3)
      XXXX    -135.3036   XXXY       3.9603   XXYY     -24.6154
      XYYY       6.5074   YYYY     -36.7948   XXXZ       9.2681
      XXYZ      -1.3255   XYYZ       1.2587   YYYZ      -0.2514
      XXZZ     -25.9493   XYZZ      -0.3760   YYZZ      -9.9539
      XZZZ       2.6392   YZZZ      -0.6075   ZZZZ     -21.3608
 -----------------------------------------------------------------
 Calculating analytic gradient of the SCF energy
 K construction time:  CPU 32.15 s  wall 4.13 s
 Gradient of SCF Energy
            1           2           3           4           5           6
    1  -0.0063420  -0.0060146   0.0374867  -0.0782280   0.0167406   0.0363573
    2  -0.0142634  -0.0071593  -0.0652856   0.0645155  -0.0114554   0.0336483
    3  -0.0245701  -0.0005708  -0.0071867  -0.0036510   0.0251977   0.0107810
 Max gradient component =       7.823E-02
 RMS gradient           =       3.380E-02
 Gradient time:  CPU 36.69 s  wall 4.85 s
 Geometry Optimization Parameters
   NAtoms,    NIC,     NZ,  NCons,   NDum,   NFix, NCnnct, MaxDiis
        6      32       0       0       0       0       0       0

 Cartesian Hessian Update
 Hessian Updated using Powell/Murtagh-Sargent Update
  Mixing factors:     0.879096 Powell
                      0.120904 Murtagh-Sargent


** GEOMETRY OPTIMIZATION IN DELOCALIZED INTERNAL COORDINATES **
   Searching for a Transition State

   Optimization Cycle:   3

                       Coordinates (Angstroms)
     ATOM                X               Y               Z
      1  N         1.1327045490    0.0747570396   -0.1053458966
      2  H         1.1197330780    1.0779991135    0.0685680250
      3  H        -1.3284630495   -0.9332174822   -0.0750899404
      4  N        -0.1796008713   -0.3713508844   -0.0202605728
      5  H         1.6862496975   -0.4115739272    0.6474761048
      6  N        -1.1772916647    0.3216577489    0.0499475812
   Point Group: c1    Number of degrees of freedom:    12


   Energy is   -165.896140291

 Hessian Updated using Powell/Murtagh-Sargent Update
  Mixing factors:     0.982133 Powell
                      0.017867 Murtagh-Sargent

 12 Hessian modes will be used to form the next step
  Hessian Eigenvalues:
     0.005465    0.062262    0.124209    0.159577    0.159866    0.170944
     0.191034    0.214248    0.371731    0.452844    0.480185    0.801265
**WARNING** Hessian does not have the Desired Local Structure

 Transition State Search - Taking P-RFO Step
 Searching for Lamda that Maximizes Along the Lowest mode
 Value Taken    Lamda =   0.00994852
 Searching for Lamda that Minimizes Along All other modes
 Value Taken    Lamda =  -0.02733756
 Calculated Step too Large.  Step scaled by  0.195702
 Step Taken.  Stepsize is  0.300000

                             Maximum     Tolerance    Cnvgd?
         Gradient           0.042789      0.000015      NO
         Displacement       0.207069      0.000060      NO
         Energy change     -0.003005      0.000000      NO


 New Cartesian Coordinates Obtained by Inverse Iteration

 Displacement from previous Coordinates is:  0.197357
 ----------------------------------------------------------------
             Standard Nuclear Orientation (Angstroms)
    I     Atom           X                Y                Z
 ----------------------------------------------------------------
    1      N       1.1447884321     0.0663806659    -0.1085420725
    2      H       1.1312584853     1.0770533122     0.0372124291
    3      H      -1.3472812809    -0.9188584965    -0.1086784223
    4      N      -0.1731223362    -0.3834563116    -0.0490084532
    5      H       1.6654158533    -0.3850656165     0.6791792913
    6      N      -1.1677274146     0.3022180547     0.1151325288
 ----------------------------------------------------------------
 Molecular Point Group                 C1    NOp =  1
 Largest Abelian Subgroup              C1    NOp =  1
 Nuclear Repulsion Energy =    72.5288798219 hartrees
 There are       12 alpha and       12 beta electrons
 Applying Cartesian multipole field
    Component          Value
    ---------          -----
     (2,0,0)        1.00000E-11
     (0,2,0)        2.00000E-11
     (0,0,2)       -3.00000E-11
 Nucleus-field energy     =     0.0000000011 hartrees
 Requested basis set is 6-311++G(3df,3pd)
 There are 51 shells and 171 basis functions
 A cutoff of  1.0D-11 yielded   1307 shell pairs
 There are     14843 function pairs (     18775 Cartesian)
 Smallest overlap matrix eigenvalue = 6.20E-05
 Guess MOs from SCF MO coefficient file
 Reading MOs from coefficient file
 Reading MOs from coefficient file
 Long-range K will be added via erf
 Coulomb attenuation parameter = 0.25 bohr**(-1)
 A restricted hybrid HF-DFT SCF calculation will be
 performed using Pulay DIIS extrapolation
 Exchange:     0.1957 Hartree-Fock + 1.0000 wB97X-D3 + LR-HF
 Correlation:  1.0000 wB97X-D3
 Using SG-1 standard quadrature grid
 Dispersion:   Grimme D3
 SCF converges when DIIS error is below 1.0E-08
 Geometry optimization detected.  Setting ReadMinima to 0
 Setting SaveMinima to 0
 using 8 threads for integral computing 
 using 8 threads for integral computing 
 K construction time:  CPU 4.93 s  wall 0.62 s
 -------------------------------------------------------
 OpenMP BLAS3 based DFT computing Module                
 Release: version 1.0, May 2013, Q-Chem Inc. Pittsburgh 
 -------------------------------------------------------
 ---------------------------------------
  Cycle       Energy         DIIS Error
 ---------------------------------------
    1    -165.8964951530      1.91E-03
 K construction time:  CPU 4.67 s  wall 0.62 s
    2    -165.8982459687      3.27E-04
 K construction time:  CPU 4.80 s  wall 0.60 s
    3    -165.8990135061      2.17E-04
 K construction time:  CPU 4.76 s  wall 0.60 s
    4    -165.8991777500      1.44E-04
 K construction time:  CPU 4.73 s  wall 0.60 s
    5    -165.8992734258      4.45E-05
 K construction time:  CPU 4.58 s  wall 0.60 s
    6    -165.8993236241      1.74E-05
 K construction time:  CPU 4.68 s  wall 0.59 s
    7    -165.8993342450      7.87E-06
 K construction time:  CPU 4.64 s  wall 0.58 s
    8    -165.8993361076      1.84E-06
 K construction time:  CPU 4.50 s  wall 0.57 s
    9    -165.8993361934      8.84E-07
 K construction time:  CPU 4.37 s  wall 0.55 s
   10    -165.8993362010      2.78E-07
 K construction time:  CPU 4.23 s  wall 0.53 s
   11    -165.8993362016      1.16E-07
 K construction time:  CPU 4.06 s  wall 0.51 s
   12    -165.8993362017      4.28E-08
 K construction time:  CPU 3.64 s  wall 0.60 s
   13    -165.8993362017      1.27E-08
 K construction time:  CPU 3.77 s  wall 0.48 s
   14    -165.8993362017      3.70E-09 Convergence criterion met
 ---------------------------------------
 SCF time:  CPU 89.11 s  wall 11.60 s
 SCF   energy in the final basis set = -165.8993362017
 Total energy in the final basis set = -165.8993362017
 
 --------------------------------------------------------------
 
                    Orbital Energies (a.u.)
 --------------------------------------------------------------
 
 Alpha MOs
 -- Occupied --
-14.526 -14.472 -14.459  -1.214  -1.027  -0.732  -0.659  -0.591
 -0.553  -0.509  -0.388  -0.316
 -- Virtual --
  0.039   0.048   0.059   0.075   0.131   0.154   0.166   0.176
  0.186   0.195   0.211   0.222   0.234   0.249   0.253   0.273
  0.289   0.308   0.337   0.367   0.429   0.456   0.464   0.496
  0.508   0.549   0.573   0.595   0.609   0.636   0.698   0.710
  0.732   0.757   0.772   0.787   0.796   0.814   0.845   0.861
  0.869   0.887   0.908   0.942   0.969   0.975   1.027   1.074
  1.086   1.126   1.160   1.200   1.218   1.292   1.305   1.400
  1.560   1.736   1.829   1.840   1.892   1.929   1.971   2.040
  2.079   2.108   2.148   2.180   2.193   2.280   2.303   2.384
  2.416   2.480   2.537   2.618   2.665   2.726   2.857   2.911
  2.929   3.030   3.062   3.103   3.124   3.133   3.200   3.236
  3.261   3.284   3.309   3.376   3.424   3.482   3.502   3.646
  3.666   3.773   3.790   3.850   3.892   3.907   3.942   3.970
  4.032   4.041   4.091   4.141   4.172   4.298   4.363   4.379
  4.497   4.562   4.617   4.679   4.735   4.864   5.071   5.170
  5.208   5.235   5.300   5.372   5.414   5.596   5.748   5.794
  6.030   6.268   6.478   7.171   8.395   8.421   8.520   8.547
  8.644   8.865   9.340   9.382   9.624  10.226  10.285  10.346
 10.369  10.509  10.698  10.814  10.845  10.977  11.102  11.226
 11.308  11.328  11.763  12.236  36.031  36.946  37.011
 --------------------------------------------------------------
 
          Ground-State Mulliken Net Atomic Charges

     Atom                 Charge (a.u.)
  ----------------------------------------
      1 N                    -0.781779
      2 H                     0.310770
      3 H                     0.419399
      4 N                     0.225938
      5 H                     0.315067
      6 N                    -0.489396
  ----------------------------------------
  Sum of atomic charges =     0.000000

 -----------------------------------------------------------------
                    Cartesian Multipole Moments
 -----------------------------------------------------------------
    Charge (ESU x 10^10)
                 0.0000
    Dipole Moment (Debye)
         X       1.1190      Y      -0.6479      Z       1.0296
       Tot       1.6529
    Quadrupole Moments (Debye-Ang)
        XX     -18.3145     XY       3.0708     YY     -17.9195
        XZ       3.0481     YZ      -0.6406     ZZ     -18.9306
    Octopole Moments (Debye-Ang^2)
       XXX       5.5203    XXY      -3.7196    XYY       1.2884
       YYY       0.5076    XXZ       3.5921    XYZ      -1.0389
       YYZ      -0.1356    XZZ       0.5122    YZZ      -0.2964
       ZZZ       0.5345
    Hexadecapole Moments (Debye-Ang^3)
      XXXX    -135.6722   XXXY       4.0727   XXYY     -24.6433
      XYYY       5.8863   YYYY     -36.4333   XXXZ      11.1262
      XXYZ      -1.6006   XYYZ       1.7925   YYYZ      -1.2264
      XXZZ     -25.8674   XYZZ      -0.4772   YYZZ     -10.0134
      XZZZ       4.0388   YZZZ      -1.4061   ZZZZ     -21.8158
 -----------------------------------------------------------------
 Calculating analytic gradient of the SCF energy
 K construction time:  CPU 32.72 s  wall 4.18 s
 Gradient of SCF Energy
            1           2           3           4           5           6
    1  -0.0023737  -0.0046816   0.0410811  -0.0791369   0.0125955   0.0325155
    2  -0.0205400  -0.0047771  -0.0660717   0.0593092  -0.0070457   0.0391252
    3  -0.0223294  -0.0015988  -0.0142082  -0.0005023   0.0229002   0.0157385
 Max gradient component =       7.914E-02
 RMS gradient           =       3.381E-02
 Gradient time:  CPU 36.47 s  wall 4.89 s
 Geometry Optimization Parameters
   NAtoms,    NIC,     NZ,  NCons,   NDum,   NFix, NCnnct, MaxDiis
        6      32       0       0       0       0       0       0

 Cartesian Hessian Update
 Hessian Updated using Powell/Murtagh-Sargent Update
  Mixing factors:     0.900761 Powell
                      0.099239 Murtagh-Sargent


** GEOMETRY OPTIMIZATION IN DELOCALIZED INTERNAL COORDINATES **
   Searching for a Transition State

   Optimization Cycle:   4

                       Coordinates (Angstroms)
     ATOM                X               Y               Z
      1  N         1.1447884321    0.0663806659   -0.1085420725
      2  H         1.1312584853    1.0770533122    0.0372124291
      3  H        -1.3472812809   -0.9188584965   -0.1086784223
      4  N        -0.1731223362   -0.3834563116   -0.0490084532
      5  H         1.6654158533   -0.3850656165    0.6791792913
      6  N        -1.1677274146    0.3022180547    0.1151325288
   Point Group: c1    Number of degrees of freedom:    12


   Energy is   -165.899336202

 Hessian Updated using Powell/Murtagh-Sargent Update
  Mixing factors:     0.959984 Powell
                      0.040016 Murtagh-Sargent

 12 Hessian modes will be used to form the next step
  Hessian Eigenvalues:
    -0.000333    0.062147    0.124373    0.151780    0.159621    0.163115
     0.191346    0.214124    0.371819    0.452887    0.480187    0.801282

 Transition State Search - Taking P-RFO Step
 Searching for Lamda that Maximizes Along the Lowest mode
 Value Taken    Lamda =   0.01489797
 Searching for Lamda that Minimizes Along All other modes
 Value Taken    Lamda =  -0.03024023
 Calculated Step too Large.  Step scaled by  0.281158
 Step Taken.  Stepsize is  0.300000

                             Maximum     Tolerance    Cnvgd?
         Gradient           0.042316      0.000015      NO
         Displacement       0.215713      0.000060      NO
         Energy change     -0.003196      0.000000      NO


 New Cartesian Coordinates Obtained by Inverse Iteration

 Displacement from previous Coordinates is:  0.196036
 ----------------------------------------------------------------
             Standard Nuclear Orientation (Angstroms)
    I     Atom           X                Y                Z
 ----------------------------------------------------------------
    1      N       1.1346570596     0.0779587919    -0.0961282780
    2      H       1.1434172583     1.0871574444     0.0670355673
    3      H      -1.3428169837    -0.9245375704    -0.0775461041
    4      N      -0.1761000841    -0.3823386963    -0.0153105463
    5      H       1.6812969980    -0.4043642482     0.6384326642
    6      N      -1.1871225092     0.3043958867     0.0488119980
 ----------------------------------------------------------------
 Molecular Point Group                 C1    NOp =  1
 Largest Abelian Subgroup              C1    NOp =  1
 Nuclear Repulsion Energy =    72.4909098421 hartrees
 There are       12 alpha and       12 beta electrons
 Applying Cartesian multipole field
    Component          Value
    ---------          -----
     (2,0,0)        1.00000E-11
     (0,2,0)        2.00000E-11
     (0,0,2)       -3.00000E-11
 Nucleus-field energy     =     0.0000000011 hartrees
 Requested basis set is 6-311++G(3df,3pd)
 There are 51 shells and 171 basis functions
 A cutoff of  1.0D-11 yielded   1306 shell pairs
 There are     14838 function pairs (     18769 Cartesian)
 Smallest overlap matrix eigenvalue = 6.26E-05
 Guess MOs from SCF MO coefficient file
 Reading MOs from coefficient file
 Reading MOs from coefficient file
 Long-range K will be added via erf
 Coulomb attenuation parameter = 0.25 bohr**(-1)
 A restricted hybrid HF-DFT SCF calculation will be
 performed using Pulay DIIS extrapolation
 Exchange:     0.1957 Hartree-Fock + 1.0000 wB97X-D3 + LR-HF
 Correlation:  1.0000 wB97X-D3
 Using SG-1 standard quadrature grid
 Dispersion:   Grimme D3
 SCF converges when DIIS error is below 1.0E-08
 Geometry optimization detected.  Setting ReadMinima to 0
 Setting SaveMinima to 0
 using 8 threads for integral computing 
 using 8 threads for integral computing 
 K construction time:  CPU 4.91 s  wall 0.62 s
 -------------------------------------------------------
 OpenMP BLAS3 based DFT computing Module                
 Release: version 1.0, May 2013, Q-Chem Inc. Pittsburgh 
 -------------------------------------------------------
 ---------------------------------------
  Cycle       Energy         DIIS Error
 ---------------------------------------
    1    -165.8919387136      1.98E-03
 K construction time:  CPU 4.92 s  wall 0.62 s
    2    -165.9021236790      3.56E-04
 K construction time:  CPU 4.58 s  wall 0.61 s
    3    -165.9030111096      2.11E-04
 K construction time:  CPU 4.75 s  wall 0.60 s
    4    -165.9032086726      1.05E-04
 K construction time:  CPU 4.71 s  wall 0.59 s
    5    -165.9032822025      5.65E-05
 K construction time:  CPU 4.71 s  wall 0.59 s
    6    -165.9033242459      3.71E-05
 K construction time:  CPU 4.68 s  wall 0.59 s
    7    -165.9033400244      1.39E-05
 K construction time:  CPU 4.59 s  wall 0.59 s
    8    -165.9033444470      7.45E-06
 K construction time:  CPU 4.38 s  wall 0.58 s
    9    -165.9033453491      1.66E-06
 K construction time:  CPU 4.12 s  wall 0.57 s
   10    -165.9033454087      4.90E-07
 K construction time:  CPU 3.95 s  wall 0.55 s
   11    -165.9033454126      1.14E-07
 K construction time:  CPU 3.93 s  wall 0.52 s
   12    -165.9033454128      3.33E-08
 K construction time:  CPU 3.93 s  wall 0.50 s
   13    -165.9033454128      1.10E-08
 K construction time:  CPU 3.78 s  wall 0.48 s
   14    -165.9033454128      3.08E-09 Convergence criterion met
 ---------------------------------------
 SCF time:  CPU 88.70 s  wall 11.51 s
 SCF   energy in the final basis set = -165.9033454128
 Total energy in the final basis set = -165.9033454128
 
 --------------------------------------------------------------
 
                    Orbital Energies (a.u.)
 --------------------------------------------------------------
 
 Alpha MOs
 -- Occupied --
-14.526 -14.469 -14.460  -1.211  -1.028  -0.735  -0.661  -0.586
 -0.554  -0.510  -0.387  -0.317
 -- Virtual --
  0.040   0.048   0.060   0.074   0.133   0.155   0.167   0.176
  0.191   0.196   0.211   0.218   0.235   0.249   0.254   0.274
  0.286   0.308   0.334   0.365   0.432   0.457   0.471   0.496
  0.507   0.551   0.571   0.592   0.609   0.638   0.697   0.711
  0.729   0.761   0.776   0.785   0.795   0.818   0.848   0.854
  0.874   0.888   0.906   0.937   0.967   0.969   1.017   1.086
  1.091   1.121   1.158   1.198   1.231   1.291   1.301   1.406
  1.534   1.720   1.834   1.847   1.891   1.925   1.975   2.051
  2.077   2.111   2.153   2.170   2.201   2.272   2.310   2.400
  2.419   2.484   2.533   2.616   2.670   2.737   2.864   2.913
  2.931   3.039   3.061   3.091   3.126   3.139   3.195   3.249
  3.265   3.290   3.324   3.388   3.404   3.479   3.488   3.642
  3.684   3.777   3.808   3.856   3.901   3.903   3.962   3.972
  4.033   4.047   4.083   4.141   4.176   4.285   4.364   4.388
  4.494   4.566   4.635   4.675   4.747   4.856   5.064   5.199
  5.205   5.224   5.311   5.376   5.406   5.608   5.753   5.814
  6.041   6.263   6.499   7.181   8.392   8.430   8.512   8.552
  8.648   8.878   9.345   9.382   9.637  10.231  10.285  10.342
 10.375  10.514  10.713  10.809  10.849  10.980  11.109  11.228
 11.292  11.326  11.774  12.238  36.042  36.902  37.036
 --------------------------------------------------------------
 
          Ground-State Mulliken Net Atomic Charges

     Atom                 Charge (a.u.)
  ----------------------------------------
      1 N                    -0.747457
      2 H                     0.307082
      3 H                     0.412834
      4 N                     0.233616
      5 H                     0.307812
      6 N                    -0.513886
  ----------------------------------------
  Sum of atomic charges =     0.000000

 -----------------------------------------------------------------
                    Cartesian Multipole Moments
 -----------------------------------------------------------------
    Charge (ESU x 10^10)
                 0.0000
    Dipole Moment (Debye)
         X       1.3148      Y      -0.6630      Z       1.1019
       Tot       1.8391
    Quadrupole Moments (Debye-Ang)
        XX     -18.1653     XY       3.0351     YY     -17.7941
        XZ       2.7322     YZ      -0.3801     ZZ     -19.0097
    Octopole Moments (Debye-Ang^2)
       XXX       7.1013    XXY      -3.9592    XYY       1.6630
       YYY       0.3609    XXZ       3.8995    XYZ      -1.0133
       YYZ       0.1524    XZZ       0.6095    YZZ      -0.3243
       ZZZ       0.7795
    Hexadecapole Moments (Debye-Ang^3)
      XXXX    -135.5086   XXXY       3.6889   XXYY     -24.6307
      XYYY       5.9832   YYYY     -36.2915   XXXZ       8.9937
      XXYZ      -1.2656   XYYZ       1.1882   YYYZ      -0.2029
      XXZZ     -26.0753   XYZZ      -0.5135   YYZZ      -9.8669
      XZZZ       2.4546   YZZZ      -0.5659   ZZZZ     -21.1737
 -----------------------------------------------------------------
 Calculating analytic gradient of the SCF energy
 K construction time:  CPU 31.68 s  wall 4.12 s
 Gradient of SCF Energy
            1           2           3           4           5           6
    1   0.0028530  -0.0035726   0.0460331  -0.0808816   0.0096857   0.0258824
    2  -0.0216564  -0.0026601  -0.0657008   0.0496571  -0.0052829   0.0456431
    3  -0.0168569  -0.0000213  -0.0076939  -0.0049664   0.0165532   0.0129852
 Max gradient component =       8.088E-02
 RMS gradient           =       3.302E-02
 Gradient time:  CPU 36.51 s  wall 5.05 s
 Geometry Optimization Parameters
   NAtoms,    NIC,     NZ,  NCons,   NDum,   NFix, NCnnct, MaxDiis
        6      32       0       0       0       0       0       0

 Cartesian Hessian Update
 Hessian Updated using Powell/Murtagh-Sargent Update
  Mixing factors:     0.885202 Powell
                      0.114798 Murtagh-Sargent


** GEOMETRY OPTIMIZATION IN DELOCALIZED INTERNAL COORDINATES **
   Searching for a Transition State

   Optimization Cycle:   5

                       Coordinates (Angstroms)
     ATOM                X               Y               Z
      1  N         1.1346570596    0.0779587919   -0.0961282780
      2  H         1.1434172583    1.0871574444    0.0670355673
      3  H        -1.3428169837   -0.9245375704   -0.0775461041
      4  N        -0.1761000841   -0.3823386963   -0.0153105463
      5  H         1.6812969980   -0.4043642482    0.6384326642
      6  N        -1.1871225092    0.3043958867    0.0488119980
   Point Group: c1    Number of degrees of freedom:    12


   Energy is   -165.903345413

 Hessian Updated using Powell/Murtagh-Sargent Update
  Mixing factors:     0.937857 Powell
                      0.062143 Murtagh-Sargent

 12 Hessian modes will be used to form the next step
  Hessian Eigenvalues:
     0.003231    0.061490    0.119002    0.125769    0.159614    0.162011
     0.191598    0.214070    0.372200    0.452927    0.480203    0.801185
**WARNING** Hessian does not have the Desired Local Structure

 Transition State Search - Taking P-RFO Step
 Searching for Lamda that Maximizes Along the Lowest mode
 Value Taken    Lamda =   0.01531343
 Searching for Lamda that Minimizes Along All other modes
 Value Taken    Lamda =  -0.03561773
 Calculated Step too Large.  Step scaled by  0.245180
 Step Taken.  Stepsize is  0.300000

                             Maximum     Tolerance    Cnvgd?
         Gradient           0.039889      0.000015      NO
         Displacement       0.196187      0.000060      NO
         Energy change     -0.004009      0.000000      NO


 New Cartesian Coordinates Obtained by Inverse Iteration

 Displacement from previous Coordinates is:  0.191536
 ----------------------------------------------------------------
             Standard Nuclear Orientation (Angstroms)
    I     Atom           X                Y                Z
 ----------------------------------------------------------------
    1      N       1.1505050249     0.0709563419    -0.1015266728
    2      H       1.1504231859     1.0852649314     0.0418564983
    3      H      -1.3673959948    -0.9068630154    -0.1038450364
    4      N      -0.1665651442    -0.3952764165    -0.0494618064
    5      H       1.6620257722    -0.3779717883     0.6700239162
    6      N      -1.1756611051     0.2821615550     0.1082484023
 ----------------------------------------------------------------
 Molecular Point Group                 C1    NOp =  1
 Largest Abelian Subgroup              C1    NOp =  1
 Nuclear Repulsion Energy =    72.3651935460 hartrees
 There are       12 alpha and       12 beta electrons
 Applying Cartesian multipole field
    Component          Value
    ---------          -----
     (2,0,0)        1.00000E-11
     (0,2,0)        2.00000E-11
     (0,0,2)       -3.00000E-11
 Nucleus-field energy     =     0.0000000011 hartrees
 Requested basis set is 6-311++G(3df,3pd)
 There are 51 shells and 171 basis functions
 A cutoff of  1.0D-11 yielded   1305 shell pairs
 There are     14813 function pairs (     18739 Cartesian)
 Smallest overlap matrix eigenvalue = 6.43E-05
 Guess MOs from SCF MO coefficient file
 Reading MOs from coefficient file
 Reading MOs from coefficient file
 Long-range K will be added via erf
 Coulomb attenuation parameter = 0.25 bohr**(-1)
 A restricted hybrid HF-DFT SCF calculation will be
 performed using Pulay DIIS extrapolation
 Exchange:     0.1957 Hartree-Fock + 1.0000 wB97X-D3 + LR-HF
 Correlation:  1.0000 wB97X-D3
 Using SG-1 standard quadrature grid
 Dispersion:   Grimme D3
 SCF converges when DIIS error is below 1.0E-08
 Geometry optimization detected.  Setting ReadMinima to 0
 Setting SaveMinima to 0
 using 8 threads for integral computing 
 using 8 threads for integral computing 
 K construction time:  CPU 4.86 s  wall 0.65 s
 -------------------------------------------------------
 OpenMP BLAS3 based DFT computing Module                
 Release: version 1.0, May 2013, Q-Chem Inc. Pittsburgh 
 -------------------------------------------------------
 ---------------------------------------
  Cycle       Energy         DIIS Error
 ---------------------------------------
    1    -165.9060328411      1.90E-03
 K construction time:  CPU 5.02 s  wall 0.63 s
    2    -165.9071844506      3.34E-04
 K construction time:  CPU 4.78 s  wall 0.60 s
    3    -165.9079647784      2.26E-04
 K construction time:  CPU 4.59 s  wall 0.60 s
    4    -165.9081396269      1.45E-04
 K construction time:  CPU 4.34 s  wall 0.60 s
    5    -165.9082367922      4.45E-05
 K construction time:  CPU 4.74 s  wall 0.60 s
    6    -165.9082859014      1.73E-05
 K construction time:  CPU 4.67 s  wall 0.59 s
    7    -165.9082956532      7.66E-06
 K construction time:  CPU 4.62 s  wall 0.58 s
    8    -165.9082973568      2.29E-06
 K construction time:  CPU 4.39 s  wall 0.56 s
    9    -165.9082974347      1.04E-06
 K construction time:  CPU 4.29 s  wall 0.55 s
   10    -165.9082974504      3.78E-07
 K construction time:  CPU 4.17 s  wall 0.53 s
   11    -165.9082974514      1.62E-07
 K construction time:  CPU 4.12 s  wall 0.52 s
   12    -165.9082974516      3.31E-08
 K construction time:  CPU 3.92 s  wall 0.49 s
   13    -165.9082974517      1.11E-08
 K construction time:  CPU 3.44 s  wall 0.47 s
   14    -165.9082974517      3.21E-09 Convergence criterion met
 ---------------------------------------
 SCF time:  CPU 87.75 s  wall 11.52 s
 SCF   energy in the final basis set = -165.9082974517
 Total energy in the final basis set = -165.9082974517
 
 --------------------------------------------------------------
 
                    Orbital Energies (a.u.)
 --------------------------------------------------------------
 
 Alpha MOs
 -- Occupied --
-14.524 -14.474 -14.458  -1.211  -1.027  -0.735  -0.656  -0.589
 -0.554  -0.509  -0.388  -0.322
 -- Virtual --
  0.039   0.047   0.061   0.075   0.134   0.155   0.167   0.179
  0.188   0.195   0.212   0.222   0.235   0.249   0.255   0.274
  0.289   0.307   0.337   0.365   0.430   0.457   0.465   0.497
  0.507   0.547   0.572   0.596   0.611   0.642   0.698   0.708
  0.734   0.759   0.776   0.787   0.797   0.810   0.845   0.862
  0.871   0.888   0.909   0.942   0.966   0.975   1.026   1.076
  1.084   1.126   1.156   1.202   1.215   1.288   1.301   1.398
  1.553   1.728   1.834   1.839   1.894   1.928   1.969   2.041
  2.086   2.109   2.160   2.177   2.198   2.286   2.313   2.388
  2.418   2.490   2.541   2.612   2.661   2.743   2.862   2.913
  2.932   3.031   3.060   3.097   3.117   3.131   3.190   3.240
  3.280   3.305   3.316   3.387   3.416   3.471   3.492   3.655
  3.671   3.774   3.813   3.857   3.903   3.908   3.943   3.967
  4.012   4.050   4.101   4.152   4.177   4.299   4.369   4.374
  4.493   4.585   4.650   4.673   4.783   4.848   5.072   5.190
  5.208   5.242   5.292   5.360   5.412   5.583   5.737   5.830
  6.018   6.248   6.486   7.142   8.395   8.424   8.514   8.558
  8.646   8.873   9.344   9.376   9.631  10.222  10.281  10.340
 10.386  10.514  10.701  10.815  10.844  10.979  11.098  11.240
 11.284  11.332  11.776  12.233  36.055  36.883  37.047
 --------------------------------------------------------------
 
          Ground-State Mulliken Net Atomic Charges

     Atom                 Charge (a.u.)
  ----------------------------------------
      1 N                    -0.765912
      2 H                     0.308473
      3 H                     0.413546
      4 N                     0.209822
      5 H                     0.315881
      6 N                    -0.481810
  ----------------------------------------
  Sum of atomic charges =     0.000000

 -----------------------------------------------------------------
                    Cartesian Multipole Moments
 -----------------------------------------------------------------
    Charge (ESU x 10^10)
                 0.0000
    Dipole Moment (Debye)
         X       1.1017      Y      -0.5193      Z       1.0414
       Tot       1.6025
    Quadrupole Moments (Debye-Ang)
        XX     -18.1554     XY       3.0465     YY     -17.8931
        XZ       2.9844     YZ      -0.6189     ZZ     -18.9195
    Octopole Moments (Debye-Ang^2)
       XXX       5.2402    XXY      -3.4579    XYY       1.3516
       YYY       1.2949    XXZ       3.6191    XYZ      -1.0083
       YYZ      -0.0846    XZZ       0.4893    YZZ      -0.1345
       ZZZ       0.5381
    Hexadecapole Moments (Debye-Ang^3)
      XXXX    -135.7795   XXXY       3.7399   XXYY     -24.6799
      XYYY       5.2612   YYYY     -35.9343   XXXZ      10.7911
      XXYZ      -1.5404   XYYZ       1.6777   YYYZ      -1.1458
      XXZZ     -25.9957   XYZZ      -0.6389   YYZZ      -9.9077
      XZZZ       3.7944   YZZZ      -1.3331   ZZZZ     -21.5814
 -----------------------------------------------------------------
 Calculating analytic gradient of the SCF energy
 K construction time:  CPU 32.26 s  wall 4.13 s
 Gradient of SCF Energy
            1           2           3           4           5           6
    1   0.0080892  -0.0029505   0.0499416  -0.0832138   0.0057580   0.0223756
    2  -0.0275054  -0.0012290  -0.0668732   0.0458970  -0.0011065   0.0508171
    3  -0.0140069  -0.0011278  -0.0146677  -0.0024957   0.0137569   0.0185412
 Max gradient component =       8.321E-02
 RMS gradient           =       3.407E-02
 Gradient time:  CPU 36.25 s  wall 4.89 s
 Geometry Optimization Parameters
   NAtoms,    NIC,     NZ,  NCons,   NDum,   NFix, NCnnct, MaxDiis
        6      32       0       0       0       0       0       0

 Cartesian Hessian Update
 Hessian Updated using Powell/Murtagh-Sargent Update
  Mixing factors:     0.874390 Powell
                      0.125610 Murtagh-Sargent


** GEOMETRY OPTIMIZATION IN DELOCALIZED INTERNAL COORDINATES **
   Searching for a Transition State

   Optimization Cycle:   6

                       Coordinates (Angstroms)
     ATOM                X               Y               Z
      1  N         1.1505050249    0.0709563419   -0.1015266728
      2  H         1.1504231859    1.0852649314    0.0418564983
      3  H        -1.3673959948   -0.9068630154   -0.1038450364
      4  N        -0.1665651442   -0.3952764165   -0.0494618064
      5  H         1.6620257722   -0.3779717883    0.6700239162
      6  N        -1.1756611051    0.2821615550    0.1082484023
   Point Group: c1    Number of degrees of freedom:    12


   Energy is   -165.908297452

 Hessian Updated using Powell/Murtagh-Sargent Update
  Mixing factors:     0.897496 Powell
                      0.102504 Murtagh-Sargent

 12 Hessian modes will be used to form the next step
  Hessian Eigenvalues:
    -0.005554    0.059982    0.090891    0.124816    0.159615    0.161849
     0.191739    0.214050    0.372533    0.452934    0.480179    0.801251

 Transition State Search - Taking P-RFO Step
 Searching for Lamda that Maximizes Along the Lowest mode
 Value Taken    Lamda =   0.02771272
 Searching for Lamda that Minimizes Along All other modes
 Value Taken    Lamda =  -0.04188428
 Calculated Step too Large.  Step scaled by  0.278888
 Step Taken.  Stepsize is  0.300000

                             Maximum     Tolerance    Cnvgd?
         Gradient           0.041781      0.000015      NO
         Displacement       0.202646      0.000060      NO
         Energy change     -0.004952      0.000000      NO


 New Cartesian Coordinates Obtained by Inverse Iteration

 Displacement from previous Coordinates is:  0.189160
 ----------------------------------------------------------------
             Standard Nuclear Orientation (Angstroms)
    I     Atom           X                Y                Z
 ----------------------------------------------------------------
    1      N       1.1390857428     0.0811278173    -0.0884949664
    2      H       1.1575959690     1.0931538126     0.0674442810
    3      H      -1.3637349082    -0.9105776942    -0.0783988900
    4      N      -0.1685131554    -0.3924841389    -0.0109172556
    5      H       1.6825710484    -0.3969963338     0.6309530507
    6      N      -1.1936729577     0.2840481451     0.0447090816
 ----------------------------------------------------------------
 Molecular Point Group                 C1    NOp =  1
 Largest Abelian Subgroup              C1    NOp =  1
 Nuclear Repulsion Energy =    72.3911964206 hartrees
 There are       12 alpha and       12 beta electrons
 Applying Cartesian multipole field
    Component          Value
    ---------          -----
     (2,0,0)        1.00000E-11
     (0,2,0)        2.00000E-11
     (0,0,2)       -3.00000E-11
 Nucleus-field energy     =     0.0000000011 hartrees
 Requested basis set is 6-311++G(3df,3pd)
 There are 51 shells and 171 basis functions
 A cutoff of  1.0D-11 yielded   1304 shell pairs
 There are     14808 function pairs (     18733 Cartesian)
 Smallest overlap matrix eigenvalue = 6.44E-05
 Guess MOs from SCF MO coefficient file
 Reading MOs from coefficient file
 Reading MOs from coefficient file
 Long-range K will be added via erf
 Coulomb attenuation parameter = 0.25 bohr**(-1)
 A restricted hybrid HF-DFT SCF calculation will be
 performed using Pulay DIIS extrapolation
 Exchange:     0.1957 Hartree-Fock + 1.0000 wB97X-D3 + LR-HF
 Correlation:  1.0000 wB97X-D3
 Using SG-1 standard quadrature grid
 Dispersion:   Grimme D3
 SCF converges when DIIS error is below 1.0E-08
 Geometry optimization detected.  Setting ReadMinima to 0
 Setting SaveMinima to 0
 using 8 threads for integral computing 
 using 8 threads for integral computing 
 K construction time:  CPU 4.92 s  wall 0.62 s
 -------------------------------------------------------
 OpenMP BLAS3 based DFT computing Module                
 Release: version 1.0, May 2013, Q-Chem Inc. Pittsburgh 
 -------------------------------------------------------
 ---------------------------------------
  Cycle       Energy         DIIS Error
 ---------------------------------------
    1    -165.9003797273      1.98E-03
 K construction time:  CPU 4.80 s  wall 0.62 s
    2    -165.9108172682      3.60E-04
 K construction time:  CPU 4.78 s  wall 0.60 s
    3    -165.9117383617      2.10E-04
 K construction time:  CPU 4.74 s  wall 0.60 s
    4    -165.9119413693      9.72E-05
 K construction time:  CPU 4.72 s  wall 0.60 s
    5    -165.9120132754      5.42E-05
 K construction time:  CPU 4.70 s  wall 0.59 s
    6    -165.9120531626      3.69E-05
 K construction time:  CPU 4.36 s  wall 0.59 s
    7    -165.9120673813      1.41E-05
 K construction time:  CPU 4.62 s  wall 0.58 s
    8    -165.9120712250      7.52E-06
 K construction time:  CPU 4.59 s  wall 0.58 s
    9    -165.9120720573      1.53E-06
 K construction time:  CPU 4.47 s  wall 0.56 s
   10    -165.9120721051      4.59E-07
 K construction time:  CPU 4.30 s  wall 0.54 s
   11    -165.9120721085      1.08E-07
 K construction time:  CPU 4.14 s  wall 0.52 s
   12    -165.9120721086      2.97E-08
 K construction time:  CPU 3.70 s  wall 0.49 s
   13    -165.9120721087      9.19E-09 Convergence criterion met
 ---------------------------------------
 SCF time:  CPU 84.16 s  wall 10.78 s
 SCF   energy in the final basis set = -165.9120721087
 Total energy in the final basis set = -165.9120721087
 
 --------------------------------------------------------------
 
                    Orbital Energies (a.u.)
 --------------------------------------------------------------
 
 Alpha MOs
 -- Occupied --
-14.524 -14.471 -14.460  -1.208  -1.029  -0.737  -0.659  -0.585
 -0.554  -0.511  -0.387  -0.322
 -- Virtual --
  0.041   0.048   0.062   0.074   0.136   0.156   0.168   0.179
  0.193   0.197   0.212   0.218   0.236   0.249   0.255   0.275
  0.286   0.308   0.334   0.362   0.435   0.457   0.472   0.495
  0.508   0.550   0.570   0.593   0.610   0.645   0.698   0.710
  0.730   0.763   0.780   0.785   0.796   0.815   0.847   0.855
  0.874   0.889   0.908   0.938   0.967   0.968   1.016   1.086
  1.090   1.121   1.156   1.201   1.231   1.287   1.297   1.402
  1.529   1.714   1.835   1.850   1.894   1.926   1.973   2.050
  2.083   2.113   2.163   2.168   2.207   2.275   2.321   2.404
  2.421   2.495   2.536   2.611   2.668   2.755   2.869   2.915
  2.934   3.034   3.064   3.085   3.118   3.137   3.185   3.251
  3.283   3.314   3.333   3.397   3.399   3.471   3.481   3.649
  3.690   3.779   3.822   3.871   3.902   3.910   3.961   3.969
  4.018   4.055   4.096   4.151   4.187   4.285   4.367   4.389
  4.490   4.591   4.663   4.672   4.801   4.843   5.065   5.200
  5.207   5.235   5.307   5.366   5.413   5.601   5.746   5.844
  6.034   6.247   6.505   7.161   8.391   8.432   8.507   8.562
  8.650   8.883   9.346   9.385   9.639  10.228  10.283  10.336
 10.395  10.519  10.715  10.811  10.847  10.983  11.106  11.243
 11.257  11.351  11.784  12.238  36.071  36.850  37.066
 --------------------------------------------------------------
 
          Ground-State Mulliken Net Atomic Charges

     Atom                 Charge (a.u.)
  ----------------------------------------
      1 N                    -0.730614
      2 H                     0.304921
      3 H                     0.406264
      4 N                     0.218620
      5 H                     0.307936
      6 N                    -0.507127
  ----------------------------------------
  Sum of atomic charges =     0.000000

 -----------------------------------------------------------------
                    Cartesian Multipole Moments
 -----------------------------------------------------------------
    Charge (ESU x 10^10)
                 0.0000
    Dipole Moment (Debye)
         X       1.3200      Y      -0.5357      Z       1.0902
       Tot       1.7939
    Quadrupole Moments (Debye-Ang)
        XX     -17.9630     XY       3.0020     YY     -17.7911
        XZ       2.6827     YZ      -0.3539     ZZ     -18.9972
    Octopole Moments (Debye-Ang^2)
       XXX       6.8995    XXY      -3.7319    XYY       1.7176
       YYY       1.1404    XXZ       3.8545    XYZ      -1.0103
       YYZ       0.1158    XZZ       0.6026    YZZ      -0.1714
       ZZZ       0.6536
    Hexadecapole Moments (Debye-Ang^3)
      XXXX    -135.1133   XXXY       3.3613   XXYY     -24.6521
      XYYY       5.3687   YYYY     -35.7883   XXXZ       8.7276
      XXYZ      -1.2082   XYYZ       1.0959   YYYZ      -0.1265
      XXZZ     -26.1481   XYZZ      -0.6537   YYZZ      -9.7691
      XZZZ       2.2313   YZZZ      -0.4999   ZZZZ     -21.0039
 -----------------------------------------------------------------
 Calculating analytic gradient of the SCF energy
 K construction time:  CPU 32.25 s  wall 4.10 s
 Gradient of SCF Energy
            1           2           3           4           5           6
    1   0.0123883  -0.0026319   0.0545171  -0.0846688   0.0037382   0.0166571
    2  -0.0282361  -0.0004591  -0.0662268   0.0394201   0.0001288   0.0553731
    3  -0.0102989   0.0002229  -0.0080806  -0.0058901   0.0092275   0.0148193
 Max gradient component =       8.467E-02
 RMS gradient           =       3.408E-02
 Gradient time:  CPU 36.39 s  wall 4.81 s
 Geometry Optimization Parameters
   NAtoms,    NIC,     NZ,  NCons,   NDum,   NFix, NCnnct, MaxDiis
        6      32       0       0       0       0       0       0

 Cartesian Hessian Update
 Hessian Updated using Powell/Murtagh-Sargent Update
  Mixing factors:     0.893627 Powell
                      0.106373 Murtagh-Sargent


** GEOMETRY OPTIMIZATION IN DELOCALIZED INTERNAL COORDINATES **
   Searching for a Transition State

   Optimization Cycle:   7

                       Coordinates (Angstroms)
     ATOM                X               Y               Z
      1  N         1.1390857428    0.0811278173   -0.0884949664
      2  H         1.1575959690    1.0931538126    0.0674442810
      3  H        -1.3637349082   -0.9105776942   -0.0783988900
      4  N        -0.1685131554   -0.3924841389   -0.0109172556
      5  H         1.6825710484   -0.3969963338    0.6309530507
      6  N        -1.1936729577    0.2840481451    0.0447090816
   Point Group: c1    Number of degrees of freedom:    12


   Energy is   -165.912072109

 Hessian Updated using Powell/Murtagh-Sargent Update
  Mixing factors:     0.898235 Powell
                      0.101765 Murtagh-Sargent

 12 Hessian modes will be used to form the next step
  Hessian Eigenvalues:
     0.002017    0.044883    0.067851    0.124876    0.159614    0.161765
     0.191704    0.214029    0.372662    0.452934    0.479901    0.801280
**WARNING** Hessian does not have the Desired Local Structure

 Transition State Search - Taking P-RFO Step
 Searching for Lamda that Maximizes Along the Lowest mode
 Value Taken    Lamda =   0.02005307
 Searching for Lamda that Minimizes Along All other modes
 Value Taken    Lamda =  -0.05728224
 Calculated Step too Large.  Step scaled by  0.233326
 Step Taken.  Stepsize is  0.300000

                             Maximum     Tolerance    Cnvgd?
         Gradient           0.044139      0.000015      NO
         Displacement       0.183762      0.000060      NO
         Energy change     -0.003775      0.000000      NO


 New Cartesian Coordinates Obtained by Inverse Iteration

 Displacement from previous Coordinates is:  0.188807
 ----------------------------------------------------------------
             Standard Nuclear Orientation (Angstroms)
    I     Atom           X                Y                Z
 ----------------------------------------------------------------
    1      N       1.1573771615     0.0769454158    -0.0945227844
    2      H       1.1610249855     1.0921289366     0.0480021098
    3      H      -1.3983343025    -0.8874105820    -0.0975328868
    4      N      -0.1542834638    -0.4068894606    -0.0481067885
    5      H       1.6688352680    -0.3723090560     0.6614572940
    6      N      -1.1812879097     0.2558063545     0.0959983572
 ----------------------------------------------------------------
 Molecular Point Group                 C1    NOp =  1
 Largest Abelian Subgroup              C1    NOp =  1
 Nuclear Repulsion Energy =    72.2801723527 hartrees
 There are       12 alpha and       12 beta electrons
 Applying Cartesian multipole field
    Component          Value
    ---------          -----
     (2,0,0)        1.00000E-11
     (0,2,0)        2.00000E-11
     (0,0,2)       -3.00000E-11
 Nucleus-field energy     =     0.0000000011 hartrees
 Requested basis set is 6-311++G(3df,3pd)
 There are 51 shells and 171 basis functions
 A cutoff of  1.0D-11 yielded   1304 shell pairs
 There are     14808 function pairs (     18733 Cartesian)
 Smallest overlap matrix eigenvalue = 6.58E-05
 Guess MOs from SCF MO coefficient file
 Reading MOs from coefficient file
 Reading MOs from coefficient file
 Long-range K will be added via erf
 Coulomb attenuation parameter = 0.25 bohr**(-1)
 A restricted hybrid HF-DFT SCF calculation will be
 performed using Pulay DIIS extrapolation
 Exchange:     0.1957 Hartree-Fock + 1.0000 wB97X-D3 + LR-HF
 Correlation:  1.0000 wB97X-D3
 Using SG-1 standard quadrature grid
 Dispersion:   Grimme D3
 SCF converges when DIIS error is below 1.0E-08
 Geometry optimization detected.  Setting ReadMinima to 0
 Setting SaveMinima to 0
 using 8 threads for integral computing 
 using 8 threads for integral computing 
 K construction time:  CPU 4.90 s  wall 0.62 s
 -------------------------------------------------------
 OpenMP BLAS3 based DFT computing Module                
 Release: version 1.0, May 2013, Q-Chem Inc. Pittsburgh 
 -------------------------------------------------------
 ---------------------------------------
  Cycle       Energy         DIIS Error
 ---------------------------------------
    1    -165.9226792103      1.88E-03
 K construction time:  CPU 4.92 s  wall 0.62 s
    2    -165.9198169397      3.42E-04
 K construction time:  CPU 4.78 s  wall 0.60 s
    3    -165.9206067507      2.20E-04
 K construction time:  CPU 4.48 s  wall 0.60 s
    4    -165.9207779103      1.40E-04
 K construction time:  CPU 4.69 s  wall 0.59 s
    5    -165.9208665445      4.51E-05
 K construction time:  CPU 4.42 s  wall 0.59 s
    6    -165.9209104289      1.98E-05
 K construction time:  CPU 4.63 s  wall 0.58 s
    7    -165.9209187823      1.13E-05
 K construction time:  CPU 4.61 s  wall 0.58 s
    8    -165.9209209578      4.71E-06
 K construction time:  CPU 4.54 s  wall 0.57 s
    9    -165.9209212653      1.31E-06
 K construction time:  CPU 4.41 s  wall 0.56 s
   10    -165.9209212910      5.69E-07
 K construction time:  CPU 4.29 s  wall 0.54 s
   11    -165.9209212951      1.10E-07
 K construction time:  CPU 4.14 s  wall 0.52 s
   12    -165.9209212954      2.66E-08
 K construction time:  CPU 3.50 s  wall 0.49 s
   13    -165.9209212954      8.35E-09 Convergence criterion met
 ---------------------------------------
 SCF time:  CPU 84.51 s  wall 10.91 s
 SCF   energy in the final basis set = -165.9209212954
 Total energy in the final basis set = -165.9209212954
 
 --------------------------------------------------------------
 
                    Orbital Energies (a.u.)
 --------------------------------------------------------------
 
 Alpha MOs
 -- Occupied --
-14.522 -14.476 -14.459  -1.207  -1.028  -0.739  -0.654  -0.585
 -0.556  -0.511  -0.388  -0.327
 -- Virtual --
  0.040   0.047   0.062   0.074   0.139   0.155   0.168   0.184
  0.190   0.196   0.212   0.222   0.236   0.249   0.256   0.275
  0.290   0.307   0.338   0.362   0.433   0.457   0.468   0.497
  0.507   0.546   0.570   0.595   0.612   0.651   0.701   0.707
  0.735   0.762   0.782   0.787   0.800   0.808   0.845   0.863
  0.872   0.890   0.910   0.943   0.965   0.975   1.024   1.079
  1.081   1.125   1.153   1.206   1.216   1.276   1.297   1.395
  1.547   1.717   1.825   1.846   1.897   1.931   1.968   2.043
  2.094   2.108   2.166   2.176   2.203   2.291   2.327   2.393
  2.419   2.507   2.538   2.614   2.659   2.768   2.867   2.916
  2.938   3.022   3.065   3.081   3.108   3.131   3.169   3.243
  3.295   3.324   3.358   3.402   3.417   3.465   3.481   3.656
  3.677   3.775   3.830   3.859   3.905   3.915   3.944   3.957
  3.985   4.062   4.122   4.164   4.213   4.302   4.369   4.378
[...]
 Integral Job Info:
 Integral job number is                      11
 Integral operator is                         1
 short-range coefficients              19572800
 long-range coefficients              100000000
 Omega coefficients                         250
 if combine SR and LR in K                    1
 Integral screening is                        0
 Integral computing path is                   2
 max size of driver memory is            800000
 size of driver memory is                776718
 size of scratch memory is              3095872
 max col of scratch BK array              10000
 max len of scratch array in speh3          662
 max len of scratch index in speh4           32
 max int batch size is                      520
 min int batch size is                       52
 fixed nKL is                                52
 max L of basis functions is                  3
 order of int derivative is                   0
 number of shells is                         51
 number of basis is                         192
 number of cartesian basis is               192
 number of contracted shell pairs          1309
 number of primitive shell pairs           2719
 maxK2 (contraction) of shell pair           36
 max number of K2 of shell pair               1
 max number of CS2 of shell pair            118
 max number of PS2 of shell pair            198
 mem total for path MDJ                   51772
 -------------------------------------------------------
 Smallest overlap matrix eigenvalue = 8.63E-05
 Guess MOs from SCF MO coefficient file
 Reading MOs from coefficient file
 Reading MOs from coefficient file
 Long-range K will be added via erf
 Coulomb attenuation parameter = 0.25 bohr**(-1)
 A restricted hybrid HF-DFT SCF calculation will be
 performed using Pulay DIIS extrapolation
 Exchange:     0.1957 Hartree-Fock + 1.0000 wB97X-D3 + LR-HF
 Correlation:  1.0000 wB97X-D3
 Using SG-1 standard quadrature grid
 Dispersion:   Grimme D3
 SCF converges when DIIS error is below 1.0E-08
 using 8 threads for integral computing 
 using 8 threads for integral computing 
 K construction time:  CPU 4.65 s  wall 0.62 s
 -------------------------------------------------------
 OpenMP BLAS3 based DFT computing Module                
 Release: version 1.0, May 2013, Q-Chem Inc. Pittsburgh 
 -------------------------------------------------------
 ---------------------------------------
  Cycle       Energy         DIIS Error
 ---------------------------------------
    1    -165.8788830792      2.33E-03
 K construction time:  CPU 4.92 s  wall 0.62 s
    2    -165.8858874494      3.29E-04
 K construction time:  CPU 4.84 s  wall 0.61 s
    3    -165.8866643636      1.66E-04
 K construction time:  CPU 4.74 s  wall 0.60 s
    4    -165.8868053080      7.98E-05
 K construction time:  CPU 4.39 s  wall 0.60 s
    5    -165.8868662191      4.06E-05
 K construction time:  CPU 4.74 s  wall 0.60 s
    6    -165.8869036463      2.07E-05
 K construction time:  CPU 4.69 s  wall 0.59 s
    7    -165.8869183669      1.39E-05
 K construction time:  CPU 4.46 s  wall 0.59 s
    8    -165.8869244266      8.48E-06
 K construction time:  CPU 4.16 s  wall 0.58 s
    9    -165.8869252052      3.00E-06
 K construction time:  CPU 4.56 s  wall 0.57 s
   10    -165.8869253921      6.70E-07
 K construction time:  CPU 4.41 s  wall 0.56 s
   11    -165.8869254010      2.06E-07
 K construction time:  CPU 4.29 s  wall 0.54 s
   12    -165.8869254019      6.39E-08
 K construction time:  CPU 4.11 s  wall 0.52 s
   13    -165.8869254020      2.22E-08
 K construction time:  CPU 3.88 s  wall 0.50 s
   14    -165.8869254020      6.64E-09 Convergence criterion met
 ---------------------------------------
 SCF time:  CPU 89.84 s  wall 11.68 s
 SCF   energy in the final basis set = -165.8869254020
 Total energy in the final basis set = -165.8869254020
 
 --------------------------------------------------------------
 
                    Orbital Energies (a.u.)
 --------------------------------------------------------------
 
 Alpha MOs
 -- Occupied --
-14.547 -14.464 -14.447  -1.211  -1.025  -0.740  -0.684  -0.613
 -0.554  -0.488  -0.388  -0.306
 -- Virtual --
  0.031   0.044   0.059   0.075   0.143   0.158   0.166   0.170
  0.197   0.200   0.211   0.217   0.233   0.252   0.253   0.268
  0.276   0.300   0.311   0.345   0.428   0.475   0.493   0.507
  0.525   0.552   0.569   0.578   0.599   0.616   0.702   0.710
  0.721   0.747   0.779   0.780   0.806   0.830   0.846   0.858
  0.874   0.878   0.912   0.946   0.960   0.997   1.005   1.073
  1.081   1.117   1.156   1.184   1.259   1.309   1.337   1.374
  1.481   1.686   1.796   1.847   1.891   1.956   2.026   2.040
  2.092   2.127   2.153   2.167   2.197   2.243   2.307   2.429
  2.453   2.461   2.520   2.613   2.683   2.754   2.819   2.893
  2.967   3.020   3.050   3.054   3.100   3.165   3.206   3.232
  3.283   3.314   3.345   3.383   3.514   3.575   3.620   3.665
  3.671   3.725   3.776   3.843   3.862   3.927   3.979   4.002
  4.053   4.084   4.101   4.180   4.236   4.298   4.370   4.452
  4.489   4.527   4.656   4.683   4.800   4.912   5.057   5.094
  5.231   5.287   5.315   5.401   5.444   5.560   5.697   5.753
  5.978   6.274   6.620   7.037   8.378   8.497   8.498   8.554
  8.652   8.828   9.338   9.426   9.488  10.234  10.286  10.336
 10.489  10.537  10.731  10.765  10.882  10.977  11.060  11.134
 11.239  11.457  11.746  12.270  36.137  36.710  37.095
 --------------------------------------------------------------
 
          Ground-State Mulliken Net Atomic Charges

     Atom                 Charge (a.u.)
  ----------------------------------------
      1 N                    -0.647295
      2 H                     0.322234
      3 H                     0.412481
      4 N                     0.188869
      5 H                     0.296048
      6 N                    -0.572338
  ----------------------------------------
  Sum of atomic charges =     0.000000

 -----------------------------------------------------------------
                    Cartesian Multipole Moments
 -----------------------------------------------------------------
    Charge (ESU x 10^10)
                 0.0000
    Dipole Moment (Debye)
         X       2.0006      Y      -1.0951      Z       0.6044
       Tot       2.3595
    Quadrupole Moments (Debye-Ang)
        XX     -19.0290     XY       2.7967     YY     -17.6275
        XZ       2.9577     YZ       0.5452     ZZ     -19.0126
    Octopole Moments (Debye-Ang^2)
       XXX      11.2932    XXY      -3.4022    XYY       2.2569
       YYY      -1.3202    XXZ       3.0575    XYZ      -1.5891
       YYZ      -0.3595    XZZ      -0.3052    YZZ      -0.7476
       ZZZ       0.9542
    Hexadecapole Moments (Debye-Ang^3)
      XXXX    -132.8394   XXXY       2.3085   XXYY     -24.8760
      XYYY       7.1152   YYYY     -38.2941   XXXZ       9.0743
      XXYZ      -0.1138   XYYZ       1.6661   YYYZ       1.0733
      XXZZ     -25.6957   XYZZ       0.1731   YYZZ      -9.9843
      XZZZ       2.7149   YZZZ       0.2359   ZZZZ     -21.4782
 -----------------------------------------------------------------
 Calculating MO derivatives via CPSCF
   1         3          18      0.292856    0.043491
   2         3          18      0.058718    0.009983
   3         3          18      0.010503    0.001972
   4         3          18      0.002284    0.000458
   5         3          18      0.000337    0.000066
   6         8          13      0.000043    0.000008
   7        21           0      0.000000    0.000000    Roots Converged
 Calculating analytic Hessian of the SCF energy
 Polarizability Matrix (a.u.)
            1           2           3
    1 -43.2626444   0.8867845  -0.4397889
    2   0.8867845 -29.6163487  -0.5233010
    3  -0.4397889  -0.5233010 -21.8468779
 Running MAKENN_D3_FD2ND
 K construction time:  CPU 232.04 s  wall 232.08 s
 
 Direct stationary perturbation theory relativistic correction:
 
 rels  =       0.051697191174
 relv  =      -0.212599462818
 rel2e =       0.000000000000
 E_rel =      -0.160902271644
 
 Hessian of the SCF Energy
            1           2           3           4           5           6
    1   0.4917746  -0.1119326   0.1773383  -0.0652734   0.0276885  -0.0174162
    2  -0.1119326   0.6601069  -0.0790905   0.0360686  -0.3967515  -0.0866547
    3   0.1773383  -0.0790905   0.2275961  -0.0103916  -0.0438693  -0.0295645
    4  -0.0652734   0.0360686  -0.0103916   0.0611744  -0.0141186   0.0064693
    5   0.0276885  -0.3967515  -0.0438693  -0.0141186   0.4237250   0.0528776
    6  -0.0174162  -0.0866547  -0.0295645   0.0064693   0.0528776   0.0290418
    7  -0.0291343   0.0285929   0.0151649   0.0098433   0.0078003  -0.0037359
    8   0.0135060  -0.0171469  -0.0104769  -0.0063398  -0.0013514  -0.0005288
    9  -0.0105360   0.0102252   0.0061268   0.0029060   0.0019527  -0.0012462
   10  -0.0987713  -0.0851963  -0.0289873  -0.0175995  -0.0181376   0.0155774
   11  -0.0243458  -0.1709400   0.0021247  -0.0546881  -0.0297394   0.0109760
   12   0.0493469   0.0159349  -0.0389658  -0.0113194  -0.0042826   0.0086666
   13  -0.1933065   0.1007507  -0.1523513   0.0023760  -0.0026704   0.0013408
   14   0.1012550  -0.1502855   0.1150194   0.0223399  -0.0071932   0.0240357
   15  -0.1952271   0.1391337  -0.1787466   0.0092659  -0.0077600  -0.0001637
   16  -0.1052889   0.0317167  -0.0007729   0.0094792  -0.0005621  -0.0022354
   17  -0.0061711   0.0750169   0.0162927   0.0167380   0.0113106  -0.0007058
   18  -0.0035059   0.0004514   0.0135540   0.0030696   0.0010816  -0.0067339
            7           8           9          10          11          12
    1  -0.0291343   0.0135060  -0.0105360  -0.0987713  -0.0243458   0.0493469
    2   0.0285929  -0.0171469   0.0102252  -0.0851963  -0.1709400   0.0159349
    3   0.0151649  -0.0104769   0.0061268  -0.0289873   0.0021247  -0.0389658
    4   0.0098433  -0.0063398   0.0029060  -0.0175995  -0.0546881  -0.0113194
    5   0.0078003  -0.0013514   0.0019527  -0.0181376  -0.0297394  -0.0042826
    6  -0.0037359  -0.0005288  -0.0012462   0.0155774   0.0109760   0.0086666
    7  -0.0094392   0.1879877   0.0690850   0.0461636  -0.1038584  -0.0197679
    8   0.1879877   0.1236813   0.0767899  -0.1937633  -0.0848046  -0.0706621
    9   0.0690850   0.0767899   0.0486506  -0.0497028  -0.0806160  -0.0425535
   10   0.0461636  -0.1937633  -0.0497028   0.4420597  -0.1044716  -0.0160652
   11  -0.1038584  -0.0848046  -0.0806160  -0.1044716   0.6034590   0.0469359
   12  -0.0197679  -0.0706621  -0.0425535  -0.0160652   0.0469359   0.0670548
   13  -0.0011737  -0.0000967  -0.0004531  -0.0200159   0.0197556  -0.0173939
   14  -0.0024112   0.0024525  -0.0010443  -0.0031792   0.0100963  -0.0126007
   15  -0.0018408   0.0025504  -0.0000839   0.0184675  -0.0060622   0.0000680
   16  -0.0162597  -0.0012938  -0.0112992  -0.3518366   0.2676083   0.0151996
   17  -0.1181112  -0.0228309  -0.0073075   0.4047480  -0.3280714   0.0246746
   18  -0.0589052   0.0023276  -0.0108937   0.0607104   0.0266416   0.0057300
           13          14          15          16          17          18
    1  -0.1933065   0.1012550  -0.1952271  -0.1052889  -0.0061711  -0.0035059
    2   0.1007507  -0.1502855   0.1391337   0.0317167   0.0750169   0.0004514
    3  -0.1523513   0.1150194  -0.1787466  -0.0007729   0.0162927   0.0135540
    4   0.0023760   0.0223399   0.0092659   0.0094792   0.0167380   0.0030696
    5  -0.0026704  -0.0071932  -0.0077600  -0.0005621   0.0113106   0.0010816
    6   0.0013408   0.0240357  -0.0001637  -0.0022354  -0.0007058  -0.0067339
    7  -0.0011737  -0.0024112  -0.0018408  -0.0162597  -0.1181112  -0.0589052
    8  -0.0000967   0.0024525   0.0025504  -0.0012938  -0.0228309   0.0023276
    9  -0.0004531  -0.0010443  -0.0000839  -0.0112992  -0.0073075  -0.0108937
   10  -0.0200159  -0.0031792   0.0184675  -0.3518366   0.4047480   0.0607104
   11   0.0197556   0.0100963  -0.0060622   0.2676083  -0.3280714   0.0266416
   12  -0.0173939  -0.0126007   0.0000680   0.0151996   0.0246746   0.0057300
   13   0.2213213  -0.1144205   0.1690158  -0.0092012  -0.0033185  -0.0001583
   14  -0.1144205   0.1459283  -0.1268813  -0.0035839  -0.0009984   0.0014711
   15   0.1690158  -0.1268813   0.1773520   0.0003186  -0.0009806   0.0015742
   16  -0.0092012  -0.0035839   0.0003186   0.4731072  -0.2938851  -0.0012107
   17  -0.0033185  -0.0009984  -0.0009806  -0.2938851   0.2655733  -0.0319734
   18  -0.0001583   0.0014711   0.0015742  -0.0012107  -0.0319734  -0.0032306
 Gradient time:  CPU 1095.24 s  wall 1077.93 s
 **********************************************************************
 **                                                                  **
 **                       VIBRATIONAL ANALYSIS                       **
 **                       --------------------                       **
 **                                                                  **
 **        VIBRATIONAL FREQUENCIES (CM**-1) AND NORMAL MODES         **
 **     FORCE CONSTANTS (mDYN/ANGSTROM) AND REDUCED MASSES (AMU)     **
 **                  INFRARED INTENSITIES (KM/MOL)                   **
 **                                                                  **
 **********************************************************************
 

 Mode:                 1                      2                      3
 Frequency:     -2053.98                 384.24                 434.99
 Force Cnst:      2.7538                 0.1144                 0.1481
 Red. Mass:       1.1079                 1.3146                 1.3288
 IR Active:          YES                    YES                    YES
 IR Intens:      271.027                 97.767                 65.678
 Raman Active:       YES                    YES                    YES
               X      Y      Z        X      Y      Z        X      Y      Z
 N          0.010 -0.017 -0.009    0.076 -0.002  0.010    0.025 -0.025  0.025
 H         -0.058 -0.030  0.021    0.114 -0.040  0.296   -0.221  0.049 -0.504
 H          0.815 -0.563 -0.070   -0.183 -0.306  0.848   -0.121  0.004  0.045
 N         -0.064  0.012 -0.014   -0.018  0.068 -0.098   -0.018 -0.030 -0.117
 H         -0.005  0.013  0.028   -0.065 -0.149  0.053   -0.202  0.460  0.632
 N          0.001  0.047  0.024   -0.048 -0.030  0.002    0.032  0.019  0.080
 TransDip   0.251 -0.463 -0.034   -0.080 -0.155  0.264   -0.230  0.118  0.029

 Mode:                 4                      5                      6
 Frequency:       629.39                 783.73                 996.57
 Force Cnst:      0.5251                 0.8454                 1.1693
 Red. Mass:       2.2497                 2.3359                 1.9983
 IR Active:          YES                    YES                    YES
 IR Intens:       60.875                254.346                 32.171
 Raman Active:       YES                    YES                    YES
               X      Y      Z        X      Y      Z        X      Y      Z
 N         -0.120  0.067 -0.018    0.210  0.039 -0.155    0.144  0.069  0.079
 H         -0.648 -0.027  0.484   -0.100 -0.076  0.648    0.127  0.112 -0.400
 H         -0.159 -0.165  0.396   -0.108  0.150 -0.280   -0.195 -0.078  0.031
 N         -0.029 -0.156  0.005   -0.118 -0.063  0.105   -0.166 -0.121 -0.016
 H          0.044  0.171 -0.098   -0.255  0.189  0.499    0.678  0.122 -0.465
 N          0.203  0.091 -0.043   -0.058  0.005 -0.013   -0.022  0.041 -0.002
 TransDip  -0.157 -0.130  0.145   -0.472  0.077  0.180   -0.124 -0.021 -0.131

 Mode:                 7                      8                      9
 Frequency:      1274.40                1591.36                1623.31
 Force Cnst:      1.4318                 1.9752                 5.4673
 Red. Mass:       1.4963                 1.3238                 3.5214
 IR Active:          YES                    YES                    YES
 IR Intens:       46.028                 13.376                108.445
 Raman Active:       YES                    YES                    YES
               X      Y      Z        X      Y      Z        X      Y      Z
 N         -0.037  0.109 -0.011   -0.073 -0.050 -0.014    0.063 -0.026  0.015
 H          0.684  0.161 -0.197    0.544 -0.061  0.327   -0.746 -0.024 -0.198
 H         -0.041 -0.113  0.014   -0.021  0.013 -0.042   -0.088  0.137 -0.179
 N         -0.084 -0.058  0.014   -0.061  0.064 -0.013   -0.208  0.247  0.020
 H         -0.522 -0.351  0.136    0.370  0.652  0.076   -0.017 -0.354 -0.160
 N          0.113 -0.029  0.000    0.070 -0.057  0.001    0.206 -0.204  0.004
 TransDip  -0.215  0.007 -0.033   -0.005  0.068  0.095   -0.294 -0.143 -0.064

 Mode:                10                     11                     12
 Frequency:      2865.76                3443.55                3624.96
 Force Cnst:      5.1101                 7.3360                 8.4661
 Red. Mass:       1.0561                 1.0500                 1.0935
 IR Active:          YES                    YES                    YES
 IR Intens:      120.009                  4.012                 20.870
 Raman Active:       YES                    YES                    YES
               X      Y      Z        X      Y      Z        X      Y      Z
 N         -0.001  0.006  0.002   -0.016 -0.049 -0.024   -0.045  0.058 -0.035
 H          0.018 -0.017 -0.018   -0.036  0.904  0.114    0.016 -0.383 -0.070
 H          0.537  0.750  0.381    0.018  0.014  0.010   -0.003 -0.003  0.000
 N         -0.037 -0.038 -0.019   -0.002 -0.003 -0.001    0.001  0.001  0.000
 H         -0.008  0.004 -0.003    0.267 -0.201  0.232    0.587 -0.432  0.557
 N         -0.001 -0.021 -0.008   -0.001  0.000  0.000    0.001  0.000  0.000
 TransDip   0.170  0.268  0.149    0.010  0.057  0.026    0.091 -0.100  0.056

 STANDARD THERMODYNAMIC QUANTITIES AT   298.15 K  AND     1.00 ATM

   This Molecule has  1 Imaginary Frequencies
   Zero point vibrational energy:       25.235 kcal/mol

   Atom    1 Element N  Has Mass   14.00307
   Atom    2 Element H  Has Mass    1.00783
   Atom    3 Element H  Has Mass    1.00783
   Atom    4 Element N  Has Mass   14.00307
   Atom    5 Element H  Has Mass    1.00783
   Atom    6 Element N  Has Mass   14.00307
   Molecular Mass:    45.032700 amu
   Principal axes and moments of inertia in amu*Bohr^2:
                             1           2           3
    Eigenvalues --       24.99259   153.47609   174.16235
          X               0.99864     0.04088     0.03222
          Y              -0.04214     0.99833     0.03944
          Z              -0.03055    -0.04075     0.99870
   Rotational Symmetry Number is   1
   The Molecule is an Asymmetric Top
   Translational Enthalpy:        0.889 kcal/mol
   Rotational Enthalpy:           0.889 kcal/mol
   Vibrational Enthalpy:         25.791 kcal/mol
   gas constant (RT):             0.592 kcal/mol
   Translational Entropy:        37.340  cal/mol.K
   Rotational Entropy:           21.129  cal/mol.K
   Vibrational Entropy:           2.628  cal/mol.K

   Total Enthalpy:               28.161 kcal/mol
   Total Entropy:                61.097  cal/mol.K
Archival summary:
1\1\node37\FREQ\ProcedureUnspecified\BasisUnspecified\33\alongd\TueOct212:00:002018TueOct212:00:002018\0\\#,FREQ,ProcedureUnspecified,BasisUnspecified,\\0,1\N\H,1,1.11722\N,1,1.24953,2,69.7295\N,1,1.39751,2,149.346,3,116.262,0\H,4,1.01153,1,109.911,2,116.994,0\H,4,1.02012,1,106.98,2,-119.647,0\\\@

 Total job time:  1089.90s(wall), 1186.80s(cpu) 
 Tue Oct  2 12:00:00 2018

        *************************************************************
        *                                                           *
        *  Thank you very much for using Q-Chem.  Have a nice day.  *
        *                                                           *
        *************************************************************


0 sent ACK to 0 
now end server 0 ... 
cleanup process ... done
