 Entering Gaussian System, Link 0=g16
 Initial command:
 /opt/g16/l1.exe "/scratch/alongd/g16/a4391-34565/Gau-32733.inp" -scrdir="/scratch/alongd/g16/a4391-34565/"
 Entering Link 1 = /opt/g16/l1.exe PID=     32735.
  
 Copyright (c) 1988-2017, Gaussian, Inc.  All Rights Reserved.
  
 This is part of the Gaussian(R) 16 program.  It is based on
 the Gaussian(R) 09 system (copyright 2009, Gaussian, Inc.),
 the Gaussian(R) 03 system (copyright 2003, Gaussian, Inc.),
 the Gaussian(R) 98 system (copyright 1998, Gaussian, Inc.),
 the Gaussian(R) 94 system (copyright 1995, Gaussian, Inc.),
 the Gaussian 92(TM) system (copyright 1992, Gaussian, Inc.),
 the Gaussian 90(TM) system (copyright 1990, Gaussian, Inc.),
 the Gaussian 88(TM) system (copyright 1988, Gaussian, Inc.),
 the Gaussian 86(TM) system (copyright 1986, Carnegie Mellon
 University), and the Gaussian 82(TM) system (copyright 1983,
 Carnegie Mellon University). Gaussian is a federally registered
 trademark of Gaussian, Inc.
  
 This software contains proprietary and confidential information,
 including trade secrets, belonging to Gaussian, Inc.
  
 This software is provided under written license and may be
 used, copied, transmitted, or stored only in accord with that
 written license.
  
 The following legend is applicable only to US Government
 contracts under FAR:
  
                    RESTRICTED RIGHTS LEGEND
  
 Use, reproduction and disclosure by the US Government is
 subject to restrictions as set forth in subparagraphs (a)
 and (c) of the Commercial Computer Software - Restricted
 Rights clause in FAR 52.227-19.
  
 Gaussian, Inc.
 340 Quinnipiac St., Bldg. 40, Wallingford CT 06492
  
  
 ---------------------------------------------------------------
 Warning -- This program may not be used in any manner that
 competes with the business of Gaussian, Inc. or will provide
 assistance to any competitor of Gaussian, Inc.  The licensee
 of this program is prohibited from giving any competitor of
 Gaussian, Inc. access to this program.  By using this program,
 the user acknowledges that Gaussian, Inc. is engaged in the
 business of creating and licensing software in the field of
 computational chemistry and represents and warrants to the
 licensee that it is not a competitor of Gaussian, Inc. and that
 it will not use this program in any manner prohibited above.
 ---------------------------------------------------------------
  

 Cite this work as:
 Gaussian 16, Revision B.01,
 M. J. Frisch, G. W. Trucks, H. B. Schlegel, G. E. Scuseria, 
 M. A. Robb, J. R. Cheeseman, G. Scalmani, V. Barone, 
 G. A. Petersson, H. Nakatsuji, X. Li, M. Caricato, A. V. Marenich, 
 J. Bloino, B. G. Janesko, R. Gomperts, B. Mennucci, H. P. Hratchian, 
 J. V. Ortiz, A. F. Izmaylov, J. L. Sonnenberg, D. Williams-Young, 
 F. Ding, F. Lipparini, F. Egidi, J. Goings, B. Peng, A. Petrone, 
 T. Henderson, D. Ranasinghe, V. G. Zakrzewski, J. Gao, N. Rega, 
 G. Zheng, W. Liang, M. Hada, M. Ehara, K. Toyota, R. Fukuda, 
 J. Hasegawa, M. Ishida, T. Nakajima, Y. Honda, O. Kitao, H. Nakai, 
 T. Vreven, K. Throssell, J. A. Montgomery, Jr., J. E. Peralta, 
 F. Ogliaro, M. J. Bearpark, J. J. Heyd, E. N. Brothers, K. N. Kudin, 
 V. N. Staroverov, T. A. Keith, R. Kobayashi, J. Normand, 
 K. Raghavachari, A. P. Rendell, J. C. Burant, S. S. Iyengar, 
 J. Tomasi, M. Cossi, J. M. Millam, M. Klene, C. Adamo, R. Cammi, 
 J. W. Ochterski, R. L. Martin, K. Morokuma, O. Farkas, 
 J. B. Foresman, and D. J. Fox, Gaussian, Inc., Wallingford CT, 2016.
 
 ******************************************
 Gaussian 16:  ES64L-G16RevB.01 20-Dec-2017
                 2-Mar-2020 
 ******************************************
 %chk=check.chk
 %mem=14336mb
 %NProcShared=36
 Will use up to   36 processors via shared memory.
 ----------------------------------------------------------------------
 #P guess=read uwb97xd/def2tzvp freq iop(7/33=1) scf=(tight, direct) in
 tegral=(grid=ultrafine, Acc2E=12) scf=xqc iop(2/9=2000)
 ----------------------------------------------------------------------
 1/10=4,30=1,38=1/1,3;
 2/9=2000,12=2,17=6,18=5,40=1/2;
 3/5=44,7=101,11=2,25=1,27=12,30=1,71=2,74=-58,75=-5,116=2,140=1/1,2,3;
 4/5=1/1;
 5/5=2,8=3,13=1,32=2,38=6,87=12,98=1/2,8;
 8/6=4,10=90,11=11,87=12/1;
 11/6=1,8=1,9=11,15=111,16=1,87=12/1,2,10;
 10/6=1,87=12/2;
 6/7=2,8=2,9=2,10=2,28=1,87=12/1;
 7/8=1,10=1,25=1,33=1,87=12/1,2,3,16;
 1/10=4,30=1/3;
 99//99;
 Leave Link    1 at Mon Mar  2 00:52:10 2020, MaxMem=  1879048192 cpu:               4.4 elap:               0.2
 (Enter /opt/g16/l101.exe)
 ----
 name
 ----
 Symbolic Z-matrix:
 Charge =  0 Multiplicity = 3
 N                     2.25403   0.45886   0.16098 
 C                     0.96879   0.14669   0.06929 
 C                     0.0174    1.20876  -0.0012 
 H                     0.40464   2.21851   0.02457 
 C                    -1.33138   0.96374  -0.09759 
 C                    -1.81578  -0.35216  -0.12972 
 C                    -0.8766   -1.35782  -0.06022 
 C                     0.46214  -1.20057   0.03563 
 H                     2.81718  -0.39044   0.20316 
 H                    -2.03062   1.7892   -0.14949 
 H                    -2.87589  -0.55598  -0.20546 
 H                     1.15317  -2.03432   0.08696 
 
 ITRead=  0  0  0  0  0  0  0  0  0  0  0  0
 MicOpt= -1 -1 -1 -1 -1 -1 -1 -1 -1 -1 -1 -1
 NAtoms=     12 NQM=       12 NQMF=       0 NMMI=      0 NMMIF=      0
                NMic=       0 NMicF=      0.
                    Isotopes and Nuclear Properties:
 (Nuclear quadrupole moments (NQMom) in fm**2, nuclear magnetic moments (NMagM)
  in nuclear magnetons)

  Atom         1           2           3           4           5           6           7           8           9          10
 IAtWgt=          14          12          12           1          12          12          12          12           1           1
 AtmWgt=  14.0030740  12.0000000  12.0000000   1.0078250  12.0000000  12.0000000  12.0000000  12.0000000   1.0078250   1.0078250
 NucSpn=           2           0           0           1           0           0           0           0           1           1
 AtZEff=  -0.0000000  -0.0000000  -0.0000000  -0.0000000  -0.0000000  -0.0000000  -0.0000000  -0.0000000  -0.0000000  -0.0000000
 NQMom=    2.0440000   0.0000000   0.0000000   0.0000000   0.0000000   0.0000000   0.0000000   0.0000000   0.0000000   0.0000000
 NMagM=    0.4037610   0.0000000   0.0000000   2.7928460   0.0000000   0.0000000   0.0000000   0.0000000   2.7928460   2.7928460
 AtZNuc=   7.0000000   6.0000000   6.0000000   1.0000000   6.0000000   6.0000000   6.0000000   6.0000000   1.0000000   1.0000000

  Atom        11          12
 IAtWgt=           1           1
 AtmWgt=   1.0078250   1.0078250
 NucSpn=           1           1
 AtZEff=  -0.0000000  -0.0000000
 NQMom=    0.0000000   0.0000000
 NMagM=    2.7928460   2.7928460
 AtZNuc=   1.0000000   1.0000000
 Leave Link  101 at Mon Mar  2 00:52:11 2020, MaxMem=  1879048192 cpu:               9.6 elap:               0.3
 (Enter /opt/g16/l103.exe)

 GradGradGradGradGradGradGradGradGradGradGradGradGradGradGradGradGradGrad
 Berny optimization.
 Initialization pass.
 Trust Radius=3.00D-01 FncErr=1.00D-07 GrdErr=1.00D-07 EigMax=2.50D+02 EigMin=1.00D-04
 Number of steps in this run=      2 maximum allowed number of steps=      2.
 GradGradGradGradGradGradGradGradGradGradGradGradGradGradGradGradGradGrad

 Leave Link  103 at Mon Mar  2 00:52:11 2020, MaxMem=  1879048192 cpu:               2.3 elap:               0.1
 (Enter /opt/g16/l202.exe)
                          Input orientation:                          
 ---------------------------------------------------------------------
 Center     Atomic      Atomic             Coordinates (Angstroms)
 Number     Number       Type             X           Y           Z
 ---------------------------------------------------------------------
      1          7           0        2.254027    0.458861    0.160982
      2          6           0        0.968792    0.146688    0.069293
      3          6           0        0.017401    1.208756   -0.001198
      4          1           0        0.404641    2.218514    0.024573
      5          6           0       -1.331379    0.963736   -0.097588
      6          6           0       -1.815781   -0.352159   -0.129718
      7          6           0       -0.876604   -1.357822   -0.060218
      8          6           0        0.462143   -1.200571    0.035628
      9          1           0        2.817184   -0.390444    0.203156
     10          1           0       -2.030624    1.789203   -0.149488
     11          1           0       -2.875888   -0.555984   -0.205455
     12          1           0        1.153167   -2.034324    0.086955
 ---------------------------------------------------------------------
                    Distance matrix (angstroms):
                    1          2          3          4          5
     1  N    0.000000
     2  C    1.325778   0.000000
     3  C    2.364559   1.427621   0.000000
     4  H    2.556407   2.147727   1.081772   0.000000
     5  C    3.629999   2.446672   1.374239   2.145497   0.000000
     6  C    4.160000   2.835895   2.411126   3.400359   1.402589
     7  C    3.626309   2.384494   2.718465   3.799863   2.365977
     8  C    2.445460   1.439769   2.450308   3.419586   2.814017
     9  H    1.019923   1.929503   3.230787   3.557937   4.374337
    10  H    4.497159   3.426692   2.133850   2.478935   1.083066
    11  H    5.242157   3.918010   3.395166   4.302630   2.169491
    12  H    2.726416   2.188863   3.437340   4.318659   3.898126
                    6          7          8          9         10
     6  C    0.000000
     7  C    1.377767   0.000000
     8  C    2.436407   1.351354   0.000000
     9  H    4.645066   3.827435   2.496115   0.000000
    10  H    2.152203   3.353133   3.897038   5.326956   0.000000
    11  H    1.082177   2.158975   3.408235   5.710117   2.493493
    12  H    3.419251   2.144594   1.084109   2.341964   4.981143
                   11         12
    11  H    0.000000
    12  H    4.301660   0.000000
 Stoichiometry    C6H5N(3)
 Framework group  C1[X(C6H5N)]
 Deg. of freedom    30
 Full point group                 C1      NOp   1
 Largest Abelian subgroup         C1      NOp   1
 Largest concise Abelian subgroup C1      NOp   1
                         Standard orientation:                         
 ---------------------------------------------------------------------
 Center     Atomic      Atomic             Coordinates (Angstroms)
 Number     Number       Type             X           Y           Z
 ---------------------------------------------------------------------
      1          7           0       -2.289710   -0.284249   -0.000000
      2          6           0       -0.982455   -0.063405   -0.000000
      3          6           0       -0.105462   -1.189898    0.000000
      4          1           0       -0.563561   -2.169885    0.000000
      5          6           0        1.260634   -1.040520   -0.000000
      6          6           0        1.837377    0.238005    0.000000
      7          6           0        0.968643    1.307371    0.000000
      8          6           0       -0.381264    1.244839   -0.000000
      9          1           0       -2.793354    0.602648    0.000001
     10          1           0        1.902051   -1.913227   -0.000000
     11          1           0        2.911883    0.366630    0.000000
     12          1           0       -1.013878    2.125232    0.000000
 ---------------------------------------------------------------------
 Rotational constants (GHZ):           6.0060048           2.8169683           1.9175764
 Leave Link  202 at Mon Mar  2 00:52:11 2020, MaxMem=  1879048192 cpu:               3.6 elap:               0.1
 (Enter /opt/g16/l301.exe)
 Standard basis: def2TZVP (5D, 7F)
 Ernie: Thresh=  0.10000D-02 Tol=  0.10000D-05 Strict=F.
 There are   282 symmetry adapted cartesian basis functions of A   symmetry.
 There are   247 symmetry adapted basis functions of A   symmetry.
   247 basis functions,   397 primitive gaussians,   282 cartesian basis functions
    25 alpha electrons       23 beta electrons
       nuclear repulsion energy       252.4303021351 Hartrees.
 IExCor= 4639 DFT=T Ex+Corr=wB97XD ExCW=0 ScaHFX=  1.000000
 ScaDFX=  1.000000  1.000000  1.000000  1.000000 ScalE2=  1.000000  1.000000
 IRadAn=      5 IRanWt=     -1 IRanGd=            0 ICorTp=0 IEmpDi=121
 HFx  wShort=  0.000000 wLong=  0.200000 cFull=  0.222036 cShort=  0.000000 cLong=  0.777964
 DFx  wShort=  0.000000 wLong=  0.200000 cFull=  0.000000 cShort=  0.000000 cLong=  1.000000
 NAtoms=   12 NActive=   12 NUniq=   12 SFac= 1.00D+00 NAtFMM=   60 NAOKFM=F Big=F
 Integral buffers will be    131072 words long.
 Raffenetti 2 integral format.
 Two-electron integral symmetry is turned on.
 R6Disp:  Grimme-D2 Dispersion energy=       -0.0042567940 Hartrees.
 Nuclear repulsion after empirical dispersion term =      252.4260453411 Hartrees.
 Leave Link  301 at Mon Mar  2 00:52:11 2020, MaxMem=  1879048192 cpu:               5.6 elap:               0.2
 (Enter /opt/g16/l302.exe)
 NPDir=0 NMtPBC=     1 NCelOv=     1 NCel=       1 NClECP=     1 NCelD=      1
         NCelK=      1 NCelE2=     1 NClLst=     1 CellRange=     0.0.
 One-electron integrals computed using PRISM.
 One-electron integral symmetry used in STVInt
   1 Symmetry operations used in ECPInt.
 ECPInt:  NShTT=    4753 NPrTT=   14704 LenC2=    4700 LenP2D=   12021.
 LDataN:  DoStor=T MaxTD1= 6 Len=  172
 NBasis=   247 RedAO= T EigKep=  1.73D-05  NBF=   247
 NBsUse=   247 1.00D-06 EigRej= -1.00D+00 NBFU=   247
 Precomputing XC quadrature grid using
 IXCGrd= 4 IRadAn=           5 IRanWt=          -1 IRanGd=           0 AccXCQ= 1.00D-12.
 Generated NRdTot=       0 NPtTot=           0 NUsed=           0 NTot=          32
 NSgBfM=   281   281   281   281   281 MxSgAt=    12 MxSgA2=    12.
 Leave Link  302 at Mon Mar  2 00:52:11 2020, MaxMem=  1879048192 cpu:              16.9 elap:               0.5
 (Enter /opt/g16/l303.exe)
 DipDrv:  MaxL=1.
 Leave Link  303 at Mon Mar  2 00:52:12 2020, MaxMem=  1879048192 cpu:               7.7 elap:               0.2
 (Enter /opt/g16/l401.exe)
 Initial guess from the checkpoint file:  "check.chk"
 B after Tr=    -0.000000    0.000000   -0.000000
         Rot=    0.000000   -0.000000    1.000000   -0.000000 Ang=-180.00 deg.
 Guess basis will be translated and rotated to current coordinates.
 JPrj=2 DoOrth=T DoCkMO=T.
 Initial guess <Sx>= 0.0000 <Sy>= 0.0000 <Sz>= 1.0000 <S**2>= 2.0414 S= 1.0137
 Leave Link  401 at Mon Mar  2 00:52:12 2020, MaxMem=  1879048192 cpu:              24.9 elap:               0.7
 (Enter /opt/g16/l502.exe)
 Integral symmetry usage will be decided dynamically.
 UHF open shell SCF:
 Using DIIS extrapolation, IDIIS=  1040.
 NGot=  1879048192 LenX=  1878876442 LenY=  1878796477
 Requested convergence on RMS density matrix=1.00D-08 within  32 cycles.
 Requested convergence on MAX density matrix=1.00D-06.
 Requested convergence on             energy=1.00D-06.
 No special actions if energy rises.
 Fock matrices will be formed incrementally for  20 cycles.

 Cycle   1  Pass 1  IDiag  1:
 FoFJK:  IHMeth= 1 ICntrl=       0 DoSepK=T KAlg= 0 I1Cent=           0 FoldK=F
 IRaf=         1 NMat=       1 IRICut=       1 DoRegI=T DoRafI=F ISym2E= 0 IDoP0=0 IntGTp=1.
 FoFCou: FMM=F IPFlag=           0 FMFlag=      100000 FMFlg1=           0
         NFxFlg=           0 DoJE=T BraDBF=F KetDBF=F FulRan=T
         wScrn=  0.000000 ICntrl=       500 IOpCl=  0 I1Cent=           0 NGrid=           0
         NMat0=    1 NMatS0=      1 NMatT0=    0 NMatD0=    1 NMtDS0=    0 NMtDT0=    0
 Symmetry not used in FoFCou.
 E= -286.262049766678    
 DIIS: error= 4.61D-08 at cycle   1 NSaved=   1.
 NSaved= 1 IEnMin= 1 EnMin= -286.262049766678     IErMin= 1 ErrMin= 4.61D-08
 ErrMax= 4.61D-08  0.00D+00 EMaxC= 1.00D-01 BMatC= 5.71D-12 BMatP= 5.71D-12
 IDIUse=1 WtCom= 1.00D+00 WtEn= 0.00D+00
 Coeff-Com:  0.100D+01
 Coeff:      0.100D+01
 Gap=     0.339 Goal=   None    Shift=    0.000
 Gap=     0.287 Goal=   None    Shift=    0.000
 RMSDP=2.75D-08 MaxDP=8.64D-07              OVMax= 4.47D-07

 Cycle   2  Pass 1  IDiag  1:
 RMSU=  2.75D-08    CP:  1.00D+00
 E= -286.262049766680     Delta-E=       -0.000000000002 Rises=F Damp=F
 DIIS: error= 5.77D-08 at cycle   2 NSaved=   2.
 NSaved= 2 IEnMin= 2 EnMin= -286.262049766680     IErMin= 1 ErrMin= 4.61D-08
 ErrMax= 5.77D-08  0.00D+00 EMaxC= 1.00D-01 BMatC= 5.26D-13 BMatP= 5.71D-12
 IDIUse=1 WtCom= 1.00D+00 WtEn= 0.00D+00
 Coeff-Com:  0.569D-01 0.943D+00
 Coeff:      0.569D-01 0.943D+00
 Gap=     0.339 Goal=   None    Shift=    0.000
 Gap=     0.287 Goal=   None    Shift=    0.000
 RMSDP=4.18D-09 MaxDP=1.09D-07 DE=-1.82D-12 OVMax= 3.88D-07

 SCF Done:  E(UwB97XD) =  -286.262049767     A.U. after    2 cycles
            NFock=  2  Conv=0.42D-08     -V/T= 2.0046
 <Sx>= 0.0000 <Sy>= 0.0000 <Sz>= 1.0000 <S**2>= 2.0414 S= 1.0137
 <L.S>= 0.000000000000E+00
 KE= 2.849392371038D+02 PE=-1.169850605537D+03 EE= 3.462232733256D+02
 Annihilation of the first spin contaminant:
 S**2 before annihilation     2.0414,   after     2.0006
 Leave Link  502 at Mon Mar  2 00:52:42 2020, MaxMem=  1879048192 cpu:            1048.4 elap:              29.2
 (Enter /opt/g16/l508.exe)
 QCSCF skips out because SCF is already converged.
 Leave Link  508 at Mon Mar  2 00:52:42 2020, MaxMem=  1879048192 cpu:               1.0 elap:               0.0
 (Enter /opt/g16/l801.exe)
 DoSCS=F DFT=T ScalE2(SS,OS)=  1.000000  1.000000
 Range of M.O.s used for correlation:     1   247
 NBasis=   247 NAE=    25 NBE=    23 NFC=     0 NFV=     0
 NROrb=    247 NOA=    25 NOB=    23 NVA=   222 NVB=   224

 **** Warning!!: The largest alpha MO coefficient is  0.60240138D+02


 **** Warning!!: The largest beta MO coefficient is  0.58583063D+02

 Leave Link  801 at Mon Mar  2 00:52:42 2020, MaxMem=  1879048192 cpu:               3.8 elap:               0.1
 (Enter /opt/g16/l1101.exe)
 Using compressed storage, NAtomX=    12.
 Will process     13 centers per pass.
   1 Symmetry operations used in ECPInt.
 ECPInt:  NShTT=    4753 NPrTT=   14704 LenC2=    4700 LenP2D=   12021.
 LDataN:  DoStor=T MaxTD1= 7 Len=  274
 Number of processors reduced to  33 by ecpmxn.
 R6Disp: Adding Grimme-D2 dispersion energy 1st derivatives to the gradient.
 Leave Link 1101 at Mon Mar  2 00:52:43 2020, MaxMem=  1879048192 cpu:              21.3 elap:               0.6
 (Enter /opt/g16/l1102.exe)
 Symmetrizing basis deriv contribution to polar:
 IMax=3 JMax=2 DiffMx= 0.00D+00
 Leave Link 1102 at Mon Mar  2 00:52:43 2020, MaxMem=  1879048192 cpu:               6.8 elap:               0.2
 (Enter /opt/g16/l1110.exe)
 Forming Gx(P) for the SCF density, NAtomX=    12.
 Integral derivatives from FoFJK, PRISM(SPDF).
 Do as many integral derivatives as possible in FoFJK.
 G2DrvN: MDV=    1879047120.
 G2DrvN: will do    13 centers at a time, making    1 passes.
 Calling FoFCou, ICntrl=  3107 FMM=F I1Cent=   0 AccDes= 1.00D-12.
 FoFJK:  IHMeth= 1 ICntrl=    3107 DoSepK=T KAlg= 0 I1Cent=           0 FoldK=F
 IRaf=         1 NMat=       1 IRICut=       1 DoRegI=T DoRafI=F ISym2E= 0 IDoP0=0 IntGTp=1.
 FoFCou: FMM=F IPFlag=           0 FMFlag=      100000 FMFlg1=           0
         NFxFlg=           0 DoJE=F BraDBF=F KetDBF=F FulRan=T
         wScrn=  0.000000 ICntrl=      3507 IOpCl=  0 I1Cent=           0 NGrid=           0
         NMat0=    1 NMatS0=      1 NMatT0=    0 NMatD0=    1 NMtDS0=    0 NMtDT0=    0
 Symmetry not used in FoFCou.
 End of G2Drv F.D. properties file   721 does not exist.
 End of G2Drv F.D. properties file   722 does not exist.
 End of G2Drv F.D. properties file   788 does not exist.
 Leave Link 1110 at Mon Mar  2 00:53:42 2020, MaxMem=  1879048192 cpu:            2139.9 elap:              59.5
 (Enter /opt/g16/l1002.exe)
 Minotr:  UHF open shell wavefunction.
          IDoAtm=111111111111
          Direct CPHF calculation.
          Differentiating once with respect to electric field.
                with respect to dipole field.
          Differentiating once with respect to nuclear coordinates.
          Requested convergence is 1.0D-08 RMS, and 1.0D-07 maximum.
          Secondary convergence is 1.0D-12 RMS, and 1.0D-12 maximum.
          NewPWx=T KeepS1=F KeepF1=F KeepIn=T MapXYZ=F SortEE=F KeepMc=T.
         3605 words used for storage of precomputed grid.
 Two-electron integrals replicated using symmetry.
          MDV=    1879048192 using IRadAn=       1.
          Solving linear equations simultaneously, MaxMat=     360.
 FoF2E skips out because all densities are zero.
 CalDSu exits because no D1Ps are significant.
 FoFJK:  IHMeth= 1 ICntrl=       0 DoSepK=T KAlg= 0 I1Cent=           0 FoldK=F
 IRaf=         1 NMat=      36 IRICut=       1 DoRegI=T DoRafI=F ISym2E= 2 IDoP0=3 IntGTp=3.
 FoFCou: FMM=F IPFlag=           0 FMFlag=      100000 FMFlg1=           0
         NFxFlg=           0 DoJE=F BraDBF=F KetDBF=F FulRan=T
         wScrn=  0.000000 ICntrl=       500 IOpCl=  0 I1Cent=           0 NGrid=           0
         NMat0=   36 NMatS0=     36 NMatT0=    0 NMatD0=   36 NMtDS0=    0 NMtDT0=    0
 Integrals replicated using symmetry in FoFCou.
          There are    39 degrees of freedom in the 1st order CPHF.  IDoFFX=6 NUNeed=     3.
     36 vectors produced by pass  0 Test12= 2.74D-14 2.56D-09 XBig12= 1.33D+02 6.45D+00.
 AX will form    36 AO Fock derivatives at one time.
     36 vectors produced by pass  1 Test12= 2.74D-14 2.56D-09 XBig12= 1.69D+01 6.66D-01.
     36 vectors produced by pass  2 Test12= 2.74D-14 2.56D-09 XBig12= 9.61D-01 2.67D-01.
     36 vectors produced by pass  3 Test12= 2.74D-14 2.56D-09 XBig12= 2.09D-02 3.28D-02.
     36 vectors produced by pass  4 Test12= 2.74D-14 2.56D-09 XBig12= 2.26D-04 2.18D-03.
     36 vectors produced by pass  5 Test12= 2.74D-14 2.56D-09 XBig12= 2.17D-06 2.52D-04.
     36 vectors produced by pass  6 Test12= 2.74D-14 2.56D-09 XBig12= 2.71D-08 2.06D-05.
     30 vectors produced by pass  7 Test12= 2.74D-14 2.56D-09 XBig12= 2.88D-10 2.04D-06.
     12 vectors produced by pass  8 Test12= 2.74D-14 2.56D-09 XBig12= 2.81D-12 2.23D-07.
      3 vectors produced by pass  9 Test12= 2.74D-14 2.56D-09 XBig12= 2.94D-14 1.95D-08.
 InvSVY:  IOpt=1 It=  1 EMax= 1.33D-14
 Solved reduced A of dimension   297 with    39 vectors.
 FullF1:  Do perturbations      1 to       3.
 Isotropic polarizability for W=    0.000000       75.67 Bohr**3.
 End of Minotr F.D. properties file   721 does not exist.
 End of Minotr F.D. properties file   722 does not exist.
 End of Minotr F.D. properties file   788 does not exist.
 Leave Link 1002 at Mon Mar  2 00:56:48 2020, MaxMem=  1879048192 cpu:            6672.6 elap:             185.4
 (Enter /opt/g16/l601.exe)
 Copying SCF densities to generalized density rwf, IOpCl= 1 IROHF=0.

 **********************************************************************

            Population analysis using the SCF Density.

 **********************************************************************

 Orbital symmetries:
 Alpha Orbitals:
       Occupied  (A) (A) (A) (A) (A) (A) (A) (A) (A) (A) (A) (A)
                 (A) (A) (A) (A) (A) (A) (A) (A) (A) (A) (A) (A)
                 (A)
       Virtual   (A) (A) (A) (A) (A) (A) (A) (A) (A) (A) (A) (A)
                 (A) (A) (A) (A) (A) (A) (A) (A) (A) (A) (A) (A)
                 (A) (A) (A) (A) (A) (A) (A) (A) (A) (A) (A) (A)
                 (A) (A) (A) (A) (A) (A) (A) (A) (A) (A) (A) (A)
                 (A) (A) (A) (A) (A) (A) (A) (A) (A) (A) (A) (A)
                 (A) (A) (A) (A) (A) (A) (A) (A) (A) (A) (A) (A)
                 (A) (A) (A) (A) (A) (A) (A) (A) (A) (A) (A) (A)
                 (A) (A) (A) (A) (A) (A) (A) (A) (A) (A) (A) (A)
                 (A) (A) (A) (A) (A) (A) (A) (A) (A) (A) (A) (A)
                 (A) (A) (A) (A) (A) (A) (A) (A) (A) (A) (A) (A)
                 (A) (A) (A) (A) (A) (A) (A) (A) (A) (A) (A) (A)
                 (A) (A) (A) (A) (A) (A) (A) (A) (A) (A) (A) (A)
                 (A) (A) (A) (A) (A) (A) (A) (A) (A) (A) (A) (A)
                 (A) (A) (A) (A) (A) (A) (A) (A) (A) (A) (A) (A)
                 (A) (A) (A) (A) (A) (A) (A) (A) (A) (A) (A) (A)
                 (A) (A) (A) (A) (A) (A) (A) (A) (A) (A) (A) (A)
                 (A) (A) (A) (A) (A) (A) (A) (A) (A) (A) (A) (A)
                 (A) (A) (A) (A) (A) (A) (A) (A) (A) (A) (A) (A)
                 (A) (A) (A) (A) (A) (A)
 Beta  Orbitals:
       Occupied  (A) (A) (A) (A) (A) (A) (A) (A) (A) (A) (A) (A)
                 (A) (A) (A) (A) (A) (A) (A) (A) (A) (A) (A)
       Virtual   (A) (A) (A) (A) (A) (A) (A) (A) (A) (A) (A) (A)
                 (A) (A) (A) (A) (A) (A) (A) (A) (A) (A) (A) (A)
                 (A) (A) (A) (A) (A) (A) (A) (A) (A) (A) (A) (A)
                 (A) (A) (A) (A) (A) (A) (A) (A) (A) (A) (A) (A)
                 (A) (A) (A) (A) (A) (A) (A) (A) (A) (A) (A) (A)
                 (A) (A) (A) (A) (A) (A) (A) (A) (A) (A) (A) (A)
                 (A) (A) (A) (A) (A) (A) (A) (A) (A) (A) (A) (A)
                 (A) (A) (A) (A) (A) (A) (A) (A) (A) (A) (A) (A)
                 (A) (A) (A) (A) (A) (A) (A) (A) (A) (A) (A) (A)
                 (A) (A) (A) (A) (A) (A) (A) (A) (A) (A) (A) (A)
                 (A) (A) (A) (A) (A) (A) (A) (A) (A) (A) (A) (A)
                 (A) (A) (A) (A) (A) (A) (A) (A) (A) (A) (A) (A)
                 (A) (A) (A) (A) (A) (A) (A) (A) (A) (A) (A) (A)
                 (A) (A) (A) (A) (A) (A) (A) (A) (A) (A) (A) (A)
                 (A) (A) (A) (A) (A) (A) (A) (A) (A) (A) (A) (A)
                 (A) (A) (A) (A) (A) (A) (A) (A) (A) (A) (A) (A)
                 (A) (A) (A) (A) (A) (A) (A) (A) (A) (A) (A) (A)
                 (A) (A) (A) (A) (A) (A) (A) (A) (A) (A) (A) (A)
                 (A) (A) (A) (A) (A) (A) (A) (A)
 The electronic state is 3-A.
 Alpha  occ. eigenvalues --  -14.43888 -10.33901 -10.32607 -10.31947 -10.31349
 Alpha  occ. eigenvalues --  -10.31017 -10.30612  -1.02848  -0.96407  -0.87141
 Alpha  occ. eigenvalues --   -0.83701  -0.72337  -0.68695  -0.62672  -0.59350
 Alpha  occ. eigenvalues --   -0.55542  -0.53933  -0.50458  -0.49443  -0.46614
 Alpha  occ. eigenvalues --   -0.42896  -0.39414  -0.36556  -0.32905  -0.29787
 Alpha virt. eigenvalues --    0.04110   0.06246   0.12146   0.13138   0.16351
 Alpha virt. eigenvalues --    0.17588   0.18720   0.19898   0.21056   0.24513
 Alpha virt. eigenvalues --    0.26701   0.27423   0.28055   0.29878   0.30528
 Alpha virt. eigenvalues --    0.31555   0.32851   0.34317   0.34829   0.36523
 Alpha virt. eigenvalues --    0.39337   0.39994   0.40201   0.40843   0.42138
 Alpha virt. eigenvalues --    0.44755   0.46668   0.46969   0.47003   0.49349
 Alpha virt. eigenvalues --    0.49623   0.49947   0.50969   0.53047   0.55209
 Alpha virt. eigenvalues --    0.55763   0.56260   0.57783   0.59260   0.60819
 Alpha virt. eigenvalues --    0.65412   0.68540   0.69325   0.70288   0.73945
 Alpha virt. eigenvalues --    0.74494   0.75819   0.77513   0.80964   0.81017
 Alpha virt. eigenvalues --    0.83028   0.86862   0.87926   0.88851   0.94117
 Alpha virt. eigenvalues --    0.94551   0.95691   1.07060   1.07576   1.07641
 Alpha virt. eigenvalues --    1.09529   1.14164   1.14472   1.14869   1.18823
 Alpha virt. eigenvalues --    1.20279   1.25817   1.26563   1.28925   1.29772
 Alpha virt. eigenvalues --    1.31906   1.34745   1.35140   1.36979   1.41512
 Alpha virt. eigenvalues --    1.45622   1.46082   1.48219   1.53119   1.54075
 Alpha virt. eigenvalues --    1.54858   1.55931   1.57018   1.60824   1.62410
 Alpha virt. eigenvalues --    1.64464   1.68076   1.68959   1.72599   1.74002
 Alpha virt. eigenvalues --    1.76141   1.76346   1.80012   1.84274   1.85495
 Alpha virt. eigenvalues --    1.89887   1.93017   1.96091   2.00688   2.02453
 Alpha virt. eigenvalues --    2.04104   2.07347   2.08130   2.14661   2.16447
 Alpha virt. eigenvalues --    2.19607   2.21155   2.25445   2.27395   2.27581
 Alpha virt. eigenvalues --    2.31447   2.35997   2.41349   2.43058   2.45885
 Alpha virt. eigenvalues --    2.48486   2.57153   2.60280   2.61517   2.64357
 Alpha virt. eigenvalues --    2.64451   2.68888   2.70152   2.71060   2.72234
 Alpha virt. eigenvalues --    2.75323   2.75489   2.75698   2.81794   2.82018
 Alpha virt. eigenvalues --    2.82602   2.86264   2.86651   2.86859   2.89268
 Alpha virt. eigenvalues --    2.92239   2.95117   2.96397   3.03097   3.04108
 Alpha virt. eigenvalues --    3.05019   3.09386   3.12426   3.14669   3.15626
 Alpha virt. eigenvalues --    3.18007   3.18598   3.20368   3.22667   3.23552
 Alpha virt. eigenvalues --    3.27866   3.28092   3.29105   3.33609   3.34918
 Alpha virt. eigenvalues --    3.39797   3.40575   3.41196   3.42703   3.43416
 Alpha virt. eigenvalues --    3.44217   3.50995   3.53037   3.54828   3.55131
 Alpha virt. eigenvalues --    3.57129   3.58022   3.58483   3.67090   3.71506
 Alpha virt. eigenvalues --    3.71795   3.74684   3.80034   3.84955   3.89808
 Alpha virt. eigenvalues --    4.01674   4.02745   4.03967   4.06813   4.09394
 Alpha virt. eigenvalues --    4.11376   4.13548   4.18627   4.21921   4.27430
 Alpha virt. eigenvalues --    4.30155   4.30697   4.32613   4.34226   4.35770
 Alpha virt. eigenvalues --    4.50766   4.52983   4.63783   4.67956   4.69325
 Alpha virt. eigenvalues --    4.69463   4.72856   4.76505   4.81506   4.84704
 Alpha virt. eigenvalues --    4.91147   4.91286   4.99962   5.03766   5.15461
 Alpha virt. eigenvalues --    5.18628   5.28486   5.30560   5.33642   5.38748
 Alpha virt. eigenvalues --    5.50232   5.56225   5.64628   5.73324   6.05146
 Alpha virt. eigenvalues --   22.15252  22.58706  22.64983  22.77307  22.90975
 Alpha virt. eigenvalues --   23.27655  32.12162
  Beta  occ. eigenvalues --  -14.42819 -10.34034 -10.31559 -10.31471 -10.31096
  Beta  occ. eigenvalues --  -10.31050 -10.30301  -1.01046  -0.94352  -0.85634
  Beta  occ. eigenvalues --   -0.81737  -0.71501  -0.66767  -0.61557  -0.58233
  Beta  occ. eigenvalues --   -0.54366  -0.53185  -0.48295  -0.48235  -0.45668
  Beta  occ. eigenvalues --   -0.37954  -0.36398  -0.34593
  Beta virt. eigenvalues --   -0.05939  -0.02908   0.05841   0.09725   0.12430
  Beta virt. eigenvalues --    0.13297   0.16547   0.17802   0.18956   0.20082
  Beta virt. eigenvalues --    0.22269   0.25103   0.26761   0.27929   0.28295
  Beta virt. eigenvalues --    0.30031   0.31222   0.31736   0.33665   0.35045
  Beta virt. eigenvalues --    0.35540   0.36832   0.39927   0.40290   0.40665
  Beta virt. eigenvalues --    0.41587   0.42538   0.45207   0.47286   0.47571
  Beta virt. eigenvalues --    0.47818   0.49641   0.50169   0.51500   0.51563
  Beta virt. eigenvalues --    0.53344   0.55405   0.56396   0.56793   0.58714
  Beta virt. eigenvalues --    0.60095   0.61107   0.65734   0.68764   0.70039
  Beta virt. eigenvalues --    0.70894   0.74266   0.75421   0.76692   0.78170
  Beta virt. eigenvalues --    0.81233   0.81768   0.84246   0.87965   0.89087
  Beta virt. eigenvalues --    0.89165   0.95193   0.95288   0.96164   1.07881
  Beta virt. eigenvalues --    1.08425   1.09152   1.10237   1.15282   1.15361
  Beta virt. eigenvalues --    1.15492   1.20458   1.21207   1.26880   1.27049
  Beta virt. eigenvalues --    1.29380   1.30627   1.32621   1.35473   1.36124
  Beta virt. eigenvalues --    1.37969   1.42114   1.46290   1.46994   1.49546
  Beta virt. eigenvalues --    1.54462   1.54872   1.56459   1.56887   1.57914
  Beta virt. eigenvalues --    1.61382   1.63716   1.65086   1.68889   1.69497
  Beta virt. eigenvalues --    1.73287   1.74651   1.76919   1.77111   1.81754
  Beta virt. eigenvalues --    1.85096   1.86487   1.90442   1.93467   1.96807
  Beta virt. eigenvalues --    2.01585   2.03360   2.04768   2.08234   2.08634
  Beta virt. eigenvalues --    2.15349   2.17335   2.20205   2.22124   2.26202
  Beta virt. eigenvalues --    2.28651   2.29927   2.32031   2.36701   2.42264
  Beta virt. eigenvalues --    2.44141   2.48186   2.49357   2.58015   2.61307
  Beta virt. eigenvalues --    2.62216   2.65180   2.66022   2.69731   2.70699
  Beta virt. eigenvalues --    2.71507   2.72740   2.76170   2.76573   2.76586
  Beta virt. eigenvalues --    2.82557   2.83262   2.83542   2.87185   2.87192
  Beta virt. eigenvalues --    2.88245   2.90104   2.92891   2.95542   2.97309
  Beta virt. eigenvalues --    3.04693   3.04823   3.05752   3.10777   3.14057
  Beta virt. eigenvalues --    3.15783   3.16351   3.19166   3.19549   3.22162
  Beta virt. eigenvalues --    3.23286   3.25566   3.28949   3.28983   3.30058
  Beta virt. eigenvalues --    3.34522   3.36053   3.40538   3.41634   3.42708
  Beta virt. eigenvalues --    3.43681   3.45011   3.45806   3.52699   3.54358
  Beta virt. eigenvalues --    3.56506   3.56657   3.59067   3.59358   3.59800
  Beta virt. eigenvalues --    3.68434   3.72836   3.72980   3.76207   3.81622
  Beta virt. eigenvalues --    3.86315   3.90793   4.02404   4.04380   4.04899
  Beta virt. eigenvalues --    4.08446   4.10466   4.12380   4.15007   4.19686
  Beta virt. eigenvalues --    4.23397   4.28472   4.30836   4.32045   4.33551
  Beta virt. eigenvalues --    4.36426   4.37498   4.52865   4.54614   4.66097
  Beta virt. eigenvalues --    4.69899   4.70385   4.71455   4.76102   4.78393
  Beta virt. eigenvalues --    4.83367   4.85858   4.92257   4.94971   5.03060
  Beta virt. eigenvalues --    5.04515   5.16852   5.20159   5.29524   5.32900
  Beta virt. eigenvalues --    5.34783   5.39647   5.51375   5.57205   5.65756
  Beta virt. eigenvalues --    5.74387   6.05785  22.16062  22.59561  22.65633
  Beta virt. eigenvalues --   22.77937  22.91268  23.27706  32.13550
          Condensed to atoms (all electrons):
               1          2          3          4          5          6
     1  N    6.542530   0.572785  -0.064687   0.010427   0.002930  -0.003007
     2  C    0.572785   4.686700   0.437861  -0.036264  -0.022410  -0.042415
     3  C   -0.064687   0.437861   4.973696   0.415986   0.518455  -0.011855
     4  H    0.010427  -0.036264   0.415986   0.506791  -0.049633   0.010892
     5  C    0.002930  -0.022410   0.518455  -0.049633   4.853353   0.435677
     6  C   -0.003007  -0.042415  -0.011855   0.010892   0.435677   4.918261
     7  C    0.027655   0.044496  -0.066407  -0.007234   0.004776   0.475691
     8  C   -0.125427   0.330969  -0.008079   0.017822  -0.055250  -0.000909
     9  H    0.356308  -0.086361   0.011907  -0.001529  -0.000158  -0.000846
    10  H   -0.000038   0.009989  -0.048113  -0.007218   0.433290  -0.051625
    11  H   -0.000001  -0.002013   0.005805  -0.000030  -0.046822   0.425116
    12  H   -0.003803  -0.047351   0.005409  -0.000111  -0.000949   0.004117
               7          8          9         10         11         12
     1  N    0.027655  -0.125427   0.356308  -0.000038  -0.000001  -0.003803
     2  C    0.044496   0.330969  -0.086361   0.009989  -0.002013  -0.047351
     3  C   -0.066407  -0.008079   0.011907  -0.048113   0.005805   0.005409
     4  H   -0.007234   0.017822  -0.001529  -0.007218  -0.000030  -0.000111
     5  C    0.004776  -0.055250  -0.000158   0.433290  -0.046822  -0.000949
     6  C    0.475691  -0.000909  -0.000846  -0.051625   0.425116   0.004117
     7  C    5.196899   0.320628   0.009995   0.010093  -0.039431  -0.020801
     8  C    0.320628   5.378898  -0.026711  -0.004280   0.007823   0.411320
     9  H    0.009995  -0.026711   0.527509   0.000034  -0.000007   0.002415
    10  H    0.010093  -0.004280   0.000034   0.528467  -0.004386   0.000053
    11  H   -0.039431   0.007823  -0.000007  -0.004386   0.507598  -0.000064
    12  H   -0.020801   0.411320   0.002415   0.000053  -0.000064   0.510296
          Atomic-Atomic Spin Densities.
               1          2          3          4          5          6
     1  N    0.686171  -0.026363  -0.028228  -0.001480   0.000520  -0.000005
     2  C   -0.026363  -0.101989   0.003978   0.000107   0.008277  -0.004003
     3  C   -0.028228   0.003978   0.290095   0.002535  -0.004619  -0.009293
     4  H   -0.001480   0.000107   0.002535  -0.006340  -0.000961   0.000532
     5  C    0.000520   0.008277  -0.004619  -0.000961  -0.096339   0.017861
     6  C   -0.000005  -0.004003  -0.009293   0.000532   0.017861   0.297738
     7  C    0.005942  -0.008887  -0.020317  -0.002269  -0.008880  -0.005215
     8  C   -0.024600   0.043781   0.022510   0.000779   0.000674  -0.005827
     9  H   -0.000718   0.000557   0.001221  -0.000048   0.000067  -0.000073
    10  H    0.000128   0.001570  -0.005411  -0.001340   0.000631  -0.005831
    11  H    0.000028   0.000814  -0.001207  -0.000082  -0.003874   0.006309
    12  H    0.003340  -0.006785  -0.001361  -0.000094   0.000262  -0.001678
               7          8          9         10         11         12
     1  N    0.005942  -0.024600  -0.000718   0.000128   0.000028   0.003340
     2  C   -0.008887   0.043781   0.000557   0.001570   0.000814  -0.006785
     3  C   -0.020317   0.022510   0.001221  -0.005411  -0.001207  -0.001361
     4  H   -0.002269   0.000779  -0.000048  -0.001340  -0.000082  -0.000094
     5  C   -0.008880   0.000674   0.000067   0.000631  -0.003874   0.000262
     6  C   -0.005215  -0.005827  -0.000073  -0.005831   0.006309  -0.001678
     7  C    0.839364  -0.007215   0.000378   0.004875  -0.003051   0.000697
     8  C   -0.007215   0.191036  -0.002173  -0.001696  -0.003293   0.000067
     9  H    0.000378  -0.002173  -0.016272   0.000008   0.000004   0.001677
    10  H    0.004875  -0.001696   0.000008   0.020759   0.001827   0.000032
    11  H   -0.003051  -0.003293   0.000004   0.001827   0.008344   0.000077
    12  H    0.000697   0.000067   0.001677   0.000032   0.000077   0.017057
 Mulliken charges and spin densities:
               1          2
     1  N   -0.315674   0.614736
     2  C    0.154014  -0.088943
     3  C   -0.169977   0.249901
     4  H    0.140101  -0.008660
     5  C   -0.073260  -0.086380
     6  C   -0.159097   0.290514
     7  C    0.043639   0.795423
     8  C   -0.246806   0.214044
     9  H    0.207444  -0.015373
    10  H    0.133735   0.015550
    11  H    0.146411   0.005896
    12  H    0.139470   0.013291
 Sum of Mulliken charges =  -0.00000   2.00000
 Mulliken charges and spin densities with hydrogens summed into heavy atoms:
               1          2
     1  N   -0.108230   0.599363
     2  C    0.154014  -0.088943
     3  C   -0.029876   0.241241
     5  C    0.060475  -0.070830
     6  C   -0.012686   0.296411
     7  C    0.043639   0.795423
     8  C   -0.107335   0.227335
 APT charges:
               1
     1  N   -0.261830
     2  C    0.004047
     3  C    0.010323
     4  H    0.063837
     5  C   -0.049874
     6  C    0.053460
     7  C   -0.177891
     8  C    0.003426
     9  H    0.168791
    10  H    0.041985
    11  H    0.072714
    12  H    0.071012
 Sum of APT charges =  -0.00000
 APT charges with hydrogens summed into heavy atoms:
               1
     1  N   -0.093039
     2  C    0.004047
     3  C    0.074160
     5  C   -0.007889
     6  C    0.126174
     7  C   -0.177891
     8  C    0.074438
 Electronic spatial extent (au):  <R**2>=            621.9127
 Charge=             -0.0000 electrons
 Dipole moment (field-independent basis, Debye):
    X=              1.5366    Y=              0.6230    Z=              0.0000  Tot=              1.6581
 Quadrupole moment (field-independent basis, Debye-Ang):
   XX=            -39.3850   YY=            -38.0984   ZZ=            -43.5621
   XY=             -6.7048   XZ=             -0.0000   YZ=              0.0000
 Traceless Quadrupole moment (field-independent basis, Debye-Ang):
   XX=              0.9635   YY=              2.2501   ZZ=             -3.2136
   XY=             -6.7048   XZ=             -0.0000   YZ=              0.0000
 Octapole moment (field-independent basis, Debye-Ang**2):
  XXX=             14.5350  YYY=             -7.1856  ZZZ=              0.0000  XYY=             -3.2320
  XXY=             11.5967  XXZ=              0.0000  XZZ=             -2.6284  YZZ=             -0.4743
  YYZ=              0.0000  XYZ=             -0.0000
 Hexadecapole moment (field-independent basis, Debye-Ang**3):
 XXXX=           -499.3119 YYYY=           -269.7364 ZZZZ=            -49.0286 XXXY=            -46.3798
 XXXZ=             -0.0000 YYYX=            -20.9606 YYYZ=              0.0000 ZZZX=             -0.0000
 ZZZY=              0.0000 XXYY=           -132.8066 XXZZ=           -102.1728 YYZZ=            -60.9910
 XXYZ=              0.0000 YYXZ=             -0.0000 ZZXY=             -1.6613
 N-N= 2.524260453411D+02 E-N=-1.169850602714D+03  KE= 2.849392371038D+02
  Exact polarizability: 107.883  -0.333  77.635   0.000   0.000  41.493
 Approx polarizability: 120.804   1.168  89.287   0.000   0.000  49.987
                          Isotropic Fermi Contact Couplings
        Atom                 a.u.       MegaHertz       Gauss      10(-4) cm-1
     1  N(14)              0.05431       8.77317       3.13049       2.92642
     2  C(13)              0.00135       0.75888       0.27079       0.25314
     3  C(13)              0.01193       6.70822       2.39366       2.23762
     4  H(1)              -0.00355      -7.93261      -2.83055      -2.64604
     5  C(13)              0.02389      13.42624       4.79081       4.47851
     6  C(13)              0.03527      19.82372       7.07359       6.61248
     7  C(13)              0.29946     168.32577      60.06282      56.14743
     8  C(13)              0.02357      13.25113       4.72833       4.42010
     9  H(1)              -0.00791     -17.67579      -6.30716      -5.89601
    10  H(1)               0.00564      12.61069       4.49981       4.20647
    11  H(1)               0.00500      11.18071       3.98956       3.72949
    12  H(1)               0.00824      18.41683       6.57158       6.14319
 --------------------------------------------------------
       Center         ----  Spin Dipole Couplings  ----
                      3XX-RR        3YY-RR        3ZZ-RR
 --------------------------------------------------------
     1   Atom       -0.668349     -0.694941      1.363289
     2   Atom        0.095582      0.127386     -0.222969
     3   Atom       -0.155631     -0.143697      0.299328
     4   Atom       -0.011708      0.018978     -0.007270
     5   Atom        0.052328      0.124308     -0.176636
     6   Atom       -0.186373     -0.112587      0.298960
     7   Atom       -0.214021      0.798080     -0.584059
     8   Atom       -0.046102     -0.150861      0.196964
     9   Atom       -0.022961      0.038240     -0.015279
    10   Atom        0.003392      0.007452     -0.010844
    11   Atom        0.039361     -0.026761     -0.012601
    12   Atom        0.014340      0.001764     -0.016104
 --------------------------------------------------------
                        XY            XZ            YZ
 --------------------------------------------------------
     1   Atom        0.029704      0.000001     -0.000001
     2   Atom        0.055302      0.000000     -0.000000
     3   Atom        0.004518     -0.000000      0.000000
     4   Atom        0.012089      0.000000      0.000000
     5   Atom        0.035548     -0.000000      0.000000
     6   Atom       -0.044321     -0.000000     -0.000000
     7   Atom        0.580530      0.000000      0.000000
     8   Atom        0.037174      0.000000      0.000000
     9   Atom       -0.058915     -0.000000      0.000000
    10   Atom        0.001086     -0.000000      0.000000
    11   Atom       -0.010413     -0.000000     -0.000000
    12   Atom       -0.022459     -0.000000      0.000000
 --------------------------------------------------------


 ---------------------------------------------------------------------------------
              Anisotropic Spin Dipole Couplings in Principal Axis System
 ---------------------------------------------------------------------------------

       Atom             a.u.   MegaHertz   Gauss  10(-4) cm-1        Axes

              Baa    -0.7142   -27.545    -9.829    -9.188 -0.5438  0.8392  0.0000
     1 N(14)  Bbb    -0.6491   -25.034    -8.933    -8.351  0.8392  0.5438  0.0000
              Bcc     1.3633    52.579    18.762    17.538  0.0000 -0.0000  1.0000
 
              Baa    -0.2230   -29.920   -10.676    -9.980 -0.0000  0.0000  1.0000
     2 C(13)  Bbb     0.0539     7.238     2.583     2.414  0.7989 -0.6015  0.0000
              Bcc     0.1690    22.682     8.093     7.566  0.6015  0.7989 -0.0000
 
              Baa    -0.1571   -21.088    -7.525    -7.034  0.9480 -0.3184  0.0000
     3 C(13)  Bbb    -0.1422   -19.079    -6.808    -6.364  0.3184  0.9480 -0.0000
              Bcc     0.2993    40.167    14.333    13.398 -0.0000  0.0000  1.0000
 
              Baa    -0.0159    -8.483    -3.027    -2.830  0.9448 -0.3275 -0.0000
     4 H(1)   Bbb    -0.0073    -3.879    -1.384    -1.294 -0.0000 -0.0000  1.0000
              Bcc     0.0232    12.362     4.411     4.123  0.3275  0.9448  0.0000
 
              Baa    -0.1766   -23.703    -8.458    -7.906  0.0000 -0.0000  1.0000
     5 C(13)  Bbb     0.0377     5.063     1.807     1.689  0.9251 -0.3798 -0.0000
              Bcc     0.1389    18.640     6.651     6.218  0.3798  0.9251  0.0000
 
              Baa    -0.2071   -27.797    -9.919    -9.272  0.9055  0.4244  0.0000
     6 C(13)  Bbb    -0.0918   -12.320    -4.396    -4.110 -0.4244  0.9055  0.0000
              Bcc     0.2990    40.118    14.315    13.382  0.0000 -0.0000  1.0000
 
              Baa    -0.5841   -78.375   -27.966   -26.143 -0.0000 -0.0000  1.0000
     7 C(13)  Bbb    -0.4781   -64.157   -22.893   -21.400  0.9102 -0.4141  0.0000
              Bcc     1.0622   142.532    50.859    47.543  0.4141  0.9102  0.0000
 
              Baa    -0.1627   -21.834    -7.791    -7.283 -0.3037  0.9528  0.0000
     8 C(13)  Bbb    -0.0343    -4.596    -1.640    -1.533  0.9528  0.3037 -0.0000
              Bcc     0.1970    26.431     9.431     8.816  0.0000  0.0000  1.0000
 
              Baa    -0.0587   -31.346   -11.185   -10.456  0.8547  0.5192  0.0000
     9 H(1)   Bbb    -0.0153    -8.152    -2.909    -2.719  0.0000 -0.0000  1.0000
              Bcc     0.0740    39.498    14.094    13.175 -0.5192  0.8547  0.0000
 
              Baa    -0.0108    -5.786    -2.065    -1.930  0.0000 -0.0000  1.0000
    10 H(1)   Bbb     0.0031     1.665     0.594     0.555  0.9700 -0.2431 -0.0000
              Bcc     0.0077     4.121     1.471     1.375  0.2431  0.9700  0.0000
 
              Baa    -0.0284   -15.132    -5.400    -5.048  0.1520  0.9884  0.0000
    11 H(1)   Bbb    -0.0126    -6.723    -2.399    -2.243  0.0000 -0.0000  1.0000
              Bcc     0.0410    21.856     7.799     7.290  0.9884 -0.1520 -0.0000
 
              Baa    -0.0161    -8.592    -3.066    -2.866  0.0000  0.0000  1.0000
    12 H(1)   Bbb    -0.0153    -8.148    -2.907    -2.718  0.6043  0.7967 -0.0000
              Bcc     0.0314    16.740     5.973     5.584  0.7967 -0.6043 -0.0000
 

 ---------------------------------------------------------------------------------

 No NMR shielding tensors so no spin-rotation constants.
 Leave Link  601 at Mon Mar  2 00:56:50 2020, MaxMem=  1879048192 cpu:              77.5 elap:               2.2
 (Enter /opt/g16/l701.exe)
 SCFChk:  SCF convergence  4.18D-09 required  1.00D-08
 ... and contract with generalized density number  0.
 Compute integral second derivatives.
 R6Disp: Adding Grimme-D2 dispersion energy 2nd derivatives to the Hessian.
 Entering OneElI...
 Calculate overlap and kinetic energy integrals
    NBasis = 282  MinDer = 2  MaxDer = 2
 Requested accuracy = 0.1000D-14
 PrmmSu-InSpLW:  IPartL=    0 NPrtUS=   36 NPrtUL=    1 DoSpLW=F IThBeg=    0 IThEnd=   35 NThAct=   36.
 PrSmSu:  IncTry=   512 NBBP=           4730 NTPThr=   100 NPartT=   36 Incr=           1 LDynOK=F GPUOK=F.
 PrsmSu:  NPrtUS=  36 ThrOK=T IAlg=2 LenDen=           0 ISkipM=0 DoSpLW=F IThBeg=    0 IThEnd=   35.
 Prism:   IPart=     0 DynPar=F LinDyn=F Incr=           1.
 PRISM was handed    52079606 working-precision words and  4730 shell-pairs
 PRISM was handed    52079606 working-precision words and  4730 shell-pairs
 PRISM was handed    52079606 working-precision words and  4730 shell-pairs
 PRISM was handed    52079606 working-precision words and  4730 shell-pairs
 PRISM was handed    52079606 working-precision words and  4730 shell-pairs
 PRISM was handed    52079606 working-precision words and  4730 shell-pairs
 PRISM was handed    52079606 working-precision words and  4730 shell-pairs
 PRISM was handed    52079606 working-precision words and  4730 shell-pairs
 PRISM was handed    52079606 working-precision words and  4730 shell-pairs
 PRISM was handed    52079606 working-precision words and  4730 shell-pairs
 PRISM was handed    52079606 working-precision words and  4730 shell-pairs
 PRISM was handed    52079606 working-precision words and  4730 shell-pairs
 PRISM was handed    52079606 working-precision words and  4730 shell-pairs
 PRISM was handed    52079606 working-precision words and  4730 shell-pairs
 PRISM was handed    52079606 working-precision words and  4730 shell-pairs
 PRISM was handed    52079606 working-precision words and  4730 shell-pairs
 PRISM was handed    52079606 working-precision words and  4730 shell-pairs
 PRISM was handed    52079606 working-precision words and  4730 shell-pairs
 PRISM was handed    52079606 working-precision words and  4730 shell-pairs
 PRISM was handed    52079606 working-precision words and  4730 shell-pairs
 PRISM was handed    52079606 working-precision words and  4730 shell-pairs
 PRISM was handed    52079606 working-precision words and  4730 shell-pairs
 PRISM was handed    52079606 working-precision words and  4730 shell-pairs
 PRISM was handed    52079606 working-precision words and  4730 shell-pairs
 PRISM was handed    52079606 working-precision words and  4730 shell-pairs
 PRISM was handed    52079606 working-precision words and  4730 shell-pairs
 PRISM was handed    52079606 working-precision words and  4730 shell-pairs
 PRISM was handed    52079606 working-precision words and  4730 shell-pairs
 PRISM was handed    52079606 working-precision words and  4730 shell-pairs
 PRISM was handed    52079606 working-precision words and  4730 shell-pairs
 PRISM was handed    52079606 working-precision words and  4730 shell-pairs
 PRISM was handed    52079606 working-precision words and  4730 shell-pairs
 PRISM was handed    52079606 working-precision words and  4730 shell-pairs
 PRISM was handed    52079606 working-precision words and  4730 shell-pairs
 PRISM was handed    52079606 working-precision words and  4730 shell-pairs
 PRISM was handed    52079606 working-precision words and  4730 shell-pairs
 IPart=  1 NShTot=         154 NBatch=          44 AvBLen=         3.5
 IPart=  6 NShTot=         147 NBatch=          39 AvBLen=         3.8
 IPart=  9 NShTot=         140 NBatch=          33 AvBLen=         4.2
 IPart= 16 NShTot=         130 NBatch=          31 AvBLen=         4.2
 IPart= 34 NShTot=         111 NBatch=          24 AvBLen=         4.6
 IPart= 14 NShTot=         133 NBatch=          32 AvBLen=         4.2
 IPart= 32 NShTot=         114 NBatch=          25 AvBLen=         4.6
 IPart=  8 NShTot=         142 NBatch=          34 AvBLen=         4.2
 IPart= 17 NShTot=         130 NBatch=          31 AvBLen=         4.2
 IPart=  4 NShTot=         150 NBatch=          41 AvBLen=         3.7
 IPart= 15 NShTot=         132 NBatch=          31 AvBLen=         4.3
 IPart=  7 NShTot=         143 NBatch=          35 AvBLen=         4.1
 IPart= 10 NShTot=         138 NBatch=          33 AvBLen=         4.2
 IPart= 13 NShTot=         135 NBatch=          33 AvBLen=         4.1
 IPart= 11 NShTot=         138 NBatch=          33 AvBLen=         4.2
 IPart=  0 NShTot=         159 NBatch=          48 AvBLen=         3.3
 IPart= 22 NShTot=         129 NBatch=          30 AvBLen=         4.3
 IPart= 33 NShTot=         112 NBatch=          25 AvBLen=         4.5
 IPart= 31 NShTot=         115 NBatch=          25 AvBLen=         4.6
 IPart= 28 NShTot=         116 NBatch=          26 AvBLen=         4.5
 IPart= 35 NShTot=         111 NBatch=          24 AvBLen=         4.6
 IPart= 23 NShTot=         127 NBatch=          28 AvBLen=         4.5
 IPart= 29 NShTot=         116 NBatch=          26 AvBLen=         4.5
 IPart= 19 NShTot=         130 NBatch=          31 AvBLen=         4.2
 IPart= 26 NShTot=         120 NBatch=          28 AvBLen=         4.3
 IPart= 25 NShTot=         122 NBatch=          28 AvBLen=         4.4
 IPart= 21 NShTot=         130 NBatch=          31 AvBLen=         4.2
 IPart= 27 NShTot=         118 NBatch=          27 AvBLen=         4.4
 IPart= 20 NShTot=         130 NBatch=          31 AvBLen=         4.2
 IPart=  5 NShTot=         147 NBatch=          39 AvBLen=         3.8
 IPart=  3 NShTot=         150 NBatch=          41 AvBLen=         3.7
 IPart= 30 NShTot=         115 NBatch=          25 AvBLen=         4.6
 IPart=  2 NShTot=         151 NBatch=          42 AvBLen=         3.6
 IPart= 24 NShTot=         127 NBatch=          28 AvBLen=         4.5
 IPart= 12 NShTot=         138 NBatch=          33 AvBLen=         4.2
 IPart= 18 NShTot=         130 NBatch=          31 AvBLen=         4.2
 PrSmSu:  NxtVal=             37.
 Entering OneElI...
 Calculate potential energy integrals
    NBasis = 282  MinDer = 2  MaxDer = 2
 Requested accuracy = 0.1000D-14
 PrmmSu-InSpLW:  IPartL=    0 NPrtUS=   36 NPrtUL=    1 DoSpLW=F IThBeg=    0 IThEnd=   35 NThAct=   36.
 PrSmSu:  IncTry=   512 NBBP=          55080 NTPThr=   100 NPartT=   36 Incr=          15 LDynOK=F GPUOK=F.
 PrsmSu:  NPrtUS=  36 ThrOK=T IAlg=2 LenDen=           0 ISkipM=0 DoSpLW=F IThBeg=    0 IThEnd=   35.
 Prism:   IPart=     0 DynPar=F LinDyn=F Incr=          15.
 PRISM was handed    52092183 working-precision words and  4590 shell-pairs
 PRISM was handed    52092183 working-precision words and  4590 shell-pairs
 PRISM was handed    52092183 working-precision words and  4590 shell-pairs
 PRISM was handed    52092183 working-precision words and  4590 shell-pairs
 PRISM was handed    52092183 working-precision words and  4590 shell-pairs
 PRISM was handed    52092183 working-precision words and  4590 shell-pairs
 PRISM was handed    52092183 working-precision words and  4590 shell-pairs
 PRISM was handed    52092183 working-precision words and  4590 shell-pairs
 PRISM was handed    52092183 working-precision words and  4590 shell-pairs
 PRISM was handed    52092183 working-precision words and  4590 shell-pairs
 PRISM was handed    52092183 working-precision words and  4590 shell-pairs
 PRISM was handed    52092183 working-precision words and  4590 shell-pairs
 PRISM was handed    52092183 working-precision words and  4590 shell-pairs
 PRISM was handed    52092183 working-precision words and  4590 shell-pairs
 PRISM was handed    52092183 working-precision words and  4590 shell-pairs
 PRISM was handed    52092183 working-precision words and  4590 shell-pairs
 PRISM was handed    52092183 working-precision words and  4590 shell-pairs
 PRISM was handed    52092183 working-precision words and  4590 shell-pairs
 PRISM was handed    52092183 working-precision words and  4590 shell-pairs
 PRISM was handed    52092183 working-precision words and  4590 shell-pairs
 PRISM was handed    52092183 working-precision words and  4590 shell-pairs
 PRISM was handed    52092183 working-precision words and  4590 shell-pairs
 PRISM was handed    52092183 working-precision words and  4590 shell-pairs
 PRISM was handed    52092183 working-precision words and  4590 shell-pairs
 PRISM was handed    52092183 working-precision words and  4590 shell-pairs
 PRISM was handed    52092183 working-precision words and  4590 shell-pairs
 PRISM was handed    52092183 working-precision words and  4590 shell-pairs
 PRISM was handed    52092183 working-precision words and  4590 shell-pairs
 PRISM was handed    52092183 working-precision words and  4590 shell-pairs
 PRISM was handed    52092183 working-precision words and  4590 shell-pairs
 PRISM was handed    52092183 working-precision words and  4590 shell-pairs
 PRISM was handed    52092183 working-precision words and  4590 shell-pairs
 PRISM was handed    52092183 working-precision words and  4590 shell-pairs
 PRISM was handed    52092183 working-precision words and  4590 shell-pairs
 PRISM was handed    52092183 working-precision words and  4590 shell-pairs
 PRISM was handed    52092183 working-precision words and  4590 shell-pairs
 IPart=  1 NShTot=        1884 NBatch=         157 AvBLen=        12.0
 IPart= 30 NShTot=        1344 NBatch=         112 AvBLen=        12.0
 IPart= 34 NShTot=        1332 NBatch=         111 AvBLen=        12.0
 IPart= 32 NShTot=        1332 NBatch=         111 AvBLen=        12.0
 IPart= 31 NShTot=        1344 NBatch=         112 AvBLen=        12.0
 IPart= 28 NShTot=        1356 NBatch=         113 AvBLen=        12.0
 IPart= 35 NShTot=        1332 NBatch=         111 AvBLen=        12.0
 IPart= 11 NShTot=        1620 NBatch=         135 AvBLen=        12.0
 IPart=  9 NShTot=        1632 NBatch=         136 AvBLen=        12.0
 IPart=  6 NShTot=        1692 NBatch=         141 AvBLen=        12.0
 IPart= 10 NShTot=        1632 NBatch=         136 AvBLen=        12.0
 IPart=  4 NShTot=        1752 NBatch=         146 AvBLen=        12.0
 IPart= 13 NShTot=        1584 NBatch=         132 AvBLen=        12.0
 IPart= 17 NShTot=        1488 NBatch=         124 AvBLen=        12.0
 IPart= 15 NShTot=        1524 NBatch=         127 AvBLen=        12.0
 IPart= 16 NShTot=        1500 NBatch=         125 AvBLen=        12.0
 IPart= 21 NShTot=        1428 NBatch=         119 AvBLen=        12.0
 IPart= 14 NShTot=        1560 NBatch=         130 AvBLen=        12.0
 IPart= 33 NShTot=        1332 NBatch=         111 AvBLen=        12.0
 IPart=  5 NShTot=        1716 NBatch=         143 AvBLen=        12.0
 IPart=  8 NShTot=        1656 NBatch=         138 AvBLen=        12.0
 IPart=  7 NShTot=        1656 NBatch=         138 AvBLen=        12.0
 IPart= 27 NShTot=        1392 NBatch=         116 AvBLen=        12.0
 IPart= 24 NShTot=        1416 NBatch=         118 AvBLen=        12.0
 IPart= 20 NShTot=        1440 NBatch=         120 AvBLen=        12.0
 IPart=  2 NShTot=        1848 NBatch=         154 AvBLen=        12.0
 IPart= 29 NShTot=        1344 NBatch=         112 AvBLen=        12.0
 IPart= 25 NShTot=        1404 NBatch=         117 AvBLen=        12.0
 IPart=  3 NShTot=        1800 NBatch=         150 AvBLen=        12.0
 IPart= 23 NShTot=        1416 NBatch=         118 AvBLen=        12.0
 IPart= 26 NShTot=        1392 NBatch=         116 AvBLen=        12.0
 IPart= 19 NShTot=        1464 NBatch=         122 AvBLen=        12.0
 IPart= 22 NShTot=        1428 NBatch=         119 AvBLen=        12.0
 IPart= 12 NShTot=        1596 NBatch=         133 AvBLen=        12.0
 IPart= 18 NShTot=        1488 NBatch=         124 AvBLen=        12.0
 IPart=  0 NShTot=        1956 NBatch=         163 AvBLen=        12.0
 PrSmSu:  NxtVal=            541.
   1 Symmetry operations used in ECPInt.
 ECPInt:  NShTT=    4753 NPrTT=   14704 LenC2=    4700 LenP2D=   12021.
 LDataN:  DoStor=F MaxTD1= 8 Len=  415
 LDataN:  DoStor=T MaxTD1= 8 Len=  415
 ECPSu:  NPrtUS=  36 ThrOK=T ISkipM=0 DoSpLW=F IThBeg=    0 IThEnd=   35.
 Polarizability after L701:
                1             2             3 
      1  0.107883D+03
      2 -0.333356D+00  0.776352D+02
      3  0.000000D+00  0.118135D-05  0.414928D+02
 Dipole Derivatives after L701:
                 1             2             3             4             5 
      1  -0.238834D+00 -0.128126D+00  0.000000D+00 -0.233202D+00  0.515685D-01
      2  -0.775472D-01 -0.110890D+00  0.000000D+00  0.583445D-01  0.158762D+00
      3   0.000000D+00  0.000000D+00 -0.435766D+00  0.000000D+00  0.000000D+00
                 6             7             8             9            10 
      1   0.000000D+00  0.132976D+00  0.193497D-01  0.000000D+00  0.555414D-01
      2   0.000000D+00  0.164472D+00  0.793884D-02  0.000000D+00 -0.463206D-01
      3   0.865794D-01  0.000000D+00  0.000000D+00 -0.109945D+00  0.000000D+00
                11            12            13            14            15 
      1  -0.225902D-01  0.000000D+00 -0.365403D-01 -0.152579D+00  0.000000D+00
      2  -0.227747D-02  0.000000D+00 -0.165743D+00  0.159385D-01  0.000000D+00
      3   0.000000D+00  0.138247D+00  0.000000D+00  0.000000D+00 -0.129019D+00
                16            17            18            19            20 
      1   0.146915D+00 -0.615580D-01  0.000000D+00 -0.291100D+00  0.834818D-01
      2  -0.206945D-01  0.618772D-01  0.000000D+00  0.784939D-01 -0.112828D+00
      3   0.000000D+00  0.000000D+00 -0.484121D-01  0.000000D+00  0.000000D+00
                21            22            23            24            25 
      1   0.000000D+00  0.161276D+00 -0.529001D-01  0.000000D+00  0.284229D+00
      2   0.000000D+00 -0.127373D+00 -0.987300D-01  0.000000D+00  0.168924D-01
      3  -0.129744D+00  0.000000D+00  0.000000D+00 -0.522683D-01  0.000000D+00
                26            27            28            29            30 
      1   0.147116D+00  0.000000D+00  0.225753D-01  0.804246D-01  0.000000D+00
      2  -0.203556D-01  0.000000D+00  0.557369D-01 -0.276113D-01  0.000000D+00
      3   0.000000D+00  0.242500D+00  0.000000D+00  0.000000D+00  0.130991D+00
                31            32            33            34            35 
      1  -0.228710D-01 -0.676850D-02  0.000000D+00  0.190346D-01  0.425806D-01
      2  -0.941452D-02  0.957612D-01  0.000000D+00  0.731530D-01  0.324144D-01
      3   0.000000D+00  0.000000D+00  0.145251D+00  0.000000D+00  0.000000D+00
                36 
      1   0.000000D+00
      2   0.000000D+00
      3   0.161586D+00
 Hessian after L701:
                1             2             3             4             5 
      1  0.256156D+01
      2  0.393909D-01  0.124675D+02
      3  0.501890D-05 -0.360256D-05  0.170230D+02
      4 -0.439387D+00  0.149554D+01 -0.323116D-05  0.102970D+02
      5  0.151933D+01 -0.100852D+02  0.000000D+00 -0.118978D+01  0.156370D+02
      6 -0.388081D-05  0.000000D+00 -0.118205D+02 -0.217275D-05  0.996741D-05
      7  0.209815D+00 -0.178267D+00  0.123536D-05 -0.516365D+01 -0.328638D+01
      8 -0.196261D+00  0.901094D-02  0.000000D+00 -0.351753D+01 -0.353967D+01
      9  0.161830D-05  0.000000D+00 -0.120936D+00  0.318555D-05 -0.503954D-05
     10  0.643540D-01 -0.783538D-01  0.000000D+00  0.104128D+00  0.308435D-01
     11 -0.191007D+00  0.248602D-03  0.000000D+00 -0.252225D-01 -0.104451D+00
     12  0.000000D+00  0.000000D+00 -0.888747D-01  0.000000D+00  0.000000D+00
     13  0.338041D+00 -0.720917D-01  0.000000D+00  0.419084D+00 -0.323357D+00
     14 -0.763490D-01 -0.139039D+00  0.000000D+00 -0.279534D+00 -0.896568D-01
     15  0.000000D+00  0.000000D+00 -0.125487D+00  0.215860D-05  0.000000D+00
     16  0.160707D+00  0.837635D-01  0.000000D+00  0.340813D+00  0.774790D-01
     17  0.476718D-01 -0.916092D-01  0.000000D+00  0.501893D-01 -0.181091D+00
     18  0.000000D+00  0.000000D+00 -0.853767D-01  0.125121D-05  0.000000D+00
     19  0.407800D+00  0.244289D+00  0.000000D+00 -0.207230D+00  0.388990D+00
     20  0.229156D+00 -0.155743D+00  0.000000D+00  0.404384D+00 -0.196569D-01
     21  0.000000D+00  0.000000D+00 -0.201901D+00  0.000000D+00  0.000000D+00
     22  0.894543D-01  0.397948D+00  0.000000D+00 -0.574132D+01  0.261510D+01
     23  0.245973D+00  0.448455D+00  0.000000D+00  0.304930D+01 -0.155739D+01
     24  0.000000D+00  0.000000D+00  0.184805D+00  0.000000D+00 -0.390978D-05
     25 -0.342988D+01 -0.193715D+01 -0.308331D-05  0.113311D+00  0.301806D+00
     26 -0.165053D+01 -0.254836D+01  0.392330D-05  0.120760D+00  0.866872D-01
     27 -0.255088D-05  0.400459D-05 -0.471099D+01  0.000000D+00  0.000000D+00
     28  0.335858D-01 -0.622443D-02  0.000000D+00  0.111047D+00 -0.113157D+00
     29 -0.343913D-01 -0.587558D-02  0.000000D+00 -0.129169D+00  0.371888D-01
     30  0.000000D+00  0.000000D+00 -0.111002D-01  0.000000D+00  0.000000D+00
     31  0.368242D-01  0.154985D-01  0.000000D+00  0.235017D-01 -0.247134D-02
     32  0.576582D-02 -0.456157D-02  0.000000D+00  0.230429D-02 -0.948062D-02
     33  0.000000D+00  0.000000D+00 -0.918403D-02  0.000000D+00  0.000000D+00
     34 -0.328795D-01 -0.434234D-02  0.000000D+00  0.142746D+00 -0.183935D-01
     35  0.612572D-01  0.105165D+00  0.000000D+00  0.187583D-01 -0.174213D+00
     36  0.000000D+00  0.000000D+00 -0.334031D-01  0.000000D+00  0.000000D+00
                6             7             8             9            10 
      6  0.291984D+02
      7  0.262106D-05  0.911079D+01
      8 -0.507924D-05  0.118342D+01  0.129430D+02
      9 -0.886322D+01  0.745250D-05  0.233254D-05  0.240234D+02
     10  0.000000D+00 -0.370555D+01  0.108762D+01  0.000000D+00  0.362484D+01
     11  0.000000D+00  0.121882D+01 -0.187766D+01  0.000000D+00 -0.111383D+01
     12  0.813506D-01  0.000000D+00  0.000000D+00 -0.413689D+01  0.000000D+00
     13  0.271735D-05 -0.570026D+00  0.116688D+01 -0.105441D-04 -0.262942D-01
     14 -0.120072D-05  0.800143D+00 -0.840615D+01  0.000000D+00 -0.882666D-01
     15 -0.192441D+00 -0.102995D-04 -0.133406D-05 -0.105434D+02  0.000000D+00
     16  0.000000D+00  0.237515D+00  0.360555D+00  0.000000D+00  0.581783D-01
     17  0.000000D+00  0.370321D+00 -0.193101D-01  0.000000D+00  0.113107D+00
     18 -0.272693D-01  0.000000D+00  0.000000D+00 -0.190017D+00  0.000000D+00
     19  0.000000D+00 -0.210797D-01  0.272354D+00  0.000000D+00  0.516126D-02
     20  0.000000D+00  0.308947D+00  0.338415D+00  0.000000D+00  0.222093D-02
     21 -0.342930D+00  0.000000D+00  0.000000D+00  0.769573D-01  0.000000D+00
     22  0.000000D+00 -0.253022D+00 -0.300078D+00  0.000000D+00 -0.772656D-01
     23 -0.330806D-05 -0.332753D+00  0.271636D+00  0.345892D-05  0.439913D-01
     24 -0.833863D+01  0.000000D+00  0.407421D-05 -0.224241D+00  0.000000D+00
     25  0.000000D+00  0.123158D+00 -0.162167D+00  0.000000D+00 -0.732070D-02
     26  0.000000D+00 -0.145052D+00  0.615917D-01  0.000000D+00  0.864968D-02
     27  0.232085D+00  0.000000D+00  0.000000D+00 -0.485475D-01  0.000000D+00
     28  0.000000D+00 -0.840494D-01  0.910367D-01  0.000000D+00 -0.458612D-01
     29  0.000000D+00  0.512063D-01  0.916653D-01  0.000000D+00 -0.126715D-01
     30 -0.404090D-01  0.000000D+00  0.000000D+00  0.945792D-01  0.000000D+00
     31  0.000000D+00  0.137172D+00  0.841121D-01  0.000000D+00  0.816744D-02
     32  0.000000D+00  0.661858D-01 -0.102643D-01  0.000000D+00  0.184477D-02
     33 -0.653418D-02  0.000000D+00  0.000000D+00 -0.328650D-01  0.000000D+00
     34  0.000000D+00 -0.210705D-01 -0.699453D-01  0.000000D+00 -0.253303D-02
     35  0.000000D+00 -0.565825D-01  0.137730D+00  0.000000D+00  0.484476D-02
     36  0.120136D+00  0.000000D+00  0.000000D+00 -0.348205D-01  0.000000D+00
               11            12            13            14            15 
     11  0.154237D+01
     12  0.000000D+00  0.415304D+01
     13 -0.633708D-01  0.000000D+00  0.974290D+01
     14  0.753392D-01  0.000000D+00 -0.141677D+01  0.118497D+02
     15  0.000000D+00  0.917486D-01  0.520466D-05 -0.176697D-05  0.239778D+02
     16  0.143961D+00  0.000000D+00 -0.637623D+01  0.279416D+01  0.342955D-05
     17  0.860287D-01  0.000000D+00  0.244989D+01 -0.174637D+01  0.687524D-05
     18  0.000000D+00 -0.435689D-01  0.208367D-05  0.692010D-05 -0.906072D+01
     19  0.456707D-02  0.000000D+00 -0.348753D+00 -0.866579D-01  0.000000D+00
     20 -0.533681D-02  0.000000D+00 -0.139363D+00  0.547157D+00 -0.286230D-05
     21  0.000000D+00  0.946428D-03  0.000000D+00 -0.333436D-05 -0.265847D+00
     22  0.178961D-01  0.000000D+00 -0.120087D+00 -0.178441D+00  0.000000D+00
     23  0.258065D+00  0.000000D+00 -0.123393D+00  0.118709D+00  0.000000D+00
     24  0.000000D+00 -0.643548D-01  0.000000D+00  0.000000D+00  0.341240D-01
     25 -0.799669D-03  0.000000D+00  0.258682D-01 -0.667629D-02  0.000000D+00
     26  0.440502D-02  0.000000D+00 -0.224913D-01 -0.957092D-03  0.000000D+00
     27  0.000000D+00  0.116973D-02  0.000000D+00  0.000000D+00 -0.103541D-01
     28  0.174012D-02  0.000000D+00 -0.310486D+01 -0.134400D+01  0.000000D+00
     29  0.466080D-02  0.000000D+00 -0.131079D+01 -0.223884D+01  0.000000D+00
     30  0.000000D+00  0.845177D-02  0.000000D+00  0.000000D+00 -0.398631D+01
     31  0.152706D-01  0.000000D+00  0.132351D-01 -0.939722D-01  0.000000D+00
     32  0.311304D-02  0.000000D+00 -0.117531D+00  0.916114D-02  0.000000D+00
     33  0.000000D+00 -0.166331D-02  0.000000D+00  0.000000D+00  0.911524D-01
     34 -0.802349D-02  0.000000D+00  0.711488D-02 -0.236284D-01  0.000000D+00
     35  0.132162D-01  0.000000D+00 -0.276137D-01  0.209464D-01  0.000000D+00
     36  0.000000D+00 -0.136249D-02  0.000000D+00  0.000000D+00 -0.102649D-01
               16            17            18            19            20 
     16  0.114897D+02
     17  0.543240D+00  0.914425D+01
     18 -0.101411D-05 -0.888438D-05  0.230208D+02
     19 -0.526530D+01 -0.342578D+01  0.000000D+00  0.500254D+01
     20 -0.396179D+01 -0.305347D+01  0.000000D+00  0.215674D+01  0.102471D+02
     21  0.000000D+00  0.129781D-05 -0.961275D+01 -0.879048D-05  0.160998D-05
     22  0.410624D+00 -0.421726D+00 -0.276212D-05  0.437219D+00  0.940728D+00
     23 -0.293467D+00 -0.145755D+00  0.135611D-05  0.425421D+00 -0.811890D+01
     24 -0.297599D-05  0.112469D-05 -0.185490D+00  0.834997D-05  0.112796D-05
     25  0.110107D-01 -0.397231D-02  0.000000D+00  0.183816D+00  0.532111D-01
     26 -0.139675D-01 -0.132995D-02  0.000000D+00 -0.710278D-02 -0.450702D-01
     27  0.000000D+00  0.000000D+00 -0.522534D-02  0.000000D+00  0.000000D+00
     28  0.126231D+00 -0.955997D-02  0.000000D+00 -0.251349D-01 -0.107795D+00
     29  0.892823D-02 -0.108508D+00  0.000000D+00 -0.667333D-01  0.177854D+00
     30  0.000000D+00  0.000000D+00  0.103159D+00  0.000000D+00  0.000000D+00
     31 -0.127646D+01  0.367233D+00  0.000000D+00 -0.661004D-01  0.725399D-01
     32  0.357376D+00 -0.391330D+01  0.000000D+00  0.123380D+00  0.267142D-01
     33  0.000000D+00  0.000000D+00 -0.388514D+01  0.000000D+00  0.000000D+00
     34  0.832364D-01 -0.806072D-01  0.000000D+00 -0.102937D+00  0.410137D-01
     35 -0.100237D+00  0.304738D-01  0.000000D+00 -0.294651D-01  0.609608D-01
     36  0.000000D+00  0.000000D+00 -0.283911D-01  0.000000D+00  0.000000D+00
               21            22            23            24            25 
     21  0.207821D+02
     22  0.771977D-05  0.858305D+01
     23  0.000000D+00 -0.166430D+01  0.108269D+02
     24 -0.104437D+02 -0.325526D-05 -0.309517D-05  0.231118D+02
     25  0.000000D+00 -0.263652D+00 -0.554117D-02  0.000000D+00  0.322465D+01
     26  0.000000D+00 -0.197143D-01  0.520357D-01  0.000000D+00  0.172469D+01
     27 -0.369892D-01  0.000000D+00  0.000000D+00  0.271338D-01  0.289897D-05
     28  0.000000D+00  0.407917D-02  0.178743D-02  0.000000D+00  0.581862D-02
     29  0.000000D+00 -0.114936D-01 -0.612924D-02  0.000000D+00 -0.696583D-02
     30 -0.449716D-01  0.000000D+00  0.000000D+00 -0.474274D-02  0.000000D+00
     31  0.000000D+00  0.179938D+00 -0.492354D-01  0.000000D+00  0.784102D-02
     32  0.000000D+00 -0.310346D-01 -0.388427D-01  0.000000D+00  0.519027D-03
     33  0.657154D-01  0.000000D+00  0.000000D+00 -0.374731D-01  0.000000D+00
     34  0.000000D+00 -0.324902D+01 -0.129779D+01 -0.138960D-05  0.537741D-02
     35  0.000000D+00 -0.134489D+01 -0.210878D+01  0.203935D-05  0.430514D-01
     36  0.233283D-01 -0.115665D-05  0.164809D-05 -0.405925D+01  0.000000D+00
               26            27            28            29            30 
     26  0.239178D+01
     27 -0.379204D-05  0.456820D+01
     28 -0.581377D-02  0.000000D+00  0.298094D+01
     29  0.544010D-02  0.000000D+00  0.151912D+01  0.205449D+01
     30  0.000000D+00 -0.144178D-02  0.000000D+00  0.000000D+00  0.388239D+01
     31 -0.609071D-02  0.000000D+00 -0.676909D-02  0.110427D-02  0.000000D+00
     32 -0.958387D-03  0.000000D+00 -0.184460D-01 -0.228478D-01  0.000000D+00
     33  0.000000D+00  0.269795D-03  0.000000D+00  0.000000D+00  0.221924D-02
     34  0.166699D-01  0.000000D+00  0.496853D-02 -0.814624D-02  0.000000D+00
     35 -0.527111D-02  0.000000D+00 -0.868892D-02  0.109014D-01  0.000000D+00
     36  0.000000D+00 -0.153099D-01  0.000000D+00  0.000000D+00 -0.182377D-02
               31            32            33            34            35 
     31  0.931553D+00
     32 -0.390570D+00  0.396175D+01
     33  0.000000D+00  0.000000D+00  0.381632D+01
     34  0.110995D-01  0.206712D-03  0.000000D+00  0.315389D+01
     35 -0.134184D-01 -0.477104D-03  0.000000D+00  0.145298D+01  0.190935D+01
     36  0.000000D+00  0.000000D+00 -0.281231D-02  0.122969D-05 -0.175161D-05
               36 
     36  0.404398D+01
 Leave Link  701 at Mon Mar  2 00:56:52 2020, MaxMem=  1879048192 cpu:              69.6 elap:               2.0
 (Enter /opt/g16/l702.exe)
 L702 exits ... SP integral derivatives will be done elsewhere.
 Leave Link  702 at Mon Mar  2 00:56:52 2020, MaxMem=  1879048192 cpu:               2.7 elap:               0.1
 (Enter /opt/g16/l703.exe)
 Integral derivatives from FoFJK, PRISM(SPDF).
 Compute integral second derivatives, UseDBF=F ICtDFT=           0.
 ICntrl=    100127.
 Calling FoFJK, ICntrl=    100127 FMM=F ISym2X=0 I1Cent= 0 IOpClX= 1 NMat=1 NMatS=1 NMatT=0.
 FoFJK:  IHMeth= 1 ICntrl=  100127 DoSepK=T KAlg= 0 I1Cent=           0 FoldK=F
 IRaf=         1 NMat=       1 IRICut=       1 DoRegI=T DoRafI=F ISym2E= 0 IDoP0=0 IntGTp=1.
 FoFCou: FMM=F IPFlag=           0 FMFlag=      100000 FMFlg1=         800
         NFxFlg=           0 DoJE=F BraDBF=F KetDBF=F FulRan=T
         wScrn=  0.000000 ICntrl=    100527 IOpCl=  0 I1Cent=           0 NGrid=           0
         NMat0=    1 NMatS0=      1 NMatT0=    0 NMatD0=    1 NMtDS0=    0 NMtDT0=    0
 Symmetry not used in FoFCou.
 FoFCou:  KetSym=F NOpSet=  1 NOpAb=1 NOp=  1.
 FoFCou:  CnvScl= 1.00D+00 Thresh= 1.00D-12 IAcrcy=      10.
 PrismS was handed  1878566954 working-precision words and  4677 shell-pairs
 FoFCou: LinMIO=F DoNuc=F BraDBF=F KetDBF=F HaveP=T PDBF=F HaveZ=T HaveW=F
         NIJTC =      10 NIJTAt=       0 NIJTCD=       0 NIJTT =      10
         IJTBeg=       1 IJTEnd=      10 KLTBeg=       1 KLTEnd=      10
         IPTBeg=       1 IPTEnd=      10 IPTBCv=       1 IPTECv=      10
         IZTBeg=       1 IZTEnd=      10 IZTBCv=       1 IZTECv=      10
         IWTBeg=      11 IWTEnd=      10 IWTBCv=      11 IWTECv=      10
         INTBeg=       1 INTEnd=       0 IFTBCv=       1 IFTECv=      10
 NCel replicated for PrismC:     1
 CoulSu-InSpLW:  IPartL=    0 NPrtUS=   36 NPrtUL=    1 DoSpLW=F IThBeg=    0 IThEnd=   35 NThAct=   36.
 CoulSu:  IncTry=  1024 NBBP=       10939503 NTPThr=   100 NPartT=   36 Incr=        1024 LDynOK=F GPUOK=F.
 CoulSu:  NPrtUS=  36 ThrOK=T IAlg=2 LenDen=           0 LWGrdD=           0 DoCopy=F ISkipM=0
          DoSpLW=F IThBeg=    0 IThEnd=   35.
 Enter PrismC:  IPart=  0 JobTyp=22 DoJE=F Cont=F.
 PrismC:  IPart=     0 DynPar=T LinDyn=F Incr=        1024 UseFst=F UseS4=T ISplat=2.
 PrismC was handed    52087942 working-precision words and  4677 shell-pairs
 Enter PrismC:  IPart= 16 JobTyp=22 DoJE=F Cont=F.
 PrismC:  IPart=    16 DynPar=T LinDyn=F Incr=        1024 UseFst=F UseS4=T ISplat=2.
 PrismC was handed    52087942 working-precision words and  4677 shell-pairs
 Enter PrismC:  IPart= 22 JobTyp=22 DoJE=F Cont=F.
 Enter PrismC:  IPart= 14 JobTyp=22 DoJE=F Cont=F.
 Enter PrismC:  IPart= 21 JobTyp=22 DoJE=F Cont=F.
 Enter PrismC:  IPart= 25 JobTyp=22 DoJE=F Cont=F.
 PrismC:  IPart=    21 DynPar=T LinDyn=F Incr=        1024 UseFst=F UseS4=T ISplat=2.
 PrismC was handed    52087942 working-precision words and  4677 shell-pairs
 PrismC:  IPart=    22 DynPar=T LinDyn=F Incr=        1024 UseFst=F UseS4=T ISplat=2.
 PrismC was handed    52087942 working-precision words and  4677 shell-pairs
 PrismC:  IPart=    25 DynPar=T LinDyn=F Incr=        1024 UseFst=F UseS4=T ISplat=2.
 PrismC:  IPart=    14 DynPar=T LinDyn=F Incr=        1024 UseFst=F UseS4=T ISplat=2.
 PrismC was handed    52087942 working-precision words and  4677 shell-pairs
 PrismC was handed    52087942 working-precision words and  4677 shell-pairs
 Enter PrismC:  IPart= 17 JobTyp=22 DoJE=F Cont=F.
 PrismC:  IPart=    17 DynPar=T LinDyn=F Incr=        1024 UseFst=F UseS4=T ISplat=2.
 PrismC was handed    52087942 working-precision words and  4677 shell-pairs
 Enter PrismC:  IPart=  1 JobTyp=22 DoJE=F Cont=F.
 Enter PrismC:  IPart= 19 JobTyp=22 DoJE=F Cont=F.
 Enter PrismC:  IPart= 33 JobTyp=22 DoJE=F Cont=F.
 PrismC:  IPart=    33 DynPar=T LinDyn=F Incr=        1024 UseFst=F UseS4=T ISplat=2.
 PrismC was handed    52087942 working-precision words and  4677 shell-pairs
 Enter PrismC:  IPart= 35 JobTyp=22 DoJE=F Cont=F.
 PrismC:  IPart=    19 DynPar=T LinDyn=F Incr=        1024 UseFst=F UseS4=T ISplat=2.
 PrismC was handed    52087942 working-precision words and  4677 shell-pairs
 PrismC:  IPart=     1 DynPar=T LinDyn=F Incr=        1024 UseFst=F UseS4=T ISplat=2.
 PrismC was handed    52087942 working-precision words and  4677 shell-pairs
 PrismC:  IPart=    35 DynPar=T LinDyn=F Incr=        1024 UseFst=F UseS4=T ISplat=2.
 PrismC was handed    52087942 working-precision words and  4677 shell-pairs
 Enter PrismC:  IPart= 30 JobTyp=22 DoJE=F Cont=F.
 Enter PrismC:  IPart=  3 JobTyp=22 DoJE=F Cont=F.
 PrismC:  IPart=    30 DynPar=T LinDyn=F Incr=        1024 UseFst=F UseS4=T ISplat=2.
 PrismC was handed    52087942 working-precision words and  4677 shell-pairs
 PrismC:  IPart=     3 DynPar=T LinDyn=F Incr=        1024 UseFst=F UseS4=T ISplat=2.
 PrismC was handed    52087942 working-precision words and  4677 shell-pairs
 Enter PrismC:  IPart= 34 JobTyp=22 DoJE=F Cont=F.
 PrismC:  IPart=    34 DynPar=T LinDyn=F Incr=        1024 UseFst=F UseS4=T ISplat=2.
 PrismC was handed    52087942 working-precision words and  4677 shell-pairs
 Enter PrismC:  IPart=  4 JobTyp=22 DoJE=F Cont=F.
 PrismC:  IPart=     4 DynPar=T LinDyn=F Incr=        1024 UseFst=F UseS4=T ISplat=2.
 PrismC was handed    52087942 working-precision words and  4677 shell-pairs
 Enter PrismC:  IPart= 18 JobTyp=22 DoJE=F Cont=F.
 Enter PrismC:  IPart= 26 JobTyp=22 DoJE=F Cont=F.
 PrismC:  IPart=    18 DynPar=T LinDyn=F Incr=        1024 UseFst=F UseS4=T ISplat=2.
 PrismC was handed    52087942 working-precision words and  4677 shell-pairs
 PrismC:  IPart=    26 DynPar=T LinDyn=F Incr=        1024 UseFst=F UseS4=T ISplat=2.
 PrismC was handed    52087942 working-precision words and  4677 shell-pairs
 Enter PrismC:  IPart= 13 JobTyp=22 DoJE=F Cont=F.
 Enter PrismC:  IPart=  6 JobTyp=22 DoJE=F Cont=F.
 Enter PrismC:  IPart= 15 JobTyp=22 DoJE=F Cont=F.
 PrismC:  IPart=    15 DynPar=T LinDyn=F Incr=        1024 UseFst=F UseS4=T ISplat=2.
 PrismC was handed    52087942 working-precision words and  4677 shell-pairs
 PrismC:  IPart=    13 DynPar=T LinDyn=F Incr=        1024 UseFst=F UseS4=T ISplat=2.
 PrismC was handed    52087942 working-precision words and  4677 shell-pairs
 PrismC:  IPart=     6 DynPar=T LinDyn=F Incr=        1024 UseFst=F UseS4=T ISplat=2.
 PrismC was handed    52087942 working-precision words and  4677 shell-pairs
 Enter PrismC:  IPart= 20 JobTyp=22 DoJE=F Cont=F.
 Enter PrismC:  IPart=  9 JobTyp=22 DoJE=F Cont=F.
 PrismC:  IPart=     9 DynPar=T LinDyn=F Incr=        1024 UseFst=F UseS4=T ISplat=2.
 PrismC was handed    52087942 working-precision words and  4677 shell-pairs
 Enter PrismC:  IPart=  2 JobTyp=22 DoJE=F Cont=F.
[...]
     32  0.306319D-04 -0.403001D-05  0.676482D-03  0.108081D-02  0.393515D-04
     33  0.549664D-05  0.850563D-03  0.293134D-03 -0.227879D-04 -0.346065D-02
     34  0.539087D-03 -0.170869D-04  0.969995D-05  0.104341D-03  0.390415D-04
     35 -0.942615D-04 -0.141339D-03  0.630436D-04 -0.291199D-04  0.350056D-05
     36  0.385423D-04 -0.185743D-03  0.391256D-04  0.646708D-05 -0.533961D-03
               31            32            33            34            35 
     31  0.351606D+00
     32  0.559552D-01  0.658983D-01
     33  0.235299D-01  0.393140D-02  0.241429D-01
     34 -0.427015D-03  0.869774D-03  0.579235D-04  0.178722D+00
     35 -0.239127D-03  0.293442D-03 -0.203196D-04 -0.149446D+00  0.233567D+00
     36  0.601693D-04  0.593342D-04 -0.125370D-02  0.116406D-01 -0.111659D-01
               36 
     36  0.217427D-01
 Final forces over variables, Energy=-2.86262050D+02:
 -5.48816143D-06 1.60866727D-05 1.87902378D-06 2.10670283D-06
 -4.68339341D-06-6.15499198D-06 3.87245517D-06-3.15017722D-06
 -2.54436425D-06-6.21686604D-07-2.56104853D-06 1.25896890D-06
 -6.08839387D-06 2.88087795D-06 4.68695816D-06 1.87758351D-06
 -1.16174308D-06 5.06923001D-06-6.90877974D-06-1.72906931D-06
  3.79009535D-06 1.35567054D-06-1.45079583D-06-2.32163383D-06
 -3.24505299D-07 1.22263298D-06-3.20366725D-08 1.58660635D-07
 -2.15957731D-07-5.01381124D-07 2.58829154D-07-1.35242610D-07
 -2.51457981D-07-5.90732173D-08-1.73865634D-07 5.33975004D-08
 Leave Link  716 at Mon Mar  2 00:59:00 2020, MaxMem=  1879048192 cpu:              14.6 elap:               0.4
 (Enter /opt/g16/l103.exe)

 GradGradGradGradGradGradGradGradGradGradGradGradGradGradGradGradGradGrad
 Berny optimization.
 Search for a local minimum.
 Step number   1 out of a maximum of    2
 All quantities printed in internal units (Hartrees-Bohrs-Radians)
 Second derivative matrix not updated -- analytic derivatives used.
 ITU=  0
     Eigenvalues ---    0.00561   0.01534   0.02257   0.02543   0.03103
     Eigenvalues ---    0.04944   0.05214   0.05918   0.05958   0.07793
     Eigenvalues ---    0.08392   0.09755   0.12011   0.15605   0.17807
     Eigenvalues ---    0.20252   0.20606   0.27937   0.28653   0.39645
     Eigenvalues ---    0.50313   0.68687   0.69220   0.75172   0.81400
     Eigenvalues ---    0.95558   1.01724   1.10854   1.12701   1.26200
 Angle between quadratic step and forces=  43.55 degrees.
 Linear search not attempted -- first point.
 B after Tr=     0.000000   -0.000000    0.000000
         Rot=    1.000000   -0.000000    0.000000    0.000000 Ang=   0.00 deg.
 Variable       Old X    -DE/DX   Delta X   Delta X   Delta X     New X
                                 (Linear)    (Quad)   (Total)
    X1        4.25949  -0.00001   0.00000  -0.00000  -0.00000   4.25949
    Y1        0.86712  -0.00001   0.00000  -0.00000  -0.00000   0.86712
    Z1        0.30421  -0.00000   0.00000   0.00000   0.00000   0.30421
    X2        1.83075   0.00002   0.00000   0.00003   0.00003   1.83078
    Y2        0.27720   0.00000   0.00000   0.00001   0.00001   0.27721
    Z2        0.13094   0.00000   0.00000   0.00000   0.00000   0.13095
    X3        0.03288   0.00000   0.00000   0.00000   0.00001   0.03289
    Y3        2.28422   0.00000   0.00000   0.00001   0.00001   2.28423
    Z3       -0.00226  -0.00000   0.00000  -0.00000  -0.00000  -0.00226
    X4        0.76466   0.00000   0.00000   0.00002   0.00002   0.76468
    Y4        4.19238   0.00000   0.00000   0.00002   0.00002   4.19240
    Z4        0.04644   0.00000   0.00000   0.00000   0.00000   0.04644
    X5       -2.51594  -0.00000   0.00000  -0.00001  -0.00001  -2.51595
    Y5        1.82120  -0.00000   0.00000   0.00000   0.00000   1.82120
    Z5       -0.18441  -0.00000   0.00000  -0.00000  -0.00000  -0.18441
    X6       -3.43133  -0.00001   0.00000  -0.00002  -0.00002  -3.43135
    Y6       -0.66548   0.00001   0.00000   0.00000   0.00000  -0.66548
    Z6       -0.24513  -0.00000   0.00000  -0.00000  -0.00000  -0.24513
    X7       -1.65654   0.00000   0.00000   0.00000   0.00000  -1.65654
    Y7       -2.56591  -0.00001   0.00000  -0.00001  -0.00001  -2.56592
    Z7       -0.11380   0.00000   0.00000  -0.00000  -0.00000  -0.11380
    X8        0.87332  -0.00000   0.00000  -0.00000  -0.00000   0.87332
    Y8       -2.26875  -0.00000   0.00000  -0.00001  -0.00001  -2.26876
    Z8        0.06733  -0.00000   0.00000   0.00000   0.00000   0.06733
    X9        5.32371  -0.00000   0.00000   0.00001   0.00001   5.32371
    Y9       -0.73783   0.00000   0.00000   0.00002   0.00002  -0.73782
    Z9        0.38391  -0.00000   0.00000  -0.00000  -0.00000   0.38391
   X10       -3.83732  -0.00000   0.00000  -0.00001  -0.00001  -3.83733
   Y10        3.38110   0.00000   0.00000   0.00001   0.00001   3.38111
   Z10       -0.28249  -0.00000   0.00000  -0.00000  -0.00000  -0.28249
   X11       -5.43464  -0.00000   0.00000  -0.00002  -0.00002  -5.43466
   Y11       -1.05066  -0.00000   0.00000  -0.00002  -0.00002  -1.05068
   Z11       -0.38825  -0.00000   0.00000  -0.00000  -0.00000  -0.38826
   X12        2.17917   0.00000   0.00000  -0.00000  -0.00000   2.17917
   Y12       -3.84432  -0.00000   0.00000  -0.00002  -0.00002  -3.84434
   Z12        0.16432   0.00000   0.00000  -0.00000  -0.00000   0.16432
         Item               Value     Threshold  Converged?
 Maximum Force            0.000016     0.000450     YES
 RMS     Force            0.000004     0.000300     YES
 Maximum Displacement     0.000029     0.001800     YES
 RMS     Displacement     0.000011     0.001200     YES
 Predicted change in Energy=-5.666577D-10
 Optimization completed.
    -- Stationary point found.
 GradGradGradGradGradGradGradGradGradGradGradGradGradGradGradGradGradGrad

 Leave Link  103 at Mon Mar  2 00:59:00 2020, MaxMem=  1879048192 cpu:              11.8 elap:               0.4
 (Enter /opt/g16/l9999.exe)

 ----------------------------------------------------------------------

 Electric dipole moment (input orientation):
 (Debye = 10**-18 statcoulomb cm , SI units = C m)
                  (au)            (Debye)         (10**-30 SI)
   Tot        0.652353D+00      0.165812D+01      0.553088D+01
   x         -0.584367D+00     -0.148531D+01     -0.495447D+01
   y         -0.286995D+00     -0.729469D+00     -0.243325D+01
   z         -0.413944D-01     -0.105214D+00     -0.350957D+00

 Dipole polarizability, Alpha (input orientation).
 (esu units = cm**3 , SI units = C**2 m**2 J**-1)
 Alpha(0;0):
               (au)            (10**-24 esu)      (10**-40 SI)
   iso        0.756703D+02      0.112132D+02      0.124763D+02
   aniso      0.575739D+02      0.853158D+01      0.949266D+01
   xx         0.107441D+03      0.159210D+02      0.177145D+02
   yx         0.179119D+01      0.265427D+00      0.295327D+00
   yy         0.777377D+02      0.115195D+02      0.128172D+02
   zx         0.473353D+01      0.701437D+00      0.780454D+00
   zy         0.552528D-01      0.818762D-02      0.910996D-02
   zz         0.418327D+02      0.619897D+01      0.689728D+01

 ----------------------------------------------------------------------

 Dipole orientation:
     7          0.51761258         -0.97059623         -4.21636711
     6          0.26282790         -0.49284070         -1.77021672
     6         -0.95849567          1.79733046         -1.03422754
     1         -1.61301448          3.02465674         -2.53230737
     6         -1.29183320          2.42238295          1.46422606
     6         -0.43093908          0.80807150          3.38205377
     6          0.74054957         -1.38864902          2.61996607
     6          1.14004313         -2.13775877          0.21152932
     1          1.41675376         -2.65662013         -4.46864729
     1         -2.22531085          4.17279741          1.96785828
     1         -0.68395269          1.28250699          5.35512147
     1          2.07691491         -3.89453478         -0.27122914

 Electric dipole moment (dipole orientation):
 (Debye = 10**-18 statcoulomb cm , SI units = C m)
                  (au)            (Debye)         (10**-30 SI)
   Tot        0.652353D+00      0.165812D+01      0.553088D+01
   x          0.000000D+00      0.000000D+00      0.000000D+00
   y          0.000000D+00      0.000000D+00      0.000000D+00
   z          0.652353D+00      0.165812D+01      0.553088D+01

 Dipole polarizability, Alpha (dipole orientation).
 (esu units = cm**3 , SI units = C**2 m**2 J**-1)
 Alpha(0;0):
               (au)            (10**-24 esu)      (10**-40 SI)
   iso        0.756703D+02      0.112132D+02      0.124763D+02
   aniso      0.575739D+02      0.853158D+01      0.949266D+01
   xx         0.504926D+02      0.748223D+01      0.832510D+01
   yx        -0.168760D+02     -0.250076D+01     -0.278247D+01
   yy         0.731379D+02      0.108379D+02      0.120588D+02
   zx        -0.506873D+01     -0.751108D+00     -0.835721D+00
   zy         0.950454D+01      0.140843D+01      0.156709D+01
   zz         0.103380D+03      0.153194D+02      0.170451D+02

 ----------------------------------------------------------------------

 Test job not archived.
 1\1\GINC-NODE08\Freq\UwB97XD\def2TZVP\C6H5N1(3)\ALONGD\02-Mar-2020\0\\
 #P guess=read uwb97xd/def2tzvp freq iop(7/33=1) scf=(tight, direct) in
 tegral=(grid=ultrafine, Acc2E=12) scf=xqc iop(2/9=2000)\\name\\0,3\N,2
 .254027,0.458861,0.160982\C,0.968792,0.146688,0.069293\C,0.017401,1.20
 8756,-0.001198\H,0.404641,2.218514,0.024573\C,-1.331379,0.963736,-0.09
 7588\C,-1.815781,-0.352159,-0.129718\C,-0.876604,-1.357822,-0.060218\C
 ,0.462143,-1.200571,0.035628\H,2.817184,-0.390444,0.203156\H,-2.030624
 ,1.789203,-0.149488\H,-2.8758879996,-0.555984,-0.205455005\H,1.153167,
 -2.034324,0.086955\\Version=ES64L-G16RevB.01\State=3-A\HF=-286.2620498
 \S2=2.041437\S2-1=0.\S2A=2.000641\RMSD=4.178e-09\RMSF=3.983e-06\ZeroPo
 int=0.09141\Thermal=0.0967057\Dipole=-0.5843668,-0.286995,-0.0413944\D
 ipoleDeriv=-0.2249031,-0.0852364,0.0153195,-0.1356853,-0.1259425,-0.01
 03742,0.0154217,-0.0067506,-0.4346444,-0.2372924,0.030255,-0.0233258,0
 .0234965,0.1645317,0.00153,-0.0233122,0.0020156,0.0849008,0.1183218,0.
 1719059,0.0160488,0.0271568,0.0214433,0.0016846,0.016342,0.0120818,-0.
 108796,0.0604796,-0.0418399,-0.0055015,-0.0181704,-0.0068225,-0.001011
 4,-0.0055494,-0.0027114,0.1378539,-0.0146013,-0.1674007,0.0085579,-0.1
 542699,-0.0066382,-0.0113295,0.008531,-0.0122721,-0.1283818,0.1512215,
 -0.0142744,0.014369,-0.0550327,0.0565303,-0.0041656,0.0144519,-0.00123
 8,-0.0473714,-0.3006736,0.0650318,-0.0124099,0.0700069,-0.1023532,0.00
 49733,-0.0124202,0.0046161,-0.1306456,0.1714553,-0.1079835,0.0162892,-
 0.0337026,-0.110084,-0.0023039,0.0161391,-0.0076402,-0.0510935,0.27110
 84,0.0373037,0.0019794,0.1671925,-0.0073517,0.012516,0.0017163,0.00318
 59,0.2426172,0.0134086,0.0584106,-0.0085645,0.0830348,-0.0178168,0.006
 266,-0.0086141,0.0044969,0.1303627,-0.0203009,-0.0176137,-0.0118563,-0
 .0149745,0.0940409,-0.0009719,-0.0118618,-0.0011615,0.1444017,0.011776
 2,0.0714415,-0.0109059,0.0409478,0.0404627,0.0031867,-0.0108443,0.0053
 774,0.1607965\Polar=107.4405081,1.7911874,77.7377162,4.7335337,0.05525
 28,41.8327147\Quadrupole=1.3990036,0.9691826,-2.3681862,-4.9892964,0.2
 822235,-0.3651946\PG=C01 [X(C6H5N1)]\NImag=0\\0.55593007,-0.10560036,0
 .42794300,0.03686887,-0.00836012,0.04831303,-0.28895620,-0.01322735,-0
 .01738643,0.57577582,-0.07443710,-0.11453689,-0.00520926,-0.02380231,0
 .60077351,-0.01726237,-0.00081242,-0.04778079,0.03006810,-0.00260681,0
 .16002390,-0.09482113,0.01929896,-0.00681254,-0.10146326,0.07200810,-0
 .00227201,0.68325980,0.03368444,0.02048697,0.00237706,0.05377468,-0.23
 214867,0.00418734,0.07331127,0.69626337,-0.00684170,0.00134372,-0.0010
 1944,-0.00223510,0.00549707,-0.07203497,0.03912936,0.00413233,0.139262
 05,0.00155554,-0.00034162,0.00035325,0.00979478,0.01987266,0.00029324,
 -0.09350822,-0.09565710,-0.00388355,0.09458501,-0.00212021,0.00161422,
 -0.00016236,-0.01044166,-0.01828269,-0.00070258,-0.09442132,-0.3118281
 4,-0.00622532,0.10231295,0.32759592,0.00035685,-0.00003460,-0.00332683
 ,0.00035464,0.00147495,0.00517464,-0.00388604,-0.00631406,-0.03701306,
 0.00481205,0.00673587,0.02504188,0.01988504,0.00898917,0.00084939,-0.0
 6781380,0.03173715,-0.00501596,-0.34355762,-0.06859055,-0.02012832,-0.
 00457726,0.00159898,-0.00067224,0.68689502,0.02179077,0.00060355,0.001
 57986,-0.01135925,0.03535128,-0.00088529,0.01224066,-0.13998079,0.0010
 3840,-0.02891250,0.00095852,-0.00206921,-0.06856172,0.66378986,0.00082
 346,0.00066030,0.00786457,-0.00492862,0.00221042,0.00076143,-0.0202920
 6,-0.00476789,-0.06285943,-0.00061044,0.00012251,0.00469205,0.04001699
 ,-0.00600256,0.13462510,-0.01844649,-0.00189728,-0.00127897,0.02786548
 ,0.01314729,0.00233802,-0.01292667,-0.03109243,-0.00135082,-0.00518794
 ,-0.00023504,-0.00089103,-0.13995212,-0.09791881,-0.00556304,0.7275294
 7,0.00071655,-0.00124910,0.00005281,0.01173335,-0.04566977,0.00092509,
 -0.09725329,0.00129420,-0.00697487,-0.00078251,0.00155695,-0.00004473,
 0.00606349,-0.26245233,0.00084618,0.00994474,0.55748746,-0.00128427,-0
 .00013495,-0.00067989,0.00234088,0.00102667,-0.00488755,-0.00121683,-0
 .00222239,0.00667259,-0.00088992,-0.00000541,0.00715904,-0.00577365,-0
 .00662309,-0.06014718,0.04357419,-0.00017050,0.12376800,0.03518431,0.0
 0316824,0.00238260,-0.07262276,-0.07536660,-0.00597622,-0.05094556,0.0
 0369781,-0.00338287,-0.00141210,0.00102804,-0.00003077,0.06802124,0.06
 221985,0.00380243,-0.19381942,0.06973924,-0.01051135,0.60827374,-0.015
 35824,-0.00998214,-0.00107909,-0.01646183,0.01953774,-0.00119633,0.017
 94294,-0.00526634,0.00129154,0.00085293,0.00042006,0.00005837,-0.00033
 796,-0.06283454,0.00012999,0.12409721,-0.21097866,0.00924133,-0.076095
 04,0.36775328,0.00242014,0.00025170,0.00209906,-0.00609555,-0.00542758
 ,0.01227290,-0.00341170,0.00026827,-0.00420159,-0.00003041,0.00007094,
 -0.00101509,0.00392912,0.00462365,0.01360486,-0.01062144,0.00533668,-0
 .05022754,0.03908222,-0.00607659,0.06916007,-0.06565516,-0.05112144,-0
 .00603653,-0.05894406,0.00888237,0.00073576,0.03424319,0.01234536,0.00
 192492,-0.00228591,0.00301870,-0.00044687,-0.03604855,-0.03060351,-0.0
 0235725,-0.05917051,0.06759352,-0.00468477,-0.36162534,-0.05244986,-0.
 02249787,0.71516644,-0.05980188,-0.01967237,-0.00421569,0.00862764,-0.
 22591252,0.00093665,0.00603111,-0.02897120,0.00050629,0.00317207,-0.00
 244732,0.00024061,-0.02022869,-0.01205005,-0.00143347,0.01822645,0.043
 15585,0.00123022,-0.00638565,-0.10987110,-0.00033121,-0.09407324,0.577
 12174,-0.00601896,-0.00359216,0.01939801,0.00073627,0.00095496,-0.0693
 8676,0.00193771,0.00095984,0.00723496,-0.00044718,0.00022959,0.0038174
 5,-0.00237824,-0.00217870,-0.00253608,-0.00458478,0.00477635,0.0038030
 1,-0.02259121,-0.00364010,-0.04855918,0.04302640,-0.00768583,0.1219394
 5,-0.14617362,0.13983105,-0.00929487,-0.02846155,0.04109482,-0.0022398
 5,-0.00685384,-0.00317459,-0.00121986,0.00011644,-0.00004637,0.0000006
 5,-0.00005863,0.00239079,0.00016194,-0.00021349,-0.00022961,-0.0000224
 3,0.00122149,0.00003699,0.00004347,0.00212913,0.00147516,0.00060067,0.
 17916593,0.19935132,-0.30873297,0.01490349,-0.01728557,0.00001245,-0.0
 0123852,0.00098299,0.00103937,0.00008921,-0.00056934,0.00066242,-0.000
 04202,0.00009357,-0.00020524,0.00000231,-0.00027162,-0.00017277,-0.000
 01895,-0.00033152,0.00034787,-0.00002327,-0.00349681,0.00293992,-0.000
 26985,-0.17914816,0.30415383,-0.00941551,0.01062801,-0.02141986,-0.002
 12151,0.00295509,0.00140270,-0.00122829,-0.00020944,0.01012980,0.00000
 171,-0.00000445,0.00010888,0.00016661,0.00016734,-0.00236884,-0.000022
 35,-0.00001594,0.00010364,0.00004422,0.00000320,0.00061850,0.00061073,
 0.00008729,-0.00623088,0.01203628,-0.01345121,0.01755092,-0.00076968,0
 .00148536,-0.00006660,-0.00348756,-0.00353695,-0.00084243,-0.01460998,
 0.02594161,-0.00139156,0.00076644,-0.00041540,0.00038876,-0.17692278,0
 .13843507,-0.01022747,0.00963464,-0.01090126,0.00039892,0.00101888,-0.
 00261183,-0.00031558,-0.00062388,-0.00005968,-0.00000305,-0.00051660,0
 .00008280,0.00000294,0.18488266,-0.00011140,0.00052949,-0.00000884,-0.
 00157413,0.00024353,-0.00009668,-0.00562325,0.00858718,-0.00041316,0.0
 0030186,0.00069259,0.00001090,0.13943077,-0.22314957,0.01038968,0.0197
 9173,-0.01747286,0.00146596,-0.00151199,-0.00581812,-0.00008571,-0.001
 27440,0.00111972,-0.00009498,-0.00018570,0.00001874,-0.00001451,-0.149
 15924,0.23419762,-0.00006336,0.00010586,0.00011084,-0.00084641,-0.0002
 3767,0.00827954,-0.00132764,0.00185422,0.00393191,0.00038730,-0.000040
 63,-0.00460594,-0.01022947,0.01031813,-0.03920156,0.00033675,-0.000738
 77,0.00441420,-0.00031780,-0.00016472,0.00546339,-0.00000059,-0.000007
 73,-0.00057977,0.00000349,0.00000478,-0.00055968,0.01172380,-0.0111363
 3,0.02674168,0.00003645,-0.00012384,0.00014988,0.00045786,0.00051858,-
 0.00010782,0.00137158,-0.00191454,-0.00034346,-0.00034438,0.00009853,-
 0.00001959,-0.00553461,0.00112333,-0.00071465,-0.33047216,-0.05614453,
 -0.02115063,-0.01636616,-0.00107160,-0.00117651,-0.00099800,0.00193334
 ,-0.00046442,0.00005219,0.00005327,-0.00005775,0.00061815,-0.00018860,
 0.00029489,0.35160608,-0.00008957,0.00018800,-0.00001096,-0.00002754,-
 0.00130365,0.00000460,-0.00144381,-0.00525120,-0.00008050,-0.00129131,
 -0.00004345,-0.00009282,-0.02954293,0.00036101,-0.00211399,-0.05097338
 ,-0.06614518,-0.00359731,0.02143810,0.00815121,0.00152352,0.00450836,-
 0.00325990,0.00034141,-0.00007934,0.00003063,-0.00000403,0.00067648,0.
 00108081,0.00003935,0.05595519,0.06589827,0.00014981,-0.00001342,-0.00
 203574,-0.00010672,0.00004383,0.00193653,-0.00034441,-0.00011431,0.006
 18255,-0.00001677,0.00000701,-0.00007568,-0.00065253,0.00008883,0.0043
 3548,-0.02116112,-0.00396877,-0.03595603,-0.00122210,-0.00009340,-0.00
 004493,-0.00046963,0.00015644,0.00537873,-0.00005749,0.00000550,0.0008
 5056,0.00029313,-0.00002279,-0.00346065,0.02352991,0.00393140,0.024142
 87,0.00223086,-0.00046090,0.00027196,0.00785525,-0.01011799,0.00028153
 ,-0.00018829,-0.00232597,-0.00027705,0.00049759,-0.00037720,0.00003361
 ,-0.00033592,-0.00084468,-0.00011131,-0.00484080,-0.00047968,-0.000780
 14,-0.01692831,0.02145628,-0.00132587,-0.16618733,0.14108339,-0.009813
 21,-0.00040746,0.00053909,-0.00001709,0.00000970,0.00010434,0.00003904
 ,-0.00042701,0.00086977,0.00005792,0.17872171,0.00197568,0.00280824,0.
 00013311,0.02004397,-0.01806433,0.00148495,-0.00307435,-0.00422477,-0.
 00020471,0.00104190,-0.00089910,0.00007674,-0.00065127,-0.00039171,-0.
 00004348,-0.00281885,0.00064621,-0.00019157,-0.00160046,0.00854074,-0.
 00013039,0.13667095,-0.22215275,0.01019947,-0.00196504,-0.00009426,-0.
 00014134,0.00006304,-0.00002912,0.00000350,-0.00023913,0.00029344,-0.0
 0002032,-0.14944645,0.23356742,0.00026703,-0.00004192,-0.00152297,0.00
 022044,-0.00068167,0.00423844,-0.00027553,-0.00015096,0.00371465,0.000
 03073,-0.00002519,0.00004265,-0.00011171,-0.00005737,0.00122960,-0.000
 77540,-0.00002354,0.00597772,-0.00127915,0.00152581,0.00082956,-0.0098
 0430,0.01051645,-0.03427894,-0.00001201,0.00003854,-0.00018574,0.00003
 913,0.00000647,-0.00053396,0.00006017,0.00005933,-0.00125370,0.0116406
 1,-0.01116595,0.02174269\\0.00000549,0.00000609,0.00000032,-0.00001609
 ,-0.00000288,-0.00000122,-0.00000188,-0.00000469,0.00000003,-0.0000021
 1,-0.00000188,-0.00000016,0.00000468,0.00000116,0.00000022,0.00000615,
 -0.00000507,0.00000050,-0.00000387,0.00000691,-0.00000026,0.00000315,0
 .00000173,0.00000014,0.00000254,-0.00000379,0.00000025,0.00000062,-0.0
 0000136,0.00000006,0.00000256,0.00000145,0.00000017,-0.00000126,0.0000
 0232,-0.00000005\\\@


 I take a simple view of life: keep your eyes open and get on with it.
 -- Laurence Olivier
 Job cpu time:       0 days  4 hours  5 minutes  1.0 seconds.
 Elapsed time:       0 days  0 hours  6 minutes 49.1 seconds.
 File lengths (MBytes):  RWF=    129 Int=      0 D2E=      0 Chk=      8 Scr=      1
 Normal termination of Gaussian 16 at Mon Mar  2 00:59:00 2020.
